<?xml version="1.0"?>
<VTKFile type="UnstructuredGrid" version="0.1" byte_order="LittleEndian">
<UnstructuredGrid>
<Piece NumberOfPoints="6444" NumberOfCells="2148">
<Points>
<DataArray type="Float64" NumberOfComponents="3" format="ascii">
1.854221989851703e+00 4.919057320353651e+00 0.000000000000000e+00 1.894736842105409e+00 5.000000000000000e+00 0.000000000000000e+00 1.789473684210819e+00 5.000000000000000e+00 0.000000000000000e+00 1.761727974207509e+00 4.890294137299613e+00 0.000000000000000e+00 1.854221989851703e+00 4.919057320353651e+00 0.000000000000000e+00 1.789473684210819e+00 5.000000000000000e+00 0.000000000000000e+00 9.126921108264911e-02 4.747437874729231e+00 0.000000000000000e+00 0.000000000000000e+00 4.795918367346939e+00 0.000000000000000e+00 0.000000000000000e+00 4.693877551020408e+00 0.000000000000000e+00 0.000000000000000e+00 3.061224489795924e-01 0.000000000000000e+00 0.000000000000000e+00 2.040816326530610e-01 0.000000000000000e+00 9.632609441615088e-02 2.738115102943669e-01 0.000000000000000e+00 2.000000000000000e+00 4.693877551019979e+00 0.000000000000000e+00 2.000000000000000e+00 4.795918367346652e+00 0.000000000000000e+00 1.886180073786021e+00 4.742892287486169e+00 0.000000000000000e+00 2.000000000000000e+00 1.020408163263281e-01 0.000000000000000e+00 2.000000000000000e+00 2.040816326526563e-01 0.000000000000000e+00 1.916826065655924e+00 1.638313780388485e-01 0.000000000000000e+00 1.761727974207509e+00 4.890294137299613e+00 0.000000000000000e+00 1.789473684210819e+00 5.000000000000000e+00 0.000000000000000e+00 1.684210526316228e+00 5.000000000000000e+00 0.000000000000000e+00 1.671379238171647e+00 4.355565825994195e+00 0.000000000000000e+00 1.656972519506107e+00 4.264993659450348e+00 0.000000000000000e+00 1.742362910288180e+00 4.274686612473190e+00 0.000000000000000e+00 3.359160269493546e-01 6.613119939081207e-01 0.000000000000000e+00 3.652595891744679e-01 7.545548492898096e-01 0.000000000000000e+00 2.363841735149307e-01 7.296874934688182e-01 0.000000000000000e+00 9.142174725173587e-01 4.712367545816286e+00 0.000000000000000e+00 1.043103983284156e+00 4.686823006215624e+00 0.000000000000000e+00 9.872800728194056e-01 4.810542368547830e+00 0.000000000000000e+00 1.764587844538203e+00 5.512456518134270e-01 0.000000000000000e+00 1.667463593774317e+00 5.611131760755043e-01 0.000000000000000e+00 1.689211001472062e+00 4.529014916071041e-01 0.000000000000000e+00 1.164962332976885e+00 4.708689073081058e+00 0.000000000000000e+00 1.043103983284156e+00 4.686823006215624e+00 0.000000000000000e+00 1.120545679972557e+00 4.597850841802548e+00 0.000000000000000e+00 1.164962332976885e+00 4.708689073081058e+00 0.000000000000000e+00 1.286316001784507e+00 4.713364343843550e+00 0.000000000000000e+00 1.217721174034548e+00 4.795799111255508e+00 0.000000000000000e+00 1.564325884006745e+00 4.403553068152111e+00 0.000000000000000e+00 1.671379238171647e+00 4.355565825994195e+00 0.000000000000000e+00 1.684931319093551e+00 4.450594666363146e+00 0.000000000000000e+00 4.205970757819151e-01 5.958543694489439e-01 0.000000000000000e+00 3.359160269493546e-01 6.613119939081207e-01 0.000000000000000e+00 3.145434093627009e-01 5.491653808720912e-01 0.000000000000000e+00 9.872800728194056e-01 4.810542368547830e+00 0.000000000000000e+00 1.043103983284156e+00 4.686823006215624e+00 0.000000000000000e+00 1.096286039907942e+00 4.787940082264510e+00 0.000000000000000e+00 1.364646262478820e+00 4.592415066635965e+00 0.000000000000000e+00 1.459130418149962e+00 4.520124291173715e+00 0.000000000000000e+00 1.486898450120218e+00 4.623469252699420e+00 0.000000000000000e+00 9.731998290332249e-01 5.704471431595811e-01 0.000000000000000e+00 8.715730992191858e-01 5.999589335421364e-01 0.000000000000000e+00 9.025964009904515e-01 4.820800936387313e-01 0.000000000000000e+00 1.172155379345141e+00 6.712425757120589e-01 0.000000000000000e+00 1.072739201998409e+00 7.413529383884035e-01 0.000000000000000e+00 1.058169957782242e+00 6.325564283781506e-01 0.000000000000000e+00 7.694604707706209e-01 2.730531642794763e-01 0.000000000000000e+00 8.638861567287028e-01 2.417663344562214e-01 0.000000000000000e+00 8.676639121183823e-01 3.629112901794028e-01 0.000000000000000e+00 7.466817710519089e-01 3.879264348176992e-01 0.000000000000000e+00 7.694604707706209e-01 2.730531642794763e-01 0.000000000000000e+00 8.676639121183823e-01 3.629112901794028e-01 0.000000000000000e+00 1.364646262478820e+00 4.592415066635965e+00 0.000000000000000e+00 1.286316001784507e+00 4.713364343843550e+00 0.000000000000000e+00 1.240449671207480e+00 4.600906599908907e+00 0.000000000000000e+00 1.120545679972557e+00 4.597850841802548e+00 0.000000000000000e+00 1.172986079106911e+00 4.490918440524887e+00 0.000000000000000e+00 1.240449671207480e+00 4.600906599908907e+00 0.000000000000000e+00 1.564325884006745e+00 4.403553068152111e+00 0.000000000000000e+00 1.684931319093551e+00 4.450594666363146e+00 0.000000000000000e+00 1.572184068992192e+00 4.523523004927910e+00 0.000000000000000e+00 4.205970757819151e-01 5.958543694489439e-01 0.000000000000000e+00 3.145434093627009e-01 5.491653808720912e-01 0.000000000000000e+00 4.068115365931686e-01 4.849111945291972e-01 0.000000000000000e+00 1.172155379345141e+00 6.712425757120589e-01 0.000000000000000e+00 1.058169957782242e+00 6.325564283781506e-01 0.000000000000000e+00 1.167556212236738e+00 5.444613863691833e-01 0.000000000000000e+00 1.021509204635148e+00 4.306457964956466e+00 0.000000000000000e+00 9.249760607483019e-01 4.240686137320751e+00 0.000000000000000e+00 1.038824927240161e+00 4.193215529783378e+00 0.000000000000000e+00 6.140477785890850e-01 3.877958985257381e-01 0.000000000000000e+00 5.876865370665139e-01 4.641260454764261e-01 0.000000000000000e+00 4.985233412333956e-01 3.890769376372188e-01 0.000000000000000e+00 8.505257454769971e-01 4.304742794075727e+00 0.000000000000000e+00 9.249760607483019e-01 4.240686137320751e+00 0.000000000000000e+00 9.136899430584577e-01 4.366528851416208e+00 0.000000000000000e+00 1.217721174034548e+00 4.795799111255508e+00 0.000000000000000e+00 1.286316001784507e+00 4.713364343843550e+00 0.000000000000000e+00 1.330893336073056e+00 4.802100079534701e+00 0.000000000000000e+00 1.406791892218053e+00 4.712958382166945e+00 0.000000000000000e+00 1.286316001784507e+00 4.713364343843550e+00 0.000000000000000e+00 1.364646262478820e+00 4.592415066635965e+00 0.000000000000000e+00 1.406791892218053e+00 4.712958382166945e+00 0.000000000000000e+00 1.520349647702894e+00 4.725934894083145e+00 0.000000000000000e+00 1.444546878142265e+00 4.805729320756690e+00 0.000000000000000e+00 1.053976804423518e+00 5.111783379913616e-01 0.000000000000000e+00 1.058169957782242e+00 6.325564283781506e-01 0.000000000000000e+00 9.731998290332249e-01 5.704471431595811e-01 0.000000000000000e+00 9.457540055120633e-01 4.479990664125721e+00 0.000000000000000e+00 9.632120590257134e-01 4.593187479877926e+00 0.000000000000000e+00 8.488186929971376e-01 4.554461656195955e+00 0.000000000000000e+00 9.457540055120633e-01 4.479990664125721e+00 0.000000000000000e+00 9.136899430584577e-01 4.366528851416208e+00 0.000000000000000e+00 1.014058322891562e+00 4.409974741154480e+00 0.000000000000000e+00 7.146634246400515e-01 2.040887189500951e-01 0.000000000000000e+00 7.694604707706209e-01 2.730531642794763e-01 0.000000000000000e+00 6.726976395708967e-01 2.876661831819204e-01 0.000000000000000e+00 5.818851688336567e-01 3.023927590216423e-01 0.000000000000000e+00 6.726976395708967e-01 2.876661831819204e-01 0.000000000000000e+00 6.140477785890850e-01 3.877958985257381e-01 0.000000000000000e+00 1.014058322891562e+00 4.409974741154480e+00 0.000000000000000e+00 1.102033040334790e+00 4.388774056858976e+00 0.000000000000000e+00 1.052086496550295e+00 4.507933889775317e+00 0.000000000000000e+00 4.209153525333582e-01 7.498504268552800e-02 0.000000000000000e+00 3.157894736834524e-01 0.000000000000000e+00 0.000000000000000e+00 4.210526315779366e-01 0.000000000000000e+00 0.000000000000000e+00 1.691353031592377e-01 4.630297596376645e+00 0.000000000000000e+00 8.942628353205506e-02 4.620093306112614e+00 0.000000000000000e+00 1.385973799677695e-01 4.526400513386682e+00 0.000000000000000e+00 0.000000000000000e+00 4.591836734693878e+00 0.000000000000000e+00 0.000000000000000e+00 4.489795918367347e+00 0.000000000000000e+00 6.272666977118209e-02 4.533107743441798e+00 0.000000000000000e+00 6.272666977118209e-02 4.533107743441798e+00 0.000000000000000e+00 8.942628353205506e-02 4.620093306112614e+00 0.000000000000000e+00 0.000000000000000e+00 4.591836734693878e+00 0.000000000000000e+00 1.799696768310902e+00 3.849467768943328e-01 0.000000000000000e+00 1.689211001472062e+00 4.529014916071041e-01 0.000000000000000e+00 1.686356173437979e+00 3.249782898249454e-01 0.000000000000000e+00 1.686356173437979e+00 3.249782898249454e-01 0.000000000000000e+00 1.689211001472062e+00 4.529014916071041e-01 0.000000000000000e+00 1.587728198134857e+00 3.856392649237406e-01 0.000000000000000e+00 1.769553905740010e+00 4.371856910377475e+00 0.000000000000000e+00 1.671379238171647e+00 4.355565825994195e+00 0.000000000000000e+00 1.742362910288180e+00 4.274686612473190e+00 0.000000000000000e+00 2.358029283033816e-01 6.115643578091313e-01 0.000000000000000e+00 3.359160269493546e-01 6.613119939081207e-01 0.000000000000000e+00 2.363841735149307e-01 7.296874934688182e-01 0.000000000000000e+00 1.807134692036463e+00 4.570268112811003e+00 0.000000000000000e+00 1.697248708035143e+00 4.555627372102794e+00 0.000000000000000e+00 1.789234515049053e+00 4.469528438896718e+00 0.000000000000000e+00 1.923020723436804e-01 4.226788259659692e-01 0.000000000000000e+00 2.984553457856924e-01 4.475639080980484e-01 0.000000000000000e+00 2.220588771909371e-01 5.108576444228085e-01 0.000000000000000e+00 7.368421052615994e-01 0.000000000000000e+00 0.000000000000000e+00 8.421052631561770e-01 0.000000000000000e+00 0.000000000000000e+00 8.134038824017621e-01 8.223092854573356e-02 0.000000000000000e+00 8.134038824017621e-01 8.223092854573356e-02 0.000000000000
[...]
<PointData Scalars="conc_conc," Vectors="" Tensors="">
<DataArray type="Float64" Name="conc_conc" format="ascii">
0.000000000000000e+00 0.000000000000000e+00 0.000000000000000e+00 0.000000000000000e+00 0.000000000000000e+00 0.000000000000000e+00 0.000000000000000e+00 0.000000000000000e+00 0.000000000000000e+00 1.702620258588282e-06 1.168044555756846e-06 3.912333878729773e-06 0.000000000000000e+00 0.000000000000000e+00 0.000000000000000e+00 8.322094317264177e-08 1.261207176721803e-07 3.185828681796284e-07 0.000000000000000e+00 0.000000000000000e+00 0.000000000000000e+00 -1.239736508364675e-03 8.099999764912607e-03 -9.076453900404130e-03 1.011835612000937e-03 1.629106438808208e-03 -2.877812313015696e-04 0.000000000000000e+00 0.000000000000000e+00 0.000000000000000e+00 -1.848751554628260e-05 6.608335419622866e-05 3.842063097545721e-05 0.000000000000000e+00 0.000000000000000e+00 0.000000000000000e+00 0.000000000000000e+00 0.000000000000000e+00 0.000000000000000e+00 4.459707793041884e-02 9.297138136448620e-03 -4.671997800106567e-03 1.786067687817796e-03 1.119275974550718e-03 5.723012637126717e-04 0.000000000000000e+00 0.000000000000000e+00 0.000000000000000e+00 0.000000000000000e+00 0.000000000000000e+00 0.000000000000000e+00 -3.884248519094596e-06 4.876634598354019e-06 1.866908678193805e-06 1.131174725618885e-06 -2.342066295396653e-07 -1.972046805851002e-07 1.174967759104594e-06 7.847539074423726e-06 1.020481821591049e-05 -5.707365210503561e-07 7.722899671114478e-07 1.049178484208201e-05 0.000000000000000e+00 0.000000000000000e+00 0.000000000000000e+00 0.000000000000000e+00 0.000000000000000e+00 0.000000000000000e+00 4.052997174449498e-02 -2.091729921652328e-03 1.759927824539273e-02 1.751583472028045e-03 6.115048936991700e-04 1.282351579289648e-03 1.089619565655531e-06 -1.357309250529823e-07 8.248633553516099e-07 0.000000000000000e+00 0.000000000000000e+00 0.000000000000000e+00 -1.603200505671533e-04 1.158911644204142e-05 6.427110114548975e-04 0.000000000000000e+00 0.000000000000000e+00 0.000000000000000e+00 0.000000000000000e+00 0.000000000000000e+00 0.000000000000000e+00 0.000000000000000e+00 0.000000000000000e+00 0.000000000000000e+00 0.000000000000000e+00 0.000000000000000e+00 0.000000000000000e+00 1.919493516101345e-07 2.169738039234304e-07 -1.076789467088085e-06 0.000000000000000e+00 0.000000000000000e+00 0.000000000000000e+00 0.000000000000000e+00 0.000000000000000e+00 0.000000000000000e+00 -2.586574672999217e-05 -2.833787693121661e-06 -5.286130830344132e-05 -3.802763654446641e-05 -6.625579406995437e-05 -1.008839231422304e-04 0.000000000000000e+00 0.000000000000000e+00 0.000000000000000e+00 5.046315340963460e-04 1.390214898616195e-04 4.319936518908162e-04 0.000000000000000e+00 0.000000000000000e+00 0.000000000000000e+00 0.000000000000000e+00 0.000000000000000e+00 0.000000000000000e+00 0.000000000000000e+00 0.000000000000000e+00 0.000000000000000e+00 -1.660078962361591e-05 2.592287247282959e-05 2.326757179085492e-05 3.277210660685099e-05 4.876572961551300e-05 9.143689111810704e-05 -2.723883851106222e-03 -2.385282984046323e-03 -4.052780887471334e-03 -2.760583643184911e-04 9.521120510882189e-04 -2.587892734619261e-04 5.734521518196598e-04 -1.360141314283478e-03 1.313742286876320e-04 -2.163398185200061e-04 2.076226250264007e-04 -2.091061647975937e-04 -7.702885759296922e-06 6.950639414568646e-06 6.656869861820742e-06 7.972801021713702e-06 -2.371840190185696e-05 -1.098504051936762e-05 5.330300913318611e-06 7.110839424174348e-06 2.247415001638799e-06 -2.607177688953958e-05 -2.891247059373727e-05 4.620759872552099e-06 -3.493422487560819e-05 -5.941309337239431e-05 -4.674070106786496e-05 0.000000000000000e+00 0.000000000000000e+00 0.000000000000000e+00 0.000000000000000e+00 0.000000000000000e+00 0.000000000000000e+00 0.000000000000000e+00 0.000000000000000e+00 0.000000000000000e+00 1.165864324223480e-03 1.782622481595974e-03 2.298760383156231e-03 1.135986421340411e-03 2.326550363748053e-03 2.044154428164613e-03 6.868698223078621e-05 -2.177458271180489e-05 -8.182475895418908e-06 7.999801244318175e-05 -1.161426273282026e-05 1.395533867084576e-04 8.082088298907537e-02 9.917106593439036e-03 5.533750072603295e-02 8.470581238580792e-03 2.640015559313260e-02 -1.239297986310901e-02 -2.564617866476937e-03 -9.231748428721254e-04 -6.287312117623279e-03 0.000000000000000e+00 0.000000000000000e+00 0.000000000000000e+00 -9.509746734841564e-04 6.957102010387274e-04 -3.803084038832963e-03 -2.453096750366823e-03 -2.692400345168758e-03 -4.118682696004544e-03 -2.152187686240576e-04 -2.711984248103685e-04 4.977717175687322e-04 9.205912753199662e-04 -2.353529268857914e-04 5.600459655440040e-04 1.213490770622004e-04 9.425237408185347e-05 4.801415147385466e-05 8.917454659195892e-05 1.236073624672896e-04 4.530931596048993e-05 0.000000000000000e+00 0.000000000000000e+00 0.000000000000000e+00 0.000000000000000e+00 0.000000000000000e+00 0.000000000000000e+00 0.000000000000000e+00 0.000000000000000e+00 0.000000000000000e+00 0.000000000000000e+00 0.000000000000000e+00 0.000000000000000e+00 2.833317683310138e-06 2.191935023579173e-06 -5.367990027432776e-07 0.000000000000000e+00 0.000000000000000e+00 0.000000000000000e+00 0.000000000000000e+00 0.000000000000000e+00 0.000000000000000e+00 0.000000000000000e+00 0.000000000000000e+00 0.000000000000000e+00 0.000000000000000e+00 0.000000000000000e+00 0.000000000000000e+00 0.000000000000000e+00 0.000000000000000e+00 0.000000000000000e+00 0.000000000000000e+00 0.000000000000000e+00 0.000000000000000e+00 0.000000000000000e+00 0.000000000000000e+00 0.000000000000000e+00 0.000000000000000e+00 0.000000000000000e+00 0.000000000000000e+00 -6.583026517408004e-05 -6.103436000186951e-05 -9.929865227958590e-05 -3.906403415259355e-03 1.007250029582774e-02 -3.458826577484960e-03 1.536444313447801e-05 1.556369181205521e-06 8.071651062998296e-06 -9.099995197447072e-05 -8.202018036342496e-05 -3.474711221929643e-05 -8.458522781510565e-05 -1.724852138513353e-05 2.092134642106946e-05 0.000000000000000e+00 0.000000000000000e+00 0.000000000000000e+00 0.000000000000000e+00 0.000000000000000e+00 0.000000000000000e+00 -2.322865750641770e-06 -2.476894682844983e-05 4.293369300606938e-06 1.316707627287676e-06 1.507923553187726e-06 7.581785098666697e-06 0.000000000000000e+00 0.000000000000000e+00 0.000000000000000e+00 0.000000000000000e+00 0.000000000000000e+00 0.000000000000000e+00 0.000000000000000e+00 0.000000000000000e+00 0.000000000000000e+00 0.000000000000000e+00 0.000000000000000e+00 0.000000000000000e+00 0.000000000000000e+00 0.000000000000000e+00 0.000000000000000e+00 3.504609065009840e-04 -1.886149859896831e-04 -1.020790212411162e-03 -1.737486789813112e-04 -1.452121566053530e-04 7.496708891153306e-05 -1.999992754582620e-04 1.256321012454630e-04 1.970341809097594e-04 3.855894347156429e-05 -1.433221672291792e-04 6.185607149202769e-04 4.485477218810394e-04 6.486674786373714e-05 5.990770947189715e-04 -9.065925010331476e-08 4.243180045103722e-07 7.224719976847391e-07 -1.001665789117392e-07 -1.259376238938262e-07 7.517554042191902e-07 -3.588253426104189e-05 -8.044860993802228e-05 -4.744676763957888e-05 -2.757712878208942e-05 -5.410594863779226e-05 -1.651519702730225e-06 0.000000000000000e+00 0.000000000000000e+00 0.000000000000000e+00 0.000000000000000e+00 0.000000000000000e+00 0.000000000000000e+00 -3.859950518059776e-05 -3.602935834351460e-05 -6.502012197323117e-05 0.000000000000000e+00 0.000000000000000e+00 0.000000000000000e+00 2.695590014722329e-06 5.235644423334469e-06 2.306568080033633e-06 9.046162012982178e-06 3.608549337176552e-06 -2.465901103649283e-05 3.035297409452705e-04 4.800247567312543e-04 -2.460651008153825e-04 2.935237708335317e-04 1.263129584730009e-03 5.992659309972223e-04 -1.900706574541281e-03 -3.349372968558829e-03 3.695877115540493e-04 -1.237228769963953e-03 2.172085044037721e-03 -4.405553934656522e-04 -4.762610184588607e-03 1.670446951897250e-02 1.588914376266423e-03 8.071982897077942e-04 5.740115379811860e-04 8.339777095406666e-04 1.978015629772864e-03 -9.285678065123074e-04 -5.961200134576552e-04 8.797649787783909e-03 2.289278557984563e-03 -2.921865872397133e-03 -2.455150205229550e-03 1.938673008521899e-03 1.322340862595691e-02 1.258484460285219e-04 -1.122008995272133e-04 1.954891409988249e-05 -3.747198685758407e-05 -4.916128455770201e-05 6.521696509021135e-05 -9.714778727859072e-05 -9.714778727859553e-05 1.390216764915577e-04 -5.545401805872541e-04 5.588625698495840e-04 -2.943320861361397e-04 -1.620957956223233e-07 -6.817961805957211e-07 8.632201757436826e-06 0.000000000000000e+00 0.000000000000000e+00 0.000000000000000e+00 2.875556899006177e-07 4.267218399724582e-07 1.039604729987185e-06 2.321772757933987e-06 -1.448450386059706e-06 -1.578240832425761e-06 8.835878600180152e-07 -6.278398009143202e-07 2.378676469737604e-05 6.621329224392640e-05 6.121229131954760e-05 -1.344494791342827e-04 0.000000000000000e+00 0.000000000000000e+00 0.000000000000000e+00 -2.940263605222361e-05 -1.272208941784834e-05 -2.627870006091933e-05 -4.618225948981336e-05 -2.815351235004880e-05 -3.500601743054697e-05 0.000000000000000e+00 0.000000000000000e+00 0.000000000000000e+00 0.000000000000000e+00 0.000000000000000e+00 0.000000000000000e+00 0.000000000000000e+00 0.000000000000000e+00 0.000000000000000e+00 0.000000000000000e+00 0.000000000000000e+00 0.000000000000000e+00 0.000000000000000e+00 0.000000000000000e+00 0.000000000000000e+00 0.000000000000000e+00 0.000000000000000e+00 0.000000000000000e+00 0.000000000000000e+00 0.000000000000000e+00 0.000000000000000e+00 0.000000000000000e+00 0.000000000000000e+00 0.000000000000000e+00 3.594663345589683e-06 1.071466707909905e-06 6.681282707969578e-07 4.099695070400773e-06 1.036061055550581e-06 3.692065400646679e-06 3.615471663049784e-05 1.392444998944119e-05 3.837803020205593e-05 -2.865273184391113e-04 -7.726948345888872e-05 2.706600540755187e-04 3.540640920323138e-05 -5.564429751972229e-06 -3.585676402025058e-05 7.880430081884950e-04 -1.416206799329289e-03 -1.379343343448781e-03 2.358632879468641e-04 2.499465996668832e-04 4.914748388418013e-05 3.803265404804256e-04 8.620228648045867e-04 1.300537622697686e-03 2.475222874495390e-04 1.302902419959594e-04 4.593050687159073e-05 -1.723081832642440e-05 2.862312462337384e-05 1.890500090481524e-04 1.422858708858492e-03 2.335667283765599e-04 -1.266958033060009e-04 8.951235546871404e-02 -6.559065737812451e-02 -7.371473706680198e-02 1.642571809306059e-03 -7.476969334918657e-03 -6.895147709856213e-03 -4.234564060888826e-02 -3.929408212837351e-02 6.257033597099078e-02 1.626294850746951e-02 2.060170431486879e-02 1.492950861462328e-02 1.492194151996386e-02 1.291734168510813e-02 1.619741115649564e-02 1.975218034204336e-03 2.046443712638121e-03 1.426380448210394e-03 1.436675055802494e-03 1.385998273953609e-03 1.952078812964901e-03 0.000000000000000e+00 0.000000000000000e+00 0.000000000000000e+00 -1.317540313362061e-05 1.884877168732795e-06 7.965839414203071e-05 -3.910887830827822e-04 -1.938990232573713e-04 -2.428691752107084e-04 6.569415561887820e-05 2.166445072378606e-05 -2.669969656083069e-05 -2.114319677110305e-04 1.880372425285530e-04 5.413972313700437e-04 -1.480281259355186e-03 -1.749035776870037e-03 -6.724412591845151e-04 -6.749026976334482e-03 -1.402446343032134e-02 -6.804156153944889e-03 -1.555877367508847e-02 -2.312297612405612e-02 3.044721957509319e-02 7.503853480717423e-04 -3.679397142079600e-03 -2.684003859274444e-03 7.102616016257159e-04 -4.805969306549935e-03 -3.228969190572221e-03 -1.006176047018987e-02 -2.216025397499262e-02 7.109320767646668e-03 2.609507680556681e-02 9.886120276228594e-02 1.692514034842716e-01 -9.556956659458015e-05 3.974658316108157e-04 9.793135190909328e-05 2.098128066701251e-04 -4.895972008978870e-05 7.700562651301090e-05 2.870479067728507e-04 1.498928021248626e-04 2.268814145613949e-04 1.102053596829113e-03 1.011942697526719e-03 1.509211476049208e-03 4.554783609981470e-07 -7.191178963459960e-06 -4.529570506027464e-06 0.000000000000000e+00 0.000000000000000e+00 0.000000000000000e+00 -5.199849956331944e-05 -3.245931149745159e-05 -2.608746282448315e-05 1.128791449862498e-02 -1.773498158928189e-03 8.384314332025595e-03 7.695988016222580e-03 -2.114225191572847e-03 1.151892783616970e-02 6.663834167600043e-02 -5.052719695580174e-03 7.610170838302101e-02 5.986958140439116e-04 4.815761821419158e-04 9.191138745252830e-04 9.283596071833331e-04 4.743973931869992e-04 1.309403495571212e-03 1.257296918452435e-04 5.793977690210525e-05 7.530733050916691e-05 1.751434865943679e-04 5.648314851101209e-05 1.277065008562159e-04 -4.104509572532407e-03 -6.599828463328743e-03 1.712627186964039e-03 3.085195964831696e-03 -5.959522558023732e-03 -4.888145932828555e-03 -5.885024500759847e-03 -6.731793175114209e-03 -6.812615420333569e-03 -5.244354354896439e-03 -4.342759979562307e-03 8.250471442490110e-04 -1.459454097042997e-03 -6.833573854532983e-04 -7.018795858457627e-04 1.230459447593586e-04 -4.427389721462150e-04 -5.526154044522188e-04 -1.466647010511493e-02 1.369405084745431e-02 -9.627412470773205e-04 1.628916449518450e-03 -1.232658140417188e-04 3.108330133015327e-03 2.970652330475489e-02 3.371993964026881e-03 1.996414550596756e-02 -2.170420255155978e-03 7.885944843209916e-03 -1.572406048849009e-03 -1.109779889533741e-03 -5.283303197496094e-04 -8.449061180936180e-04 -3.988278156058728e-03 6.462010877695711e-02 -2.093773004059981e-03 -4.149918027069365e-03 -5.077552564024186e-03 -4.980562923732146e-03 0.000000000000000e+00 0.000000000000000e+00 0.000000000000000e+00 2.408511767639525e-01 2.406746617199376e-01 2.708717086180478e-01 3.247266838118847e-01 5.175383931269828e-02 1.893325693709974e-01 7.666132747094957e-06 -2.640168752163192e-06 -2.640315817772367e-06 -5.026832435557411e-06 -5.541747377042748e-06 -1.355965359781617e-06 -4.708794723031506e-08 -7.786296949438163e-08 9.578685682102165e-08 5.516823989024378e-05 -4.372341541995294e-05 2.038297855259880e-04 2.147994448579658e-04 2.196756252616962e-04 5.080390486730371e-05 -1.991345665535259e-07 9.890493629897284e-08 3.842673881395466e-08 3.559178699958715e-04 2.137007238759451e-04 2.639095481856628e-04 -2.093550987769949e-06 -5.790166013430506e-06 -8.789291017910835e-06 -4.770755678209690e-03 -7.868050390203871e-03 2.481024287232232e-03 6.742483229809876e-02 -4.131794693084900e-02 1.936402474828946e-02 1.357902183292199e-06 2.436222218222330e-06 3.784741450885879e-06 0.000000000000000e+00 0.000000000000000e+00 0.000000000000000e+00 3.377181999306589e-05 1.287432238406495e-05 -1.232402488806244e-06 1.263720471881145e-05 3.290692241827071e-05 3.174542092504792e-05 3.357898902126879e-05 3.009225552012774e-05 4.591811632212730e-05 0.000000000000000e+00 0.000000000000000e+00 0.000000000000000e+00 0.000000000000000e+00 0.000000000000000e+00 0.000000000000000e+00 2.272771116722428e-04 1.283213618319935e-04 5.116986988725690e-04 -2.614670318362500e-05 -3.223029919186596e-05 -2.413064947928714e-05 -1.113495271375520e-06 4.267686618373870e-07 3.902882229929804e-07 7.809763052013331e-08 -2.747779375652426e-07 -7.600425509134666e-08 -7.254257160885571e-08 -2.961860000325737e-08 7.352490479885596e-08 1.330309527848492e-01 8.761386194583583e-02 1.000406458627263e-01 1.144369899596828e-02 1.174449519798376e-02 2.263399728943525e-02 0.000000000000000e+00 0.000000000000000e+00 0.000000000000000e+00 0.000000000000000e+00 0.000000000000000e+00 0.000000000000000e+00 -1.026651822853053e-03 -1.146169966760196e-03 -3.922466917749701e-04 -4.756063667747334e-03 -6.306683136554981e-03 -4.876475594900334e-03 -5.436671031288050e-06 -1.514879651000926e-06 1.000799731196071e-06 8.390061396886488e-07 -1.393046047450272e-06 -5.243511419181107e-06 3.798716915630684e-05 1.397593349863283e-04 1.662295739683008e-04 1.651907684159690e-04 1.189557722195990e-04 9.541794497102141e-05 6.311977127233479e-05 -3.999950330609492e-04 -7.492397806145363e-05 -1.322695674383586e-03 -3.224388515635001e-03 5.547187405641018e-05 -9.485732711776530e-03 3.903719970866386e-03 -1.817673467931760e-02 0.000000000000000e+00 0.000000000000000e+00 0.000000000000000e+00 0.000000000000000e+00 0.000000000000000e+00 0.000000000000000e+00 -1.909866853328466e-04 -2.457946483066145e-04 -1.248193371302334e-04 -1.204244461604623e-04 -2.498732207682073e-04 -7.878371954664699e-05 -4.425609966035378e-04 -3.284926556692068e-03 1.823401938520604e-03 4.956971432710844e-07 1.393720924776420e-06 8.415446694427259e-07 1.484182942788355e-04 -2.623666107087644e-03 1.545180818554623e-03 1.457028593883286e-02 1.514955944841390e-02 7.452482937897347e-03 5.113899534667554e-04 1.520923972659124e-03 1.295390376543621e-03 2.606113129267844e-03 -3.671787200489350e-03 3.834462488965499e-04 -2.028882079047597e-02 1.058020527593558e-01 1.188387569358348e-01 -3.794543673143817e-02 8.900083155356410e-02 -1.703410668157504e-02 0.000000000000000e+00 0.000000000000000e+00 0.000000000000000e+00 0.000000000000000e+00 0.000000000000000e+00 0.000000000000000e+00 6.410576651878449e-07 5.259900484700947e-07 -7.879166148776284e-09 0.000000000000000e+00 0.000000000000000e+00 0.000000000000000e+00 7.212127305031474e-05 9.915484550782928e-05 5.261216824996761e-05 5.271989634417357e-05 3.847070293921196e-05 7.081632503706043e-05 1.268891643352474e-03 -4.668132708923257e-03 6.912170721486591e-04 6.462228607032531e-03 -2.066613393427033e-02 7.757281758567646e-03 0.000000000000000e+00 0.000000000000000e+00 0.000000000000000e+00 7.672556056073540e-03 -1.857472997676314e-03 5.524168796451277e-03 4.990860597059889e-03 -1.647539465748382e-03 -2.057311105070962e-03 4.819061779723380e-02 -4.189602662337673e-04 6.348292460517718e-02 -7.596553076612217e-03 -2.475415124252449e-04 4.643762461747720e-02 5.129048682970142e-04 1.564390973426437e-04 1.676873577337387e-03 -2.087570997145650e-02 8.593807277229533e-02 2.073471845596529e-02 6.079582798802524e-03 7.815327896508960e-02 -1.485523151421820e-02 5.522218137457067e-04 3.943009318737244e-04 1.048449729769308e-03 -2.877006613671502e-04 -1.005312860332819e-02 2.177224192728184e-03 1.055337828922956e-03 3.892359665782619e-04 1.294712186680042e-03 1.855757180712176e-04 5.157237732799955e-05 8.285223647312340e-05 3.821094683231328e-04 -1.347573596887607e-03 6.000372876270873e-05 2.447592627722203e-04 4.969016850528735e-05 1.882440859778041e-04 -2.741208595131678e-03 -9.663928589210705e-04 -2.529452460318268e-03 0.000000000000000e+00 0.000000000000000e+00 0.000000000000000e+00 0.000000000000000e+00 0.000000000000000e+00 0.000000000000000e+00 -6.218219493261577e-03 -6.122813753094429e-03 -1.812572716192189e-03 -2.082887571744433e-03 -5.931773995028087e-03 -3.813545741873386e-03 0.000000000000000e+00 0.000000000000000e+00 0.000000000000000e+00 -1.845288028413202e-06 -1.824171287550689e-06 5.654773581922736e-06 -3.905537788682092e-05 -2.775782805419098e-05 -2.802932258253208e-05 -2.275264576169244e-05 -7.258191374975352e-05 2.816250959743194e-04 -2.783186478835954e-05 -4.966340847332307e-05 -3.948216055163270e-05 4.152443731766321e-05 3.756281408042574e-05 -3.781249228364840e-05 4.780400018577606e-05 -8.075834658479795e-05 1.099865756397220e-05 -4.285879890526204e-05 -7.802005422916824e-05 4.415899995801103e-05 0.000000000000000e+00 0.000000000000000e+00 0.000000000000000e+00 1.622983625604404e-06 -3.905442812067280e-07 1.399347423795022e-06 1.558955762194646e-06 2.415176885899175e-06 1.371452343809255e-06 6.400011607607921e-07 -4.479377629422943e-07 1.656671439186736e-06 0.000000000000000e+00 0.000000000000000e+00 0.000000000000000e+00 -7.514055515762945e-05 6.803978339046635e-05 -1.398534992163823e-04 7.398686353535761e-04 -1.325394137699630e-03 -1.115808811844298e-04 -3.104906579779276e-07 3.605138091231200e-08 3.741004152034389e-07 3.970556533542792e-07 -2.278909435416768e-09 -3.336655763341382e-07 0.000000000000000e+00 0.000000000000000e+00 0.000000000000000e+00 0.000000000000000e+00 0.000000000000000e+00 0.000000000000000e+00 -6.645570215208005e-05 -1.391458535196736e-04 -1.863703784074620e-04 7.456132811058758e-02 9.086148944887698e-02 1.084964474223417e-01