<?xml version="1.0"?>
<VTKFile type="UnstructuredGrid" version="0.1" byte_order="LittleEndian">
<UnstructuredGrid>
<Piece NumberOfPoints="279" NumberOfCells="96">
<Points>
<DataArray type="Float64" NumberOfComponents="3" format="ascii">
2.500000000000000e-01 0.000000000000000e+00 0.000000000000000e+00 3.333333333331881e-01 1.666666666663762e-01 0.000000000000000e+00 3.333333333331881e-01 1.666666666663762e-01 0.000000000000000e+00 4.166666666665131e-01 3.333333333330262e-01 0.000000000000000e+00 4.166666666665131e-01 3.333333333330262e-01 0.000000000000000e+00 5.000000000000000e-01 5.000000000000000e-01 0.000000000000000e+00 5.000000000000000e-01 5.000000000000000e-01 0.000000000000000e+00 3.333333333336109e-01 4.166666666668055e-01 0.000000000000000e+00 3.333333333336109e-01 4.166666666668055e-01 0.000000000000000e+00 1.666666666671293e-01 3.333333333335646e-01 0.000000000000000e+00 1.666666666671293e-01 3.333333333335646e-01 0.000000000000000e+00 0.000000000000000e+00 2.500000000000000e-01 0.000000000000000e+00 7.500000000000000e-01 1.000000000000000e+00 0.000000000000000e+00 6.666666666666666e-01 8.333333333333333e-01 0.000000000000000e+00 6.666666666666666e-01 8.333333333333333e-01 0.000000000000000e+00 5.833333333333333e-01 6.666666666666666e-01 0.000000000000000e+00 5.833333333333333e-01 6.666666666666666e-01 0.000000000000000e+00 5.000000000000000e-01 5.000000000000000e-01 0.000000000000000e+00 0.000000000000000e+00 2.500000000000000e-01 0.000000000000000e+00 0.000000000000000e+00 3.999999999993061e-01 0.000000000000000e+00 1.666666666671293e-01 3.333333333335646e-01 0.000000000000000e+00 6.666666666666666e-01 8.333333333333333e-01 0.000000000000000e+00 5.999999999994290e-01 1.000000000000000e+00 0.000000000000000e+00 7.500000000000000e-01 1.000000000000000e+00 0.000000000000000e+00 1.262659817929549e-01 7.913299378255220e-01 0.000000000000000e+00 0.000000000000000e+00 6.999999999991673e-01 0.000000000000000e+00 0.000000000000000e+00 8.499999999995836e-01 0.000000000000000e+00 5.271054966329634e-01 8.488328532632591e-01 0.000000000000000e+00 4.499999999990660e-01 1.000000000000000e+00 0.000000000000000e+00 5.999999999994290e-01 1.000000000000000e+00 0.000000000000000e+00 6.666666666666666e-01 8.333333333333333e-01 0.000000000000000e+00 5.271054966329634e-01 8.488328532632591e-01 0.000000000000000e+00 5.999999999994290e-01 1.000000000000000e+00 0.000000000000000e+00 0.000000000000000e+00 5.499999999990286e-01 0.000000000000000e+00 1.555085255433845e-01 4.752619409895978e-01 0.000000000000000e+00 0.000000000000000e+00 3.999999999993061e-01 0.000000000000000e+00 1.555085255433845e-01 4.752619409895978e-01 0.000000000000000e+00 1.666666666671293e-01 3.333333333335646e-01 0.000000000000000e+00 0.000000000000000e+00 3.999999999993061e-01 0.000000000000000e+00 1.555085255433845e-01 4.752619409895978e-01 0.000000000000000e+00 3.333333333336109e-01 4.166666666668055e-01 0.000000000000000e+00 1.666666666671293e-01 3.333333333335646e-01 0.000000000000000e+00 1.555085255433845e-01 4.752619409895978e-01 0.000000000000000e+00 2.998933064660453e-01 5.734214616116567e-01 0.000000000000000e+00 3.333333333336109e-01 4.166666666668055e-01 0.000000000000000e+00 5.833333333333333e-01 6.666666666666666e-01 0.000000000000000e+00 5.271054966329634e-01 8.488328532632591e-01 0.000000000000000e+00 6.666666666666666e-01 8.333333333333333e-01 0.000000000000000e+00 4.293977045941481e-01 7.128112913903036e-01 0.000000000000000e+00 5.271054966329634e-01 8.488328532632591e-01 0.000000000000000e+00 5.833333333333333e-01 6.666666666666666e-01 0.000000000000000e+00 2.853648640097591e-01 7.463071008059871e-01 0.000000000000000e+00 4.293977045941481e-01 7.128112913903036e-01 0.000000000000000e+00 2.998933064660453e-01 5.734214616116567e-01 0.000000000000000e+00 0.000000000000000e+00 5.499999999990286e-01 0.000000000000000e+00 1.448015295635871e-01 6.434886585734013e-01 0.000000000000000e+00 1.555085255433845e-01 4.752619409895978e-01 0.000000000000000e+00 1.448015295635871e-01 6.434886585734013e-01 0.000000000000000e+00 2.998933064660453e-01 5.734214616116567e-01 0.000000000000000e+00 1.555085255433845e-01 4.752619409895978e-01 0.000000000000000e+00 3.808957665680138e-01 8.645016041761083e-01 0.000000000000000e+00 4.499999999990660e-01 1.000000000000000e+00 0.000000000000000e+00 5.271054966329634e-01 8.488328532632591e-01 0.000000000000000e+00 4.293977045941481e-01 7.128112913903036e-01 0.000000000000000e+00 3.808957665680138e-01 8.645016041761083e-01 0.000000000000000e+00 5.271054966329634e-01 8.488328532632591e-01 0.000000000000000e+00 0.000000000000000e+00 6.999999999991673e-01 0.000000000000000e+00 1.448015295635871e-01 6.434886585734013e-01 0.000000000000000e+00 0.000000000000000e+00 5.499999999990286e-01 0.000000000000000e+00 1.448015295635871e-01 6.434886585734013e-01 0.000000000000000e+00 2.853648640097591e-01 7.463071008059871e-01 0.000000000000000e+00 2.998933064660453e-01 5.734214616116567e-01 0.000000000000000e+00 2.853648640097591e-01 7.463071008059871e-01 0.000000000000000e+00 1.448015295635871e-01 6.434886585734013e-01 0.000000000000000e+00 1.262659817929549e-01 7.913299378255220e-01 0.000000000000000e+00 0.000000000000000e+00 6.999999999991673e-01 0.000000000000000e+00 1.262659817929549e-01 7.913299378255220e-01 0.000000000000000e+00 1.448015295635871e-01 6.434886585734013e-01 0.000000000000000e+00 3.808957665680138e-01 8.645016041761083e-01 0.000000000000000e+00 2.999999999990501e-01 1.000000000000000e+00 0.000000000000000e+00 4.499999999990660e-01 1.000000000000000e+00 0.000000000000000e+00 2.853648640097591e-01 7.463071008059871e-01 0.000000000000000e+00 3.808957665680138e-01 8.645016041761083e-01 0.000000000000000e+00 4.293977045941481e-01 7.128112913903036e-01 0.000000000000000e+00 5.000000000000000e-01 5.000000000000000e-01 0.000000000000000e+00 4.293977045941481e-01 7.128112913903036e-01 0.000000000000000e+00 5.833333333333333e-01 6.666666666666666e-01 0.000000000000000e+00 5.000000000000000e-01 5.000000000000000e-01 0.000000000000000e+00 2.998933064660453e-01 5.734214616116567e-01 0.000000000000000e+00 4.293977045941481e-01 7.128112913903036e-01 0.000000000000000e+00 2.998933064660453e-01 5.734214616116567e-01 0.000000000000000e+00 5.000000000000000e-01 5.000000000000000e-01 0.000000000000000e+00 3.333333333336109e-01 4.166666666668055e-01 0.000000000000000e+00 2.195877687281456e-01 8.878564404679016e-01 0.000000000000000e+00 2.999999999990501e-01 1.000000000000000e+00 0.000000000000000e+00 3.808957665680138e-01 8.645016041761083e-01 0.000000000000000e+00 2.853648640097591e-01 7.463071008059871e-01 0.000000000000000e+00 2.195877687281456e-01 8.878564404679016e-01 0.000000000000000e+00 3.808957665680138e-01 8.645016041761083e-01 0.000000000000000e+00 2.195877687281456e-01 8.878564404679016e-01 0.000000000000000e+00 1.499999999993971e-01 1.000000000000000e+00 0.000000000000000e+00 2.999999999990501e-01 1.000000000000000e+00 0.000000000000000e+00 1.262659817929549e-01 7.913299378255220e-01 0.000000000000000e+00 2.195877687281456e-01 8.878564404679016e-01 0.000000000000000e+00 2.853648640097591e-01 7.463071008059871e-01 0.000000000000000e+00 9.917075010409951e-02 9.058372756586014e-01 0.000000000000000e+00 0.000000000000000e+00 8.499999999995836e-01 0.000000000000000e+00 0.000000000000000e+00 1.000000000000000e+00 0.000000000000000e+00 1.499999999993971e-01 1.000000000000000e+00 0.000000000000000e+00 9.917075010409951e-02 9.058372756586014e-01 0.000000000000000e+00 0.000000000000000e+00 1.000000000000000e+00 0.000000000000000e+00 0.000000000000000e+00 8.499999999995836e-01 0.000000000000000e+00 9.917075010409951e-02 9.058372756586014e-01 0.000000000000000e+00 1.262659817929549e-01 7.913299378255220e-01 0.000000000000000e+00 2.195877687281456e-01 8.878564404679016e-01 0.000000000000000e+00 9.917075010409951e-02 9.058372756586014e-01 0.000000000000000e+00 1.499999999993971e-01 1.000000000000000e+00 0.000000000000000e+00 2.195877687281456e-01 8.878564404679016e-01 0.000000000000000e+00 1.262659817929549e-01 7.913299378255220e-01 0.000000000000000e+00 9.917075010409951e-02 9.058372756586014e-01 0.000000000000000e+00 4.166666666665131e-01 3.333333333330262e-01 0.000000000000000e+00 5.000000000000000e-01 5.000000000000000e-01 0.000000000000000e+00 3.333333333336109e-01 4.166666666668055e-01 0.000000000000000e+00 1.666666666671293e-01 3.333333333335646e-01 0.000000000000000e+00 3.333333333331881e-01 1.666666666663762e-01 0.000000000000000e+00 4.166666666665131e-01 3.333333333330262e-01 0.000000000000000e+00 3.333333333336109e-01 4.166666666668055e-01 0.000000000000000e+00 1.666666666671293e-01 3.333333333335646e-01 0.000000000000000e+00 4.166666666665131e-01 3.333333333330262e-01 0.000000000000000e+00 0.000000000000000e+00 2.500000000000000e-01 0.000000000000000e+00 0.000000000000000e+00 0.000000000000000e+00 0.000000000000000e+00 1.500000000000635e-01 1.499999999999882e-01 0.000000000000000e+00 1.500000000000635e-01 1.499999999999882e-01 0.000000000000000e+00 0.000000000000000e+00 0.000000000000000e+00 0.000000000000000e+00 2.500000000000000e-01 0.000000000000000e+00 0.000000000000000e+00 1.500000000000635e-01 1.499999999999882e-01 0.000000000000000e+00 2.500000000000000e-01 0.000000000000000e+00 0.000000000000000e+00 3.333333333331881e-01 1.666666666663762e-01 0.000000000000000e+00 1.500000000000635e-01 1.499999999999882e-01 0.000000000000000e+00 1.666666666671293e-01 3.333333333335646e-01 0.000000000000000e+00 0.000000000000000e+00 2.500000000000000e-01 0.000000000000000e+00 3.333333333331881e-01 1.666666666663762e-01 0.000000000000000e+00 1.666666666671293e-01 3.333333333335646e-01 0.000000000000000e+00 1.500000000000635e-01 1.499999999999882e-01 0.000000000000000e+00 2.500000000000000e-01 0.000000000000000e+00 0.000000000000000e+00 3.333333333331881e-01 1.666666666663762e-01 0.000000000000000e+00 4.000000000002777e-01 0.000000000000000e+00 0.000000000000000e+00 7.000000000008327e-01 0.000000000000000e+00 0.000000000000000e+00 7.736475786618975e-01 1.393304285805427e-01 0.000000000000000e+00 8.500000000008328e-01 0.000000000000000e+00 0.000000000000000e+00 4.992042824076202e-01 1.490973993763484e-01 0.000000000000000e+00 5.500000000005552e-01 0.000000000000000e+00 0.000000000000000e+00 4.000000000002777e-01 0.000000000000000e+00 0.000000000000000e+00 3.333333333331881e-01 1.666666666663762e-01 0.000000000000000e+00 4.992042824076202e-01 1.490973993763484e-01 0.000000000000000e+00 4.000000000002777e-01 0.000000000000000e+00 0.000000000000000e+00 4.166666666665131e-01 3.333333333330262e-01 0.000000000000000e+00 4.992042824076202e-01 1.490973993763484e-01 0.000000000000000e+00 3.333333333331881e-01 1.666666666663762e-01 0.000000000000000e+00 6.194807743958560e-01 2.412219107496123e-01 0.000000000000000e+00 4.992042824076202e-01 1.490973993763484e-01 0.000000000000000e+00 4.166666666665131e-01 3.333333333330262e-01 0.000000000000000e+00 7.000000000008327e-01 0.000000000000000e+00 0.000000000000000e+00 6.359519675930375e-01 1.128248248704907e-01 0.000000000000000e+00 7.736475786618975e-01 1.393304285805427e-01 0.000000000000000e+00 6.194807743958560e-01 2.412219107496123e-01 0.000000000000000e+00 6.359519675930375e-01 1.128248248704907e-01 0.000000000000000e+00 4.992042824076202e-01 1.490973993763484e-01 0.000000000000000e+00 6.359519675930375e-01 1.128248248704907e-01 0.000000000000000e+00 6.194807743958560e-01 2.412219107496123e-01 0.000000000000000e+00 7.736475786618975e-01 1.393304285805427e-01 0.000000000000000e+00 1.000000000000000e+00 2.857142857153761e-01 0.000000000000000e+00 8.995418595679957e-01 3.660610945775338e-01 0.000000000000000e+00 1.000000000000000e+00 4.285714285727172e-01 0.000000000000000e+00 7.576097615368714e-01 3.056501081260414e-01 0.000000000000000e+00 7.736475786618975e-01 1.393304285805427e-01 0.000000000000000e+00 6.194807743958560e-01 2.412219107496123e-01 0.000000000000000e+00 7.576097615368714e-01 3.056501081260414e-01 0.000000000000000e+00 7.738404604248252e-01 4.704509657696636e-01 0.000000000000000e+00 8.995418595679957e-01 3.660610945775338e-01 0.000000000000000e+00 8.984269496357760e-01 4.968844551721360e-01 0.000000000000000e+00 1.000000000000000e+00 5.714285714296619e-01 0.000000000000000e+00 1.000000000000000e+00 4.285714285727172e-01 0.000000000000000e+00 5.000000000000000e-01 5.000000000000000e-01 0.000000000000000e+00 6.227208784165946e-01 4.036087638678805e-01 0.000000000000000e+00 4.166666666665131e-01 3.333333333330262e-01 0.000000000000000e+00 6.227208784165946e-01 4.036087638678805e-01 0.000000000000000e+00 6.194807743958560e-01 2.412219107496123e-01 0.000000000000000e+00 4.166666666665131e-01 3.333333333330262e-01 0.000000000000000e+00 1.000000000000000e+00 2.857142857153761e-01 0.000000000000000e+00 8.926331999611968e-01 2.185069385476834e-01 0.000000000000000e+00 8.995418595679957e-01 3.660610945775338e-01 0.000000000000000e+00 8.995418595679957e-01 3.660610945775338e-01 0.000000000000000e+00 8.984269496357760e-01 4.968844551721360e-01 0.000000000000000e+00 1.000000000000000e+00 4.285714285727172e-01 0.000000000000000e+00 8.995418595679957e-01 3.660610945775338e-01 0.000000000000000e+00 7.738404604248252e-01 4.704509657696636e-01 0.000000000000000e+00 8.984269496357760e-01 4.968844551721360e-01 0.000000000000000e+00 1.000000000000000e+00 1.428571428577377e-01 0.000000000000000e+00 8.926331999611968e-01 2.185069385476834e-01 0.000000000000000e+00 1.000000000000000e+00 2.857142857153761e-01 0.000000000000000e+00 7.576097615368714e-01 3.056501081260414e-01 0.000000000000000e+00 8.926331999611968e-01 2.185069385476834e-01 0.000000000000000e+00 7.736475786618975e-01 1.393304285805427e-01 0.000000000000000e+00 7.576097615368714e-01 3.056501081260414e-01 0.000000000000000e+00 8.995418595679957e-01 3.660610945775338e-01 0.000000000000000e+00 8.926331999611968e-01 2.185069385476834e-01 0.000000000000000e+00 7.000000000008327e-01 0.000000000000000e+00 0.000000000000000e+00 5.500000000005552e-01 0.000000000000000e+00 0.000000000000000e+00 6.359519675930375e-01 1.128248248704907e-01 0.000000000000000e+00 5.500000000005552e-01 0.000000000000000e+00 0.000000000000000e+00 4.992042824076202e-01 1.490973993763484e-01 0.000000000000000e+00 6.359519675930375e-01 1.128248248704907e-01 0.000000000000000e+00 9.032561557247855e-01 1.001389019971927e-01 0.000000000000000e+00 1.000000000000000e+00 1.428571428577377e-01 0.000000000000000e+00 1.000000000000000e+00 0.000000000000000e+00 0.000000000000000e+00 9.032561557247855e-01 1.001389019971927e-01 0.000000000000000e+00 8.500000000008328e-01 0.000000000000000e+00 0.000000000000000e+00 7.736475786618975e-01 1.393304285805427e-01 0.000000000000000e+00 8.500000000008328e-01 0.000000000000000e+00 0.000000000000000e+00 9.032561557247855e-01 1.001389019971927e-01 0.000000000000000e+00 1.000000000000000e+00 0.000000000000000e+00 0.000000000000000e+00 9.032561557247855e-01 1.001389019971927e-01 0.000000000000000e+00 8.926331999611968e-01 2.185069385476834e-01 0.000000000000000e+00 1.000000000000000e+00 1.428571428577377e-01 0.000000000000000e+00 7.736475786618975e-01 1.393304285805427e-01 0.000000000000000e+00 8.926331999611968e-01 2.185069385476834e-01 0.000000000000000e+00 9.032561557247855e-01 1.001389019971927e-01 0.000000000000000e+00 1.000000000000000e+00 5.714285714296619e-01 0.000000000000000e+00 8.030410438586795e-01 6.461605083906008e-01 0.000000000000000e+00 1.000000000000000e+00 7.142857142862099e-01 0.000000000000000e+00 8.030410438586795e-01 6.461605083906008e-01 0.000000000000000e+00 1.000000000000000e+00 5.714285714296619e-01 0.000000000000000e+00 8.984269496357760e-01 4.968844551721360e-01 0.000000000000000e+00 6.194807743958560e-01 2.412219107496123e-01 0.000000000000000e+00 6.227208784165946e-01 4.036087638678805e-01 0.000000000000000e+00 7.576097615368714e-01 3.056501081260414e-01 0.000000000000000e+00 6.227208784165946e-01 4.036087638678805e-01 0.000000000000000e+00 7.738404604248252e-01 4.704509657696636e-01 0.000000000000000e+00 7.576097615368714e-01 3.056501081260414e-01 0.000000000000000e+00 6.666666666666666e-01 8.333333333333333e-01 0.000000000000000e+00 8.030410438586795e-01 6.461605083906008e-01 0.000000000000000e+00 5.833333333333333e-01 6.666666666666666e-01 0.000000000000000e+00 6.565871432066865e-01 5.373773809389624e-01 0.000000000000000e+00 7.738404604248252e-01 4.704509657696636e-01 0.000000000000000e+00 6.227208784165946e-01 4.036087638678805e-01 0.000000000000000e+00 6.565871432066865e-01 5.373773809389624e-01 0.000000000000000e+00 5.000000000000000e-01 5.000000000000000e-01 0.000000000000000e+00 5.833333333333333e-01 6.666666666666666e-01 0.000000000000000e+00 6.227208784165946e-01 4.036087638678805e-01 0.000000000000000e+00 5.000000000000000e-01 5.000000000000000e-01 0.000000000000000e+00 6.565871432066865e-01 5.373773809389624e-01 0.000000000000000e+00 8.699512850875576e-01 8.418204021921999e-01 0.000000000000000e+00 1.000000000000000e+00 7.142857142862099e-01 0.000000000000000e+00 8.030410438586795e-01 6.461605083906008e-01 0.000000000000000e+00 1.000000000000000e+00 7.142857142862099e-01 0.000000000000000e+00 8.699512850875576e-01 8.418204021921999e-01 0.000000000000000e+00 1.000000000000000e+00 8.571428571430554e-01 0.000000000000000e+00 6.666666666666666e-01 8.333333333333333e-01 0.000000000000000e+00 8.699512850875576e-01 8.418204021921999e-01 0.000000000000000e+00 8.030410438586795e-01 6.461605083906008e-01 0.000000000000000e+00 1.000000000000000e+00 1.000000000000000e+00 0.000000000000000e+00 8.699512850875576e-01 8.418204021921999e-01 0.000000000000000e+00 7.500000000000000e-01 1.000000000000000e+00 0.000000000000000e+00 8.699512850875576e-01 8.418204021921999e-01 0.000000000000000e+00 1.000000000000000e+00 1.000000000000000e+00 0.000000000000000e+00 1.000000000000000e+00 8.571428571430554e-01 0.000000000000000e+00 8.699512850875576e-01 8.418204021921999e-01 0.000000000000000e+00 6.666666666666666e-01 8.333333333333333e-01 0.000000000000000e+00 7.500000000000000e-01 1.000000000000000e+00 0.000000000000000e+00 7.738404604248252e-01 4.704509657696636e-01 0.000000000000000e+00 8.030410438586795e-01 6.461605083906008e-01 0.000000000000000e+00 8.984269496357760e-01 4.968844551721360e-01 0.000000000000000e+00 7.738404604248252e-01 4.704509657696636e-01 0.000000000000000e+00 6.565871432066865e-01 5.373773809389624e-01 0.000000000000000e+00 8.030410438586795e-01 6.461605083906008e-01 0.000000000000000e+00 6.565871432066865e-01 5.373773809389624e-01 0.000000000000000e+00 5.833333333333333e-01 6.666666666666666e-01 0.000000000000000e+00 8.030410438586795e-01 6.461605083906008e-01 0.000000000000000e+00 
</DataArray>
</Points>
<Cells>
<DataArray type="Int32" Name="connectivity" format="ascii">
0 1 2 3 4 5 6 7 8 9 10 11 12 13 14 15 16 17 18 19 20 21 22 23 24 25 26 27 28 29 30 31 32 33 34 35 36 37 38 39 40 41 42 43 44 45 46 47 48 49 50 51 52 53 54 55 56 57 58 59 60 61 62 63 64 65 66 67 68 69 70 71 72 73 74 75 76 77 78 79 80 81 82 83 84 85 86 87 88 89 90 91 92 93 94 95 96 97 98 99 100 101 102 103 104 105 106 107 108 109 110 111 112 113 114 115 116 117 118 119 120 121 122 123 124 125 126 127 128 129 130 131 132 133 134 135 136 137 138 139 140 141 142 143 144 145 146 147 148 149 150 151 152 153 154 155 156 157 158 159 160 161 162 163 164 165 166 167 168 169 170 171 172 173 174 175 176 177 178 179 180 181 182 183 184 185 186 187 188 189 190 191 192 193 194 195 196 197 198 199 200 201 202 203 204 205 206 207 208 209 210 211 212 213 214 215 216 217 218 219 220 221 222 223 224 225 226 227 228 229 230 231 232 233 234 235 236 237 238 239 240 241 242 243 244 245 246 247 248 249 250 251 252 253 254 255 256 257 258 259 260 261 262 263 264 265 266 267 268 269 270 271 272 273 274 275 276 277 278 
</DataArray>
<DataArray type="Int32" Name="offsets" format="ascii">
2 4 6 8 10 12 14 16 18 21 24 27 30 33 36 39 42 45 48 51 54 57 60 63 66 69 72 75 78 81 84 87 90 93 96 99 102 105 108 111 114 117 120 123 126 129 132 135 138 141 144 147 150 153 156 159 162 165 168 171 174 177 180 183 186 189 192 195 198 201 204 207 210 213 216 219 222 225 228 231 234 237 240 243 246 249 252 255 258 261 264 267 270 273 276 279 
</DataArray>
<DataArray type="UInt8" Name="types" format="ascii">
3 3 3 3 3 3 3 3 3 5 5 5 5 5 5 5 5 5 5 5 5 5 5 5 5 5 5 5 5 5 5 5 5 5 5 5 5 5 5 5 5 5 5 5 5 5 5 5 5 5 5 5 5 5 5 5 5 5 5 5 5 5 5 5 5 5 5 5 5 5 5 5 5 5 5 5 5 5 5 5 5 5 5 5 5 5 5 5 5 5 5 5 5 5 5 5 
</DataArray>
</Cells>
<PointData Scalars="age_conc," Vectors="" Tensors="">
<DataArray type="Float64" Name="age_conc" format="ascii">
9.947708277888228e-01 9.965502217701508e-01 9.964571106383178e-01 9.983060364943501e-01 9.981940708608241e-01 9.996364039796459e-01 9.996155723114101e-01 9.987184328713780e-01 9.988262197105782e-01 9.974089524212550e-01 9.975016796371851e-01 9.958927547485765e-01 1.000005554907741e+00 9.999947974111367e-01 1.000017546068491e+00 9.998891074113690e-01 9.999396477875474e-01 9.995093644491970e-01 6.888785086008964e-01 8.168148436893525e-01 7.609388551654538e-01 9.980967056306146e-01 1.000566255382460e+00 1.000590389896883e+00 9.868067588632483e-01 9.645088352805056e-01 9.964236458614252e-01 9.977276187858923e-01 1.000699169827820e+00 1.000977128310037e+00 9.975062021071452e-01 9.968274324932372e-01 1.002009194916203e+00 9.029991687944424e-01 8.733821388969206e-01 8.203800458592978e-01 8.613968550470963e-01 7.610243909920973e-01 8.159796517996377e-01 8.558080515628682e-01 8.461533132418958e-01 7.681153473793840e-01 8.548058673086323e-01 9.190836889956600e-01 8.456113343262410e-01 9.813131573488750e-01 9.983009481625512e-01 9.993234305137363e-01 9.777152684782271e-01 1.001763581954324e+00 9.796713965644392e-01 9.817770345780292e-01 9.822000454837266e-01 9.371653298359388e-01 9.015740206628783e-01 9.498217398042269e-01 8.732003830047012e-01 9.468386534249318e-01 9.343801030331856e-01 8.765618531018345e-01 9.966640238192866e-01 1.002177777790000e+00 9.970128470190424e-01 9.815156191190523e-01 9.981107373505618e-01 9.984807525682370e-01 9.636394543950766e-01 9.490898627190930e-01 9.054556276401396e-01 9.447967250064332e-01 9.854443222643843e-01 9.334050107059176e-01 9.821080904281747e-01 9.507709395732782e-01 9.874904818382229e-01 9.616310254393936e-01 9.900743948540068e-01 9.483847691208437e-01 9.977010807570402e-01 1.000727115567087e+00 1.001104708925372e+00 9.795685069892914e-01 1.001121556657742e+00 9.800148777099590e-01 9.339497023731826e-01 9.798177211329826e-01 9.821860925196529e-01 9.298812738402452e-01 9.127656566281832e-01 9.861985762102711e-01 9.135804992617096e-01 9.320596794362949e-01 8.539503205951622e-01 9.974322284605616e-01 1.002173382214654e+00 9.968780446939020e-01 9.825777289849856e-01 9.989405794485995e-01 9.981075478425062e-01 9.983541194536940e-01 1.000496461102243e+00 1.000796580394284e+00 9.854821230997886e-01 1.001301237283084e+00 9.809946611126479e-01 9.987608482687994e-01 9.947193620052899e-01 1.001673520438679e+00 1.000635271277206e+00 9.988141342848291e-01 1.000397704335614e+00 9.940503382701462e-01 1.000319143917425e+00 9.862792110577006e-01 9.978464460497114e-01 9.980561660976052e-01 1.001359338976956e+00 9.986950868495527e-01 9.876293464371700e-01 9.991855915961086e-01 9.856707800397068e-01 1.006995540269040e+00 9.862483231022318e-01 9.424058836172856e-01 9.194256160614703e-01 9.823516572786957e-01 9.936646632153721e-01 9.731794227723524e-01 9.690893621646771e-01 9.349600029323869e-01 4.961913663645275e-01 7.558904682107052e-01 7.485990841820837e-01 4.929672918371328e-01 9.278588390182679e-01 7.578507845915846e-01 9.070064621376981e-01 9.505228525609571e-01 7.650541772445967e-01 9.680739039048505e-01 9.143342367032754e-01 9.236892082775389e-01 9.462557150740596e-01 8.238529412772522e-01 6.268954687569933e-01 6.969135218957231e-01 7.418528216247336e-01 9.557803479411376e-01 9.767198150889299e-01 9.972059290280196e-01 8.137636672097502e-01 8.775131272926715e-01 7.487761817964450e-01 6.970867905330150e-01 8.126085059082597e-01 7.415627647774279e-01 7.698473364582814e-01 8.116770979213169e-01 6.984675223816342e-01 8.913142942365873e-01 8.105964167791082e-01 7.700740880538801e-01 9.582094020416485e-01 9.155772971970852e-01 9.828024118590296e-01 9.003165336339545e-01 9.226105523116283e-01 8.150648005252671e-01 9.151687739112231e-01 9.031310920830263e-01 9.822509906338401e-01 1.000876416537325e+00 9.974836808931533e-01 1.000952748162168e+00 9.708143761615367e-01 9.797746676356870e-01 9.047106077230839e-01 9.653686944335945e-01 9.678102752518219e-01 1.005435257065850e+00 9.998287650269680e-01 1.002723400387685e+00 1.000072228386653e+00 8.680845233737210e-01 8.765401485337510e-01 7.905526777740149e-01 8.855301732511920e-01 8.895623537383383e-01 7.715765155435095e-01 1.002389858428397e+00 9.962267811784763e-01 9.968325417665289e-01 9.964774164667169e-01 9.991435435863480e-01 1.001480783418909e+00 1.001701960557364e+00 9.694717913959412e-01 1.000270492139590e+00 1.000831270311267e+00 9.976071470838694e-01 1.001226294754276e+00 9.677456854362231e-01 1.003346234749201e+00 9.741100630991895e-01 9.698430303607106e-01 1.002256197293250e+00 1.000102839986764e+00 9.604324300026938e-01 8.729794611030043e-01 9.155574011985883e-01 8.758864236023517e-01 8.139059281275447e-01 9.239577524118201e-01 9.984202727651134e-01 1.000935266717642e+00 1.000596329143719e+00 1.001070127227214e+00 9.942506609642888e-01 9.769698010143311e-01 9.939465904273896e-01 9.982949106946174e-01 1.002011316158000e+00 9.972744185073720e-01 9.970202161484998e-01 1.001854697218497e+00 9.785951299761760e-01 1.000017833429719e+00 9.998486492812009e-01 1.005562994864915e+00 9.814117354310748e-01 1.005619399851580e+00 9.784731904905071e-01 1.008424091346814e+00 9.962325649486068e-01 8.980392379319654e-01 8.939128668680482e-01 9.731391924563041e-01 8.956106436053816e-01 9.734746887383295e-01 9.700396155156257e-01 9.850406220960194e-01 9.646650143009798e-01 9.384368509956917e-01 9.056616444901533e-01 9.759491345888406e-01 8.910716358192498e-01 9.151659926927408e-01 8.730200964178034e-01 9.405195341285059e-01 8.755405619025840e-01 8.672003974373413e-01 9.126966741785961e-01 9.954298023186924e-01 1.006180997223713e+00 9.803012501695220e-01 1.001207537196030e+00 9.956195445398316e-01 1.001348755739148e+00 9.817561811570138e-01 9.929215964260634e-01 9.648592563626494e-01 1.002820740264148e+00 9.907641580738901e-01 1.002271351753993e+00 9.958903132089715e-01 1.001227259074609e+00 1.001227258991816e+00 9.881029024086089e-01 9.890683835871158e-01 1.007241269472354e+00 9.678712899366778e-01 9.777146741552222e-01 9.989858272191379e-01 9.722673943992591e-01 9.072687248854814e-01 9.764201422258530e-01 9.150794467127035e-01 9.383538264978587e-01 9.667613744202219e-01 
</DataArray>
</PointData>
</Piece>
</UnstructuredGrid>
</VTKFile>
