<?xml version="1.0"?>
<VTKFile type="UnstructuredGrid" version="0.1" byte_order="LittleEndian">
<UnstructuredGrid>
<Piece NumberOfPoints="3142" NumberOfCells="1054">
<Points>
<DataArray type="Float64" NumberOfComponents="3" format="ascii">
0.02576622439977887 0.024532886826226379 0 0 0 0 0.049999999999899652 0 0 0.02576622439977887 0.024532886826226379 0 0 0 0 0 0.050000000000207989 0 0.02576622439977887 0.024532886826226379 0 0.049999999999899652 0 0 0.053064897599215843 0.048131547304697528 0 0.02576622439977887 0.024532886826226379 0 0.053064897599215843 0.048131547304697528 0 0 0.050000000000207989 0 0 0.050000000000207989 0 0 0.10000000000041601 0 0.044310582753132287 0.101412518374475 0 0 0.10000000000041601 0 0.044310582753132287 0.101412518374475 0 0 0.15000000000062411 0 0.053064897599215843 0.048131547304697528 0 0.044310582753132287 0.101412518374475 0 0.083411279318303222 0.089699755330707398 0 0.053064897599215843 0.048131547304697528 0 0 0.050000000000207989 0 0.044310582753132287 0.101412518374475 0 0.044310582753132287 0.101412518374475 0 0.083411279318303222 0.089699755330707398 0 0.065374659239632718 0.1448908038746782 0 0.083411279318303222 0.089699755330707398 0 0.065374659239632718 0.1448908038746782 0 0.1053400320299198 0.12877248826361379 0 0.083411279318303222 0.089699755330707398 0 0.12372429750337779 0.095814237875728972 0 0.1053400320299198 0.12877248826361379 0 0.12372429750337779 0.095814237875728972 0 0.1053400320299198 0.12877248826361379 0 0.14332333627550789 0.14578431753966009 0 0.12372429750337779 0.095814237875728972 0 0.10266856499169109 0.044518360900210059 0 0.14618258501891079 0.062070108745602003 0 0.083411279318303222 0.089699755330707398 0 0.12372429750337779 0.095814237875728972 0 0.10266856499169109 0.044518360900210059 0 0.10266856499169109 0.044518360900210059 0 0.099999999999814668 0 0 0.14999999999970359 0 0 0.049999999999899652 0 0 0.053064897599215843 0.048131547304697528 0 0.099999999999814668 0 0 0.053064897599215843 0.048131547304697528 0 0.10266856499169109 0.044518360900210059 0 0.099999999999814668 0 0 0.053064897599215843 0.048131547304697528 0 0.083411279318303222 0.089699755330707398 0 0.10266856499169109 0.044518360900210059 0 0.044081577119474857 0.2271058242433576 0 0 0.20000000000083221 0 0 0.25000000000104028 0 0.044081577119474857 0.2271058242433576 0 0 0.20000000000083221 0 0.038512288486115001 0.1844147282893184 0 0.044081577119474857 0.2271058242433576 0 0.038512288486115001 0.1844147282893184 0 0.083105206071467416 0.20007701332709979 0 0.038512288486115001 0.1844147282893184 0 0 0.15000000000062411 0 0.065374659239632718 0.1448908038746782 0 0.044310582753132287 0.101412518374475 0 0 0.15000000000062411 0 0.065374659239632718 0.1448908038746782 0 0.038512288486115001 0.1844147282893184 0 0.065374659239632718 0.1448908038746782 0 0.083105206071467416 0.20007701332709979 0 0 0.20000000000083221 0 0.038512288486115001 0.1844147282893184 0 0 0.15000000000062411 0 0.065374659239632718 0.1448908038746782 0 0.1053400320299198 0.12877248826361379 0 0.106902708054812 0.16453234188234539 0 0.1053400320299198 0.12877248826361379 0 0.106902708054812 0.16453234188234539 0 0.14332333627550789 0.14578431753966009 0 0.065374659239632718 0.1448908038746782 0 0.106902708054812 0.16453234188234539 0 0.083105206071467416 0.20007701332709979 0 0.083105206071467416 0.20007701332709979 0 0.095326043202144745 0.24554465089224409 0 0.13737030665753211 0.20313708640667491 0 0.106902708054812 0.16453234188234539 0 0.083105206071467416 0.20007701332709979 0 0.13737030665753211 0.20313708640667491 0 0.044081577119474857 0.2271058242433576 0 0.083105206071467416 0.20007701332709979 0 0.095326043202144745 0.24554465089224409 0 0.044081577119474857 0.2271058242433576 0 0.095326043202144745 0.24554465089224409 0 0.049706944316556423 0.27522722923869108 0 0.095326043202144745 0.24554465089224409 0 0.14377654328998779 0.2442024734791064 0 0.13737030665753211 0.20313708640667491 0 0.17933913398461551 0.2350063570234002 0 0.14377654328998779 0.2442024734791064 0 0.13737030665753211 0.20313708640667491 0 0.17933913398461551 0.2350063570234002 0 0.13737030665753211 0.20313708640667491 0 0.18124454140915969 0.18790916706335251 0 0.18124454140915969 0.18790916706335251 0 0.14332333627550789 0.14578431753966009 0 0.18652628422869419 0.14162325200928061 0 0.106902708054812 0.16453234188234539 0 0.13737030665753211 0.20313708640667491 0 0.14332333627550789 0.14578431753966009 0 0.13737030665753211 0.20313708640667491 0 0.18124454140915969 0.18790916706335251 0 0.14332333627550789 0.14578431753966009 0 0.14332333627550789 0.14578431753966009 0 0.18652628422869419 0.14162325200928061 0 0.16141998738593399 0.10404039647458049 0 0.18652628422869419 0.14162325200928061 0 0.22985637510995899 0.1298347970200906 0 0.2185883431182947 0.18019736283949719 0 0.22985637510995899 0.1298347970200906 0 0.2185883431182947 0.18019736283949719 0 0.25557216766470708 0.15874861286892261 0 0.2185883431182947 0.18019736283949719 0 0.25557216766470708 0.15874861286892261 0 0.26429849586623999 0.19346700179430079 0 0.18124454140915969 0.18790916706335251 0 0.18652628422869419 0.14162325200928061 0 0.2185883431182947 0.18019736283949719 0 0.17933913398461551 0.2350063570234002 0 0.18124454140915969 0.18790916706335251 0 0.224700362040408 0.22206622194729711 0 0.18124454140915969 0.18790916706335251 0 0.2185883431182947 0.18019736283949719 0 0.224700362040408 0.22206622194729711 0 0.2185883431182947 0.18019736283949719 0 0.224700362040408 0.22206622194729711 0 0.26429849586623999 0.19346700179430079 0 0.224700362040408 0.22206622194729711 0 0.25195515620380449 0.25883339815888678 0 0.21049769590865089 0.26857363548218488 0 0.17933913398461551 0.2350063570234002 0 0.224700362040408 0.22206622194729711 0 0.21049769590865089 0.26857363548218488 0 0.184418230509967 0.038773194583122873 0 0.14999999999970359 0 0 0.14618258501891079 0.062070108745602003 0 0.184418230509967 0.038773194583122873 0 0.14618258501891079 0.062070108745602003 0 0.19922788606653311 0.085920220746880993 0 0.184418230509967 0.038773194583122873 0 0.14999999999970359 0 0 0.19999999999955789 0 0 0.10266856499169109 0.044518360900210059 0 0.14999999999970359 0 0 0.14618258501891079 0.062070108745602003 0 0.12372429750337779 0.095814237875728972 0 0.14618258501891079 0.062070108745602003 0 0.16141998738593399 0.10404039647458049 0 0.12372429750337779 0.095814237875728972 0 0.14332333627550789 0.14578431753966009 0 0.16141998738593399 0.10404039647458049 0 0.18652628422869419 0.14162325200928061 0 0.16141998738593399 0.10404039647458049 0 0.19922788606653311 0.085920220746880993 0 0.14618258501891079 0.062070108745602003 0 0.16141998738593399 0.10404039647458049 0 0.19922788606653311 0.085920220746880993 0 0.18652628422869419 0.14162325200928061 0 0.22985637510995899 0.1298347970200906 0 0.19922788606653311 0.085920220746880993 0 0.22985637510995899 0.1298347970200906 0 0.19922788606653311 0.085920220746880993 0 0.24218496799700481 0.089025544070598317 0 0.22985637510995899 0.1298347970200906 0 0.24218496799700481 0.089025544070598317 0 0.27474541102162192 0.11822029332053539 0 0.19922788606653311 0.085920220746880993 0 0.24218496799700481 0.089025544070598317 0 0.22668068146512929 0.045875643423131329 0 0.24218496799700481 0.089025544070598317 0 0.22668068146512929 0.045875643423131329 0 0.27499999999933927 0.060310814194988557 0 0.184418230509967 0.038773194583122873 0 0.19922788606653311 0.085920220746880993 0 0.22668068146512929 0.045875643423131329 0 0.184418230509967 0.038773194583122873 0 0.22668068146512929 0.045875643423131329 0 0.19999999999955789 0 0 0.22668068146512929 0.045875643423131329 0 0.19999999999955789 0 0 0.24999999999941211 0 0 0.24999999999941211 0 0 0.27499999999933927 0.060310814194988557 0 0.29999999999926641 0 0 0.22668068146512929 0.045875643423131329 0 0.24999999999941211 0 0 0.27499999999933927 0.060310814194988557 0 0.27499999999933927 0.060310814194988557 0 0.29999999999926641 0 0 0.32541448401678508 0.046215317981507749 0 0.29999999999926641 0 0 0.32541448401678508 0.046215317981507749 0 0.34999999999912063 0 0 0.32541448401678508 0.046215317981507749 0 0.3615861437013822 0.03582617922508851 0 0.35312867752657662 0.084946736076730367 0 0.3615861437013822 0.03582617922508851 0 0.35312867752657662 0.084946736076730367 0 0.39591832466117061 0.056982757562006353 0 0.32541448401678508 0.046215317981507749 0 0.3615861437013822 0.03582617922508851 0 0.34999999999912063 0 0 0.3615861437013822 0.03582617922508851 0 0.34999999999912063 0 0 0.3999999999989749 0 0 0.35312867752657662 0.084946736076730367 0 0.36246644853392812 0.1399454205365751 0 0.39823268594401579 0.1116623613130045 0 0.35312867752657662 0.084946736076730367 0 0.32215584939770009 0.1218492143506909 0 0.36246644853392812 0.1399454205365751 0 0.32541448401678508 0.046215317981507749 0 0.35312867752657662 0.084946736076730367 0 0.3096713403101819 0.085471541595262421 0 0.35312867752657662 0.084946736076730367 0 0.32215584939770009 0.1218492143506909 0 0.3096713403101819 0.085471541595262421 0 0.32215584939770009 0.1218492143506909 0 0.3096713403101819 0.085471541595262421 0 0.27474541102162192 0.11822029332053539 0 0.27499999999933927 0.060310814194988557 0 0.32541448401678508 0.046215317981507749 0 0.3096713403101819 0.085471541595262421 0 0.27499999999933927 0.060310814194988557 0 0.3096713403101819 0.085471541595262421 0 0.27474541102162192 0.11822029332053539 0 0.24218496799700481 0.089025544070598317 0 0.27499999999933927 0.060310814194988557 0 0.27474541102162192 0.11822029332053539 0 0.22985637510995899 0.1298347970200906 0 0.27474541102162192 0.11822029332053539 0 0.25557216766470708 0.15874861286892261 0 0.27474541102162192 0.11822029332053539 0 0.25557216766470708 0.15874861286892261 0 0.29336099386129338 0.15892013001050981 0 0.25557216766470708 0.15874861286892261 0 0.29336099386129338 0.15892013001050981 0 0.26429849586623999 0.19346700179430079 
[...]
<PointData Scalars="" Vectors="displacement," Tensors="">
<DataArray type="Float64" Name="displacement" NumberOfComponents="3" format="ascii">
-0.0016768330805287763 -0.0025609791326757845 0 -3.4567078393641323e-06 -8.2509086843005703e-06 0 -4.6120746574735326e-07 -3.9747814485575519e-06 0 -0.0016768330805287763 -0.0025609791326757845 0 -3.4567078393641323e-06 -8.2509086843005703e-06 0 -0.0047559651932184933 -0.00655729824265596 0 -0.0016768330805287763 -0.0025609791326757845 0 -4.6120746574735326e-07 -3.9747814485575519e-06 0 -0.0029346537880254454 -0.0043976080381550138 0 -0.0016768330805287763 -0.0025609791326757845 0 -0.0029346537880254454 -0.0043976080381550138 0 -0.0047559651932184933 -0.00655729824265596 0 -0.0047559651932184933 -0.00655729824265596 0 -0.007534795962825384 -0.011596630737115195 0 -0.0062726822925394604 -0.010137107721841995 0 -0.007534795962825384 -0.011596630737115195 0 -0.0062726822925394604 -0.010137107721841995 0 -0.0096432873760219969 -0.016137395674200913 0 -0.0029346537880254454 -0.0043976080381550138 0 -0.0062726822925394604 -0.010137107721841995 0 -0.0046135738062457344 -0.0081337457467652689 0 -0.0029346537880254454 -0.0043976080381550138 0 -0.0047559651932184933 -0.00655729824265596 0 -0.0062726822925394604 -0.010137107721841995 0 -0.0062726822925394604 -0.010137107721841995 0 -0.0046135738062457344 -0.0081337457467652689 0 -0.0074659976871404195 -0.013791166337954106 0 -0.0046135738062457344 -0.0081337457467652689 0 -0.0074659976871404195 -0.013791166337954106 0 -0.0057441743194082146 -0.011579938386296796 0 -0.0046135738062457344 -0.0081337457467652689 0 -0.0041225034981528779 -0.0083542438662972899 0 -0.0057441743194082146 -0.011579938386296796 0 -0.0041225034981528779 -0.0083542438662972899 0 -0.0057441743194082146 -0.011579938386296796 0 -0.0054818311478772594 -0.012793604043201935 0 -0.0041225034981528779 -0.0083542438662972899 0 -0.002149250920914308 -0.0038401224536850783 0 -0.0024375082010460068 -0.0052518084914159064 0 -0.0046135738062457344 -0.0081337457467652689 0 -0.0041225034981528779 -0.0083542438662972899 0 -0.002149250920914308 -0.0038401224536850783 0 -0.002149250920914308 -0.0038401224536850783 0 -8.2481583798812342e-07 -4.203663943120179e-06 0 -5.1542749616060409e-07 -3.9155335523428084e-06 0 -4.6120746574735326e-07 -3.9747814485575519e-06 0 -0.0029346537880254454 -0.0043976080381550138 0 -8.2481583798812342e-07 -4.203663943120179e-06 0 -0.0029346537880254454 -0.0043976080381550138 0 -0.002149250920914308 -0.0038401224536850783 0 -8.2481583798812342e-07 -4.203663943120179e-06 0 -0.0029346537880254454 -0.0043976080381550138 0 -0.0046135738062457344 -0.0081337457467652689 0 -0.002149250920914308 -0.0038401224536850783 0 -0.010457572344484996 -0.021905178668130822 0 -0.01110262303667163 -0.020489670492000751 0 -0.012193910948974221 -0.024762772280579697 0 -0.010457572344484996 -0.021905178668130822 0 -0.01110262303667163 -0.020489670492000751 0 -0.009555000435233477 -0.018173036554664096 0 -0.010457572344484996 -0.021905178668130822 0 -0.009555000435233477 -0.018173036554664096 0 -0.0086629125996279446 -0.018675415604019953 0 -0.009555000435233477 -0.018173036554664096 0 -0.0096432873760219969 -0.016137395674200913 0 -0.0074659976871404195 -0.013791166337954106 0 -0.0062726822925394604 -0.010137107721841995 0 -0.0096432873760219969 -0.016137395674200913 0 -0.0074659976871404195 -0.013791166337954106 0 -0.009555000435233477 -0.018173036554664096 0 -0.0074659976871404195 -0.013791166337954106 0 -0.0086629125996279446 -0.018675415604019953 0 -0.01110262303667163 -0.020489670492000751 0 -0.009555000435233477 -0.018173036554664096 0 -0.0096432873760219969 -0.016137395674200913 0 -0.0074659976871404195 -0.013791166337954106 0 -0.0057441743194082146 -0.011579938386296796 0 -0.0069437979416161642 -0.014954489972600767 0 -0.0057441743194082146 -0.011579938386296796 0 -0.0069437979416161642 -0.014954489972600767 0 -0.0054818311478772594 -0.012793604043201935 0 -0.0074659976871404195 -0.013791166337954106 0 -0.0069437979416161642 -0.014954489972600767 0 -0.0086629125996279446 -0.018675415604019953 0 -0.0086629125996279446 -0.018675415604019953 0 -0.0093235015732949008 -0.022720560586298226 0 -0.0072053152967326475 -0.018204515321218844 0 -0.0069437979416161642 -0.014954489972600767 0 -0.0086629125996279446 -0.018675415604019953 0 -0.0072053152967326475 -0.018204515321218844 0 -0.010457572344484996 -0.021905178668130822 0 -0.0086629125996279446 -0.018675415604019953 0 -0.0093235015732949008 -0.022720560586298226 0 -0.010457572344484996 -0.021905178668130822 0 -0.0093235015732949008 -0.022720560586298226 0 -0.011180062981653823 -0.026128574048675735 0 -0.0093235015732949008 -0.022720560586298226 0 -0.0078902943053992796 -0.021985380566448016 0 -0.0072053152967326475 -0.018204515321218844 0 -0.0067544549378942415 -0.02079727347891942 0 -0.0078902943053992796 -0.021985380566448016 0 -0.0072053152967326475 -0.018204515321218844 0 -0.0067544549378942415 -0.02079727347891942 0 -0.0072053152967326475 -0.018204515321218844 0 -0.0057356590774184715 -0.016394331783523168 0 -0.0057356590774184715 -0.016394331783523168 0 -0.0054818311478772594 -0.012793604043201935 0 -0.0044644351175852645 -0.012127988249307083 0 -0.0069437979416161642 -0.014954489972600767 0 -0.0072053152967326475 -0.018204515321218844 0 -0.0054818311478772594 -0.012793604043201935 0 -0.0072053152967326475 -0.018204515321218844 0 -0.0057356590774184715 -0.016394331783523168 0 -0.0054818311478772594 -0.012793604043201935 0 -0.0054818311478772594 -0.012793604043201935 0 -0.0044644351175852645 -0.012127988249307083 0 -0.0037660087906512597 -0.0088796463607650495 0 -0.0044644351175852645 -0.012127988249307083 0 -0.0034120069186807387 -0.010880230696686964 0 -0.0047421519475702662 -0.015463877821350802 0 -0.0034120069186807387 -0.010880230696686964 0 -0.0047421519475702662 -0.015463877821350802 0 -0.0035887061646763347 -0.013373565109104188 0 -0.0047421519475702662 -0.015463877821350802 0 -0.0035887061646763347 -0.013373565109104188 0 -0.0040390080505902492 -0.016471984046730434 0 -0.0057356590774184715 -0.016394331783523168 0 -0.0044644351175852645 -0.012127988249307083 0 -0.0047421519475702662 -0.015463877821350802 0 -0.0067544549378942415 -0.02079727347891942 0 -0.0057356590774184715 -0.016394331783523168 0 -0.0053849129254545311 -0.019270653676392826 0 -0.0057356590774184715 -0.016394331783523168 0 -0.0047421519475702662 -0.015463877821350802 0 -0.0053849129254545311 -0.019270653676392826 0 -0.0047421519475702662 -0.015463877821350802 0 -0.0053849129254545311 -0.019270653676392826 0 -0.0040390080505902492 -0.016471984046730434 0 -0.0053849129254545311 -0.019270653676392826 0 -0.0052527522704315238 -0.022538476563255666 0 -0.0064502660922515697 -0.023698136645896543 0 -0.0067544549378942415 -0.02079727347891942 0 -0.0053849129254545311 -0.019270653676392826 0 -0.0064502660922515697 -0.023698136645896543 0 -0.0012784524210904947 -0.0031551744522803418 0 -5.1542749616060409e-07 -3.9155335523428084e-06 0 -0.0024375082010460068 -0.0052518084914159064 0 -0.0012784524210904947 -0.0031551744522803418 0 -0.0024375082010460068 -0.0052518084914159064 0 -0.0026467864425990303 -0.0071288171655940879 0 -0.0012784524210904947 -0.0031551744522803418 0 -5.1542749616060409e-07 -3.9155335523428084e-06 0 -5.3134323049410302e-07 -3.9796630966483446e-06 0 -0.002149250920914308 -0.0038401224536850783 0 -5.1542749616060409e-07 -3.9155335523428084e-06 0 -0.0024375082010460068 -0.0052518084914159064 0 -0.0041225034981528779 -0.0083542438662972899 0 -0.0024375082010460068 -0.0052518084914159064 0 -0.0037660087906512597 -0.0088796463607650495 0 -0.0041225034981528779 -0.0083542438662972899 0 -0.0054818311478772594 -0.012793604043201935 0 -0.0037660087906512597 -0.0088796463607650495 0 -0.0044644351175852645 -0.012127988249307083 0 -0.0037660087906512597 -0.0088796463607650495 0 -0.0026467864425990303 -0.0071288171655940879 0 -0.0024375082010460068 -0.0052518084914159064 0 -0.0037660087906512597 -0.0088796463607650495 0 -0.0026467864425990303 -0.0071288171655940879 0 -0.0044644351175852645 -0.012127988249307083 0 -0.0034120069186807387 -0.010880230696686964 0 -0.0026467864425990303 -0.0071288171655940879 0 -0.0034120069186807387 -0.010880230696686964 0 -0.0026467864425990303 -0.0071288171655940879 0 -0.0022440186161343358 -0.0073036213103265125 0 -0.0034120069186807387 -0.010880230696686964 0 -0.0022440186161343358 -0.0073036213103265125 0 -0.0025081991208434308 -0.0097555730237440068 0 -0.0026467864425990303 -0.0071288171655940879 0 -0.0022440186161343358 -0.0073036213103265125 0 -0.0012285481358050433 -0.0036950168325929986 0 -0.0022440186161343358 -0.0073036213103265125 0 -0.0012285481358050433 -0.0036950168325929986 0 -0.0013005399001087545 -0.0048470748333251856 0 -0.0012784524210904947 -0.0031551744522803418 0 -0.0026467864425990303 -0.0071288171655940879 0 -0.0012285481358050433 -0.0036950168325929986 0 -0.0012784524210904947 -0.0031551744522803418 0 -0.0012285481358050433 -0.0036950168325929986 0 -5.3134323049410302e-07 -3.9796630966483446e-06 0 -0.0012285481358050433 -0.0036950168325929986 0 -5.3134323049410302e-07 -3.9796630966483446e-06 0 -4.6772903557259037e-07 -3.9221600768808261e-06 0 -4.6772903557259037e-07 -3.9221600768808261e-06 0 -0.0013005399001087545 -0.0048470748333251856 0 -2.3334575456478078e-07 -3.901692437516889e-06 0 -0.0012285481358050433 -0.0036950168325929986 0 -4.6772903557259037e-07 -3.9221600768808261e-06 0 -0.0013005399001087545 -0.0048470748333251856 0 -0.0013005399001087545 -0.0048470748333251856 0 -2.3334575456478078e-07 -3.901692437516889e-06 0 -0.0007758699765473033 -0.0036726785239786582 0 -2.3334575456478078e-07 -3.901692437516889e-06 0 -0.0007758699765473033 -0.0036726785239786582 0 -2.2918798704592939e-07 -3.9217590138189832e-06 0 -0.0007758699765473033 -0.0036726785239786582 0 -0.00046818766129113156 -0.0028429085592823248 0 -0.001131942458797643 -0.0068631829186170321 0 -0.00046818766129113156 -0.0028429085592823248 0 -0.001131942458797643 -0.0068631829186170321 0 -0.00053664878057858856 -0.0045620523454664398 0 -0.0007758699765473033 -0.0036726785239786582 0 -0.00046818766129113156 -0.0028429085592823248 0 -2.2918798704592939e-07 -3.9217590138189832e-06 0 -0.00046818766129113156 -0.0028429085592823248 0 -2.2918798704592939e-07 -3.9217590138189832e-06 0 -1.5391963512179899e-07 -3.8842955595516242e-06 0 -0.001131942458797643 -0.0068631829186170321 0 -0.0016825857160646482 -0.011549540593604123 0 -0.00098578393754107933 -0.0091087329076622661 0 -0.001131942458797643 -0.0068631829186170321 0 -0.001954006373920673 -0.010009579832041718 0 -0.0016825857160646482 -0.011549540593604123 0 -0.0007758699765473033 -0.0036726785239786582 0 -0.001131942458797643 -0.0068631829186170321 0 -0.0015060256698705952 -0.0069200637347676848 0 -0.001131942458797643 -0.0068631829186170321 0 -0.001954006373920673 -0.010009579832041718 0 -0.0015060256698705952 -0.0069200637347676848 0 -0.001954006373920673 -0.010009579832041718 0 -0.0015060256698705952 -0.0069200637347676848 0 -0.0025081991208434308 -0.0097555730237440068 0 -0.0013005399001087545 -0.0048470748333251856 0 -0.0007758699765473033 -0.0036726785239786582 0 -0.0015060256698705952 -0.0069200637347676848 0 -0.0013005399001087545 -0.0048470748333251856 0 -0.0015060256698705952 -0.0069200637347676848 0 -0.0025081991208434308 -0.0097555730237440068 0 -0.0022440186161343358 -0.0073036213103265125 0 -0.0013005399001087545 -0.0048470748333251856 0 -0.0025081991208434308 -0.0097555730237440068 0 -0.0034120069186807387 -0.010880230696686964 0 -0.0025081991208434308 -0.0097555730237440068 0 -0.0035887061646763347 -0.013373565109104188 0 -0.0025081991208434308 -0.0097555730237440068 0 -0.0035887061646763347 -0.013373565109104188 0 -0.0029527709387102349 -0.013284893030260075 0 -0.0035887061646763347 -0.013373565109104188 0 -0.0029527709387102349 -0.013284893030260075 0 -0.0040390080505902492 -0.016471984046730434 0 -0.0029527709387102349 -0.013284893030260075 0 -0.003173887121651813 -0.016784949493989967 0 -0.0024061238038629407 -0.013569215355173634 0 -0.0029527709387102349 -0.013284893030260075 0 -0.0040390080505902492 -0.016471984046730434 0 -0.003173887121651813 -0.016784949493989967 0 -0.001954006373920673 -0.010009579832041718 0 -0.0025081991208434308 -0.0097555730237440068 0 -0.0029527709387102349 -0.013284893030260075 0 -0.0053849129254545311 -0.019270653676392826 0 -0.004233254952426364 -0.01980018049594065 0 -0.0052527522704315238 -0.022538476563255666 0 -0.0053849129254545311 -0.019270653676392826 0 -0.004233254952426364 -0.01980018049594065 0 -0.0040390080505902492 -0.016471984046730434 0 -0.004233254952426364 -0.01980018049594065 0 -0.0040390080505902492 -0.016471984046730434 0 -0.003173887121651813 -0.016784949493989967 0 -0.004233254952426364 -0.01980018049594065 0 -0.0030678474287523291 -0.020350301202487538 0 -0.0044200528956546423 -0.023586327149731155 0 -0.004233254952426364 -0.01980018049594065 0 -0.0030678474287523291 -0.020350301202487538 0 -0.003173887121651813 -0.016784949493989967 0 -0.0030678474287523291 -0.020350301202487538 0 -0.003173887121651813 -0.016784949493989967 0 -0.002243369159822893 -0.015732100498113133 0 -0.0030678474287523291 -0.020350301202487538 0 -0.002243369159822893 -0.015732100498113133 0 -0.0019201178714735243 -0.018524001854908042 0 -0.0030678474287523291 -0.020350301202487538 0 -0.0019201178714735243 -0.018524001854908042 0 -0.0023748039056483905 -0.023257093026571248 0 -0.001954006373920673 -0.010009579832041718 0 -0.0029527709387102349 -0.013284893030260075 0 -0.0024061238038629407 -0.013569215355173634 0 -0.001954006373920673 -0.010009579832041718 0 -0.0024061238038629407 -0.013569215355173634 0 -0.0016825857160646482 -0.011549540593604123 0 -0.003173887121651813 -0.016784949493989967 0 -0.0024061238038629407 -0.013569215355173634 0 -0.002243369159822893 -0.015732100498113133 0 -0.002243369159822893 -0.015732100498113133 0 -0.0016825857160646482 -0.011549540593604123 0 -0.0014224691705784862 -0.0138472007839998 0 -0.0024061238038629407 -0.013569215355173634 0 -0.002243369159822893 -0.015732100498113133 0 -0.0016825857160646482 -0.011549540593604123 0 -0.0016825857160646482 -0.011549540593604123 0 -0.0014224691705784862 -0.0138472007839998 0 -0.00098578393754107933 -0.0091087329076622661 0 -0.0014224691705784862 -0.0138472007839998 0 -0.0011024952772687442 -0.016784137580827772 0 -0.00066336391087669789 -0.011611828275053566 0 -0.0014224691705784862 -0.0138472007839998 0 -0.00066336391087669789 -0.011611828275053566 0 -0.00098578393754107933 -0.0091087329076622661 0 -0.0019201178714735243 -0.018524001854908042 0 -0.0013542501936117466 -0.021401622377072035 0 -0.0023748039056483905 -0.023257093026571248 0 -0.002243369159822893 -0.015732100498113133 0 -0.0014224691705784862 -0.0138472007839998 0 -0.0019201178714735243 -0.018524001854908042 0 -0.0014224691705784862 -0.0138472007839998 0 -0.0019201178714735243 -0.018524001854908042 0 -0.0011024952772687442 -0.016784137580827772 0 -0.0019201178714735243 -0.018524001854908042 0 -0.0011024952772687442 -0.016784137580827772 0 -0.0013542501936117466 -0.021401622377072035 0 -0.0011024952772687442 -0.016784137580827772 0 -0.00054703244716073729 -0.019367942360592111 0 -0.0013542501936117466 -0.021401622377072035 0 -0.0011024952772687442 -0.016784137580827772 0 -0.00054703244716073729 -0.019367942360592111 0 -0.00035240004428868145 -0.015655800866610888 0 -0.00035240004428868145 -0.015655800866610888 0 0.00028956689726017366 -0.013957602164024405 0 0.00021681373049717065 -0.017384875738852293 0 -0.00054703244716073729 -0.019367942360592111 0 -0.00035240004428868145 -0.015655800866610888 0 0.00021681373049717065 -0.017384875738852293 0 -0.00054703244716073729 -0.019367942360592111 0 8.8610224379446738e-05 -0.021321288045586629 0 0.00021681373049717065 -0.017384875738852293 0 -0.00066336391087669789 -0.011611828275053566 0 -0.00035240004428868145 -0.015655800866610888 0 -0.00014984122219451336 -0.011708331220476268 0 -0.0011024952772687442 -0.016784137580827772 0 -0.00066336391087669789 -0.011611828275053566 0 -0.00035240004428868145 -0.015655800866610888 0 -0.00035240004428868145 -0.015655800866610888 0 -0.00014984122219451336 -0.011708331220476268 0 0.00028956689726017366 -0.013957602164024405 0 -0.00066336391087669789 -0.011611828275053566 0 -0.00014984122219451336 -0.011708331220476268 0 -0.00014672551802805923 -0.0075621161704075915 0 -0.00014984122219451336 -0.011708331220476268 0 -0.00014672551802805923 -0.0075621161704075915 0 0.00014950174261916513 -0.0098134808318783 0 -0.00066336391087669789 -0.011611828275053566 0 -0.00014672551802805923 -0.0075621161704075915 0 -0.00043542590903513316 -0.0064792779852131449 0 -0.00014672551802805923 -0.0075621161704075915 0 -9.6998363996349116e-05 -0.0035028413733624326 0 -0.00043542590903513316 -0.0064792779852131449 0 -0.00014672551802805923 -0.0075621161704075915 0 -9.6998363996349116e-05 -0.0035028413733624326 0 0.00014479078656923257 -0.0047259643016259057 0 -9.6998363996349116e-05 -0.0035028413733624326 0 -7.0909945391769986e-08 -3.8844668729257434e-06 0 0.00014479078656923257 -0.0047259643016259057 0 -9.6998363996349116e-05 -0.0035028413733624326 0 -7.0909945391769986e-08 -3.8844668729257434e-06 0 -6.7906718225903935e-08 -3.924474860749006e-06 0 -9.6998363996349116e-05 -0.0035028413733624326 0 -6.7906718225903935e-08 -3.924474860749006e-06 0 -0.00022471835411431662 -0.0029683258998602444 0 -9.6998363996349116e-05 -0.0035028413733624326 0 -0.00022471835411431662 -0.0029683258998602444 0 -0.00043542590903513316 -0.0064792779852131449 0 -0.00022471835411431662 -0.0029683258998602444 0 -1.5391963512179899e-07 -3.8842955595516242e-06 0 -0.00053664878057858856 -0.0045620523454664398 0 -0.00022471835411431662 -0.0029683258998602444 0 -0.00053664878057858856 -0.0045620523454664398 0 -0.00043542590903513316 -0.0064792779852131449 0 -6.7906718225903935e-08 -3.924474860749006e-06 0 -0.00022471835411431662 -0.0029683258998602444 0 -1.5391963512179899e-07 -3.8842955595516242e-06 0 -0.00046818766129113156 -0.0028429085592823248 0 -1.5391963512179899e-07 -3.8842955595516242e-06 0 -0.00053664878057858856 -0.0045620523454664398 0 -0.001131942458797643 -0.0068631829186170321 0 -0.00053664878057858856 -0.0045620523454664398 0 -0.00098578393754107933 -0.0091087329076622661 0 -0.00066336391087669789 -0.011611828275053566 0 -0.00098578393754107933 -0.0091087329076622661 0 -0.00043542590903513316 -0.0064792779852131449 0 -0.00053664878057858856 -0.0045620523454664398 0 -0.00098578393754107933 -0.0091087329076622661 0 -0.00043542590903513316 -0.0064792779852131449 0 -0.0013302119324533797 -0.034915229595731789 0 -0.0023558429257100268 -0.037625396840549399 0 -0.00095515948006543827 -0.039182946075407135 0 -0.0013302119324533797 -0.034915229595731789 0 -0.002523746184356915 -0.034028395505696314 0 -0.0023558429257100268 -0.037625396840549399 0 -0.0013302119324533797 -0.034915229595731789 0 -0.002523746184356915 -0.034028395505696314 0 -0.0019458185999469716 -0.030243682782307681 0 -0.0023558429257100268 -0.037625396840549399 0 -0.0022484996453389773 -0.042151335716810304 0 -0.00095515948006543827 -0.039182946075407135 0 -0.0022484996453389773 -0.042151335716810304 0 -0.00084218204795175478 -0.044722758987039014 0 -0.0025294660761687438 -0.046633158009492977 0 -0.0022484996453389773 -0.042151335716810304 0 -0.00084218204795175478 -0.044722758987039014 0 -0.00095515948006543827 -0.039182946075407135 0 -0.00084218204795175478 -0.044722758987039014 0 -0.00095515948006543827 -0.039182946075407135 0 -4.1515991130394341e-05 -0.041852902968396166 0 -0.00095515948006543827 -0.039182946075407135 0 -4.1515991130394341e-05 -0.041852902968396166 0 0.00076525403611707931 -0.039295372806309209 0 -0.00084218204795175478 -0.044722758987039014 0 -4.1515991130394341e-05 -0.041852902968396166 0 0.00091858877247109698 -0.044201217793202442 0 -4.1515991130394341e-05 -0.041852902968396166