<?xml version="1.0"?>
<VTKFile type="UnstructuredGrid" version="0.1" byte_order="LittleEndian">
<UnstructuredGrid>
<Piece NumberOfPoints="3142" NumberOfCells="1054">
<Points>
<DataArray type="Float64" NumberOfComponents="3" format="ascii">
0.02576622439977887 0.024532886826226379 0 0 0 0 0.049999999999899652 0 0 0.02576622439977887 0.024532886826226379 0 0 0 0 0 0.050000000000207989 0 0.02576622439977887 0.024532886826226379 0 0.049999999999899652 0 0 0.053064897599215843 0.048131547304697528 0 0.02576622439977887 0.024532886826226379 0 0.053064897599215843 0.048131547304697528 0 0 0.050000000000207989 0 0 0.050000000000207989 0 0 0.10000000000041601 0 0.044310582753132287 0.101412518374475 0 0 0.10000000000041601 0 0.044310582753132287 0.101412518374475 0 0 0.15000000000062411 0 0.053064897599215843 0.048131547304697528 0 0.044310582753132287 0.101412518374475 0 0.083411279318303222 0.089699755330707398 0 0.053064897599215843 0.048131547304697528 0 0 0.050000000000207989 0 0.044310582753132287 0.101412518374475 0 0.044310582753132287 0.101412518374475 0 0.083411279318303222 0.089699755330707398 0 0.065374659239632718 0.1448908038746782 0 0.083411279318303222 0.089699755330707398 0 0.065374659239632718 0.1448908038746782 0 0.1053400320299198 0.12877248826361379 0 0.083411279318303222 0.089699755330707398 0 0.12372429750337779 0.095814237875728972 0 0.1053400320299198 0.12877248826361379 0 0.12372429750337779 0.095814237875728972 0 0.1053400320299198 0.12877248826361379 0 0.14332333627550789 0.14578431753966009 0 0.12372429750337779 0.095814237875728972 0 0.10266856499169109 0.044518360900210059 0 0.14618258501891079 0.062070108745602003 0 0.083411279318303222 0.089699755330707398 0 0.12372429750337779 0.095814237875728972 0 0.10266856499169109 0.044518360900210059 0 0.10266856499169109 0.044518360900210059 0 0.099999999999814668 0 0 0.14999999999970359 0 0 0.049999999999899652 0 0 0.053064897599215843 0.048131547304697528 0 0.099999999999814668 0 0 0.053064897599215843 0.048131547304697528 0 0.10266856499169109 0.044518360900210059 0 0.099999999999814668 0 0 0.053064897599215843 0.048131547304697528 0 0.083411279318303222 0.089699755330707398 0 0.10266856499169109 0.044518360900210059 0 0.044081577119474857 0.2271058242433576 0 0 0.20000000000083221 0 0 0.25000000000104028 0 0.044081577119474857 0.2271058242433576 0 0 0.20000000000083221 0 0.038512288486115001 0.1844147282893184 0 0.044081577119474857 0.2271058242433576 0 0.038512288486115001 0.1844147282893184 0 0.083105206071467416 0.20007701332709979 0 0.038512288486115001 0.1844147282893184 0 0 0.15000000000062411 0 0.065374659239632718 0.1448908038746782 0 0.044310582753132287 0.101412518374475 0 0 0.15000000000062411 0 0.065374659239632718 0.1448908038746782 0 0.038512288486115001 0.1844147282893184 0 0.065374659239632718 0.1448908038746782 0 0.083105206071467416 0.20007701332709979 0 0 0.20000000000083221 0 0.038512288486115001 0.1844147282893184 0 0 0.15000000000062411 0 0.065374659239632718 0.1448908038746782 0 0.1053400320299198 0.12877248826361379 0 0.106902708054812 0.16453234188234539 0 0.1053400320299198 0.12877248826361379 0 0.106902708054812 0.16453234188234539 0 0.14332333627550789 0.14578431753966009 0 0.065374659239632718 0.1448908038746782 0 0.106902708054812 0.16453234188234539 0 0.083105206071467416 0.20007701332709979 0 0.083105206071467416 0.20007701332709979 0 0.095326043202144745 0.24554465089224409 0 0.13737030665753211 0.20313708640667491 0 0.106902708054812 0.16453234188234539 0 0.083105206071467416 0.20007701332709979 0 0.13737030665753211 0.20313708640667491 0 0.044081577119474857 0.2271058242433576 0 0.083105206071467416 0.20007701332709979 0 0.095326043202144745 0.24554465089224409 0 0.044081577119474857 0.2271058242433576 0 0.095326043202144745 0.24554465089224409 0 0.049706944316556423 0.27522722923869108 0 0.095326043202144745 0.24554465089224409 0 0.14377654328998779 0.2442024734791064 0 0.13737030665753211 0.20313708640667491 0 0.17933913398461551 0.2350063570234002 0 0.14377654328998779 0.2442024734791064 0 0.13737030665753211 0.20313708640667491 0 0.17933913398461551 0.2350063570234002 0 0.13737030665753211 0.20313708640667491 0 0.18124454140915969 0.18790916706335251 0 0.18124454140915969 0.18790916706335251 0 0.14332333627550789 0.14578431753966009 0 0.18652628422869419 0.14162325200928061 0 0.106902708054812 0.16453234188234539 0 0.13737030665753211 0.20313708640667491 0 0.14332333627550789 0.14578431753966009 0 0.13737030665753211 0.20313708640667491 0 0.18124454140915969 0.18790916706335251 0 0.14332333627550789 0.14578431753966009 0 0.14332333627550789 0.14578431753966009 0 0.18652628422869419 0.14162325200928061 0 0.16141998738593399 0.10404039647458049 0 0.18652628422869419 0.14162325200928061 0 0.22985637510995899 0.1298347970200906 0 0.2185883431182947 0.18019736283949719 0 0.22985637510995899 0.1298347970200906 0 0.2185883431182947 0.18019736283949719 0 0.25557216766470708 0.15874861286892261 0 0.2185883431182947 0.18019736283949719 0 0.25557216766470708 0.15874861286892261 0 0.26429849586623999 0.19346700179430079 0 0.18124454140915969 0.18790916706335251 0 0.18652628422869419 0.14162325200928061 0 0.2185883431182947 0.18019736283949719 0 0.17933913398461551 0.2350063570234002 0 0.18124454140915969 0.18790916706335251 0 0.224700362040408 0.22206622194729711 0 0.18124454140915969 0.18790916706335251 0 0.2185883431182947 0.18019736283949719 0 0.224700362040408 0.22206622194729711 0 0.2185883431182947 0.18019736283949719 0 0.224700362040408 0.22206622194729711 0 0.26429849586623999 0.19346700179430079 0 0.224700362040408 0.22206622194729711 0 0.25195515620380449 0.25883339815888678 0 0.21049769590865089 0.26857363548218488 0 0.17933913398461551 0.2350063570234002 0 0.224700362040408 0.22206622194729711 0 0.21049769590865089 0.26857363548218488 0 0.184418230509967 0.038773194583122873 0 0.14999999999970359 0 0 0.14618258501891079 0.062070108745602003 0 0.184418230509967 0.038773194583122873 0 0.14618258501891079 0.062070108745602003 0 0.19922788606653311 0.085920220746880993 0 0.184418230509967 0.038773194583122873 0 0.14999999999970359 0 0 0.19999999999955789 0 0 0.10266856499169109 0.044518360900210059 0 0.14999999999970359 0 0 0.14618258501891079 0.062070108745602003 0 0.12372429750337779 0.095814237875728972 0 0.14618258501891079 0.062070108745602003 0 0.16141998738593399 0.10404039647458049 0 0.12372429750337779 0.095814237875728972 0 0.14332333627550789 0.14578431753966009 0 0.16141998738593399 0.10404039647458049 0 0.18652628422869419 0.14162325200928061 0 0.16141998738593399 0.10404039647458049 0 0.19922788606653311 0.085920220746880993 0 0.14618258501891079 0.062070108745602003 0 0.16141998738593399 0.10404039647458049 0 0.19922788606653311 0.085920220746880993 0 0.18652628422869419 0.14162325200928061 0 0.22985637510995899 0.1298347970200906 0 0.19922788606653311 0.085920220746880993 0 0.22985637510995899 0.1298347970200906 0 0.19922788606653311 0.085920220746880993 0 0.24218496799700481 0.089025544070598317 0 0.22985637510995899 0.1298347970200906 0 0.24218496799700481 0.089025544070598317 0 0.27474541102162192 0.11822029332053539 0 0.19922788606653311 0.085920220746880993 0 0.24218496799700481 0.089025544070598317 0 0.22668068146512929 0.045875643423131329 0 0.24218496799700481 0.089025544070598317 0 0.22668068146512929 0.045875643423131329 0 0.27499999999933927 0.060310814194988557 0 0.184418230509967 0.038773194583122873 0 0.19922788606653311 0.085920220746880993 0 0.22668068146512929 0.045875643423131329 0 0.184418230509967 0.038773194583122873 0 0.22668068146512929 0.045875643423131329 0 0.19999999999955789 0 0 0.22668068146512929 0.045875643423131329 0 0.19999999999955789 0 0 0.24999999999941211 0 0 0.24999999999941211 0 0 0.27499999999933927 0.060310814194988557 0 0.29999999999926641 0 0 0.22668068146512929 0.045875643423131329 0 0.24999999999941211 0 0 0.27499999999933927 0.060310814194988557 0 0.27499999999933927 0.060310814194988557 0 0.29999999999926641 0 0 0.32541448401678508 0.046215317981507749 0 0.29999999999926641 0 0 0.32541448401678508 0.046215317981507749 0 0.34999999999912063 0 0 0.32541448401678508 0.046215317981507749 0 0.3615861437013822 0.03582617922508851 0 0.35312867752657662 0.084946736076730367 0 0.3615861437013822 0.03582617922508851 0 0.35312867752657662 0.084946736076730367 0 0.39591832466117061 0.056982757562006353 0 0.32541448401678508 0.046215317981507749 0 0.3615861437013822 0.03582617922508851 0 0.34999999999912063 0 0 0.3615861437013822 0.03582617922508851 0 0.34999999999912063 0 0 0.3999999999989749 0 0 0.35312867752657662 0.084946736076730367 0 0.36246644853392812 0.1399454205365751 0 0.39823268594401579 0.1116623613130045 0 0.35312867752657662 0.084946736076730367 0 0.32215584939770009 0.1218492143506909 0 0.36246644853392812 0.1399454205365751 0 0.32541448401678508 0.046215317981507749 0 0.35312867752657662 0.084946736076730367 0 0.3096713403101819 0.085471541595262421 0 0.35312867752657662 0.084946736076730367 0 0.32215584939770009 0.1218492143506909 0 0.3096713403101819 0.085471541595262421 0 0.32215584939770009 0.1218492143506909 0 0.3096713403101819 0.085471541595262421 0 0.27474541102162192 0.11822029332053539 0 0.27499999999933927 0.060310814194988557 0 0.32541448401678508 0.046215317981507749 0 0.3096713403101819 0.085471541595262421 0 0.27499999999933927 0.060310814194988557 0 0.3096713403101819 0.085471541595262421 0 0.27474541102162192 0.11822029332053539 0 0.24218496799700481 0.089025544070598317 0 0.27499999999933927 0.060310814194988557 0 0.27474541102162192 0.11822029332053539 0 0.22985637510995899 0.1298347970200906 0 0.27474541102162192 0.11822029332053539 0 0.25557216766470708 0.15874861286892261 0 0.27474541102162192 0.11822029332053539 0 0.25557216766470708 0.15874861286892261 0 0.29336099386129338 0.15892013001050981 0 0.25557216766470708 0.15874861286892261 0 0.29336099386129338 0.15892013001050981 0 0.26429849586623999 0.19346700179430079 
[...]
<PointData Scalars="" Vectors="displacement," Tensors="">
<DataArray type="Float64" Name="displacement" NumberOfComponents="3" format="ascii">
-0.00014782668823158976 -0.00041748399542711662 0 -4.6436515312770558e-07 -1.1629829583681111e-06 0 -1.5491758245081204e-08 -7.3101479143081276e-07 0 -0.00014782668823158976 -0.00041748399542711662 0 -4.6436515312770558e-07 -1.1629829583681111e-06 0 -0.00052212234324000074 -0.0010442298556498563 0 -0.00014782668823158976 -0.00041748399542711662 0 -1.5491758245081204e-08 -7.3101479143081276e-07 0 -0.00019483295574381209 -0.0007632775650215606 0 -0.00014782668823158976 -0.00041748399542711662 0 -0.00019483295574381209 -0.0007632775650215606 0 -0.00052212234324000074 -0.0010442298556498563 0 -0.00052212234324000074 -0.0010442298556498563 0 -0.00077317730240618007 -0.0020050817045369775 0 -0.00049815400096192694 -0.0018008149595060503 0 -0.00077317730240618007 -0.0020050817045369775 0 -0.00049815400096192694 -0.0018008149595060503 0 -0.00098212871244782282 -0.0029887137903188317 0 -0.00019483295574381209 -0.0007632775650215606 0 -0.00049815400096192694 -0.0018008149595060503 0 -0.00023375813322548358 -0.0014046165447708337 0 -0.00019483295574381209 -0.0007632775650215606 0 -0.00052212234324000074 -0.0010442298556498563 0 -0.00049815400096192694 -0.0018008149595060503 0 -0.00049815400096192694 -0.0018008149595060503 0 -0.00023375813322548358 -0.0014046165447708337 0 -0.00054399399609452901 -0.002497555409695072 0 -0.00023375813322548358 -0.0014046165447708337 0 -0.00054399399609452901 -0.002497555409695072 0 -0.00027387499391656896 -0.0019522296598024225 0 -0.00023375813322548358 -0.0014046165447708337 0 -0.00010119838456048227 -0.0013458170675827998 0 -0.00027387499391656896 -0.0019522296598024225 0 -0.00010119838456048227 -0.0013458170675827998 0 -0.00027387499391656896 -0.0019522296598024225 0 -0.00017390790399284177 -0.0019682313557028998 0 -0.00010119838456048227 -0.0013458170675827998 0 -5.3532680981424518e-05 -0.00063632093625095036 0 2.1063953672825953e-05 -0.00079907530779744378 0 -0.00023375813322548358 -0.0014046165447708337 0 -0.00010119838456048227 -0.0013458170675827998 0 -5.3532680981424518e-05 -0.00063632093625095036 0 -5.3532680981424518e-05 -0.00063632093625095036 0 -6.8429896803733992e-09 -6.8307483970978954e-07 0 8.5817019990494278e-08 -5.7053298538127271e-07 0 -1.5491758245081204e-08 -7.3101479143081276e-07 0 -0.00019483295574381209 -0.0007632775650215606 0 -6.8429896803733992e-09 -6.8307483970978954e-07 0 -0.00019483295574381209 -0.0007632775650215606 0 -5.3532680981424518e-05 -0.00063632093625095036 0 -6.8429896803733992e-09 -6.8307483970978954e-07 0 -0.00019483295574381209 -0.0007632775650215606 0 -0.00023375813322548358 -0.0014046165447708337 0 -5.3532680981424518e-05 -0.00063632093625095036 0 -0.0010797534158666746 -0.0042609413822885592 0 -0.0012302126143982298 -0.0040303325733577469 0 -0.0015461654567918849 -0.0051458618445394608 0 -0.0010797534158666746 -0.0042609413822885592 0 -0.0012302126143982298 -0.0040303325733577469 0 -0.00088792418281090986 -0.0034429185475558606 0 -0.0010797534158666746 -0.0042609413822885592 0 -0.00088792418281090986 -0.0034429185475558606 0 -0.00069322394328721166 -0.0033628693219454895 0 -0.00088792418281090986 -0.0034429185475558606 0 -0.00098212871244782282 -0.0029887137903188317 0 -0.00054399399609452901 -0.002497555409695072 0 -0.00049815400096192694 -0.0018008149595060503 0 -0.00098212871244782282 -0.0029887137903188317 0 -0.00054399399609452901 -0.002497555409695072 0 -0.00088792418281090986 -0.0034429185475558606 0 -0.00054399399609452901 -0.002497555409695072 0 -0.00069322394328721166 -0.0033628693219454895 0 -0.0012302126143982298 -0.0040303325733577469 0 -0.00088792418281090986 -0.0034429185475558606 0 -0.00098212871244782282 -0.0029887137903188317 0 -0.00054399399609452901 -0.002497555409695072 0 -0.00027387499391656896 -0.0019522296598024225 0 -0.0003991882516356493 -0.0025326260656576296 0 -0.00027387499391656896 -0.0019522296598024225 0 -0.0003991882516356493 -0.0025326260656576296 0 -0.00017390790399284177 -0.0019682313557028998 0 -0.00054399399609452901 -0.002497555409695072 0 -0.0003991882516356493 -0.0025326260656576296 0 -0.00069322394328721166 -0.0033628693219454895 0 -0.00069322394328721166 -0.0033628693219454895 0 -0.00087296439429765448 -0.0040497786887542554 0 -0.00042880136012348429 -0.0028632948385797288 0 -0.0003991882516356493 -0.0025326260656576296 0 -0.00069322394328721166 -0.0033628693219454895 0 -0.00042880136012348429 -0.0028632948385797288 0 -0.0010797534158666746 -0.0042609413822885592 0 -0.00069322394328721166 -0.0033628693219454895 0 -0.00087296439429765448 -0.0040497786887542554 0 -0.0010797534158666746 -0.0042609413822885592 0 -0.00087296439429765448 -0.0040497786887542554 0 -0.0013728232975515656 -0.0052056871880928959 0 -0.00087296439429765448 -0.0040497786887542554 0 -0.00064508054565123407 -0.00340551490960892 0 -0.00042880136012348429 -0.0028632948385797288 0 -0.00045900549970228586 -0.0028194288310496303 0 -0.00064508054565123407 -0.00340551490960892 0 -0.00042880136012348429 -0.0028632948385797288 0 -0.00045900549970228586 -0.0028194288310496303 0 -0.00042880136012348429 -0.0028632948385797288 0 -0.00021379152853463713 -0.002215644368195561 0 -0.00021379152853463713 -0.002215644368195561 0 -0.00017390790399284177 -0.0019682313557028998 0 -3.835414934429828e-05 -0.0016051229450865451 0 -0.0003991882516356493 -0.0025326260656576296 0 -0.00042880136012348429 -0.0028632948385797288 0 -0.00017390790399284177 -0.0019682313557028998 0 -0.00042880136012348429 -0.0028632948385797288 0 -0.00021379152853463713 -0.002215644368195561 0 -0.00017390790399284177 -0.0019682313557028998 0 -0.00017390790399284177 -0.0019682313557028998 0 -3.835414934429828e-05 -0.0016051229450865451 0 -8.4426245838835462e-06 -0.001285515068201694 0 -3.835414934429828e-05 -0.0016051229450865451 0 6.6206944858446294e-05 -0.0011943873438176556 0 -0.00010784412961765413 -0.0017743185260453217 0 6.6206944858446294e-05 -0.0011943873438176556 0 -0.00010784412961765413 -0.0017743185260453217 0 7.8298186653784969e-06 -0.0012712326267791969 0 -0.00010784412961765413 -0.0017743185260453217 0 7.8298186653784969e-06 -0.0012712326267791969 0 -0.00011982154377056498 -0.0014654211686371736 0 -0.00021379152853463713 -0.002215644368195561 0 -3.835414934429828e-05 -0.0016051229450865451 0 -0.00010784412961765413 -0.0017743185260453217 0 -0.00045900549970228586 -0.0028194288310496303 0 -0.00021379152853463713 -0.002215644368195561 0 -0.00028966370886432017 -0.0021230332799025407 0 -0.00021379152853463713 -0.002215644368195561 0 -0.00010784412961765413 -0.0017743185260453217 0 -0.00028966370886432017 -0.0021230332799025407 0 -0.00010784412961765413 -0.0017743185260453217 0 -0.00028966370886432017 -0.0021230332799025407 0 -0.00011982154377056498 -0.0014654211686371736 0 -0.00028966370886432017 -0.0021230332799025407 0 -0.00049935480677661928 -0.0020851304787141171 0 -0.00059810264112666151 -0.0027690016265350271 0 -0.00045900549970228586 -0.0028194288310496303 0 -0.00028966370886432017 -0.0021230332799025407 0 -0.00059810264112666151 -0.0027690016265350271 0 7.3068863234434372e-05 -0.00041974407482495932 0 8.5817019990494278e-08 -5.7053298538127271e-07 0 2.1063953672825953e-05 -0.00079907530779744378 0 7.3068863234434372e-05 -0.00041974407482495932 0 2.1063953672825953e-05 -0.00079907530779744378 0 0.00010169856598960923 -0.00090475361890191225 0 7.3068863234434372e-05 -0.00041974407482495932 0 8.5817019990494278e-08 -5.7053298538127271e-07 0 4.5909687176269841e-08 -4.9993026832745253e-07 0 -5.3532680981424518e-05 -0.00063632093625095036 0 8.5817019990494278e-08 -5.7053298538127271e-07 0 2.1063953672825953e-05 -0.00079907530779744378 0 -0.00010119838456048227 -0.0013458170675827998 0 2.1063953672825953e-05 -0.00079907530779744378 0 -8.4426245838835462e-06 -0.001285515068201694 0 -0.00010119838456048227 -0.0013458170675827998 0 -0.00017390790399284177 -0.0019682313557028998 0 -8.4426245838835462e-06 -0.001285515068201694 0 -3.835414934429828e-05 -0.0016051229450865451 0 -8.4426245838835462e-06 -0.001285515068201694 0 0.00010169856598960923 -0.00090475361890191225 0 2.1063953672825953e-05 -0.00079907530779744378 0 -8.4426245838835462e-06 -0.001285515068201694 0 0.00010169856598960923 -0.00090475361890191225 0 -3.835414934429828e-05 -0.0016051229450865451 0 6.6206944858446294e-05 -0.0011943873438176556 0 0.00010169856598960923 -0.00090475361890191225 0 6.6206944858446294e-05 -0.0011943873438176556 0 0.00010169856598960923 -0.00090475361890191225 0 0.00013843747170682523 -0.00076341333153185395 0 6.6206944858446294e-05 -0.0011943873438176556 0 0.00013843747170682523 -0.00076341333153185395 0 0.00012076205288559532 -0.00084712832379929884 0 0.00010169856598960923 -0.00090475361890191225 0 0.00013843747170682523 -0.00076341333153185395 0 0.00011938438810467906 -0.00041613573603708435 0 0.00013843747170682523 -0.00076341333153185395 0 0.00011938438810467906 -0.00041613573603708435 0 0.00015713467613410277 -0.00043301647714322271 0 7.3068863234434372e-05 -0.00041974407482495932 0 0.00010169856598960923 -0.00090475361890191225 0 0.00011938438810467906 -0.00041613573603708435 0 7.3068863234434372e-05 -0.00041974407482495932 0 0.00011938438810467906 -0.00041613573603708435 0 4.5909687176269841e-08 -4.9993026832745253e-07 0 0.00011938438810467906 -0.00041613573603708435 0 4.5909687176269841e-08 -4.9993026832745253e-07 0 8.3224161600435352e-08 -4.1209080523572539e-07 0 8.3224161600435352e-08 -4.1209080523572539e-07 0 0.00015713467613410277 -0.00043301647714322271 0 7.8674996473422722e-08 -3.0829388592640107e-07 0 0.00011938438810467906 -0.00041613573603708435 0 8.3224161600435352e-08 -4.1209080523572539e-07 0 0.00015713467613410277 -0.00043301647714322271 0 0.00015713467613410277 -0.00043301647714322271 0 7.8674996473422722e-08 -3.0829388592640107e-07 0 0.0001222413566112052 -0.00025021408766807919 0 7.8674996473422722e-08 -3.0829388592640107e-07 0 0.0001222413566112052 -0.00025021408766807919 0 5.0066491343419537e-08 -2.3433743991897351e-07 0 0.0001222413566112052 -0.00025021408766807919 0 8.4430309693498551e-05 -0.00015061751275189796 0 0.00012400859159443844 -0.00036045905090764717 0 8.4430309693498551e-05 -0.00015061751275189796 0 0.00012400859159443844 -0.00036045905090764717 0 8.1486011975041617e-05 -0.00017306535826600291 0 0.0001222413566112052 -0.00025021408766807919 0 8.4430309693498551e-05 -0.00015061751275189796 0 5.0066491343419537e-08 -2.3433743991897351e-07 0 8.4430309693498551e-05 -0.00015061751275189796 0 5.0066491343419537e-08 -2.3433743991897351e-07 0 5.9125924116743254e-08 -1.6939377730814037e-07 0 0.00012400859159443844 -0.00036045905090764717 0 1.6553338073949544e-05 -0.00051593745962893534 0 3.448904772540236e-05 -0.00029858652321800391 0 0.00012400859159443844 -0.00036045905090764717 0 9.7466052559879414e-05 -0.00063933084605822762 0 1.6553338073949544e-05 -0.00051593745962893534 0 0.0001222413566112052 -0.00025021408766807919 0 0.00012400859159443844 -0.00036045905090764717 0 0.00014797002542159171 -0.00049682342993630907 0 0.00012400859159443844 -0.00036045905090764717 0 9.7466052559879414e-05 -0.00063933084605822762 0 0.00014797002542159171 -0.00049682342993630907 0 9.7466052559879414e-05 -0.00063933084605822762 0 0.00014797002542159171 -0.00049682342993630907 0 0.00012076205288559532 -0.00084712832379929884 0 0.00015713467613410277 -0.00043301647714322271 0 0.0001222413566112052 -0.00025021408766807919 0 0.00014797002542159171 -0.00049682342993630907 0 0.00015713467613410277 -0.00043301647714322271 0 0.00014797002542159171 -0.00049682342993630907 0 0.00012076205288559532 -0.00084712832379929884 0 0.00013843747170682523 -0.00076341333153185395 0 0.00015713467613410277 -0.00043301647714322271 0 0.00012076205288559532 -0.00084712832379929884 0 6.6206944858446294e-05 -0.0011943873438176556 0 0.00012076205288559532 -0.00084712832379929884 0 7.8298186653784969e-06 -0.0012712326267791969 0 0.00012076205288559532 -0.00084712832379929884 0 7.8298186653784969e-06 -0.0012712326267791969 0 1.6914677070186058e-05 -0.0010039189067095279 0 7.8298186653784969e-06 -0.0012712326267791969 0 1.6914677070186058e-05 -0.0010039189067095279 0 -0.00011982154377056498 -0.0014654211686371736 0 1.6914677070186058e-05 -0.0010039189067095279 0 -0.00016219325906448548 -0.0010656414740984569 0 -2.7488176135612814e-05 -0.00077795720177549759 0 1.6914677070186058e-05 -0.0010039189067095279 0 -0.00011982154377056498 -0.0014654211686371736 0 -0.00016219325906448548 -0.0010656414740984569 0 9.7466052559879414e-05 -0.00063933084605822762 0 0.00012076205288559532 -0.00084712832379929884 0 1.6914677070186058e-05 -0.0010039189067095279 0 -0.00028966370886432017 -0.0021230332799025407 0 -0.00032380435550976899 -0.0015442602253850244 0 -0.00049935480677661928 -0.0020851304787141171 0 -0.00028966370886432017 -0.0021230332799025407 0 -0.00032380435550976899 -0.0015442602253850244 0 -0.00011982154377056498 -0.0014654211686371736 0 -0.00032380435550976899 -0.0015442602253850244 0 -0.00011982154377056498 -0.0014654211686371736 0 -0.00016219325906448548 -0.0010656414740984569 0 -0.00032380435550976899 -0.0015442602253850244 0 -0.00043951605993540173 -0.00097673718922761631 0 -0.00060660112964259463 -0.001615804568401517 0 -0.00032380435550976899 -0.0015442602253850244 0 -0.00043951605993540173 -0.00097673718922761631 0 -0.00016219325906448548 -0.0010656414740984569 0 -0.00043951605993540173 -0.00097673718922761631 0 -0.00016219325906448548 -0.0010656414740984569 0 -0.0001665469559504647 -0.00068418075437367719 0 -0.00043951605993540173 -0.00097673718922761631 0 -0.0001665469559504647 -0.00068418075437367719 0 -0.00040679899949074976 -0.00052454642068724337 0 -0.00043951605993540173 -0.00097673718922761631 0 -0.00040679899949074976 -0.00052454642068724337 0 -0.00080714005639374842 -0.00063337786078269921 0 9.7466052559879414e-05 -0.00063933084605822762 0 1.6914677070186058e-05 -0.0010039189067095279 0 -2.7488176135612814e-05 -0.00077795720177549759 0 9.7466052559879414e-05 -0.00063933084605822762 0 -2.7488176135612814e-05 -0.00077795720177549759 0 1.6553338073949544e-05 -0.00051593745962893534 0 -0.00016219325906448548 -0.0010656414740984569 0 -2.7488176135612814e-05 -0.00077795720177549759 0 -0.0001665469559504647 -0.00068418075437367719 0 -0.0001665469559504647 -0.00068418075437367719 0 1.6553338073949544e-05 -0.00051593745962893534 0 -0.0001281896251154647 -0.00039390915466353102 0 -2.7488176135612814e-05 -0.00077795720177549759 0 -0.0001665469559504647 -0.00068418075437367719 0 1.6553338073949544e-05 -0.00051593745962893534 0 1.6553338073949544e-05 -0.00051593745962893534 0 -0.0001281896251154647 -0.00039390915466353102 0 3.448904772540236e-05 -0.00029858652321800391 0 -0.0001281896251154647 -0.00039390915466353102 0 -0.00034770752258900619 -0.00026073078315425405 0 -0.00011004503913236577 -0.00019167284468565144 0 -0.0001281896251154647 -0.00039390915466353102 0 -0.00011004503913236577 -0.00019167284468565144 0 3.448904772540236e-05 -0.00029858652321800391 0 -0.00040679899949074976 -0.00052454642068724337 0 -0.00075531499997627614 -0.00027851978311860563 0 -0.00080714005639374842 -0.00063337786078269921 0 -0.0001665469559504647 -0.00068418075437367719 0 -0.0001281896251154647 -0.00039390915466353102 0 -0.00040679899949074976 -0.00052454642068724337 0 -0.0001281896251154647 -0.00039390915466353102 0 -0.00040679899949074976 -0.00052454642068724337 0 -0.00034770752258900619 -0.00026073078315425405 0 -0.00040679899949074976 -0.00052454642068724337 0 -0.00034770752258900619 -0.00026073078315425405 0 -0.00075531499997627614 -0.00027851978311860563 0 -0.00034770752258900619 -0.00026073078315425405 0 -0.00060372104050904251 -8.0850774371512714e-05 0 -0.00075531499997627614 -0.00027851978311860563 0 -0.00034770752258900619 -0.00026073078315425405 0 -0.00060372104050904251 -8.0850774371512714e-05 0 -0.00035115055281521602 -9.3553168635371228e-05 0 -0.00035115055281521602 -9.3553168635371228e-05 0 -0.00032335313750036869 -4.6003205263784329e-05 0 -0.00049263447865990353 -4.8224565471721671e-06 0 -0.00060372104050904251 -8.0850774371512714e-05 0 -0.00035115055281521602 -9.3553168635371228e-05 0 -0.00049263447865990353 -4.8224565471721671e-06 0 -0.00060372104050904251 -8.0850774371512714e-05 0 -0.00081452154087622599 6.4722852696632956e-05 0 -0.00049263447865990353 -4.8224565471721671e-06 0 -0.00011004503913236577 -0.00019167284468565144 0 -0.00035115055281521602 -9.3553168635371228e-05 0 -0.00019257097254654973 -9.3234975356264486e-05 0 -0.00034770752258900619 -0.00026073078315425405 0 -0.00011004503913236577 -0.00019167284468565144 0 -0.00035115055281521602 -9.3553168635371228e-05 0 -0.00035115055281521602 -9.3553168635371228e-05 0 -0.00019257097254654973 -9.3234975356264486e-05 0 -0.00032335313750036869 -4.6003205263784329e-05 0 -0.00011004503913236577 -0.00019167284468565144 0 -0.00019257097254654973 -9.3234975356264486e-05 0 -6.6684595276578478e-05 -9.9027188125772595e-05 0 -0.00019257097254654973 -9.3234975356264486e-05 0 -6.6684595276578478e-05 -9.9027188125772595e-05 0 -0.00017698431345256052 -7.2138476411332293e-05 0 -0.00011004503913236577 -0.00019167284468565144 0 -6.6684595276578478e-05 -9.9027188125772595e-05 0 1.9396986899570192e-05 -0.00015230535350904947 0 -6.6684595276578478e-05 -9.9027188125772595e-05 0 -3.1156471772460612e-06 -6.9929489307872351e-05 0 1.9396986899570192e-05 -0.00015230535350904947 0 -6.6684595276578478e-05 -9.9027188125772595e-05 0 -3.1156471772460612e-06 -6.9929489307872351e-05 0 -8.2148817327129113e-05 -6.4153470378987856e-05 0 -3.1156471772460612e-06 -6.9929489307872351e-05 0 1.7333137711831184e-08 -8.8945413328641725e-08 0 -8.2148817327129113e-05 -6.4153470378987856e-05 0 -3.1156471772460612e-06 -6.9929489307872351e-05 0 1.7333137711831184e-08 -8.8945413328641725e-08 0 1.2295402477887768e-08 -1.0790743581516236e-07 0 -3.1156471772460612e-06 -6.9929489307872351e-05 0 1.2295402477887768e-08 -1.0790743581516236e-07 0 3.4626413529705044e-05 -8.8059388939800524e-05 0 -3.1156471772460612e-06 -6.9929489307872351e-05 0 3.4626413529705044e-05 -8.8059388939800524e-05 0 1.9396986899570192e-05 -0.00015230535350904947 0 3.4626413529705044e-05 -8.8059388939800524e-05 0 5.9125924116743254e-08 -1.6939377730814037e-07 0 8.1486011975041617e-05 -0.00017306535826600291 0 3.4626413529705044e-05 -8.8059388939800524e-05 0 8.1486011975041617e-05 -0.00017306535826600291 0 1.9396986899570192e-05 -0.00015230535350904947 0 1.2295402477887768e-08 -1.0790743581516236e-07 0 3.4626413529705044e-05 -8.8059388939800524e-05 0 5.9125924116743254e-08 -1.6939377730814037e-07 0 8.4430309693498551e-05 -0.00015061751275189796 0 5.9125924116743254e-08 -1.6939377730814037e-07 0 8.1486011975041617e-05 -0.00017306535826600291 0 0.00012400859159443844 -0.00036045905090764717 0 8.1486011975041617e-05 -0.00017306535826600291 0 3.448904772540236e-05 -0.00029858652321800391 0 -0.00011004503913236577 -0.00019167284468565144 0 3.448904772540236e-05 -0.00029858652321800391 0 1.9396986899570192e-05 -0.00015230535350904947 0 8.1486011975041617e-05 -0.00017306535826600291 0 3.448904772540236e-05 -0.00029858652321800391 0 1.9396986899570192e-05 -0.00015230535350904947 0 -0.0024158711184881607 0.00042992755914209203 0 -0.002394102531386829 7.9590452818515975e-05 0 -0.0028345033525861013 0.0009731116996720019 0 -0.0024158711184881607 0.00042992755914209203 0 -0.0020252786809144031 -0.00027567969944712227 0 -0.002394102531386829 7.9590452818515975e-05 0 -0.0024158711184881607 0.00042992755914209203 0 -0.0020252786809144031 -0.00027567969944712227 0 -0.0017510281363880096 -0.00017098224005568187 0 -0.002394102531386829 7.9590452818515975e-05 0 -0.0027864530676235209 0.00048081140407763354 0 -0.0028345033525861013 0.0009731116996720019 0 -0.0027864530676235209 0.00048081140407763354 0 -0.0031671711182750567 0.0016123812553660011 0 -0.0031290064070504742 0.00063291710134503792 0 -0.002786453067623