<?xml version="1.0"?>
<VTKFile type="UnstructuredGrid" version="0.1" byte_order="LittleEndian">
<UnstructuredGrid>
<Piece NumberOfPoints="69" NumberOfCells="124">
<Points>
<DataArray type="Float64" NumberOfComponents="3" format="ascii">
0 0 0 0 0.25 0 0 1 0 0.1249999999997554 0 0 0.084352422163911631 0.086451712656266194 0 0 0.12500000000034689 0 0.1008171452988615 0.18885703697250469 0 0.2403886547178353 0.24188814792673841 0 0.18402761812864499 0.1117324051466445 0 0.1249999999997599 0.31249999999987998 0 0.43749999999913258 0 0 0.4287911518546233 0.15455445427966699 0 0.31250000000020822 0.12500000000041631 0 0.33819444444448321 0.33819444444456342 0 0.37500000000027761 0.25000000000055511 0 0.49457493289300231 0.26251703776555491 0 0.43750000000006939 0.37500000000013878 0 0.37499999999973488 0.43749999999986738 0 0.14929124186975251 0.44582793568106382 0 0.24999999999960859 0.37499999999980432 0 0 0.43750000000034689 0 0.25 -0 0 0.13928587515912139 0.57339806105677438 0 0.13900789599611679 0.72618316107059999 0 0 0.62500000000069389 0 0 0.81250000000104083 0 0.1875000000005205 1 0 0.12710107136012311 0.87094806618203435 0 0.27987960212930818 0.83442741470570525 0 0.37500000000069389 1 0 0.44927105396715372 0.85565124085155886 0 0.38136204680495073 0.74038592213831234 0 0.27589467050686478 0.66058853156435704 0 0.26452443700674649 0.51563531581639865 0 0.4139414069912184 0.60563252640100373 0 0.5 0.5 -0 0.63236534182377013 0.50296756406332266 0 0.71259747807844409 0.63846691315701831 0 0.50145856933078625 0.73674663046504862 0 0.5625 0.625 0 0.56777512057187585 0.8470224641095303 0 0.56250000000086742 1 0 0.73857795170433571 0.77736788564284653 0 0.625 0.75 0 0.85787927391517405 0.753532520882502 0 0.80552984491000901 0.88711122872127413 0 0.90637953422180084 0.90208583328057301 0 0.875 1 0 1 0.83333333333356463 0 1 0.66666666666736052 0 0.6875 0.875 0 0.86127466977819722 0.57948076978797636 0 1 0.50000000000138767 0 0.75 1 0 1 0.33333333333448978 0 0.86087286690217635 0.25206523597959418 0 0.86569408477091048 0.40983673916766611 0 0.75338430262320943 0.49294443423175599 0 0.56986707178436635 0.37762093650871992 0 0.61108462585082757 0.25750599582343231 0 0.71826039492840632 0.34564020717216182 0 0.71508993406183785 0.15715956854777599 0 1 0 0 0.54475767668582953 0.1431838882066932 0 0.62499999999895905 0 0 0.81249999999947953 0 0 1 1 0 1 0.16666666666736049 0 0.87698901648812122 0.1160638338657984 0 
</DataArray>
</Points>
<Cells>
<DataArray type="UInt32" Name="connectivity" format="ascii">
1 9 0 3 4 0 4 5 5 4 6 5 6 1 6 4 8 9 6 7 8 7 6 12 7 8 21 8 3 21 12 8 3 8 4 21 10 12 10 63 11 12 10 11 63 15 11 14 11 15 12 14 7 12 11 14 9 19 19 7 13 14 13 7 14 15 16 14 16 13 16 17 13 16 35 17 17 33 19 17 19 13 19 33 18 19 18 9 19 9 7 1 9 20 9 1 6 20 9 18 20 18 22 20 22 24 12 21 14 12 19 17 33 32 22 33 22 18 28 23 32 32 23 22 25 24 23 24 22 23 25 23 27 26 2 27 2 25 27 26 27 28 28 27 23 16 14 35 16 17 35 30 28 31 29 28 30 29 26 28 29 30 41 30 31 38 39 38 34 34 38 31 34 31 32 28 32 31 34 32 33 17 34 33 17 35 34 39 34 35 39 35 36 39 35 43 39 39 36 37 57 37 36 39 37 43 43 37 42 39 43 38 43 40 38 30 38 40 41 30 40 50 41 40 50 53 41 50 45 53 50 42 45 50 40 43 50 43 42 45 42 44 50 43 53 50 45 44 46 47 53 45 47 45 46 66 47 46 66 46 48 48 44 49 48 46 44 49 44 51 44 37 51 44 42 37 51 37 57 49 51 52 54 52 56 51 56 52 67 54 55 54 56 55 56 60 55 61 55 60 51 57 56 57 60 56 58 60 36 57 36 60 16 58 35 35 58 36 16 15 58 58 15 59 61 60 59 58 59 60 61 59 63 63 59 15 10 64 63 64 61 63 65 61 64 65 68 61 61 68 55 67 55 68 65 62 68 67 68 62 
</DataArray>
<DataArray type="UInt32" Name="offsets" format="ascii">
2 5 8 11 14 17 20 23 26 29 32 35 38 41 44 47 50 53 56 58 61 64 67 70 73 76 79 82 85 88 91 94 97 100 103 106 108 110 112 115 118 121 124 127 130 133 136 139 142 145 147 149 151 154 157 160 163 166 169 172 175 178 181 184 187 190 193 195 197 200 203 206 209 212 215 218 221 224 227 230 233 236 239 242 244 246 249 252 255 258 261 264 267 270 273 276 279 282 285 288 291 294 297 300 303 306 309 312 315 318 321 324 327 330 333 336 339 342 345 348 351 354 357 360 
</DataArray>
<DataArray type="UInt32" Name="types" format="ascii">
3 5 5 5 5 5 5 5 5 5 5 5 5 5 5 5 5 5 5 3 5 5 5 5 5 5 5 5 5 5 5 5 5 5 5 5 3 3 3 5 5 5 5 5 5 5 5 5 5 5 3 3 3 5 5 5 5 5 5 5 5 5 5 5 5 5 5 3 3 5 5 5 5 5 5 5 5 5 5 5 5 5 5 5 3 3 5 5 5 5 5 5 5 5 5 5 5 5 5 5 5 5 5 5 5 5 5 5 5 5 5 5 5 5 5 5 5 5 5 5 5 5 5 5 
</DataArray>
</Cells>
<CellData Scalars="age_conc,U235_conc," Vectors="" Tensors="">
<DataArray type="Float64" Name="age_conc" format="ascii">
266192.0417248421 299946.90629252238 299953.82428885001 299783.64341274125 298047.34454863024 299808.87984021951 297393.39609692071 299352.48012062907 297441.03473656438 298245.59958846308 294589.53042555507 299754.38308296842 299999.65643983241 299986.91056514147 299997.89442547032 299974.35296024021 299997.59309025406 292084.64817170845 299999.58822374605 252193.63678579489 294096.39872078935 294135.52649514342 299997.79892568511 281350.11487365753 283108.56440736569 260468.16074678773 299825.68081046897 281202.2486401468 299971.14454693918 299994.17248682177 291829.29178782523 299999.71377149946 294022.71756253752 299998.15405601548 299988.80119051447 299846.96052012785 267087.63266274764 253557.92511291281 233657.96187835082 299790.39427064196 299948.59263966989 294606.57076331985 298428.12018506136 292904.2303384578 299192.82227401389 277554.42909629887 147359.64026569686 217394.06825213326 220937.21884472604 267009.64455801796 235687.40063640208 210345.8193274801 207437.01410603503 269139.41588974319 222761.76352454556 159708.64831724361 138414.80785963486 291399.56204913626 282325.36833496776 297354.98027140001 298354.8614938946 287692.15661154396 299581.63450669107 299368.11449647002 295219.77674365242 287170.21892202389 299767.89418579813 162390.59402093454 123316.30674351013 299220.51482057758 295822.95716892299 298273.13060747157 294684.64693485037 257815.74411451755 255467.45419984715 277462.5645167355 248607.93055656579 177962.81072735743 108698.01481671084 199032.20664230414 258011.76106620574 212610.99973037111 280973.01672205166 272532.94368750416 82893.476898874418 39406.173228010754 241630.13132576313 129751.33177242056 186317.39473133933 110762.07967059925 105916.07954103667 147725.20585794258 198567.85918149404 222056.51809229568 271949.49714279082 291571.78005448601 288663.71912070177 143374.23102175738 139033.99935807075 219221.47124657396 147377.48710744939 215806.05736264226 271626.14283618587 290458.60723892652 263772.68478153559 285950.82412407582 298769.9352950544 296262.64810865012 299950.55981588422 299804.57317375252 299987.98690241209 299922.96373187401 296958.09446925164 299690.38514285826 299123.94529429462 299895.29323462839 299849.95212408627 299284.57622621401 293873.19391471375 280363.75770474994 268124.81088368403 209452.62636643008 215289.3718661911 145409.08949538349 
</DataArray>
<DataArray type="Float64" Name="U235_conc" format="ascii">
0.20327879111541669 0.00011997317560646216 0.00010327252593734413 0.00064370823101912147 0.0078951582597502519 0.00052313135634594605 0.011565575876566233 0.0022671141533845934 0.01137554487903383 0.0070869073286341381 0.027317096738997088 0.00073915679764412743 6.3611789921714352e-07 3.5949410265490428e-05 4.7937890593059186e-06 6.7511261053770585e-05 4.9796313117490087e-06 0.042037962045390238 6.8280928921708435e-07 0.28384144046674487 0.028543562588342907 0.028416988215731329 3.8154648587024998e-06 0.10333221252816814 0.089481412343838218 0.22268150528919536 0.00065338717193107892 0.10394186396147007 8.608604514426024e-05 1.3957121684978688e-05 0.043360814497554648 4.773739233863109e-07 0.030206518288259612 3.8382172642517482e-06 2.9019674712276726e-05 0.0005307209233907426 0.19831314349086857 0.27614795679345472 0.37245257108483504 0.00072496804960617983 0.00014955047337747345 0.025588069440498254 0.0066164824577047889 0.034384422652512861 0.0032912588330553444 0.11637637965228312 0.67698610556830152 0.42051011585137638 0.40300147855641877 0.17346101644145326 0.36128960270555099 0.46001901853417221 0.47511364613880375 0.16190190309973174 0.39558155772042702 0.63112024922245391 0.72208577449401912 0.040069315099240103 0.092697891595142384 0.01098224975716572 0.0068887709300109118 0.061669010635722277 0.0015136944314820091 0.0027671248657104614 0.0240233195902851 0.066678919908712331 0.0007286860925209335 0.63058538586479462 0.75117275045298304 0.0028865191203936041 0.018964550525374983 0.006782044405891645 0.023968821451358334 0.21821221880966038 0.23678391897116363 0.11557498327804057 0.27337371643239228 0.61925701252734477 0.84199979920870904 0.51073726596635904 0.22139177796110976 0.44875630681712042 0.09736626187778577 0.14228407833976428 0.85457378802580319 0.94936093462230409 0.31091965875846522 0.74836105547144127 0.57681109612319448 0.83070046089779215 0.84751184010442526 0.67993317524696706 0.51706013242653204 0.39760779376702393 0.14676093674850138 0.039363138088229138 0.056671339382707471 0.69594994678175637 0.71517887834450034 0.41223103082845536 0.6800364740673821 0.42968762163554092 0.14864702269506738 0.047415711504097804 0.1909540980709567 0.07078394238752371 0.0048148831759437629 0.016774274224934865 0.0001308717599694827 0.00062471012521534992 2.6109116645610007e-05 0.00021040356504248363 0.013612757917557828 0.0010230729882216949 0.0033976706699235591 0.0003322190808523016 0.00052391282568373955 0.0029233813922994122 0.029417683159670173 0.10145738832185958 0.16779664190723823 0.45979985890267699 0.43044460943614299 0.68379349058500516 
</DataArray>
</CellData>
</Piece>
</UnstructuredGrid>
</VTKFile>
