<?xml version="1.0"?>
<VTKFile type="UnstructuredGrid" version="0.1" byte_order="LittleEndian">
<UnstructuredGrid>
<Piece NumberOfPoints="69" NumberOfCells="124">
<Points>
<DataArray type="Float64" NumberOfComponents="3" format="ascii">
0 0 0 0 0.25 0 0 1 0 0.1249999999997554 0 0 0.084352422163911631 0.086451712656266194 0 0 0.12500000000034689 0 0.1008171452988615 0.18885703697250469 0 0.2403886547178353 0.24188814792673841 0 0.18402761812864499 0.1117324051466445 0 0.1249999999997599 0.31249999999987998 0 0.43749999999913258 0 0 0.4287911518546233 0.15455445427966699 0 0.31250000000020822 0.12500000000041631 0 0.33819444444448321 0.33819444444456342 0 0.37500000000027761 0.25000000000055511 0 0.49457493289300231 0.26251703776555491 0 0.43750000000006939 0.37500000000013878 0 0.37499999999973488 0.43749999999986738 0 0.14929124186975251 0.44582793568106382 0 0.24999999999960859 0.37499999999980432 0 0 0.43750000000034689 0 0.25 -0 0 0.13928587515912139 0.57339806105677438 0 0.13900789599611679 0.72618316107059999 0 0 0.62500000000069389 0 0 0.81250000000104083 0 0.1875000000005205 1 0 0.12710107136012311 0.87094806618203435 0 0.27987960212930818 0.83442741470570525 0 0.37500000000069389 1 0 0.44927105396715372 0.85565124085155886 0 0.38136204680495073 0.74038592213831234 0 0.27589467050686478 0.66058853156435704 0 0.26452443700674649 0.51563531581639865 0 0.4139414069912184 0.60563252640100373 0 0.5 0.5 -0 0.63236534182377013 0.50296756406332266 0 0.71259747807844409 0.63846691315701831 0 0.50145856933078625 0.73674663046504862 0 0.5625 0.625 0 0.56777512057187585 0.8470224641095303 0 0.56250000000086742 1 0 0.73857795170433571 0.77736788564284653 0 0.625 0.75 0 0.85787927391517405 0.753532520882502 0 0.80552984491000901 0.88711122872127413 0 0.90637953422180084 0.90208583328057301 0 0.875 1 0 1 0.83333333333356463 0 1 0.66666666666736052 0 0.6875 0.875 0 0.86127466977819722 0.57948076978797636 0 1 0.50000000000138767 0 0.75 1 0 1 0.33333333333448978 0 0.86087286690217635 0.25206523597959418 0 0.86569408477091048 0.40983673916766611 0 0.75338430262320943 0.49294443423175599 0 0.56986707178436635 0.37762093650871992 0 0.61108462585082757 0.25750599582343231 0 0.71826039492840632 0.34564020717216182 0 0.71508993406183785 0.15715956854777599 0 1 0 0 0.54475767668582953 0.1431838882066932 0 0.62499999999895905 0 0 0.81249999999947953 0 0 1 1 0 1 0.16666666666736049 0 0.87698901648812122 0.1160638338657984 0 
</DataArray>
</Points>
<Cells>
<DataArray type="UInt32" Name="connectivity" format="ascii">
1 9 0 3 4 0 4 5 5 4 6 5 6 1 6 4 8 9 6 7 8 7 6 12 7 8 21 8 3 21 12 8 3 8 4 21 10 12 10 63 11 12 10 11 63 15 11 14 11 15 12 14 7 12 11 14 9 19 19 7 13 14 13 7 14 15 16 14 16 13 16 17 13 16 35 17 17 33 19 17 19 13 19 33 18 19 18 9 19 9 7 1 9 20 9 1 6 20 9 18 20 18 22 20 22 24 12 21 14 12 19 17 33 32 22 33 22 18 28 23 32 32 23 22 25 24 23 24 22 23 25 23 27 26 2 27 2 25 27 26 27 28 28 27 23 16 14 35 16 17 35 30 28 31 29 28 30 29 26 28 29 30 41 30 31 38 39 38 34 34 38 31 34 31 32 28 32 31 34 32 33 17 34 33 17 35 34 39 34 35 39 35 36 39 35 43 39 39 36 37 57 37 36 39 37 43 43 37 42 39 43 38 43 40 38 30 38 40 41 30 40 50 41 40 50 53 41 50 45 53 50 42 45 50 40 43 50 43 42 45 42 44 50 43 53 50 45 44 46 47 53 45 47 45 46 66 47 46 66 46 48 48 44 49 48 46 44 49 44 51 44 37 51 44 42 37 51 37 57 49 51 52 54 52 56 51 56 52 67 54 55 54 56 55 56 60 55 61 55 60 51 57 56 57 60 56 58 60 36 57 36 60 16 58 35 35 58 36 16 15 58 58 15 59 61 60 59 58 59 60 61 59 63 63 59 15 10 64 63 64 61 63 65 61 64 65 68 61 61 68 55 67 55 68 65 62 68 67 68 62 
</DataArray>
<DataArray type="UInt32" Name="offsets" format="ascii">
2 5 8 11 14 17 20 23 26 29 32 35 38 41 44 47 50 53 56 58 61 64 67 70 73 76 79 82 85 88 91 94 97 100 103 106 108 110 112 115 118 121 124 127 130 133 136 139 142 145 147 149 151 154 157 160 163 166 169 172 175 178 181 184 187 190 193 195 197 200 203 206 209 212 215 218 221 224 227 230 233 236 239 242 244 246 249 252 255 258 261 264 267 270 273 276 279 282 285 288 291 294 297 300 303 306 309 312 315 318 321 324 327 330 333 336 339 342 345 348 351 354 357 360 
</DataArray>
<DataArray type="UInt32" Name="types" format="ascii">
3 5 5 5 5 5 5 5 5 5 5 5 5 5 5 5 5 5 5 3 5 5 5 5 5 5 5 5 5 5 5 5 5 5 5 5 3 3 3 5 5 5 5 5 5 5 5 5 5 5 3 3 3 5 5 5 5 5 5 5 5 5 5 5 5 5 5 3 3 5 5 5 5 5 5 5 5 5 5 5 5 5 5 5 3 3 5 5 5 5 5 5 5 5 5 5 5 5 5 5 5 5 5 5 5 5 5 5 5 5 5 5 5 5 5 5 5 5 5 5 5 5 5 5 
</DataArray>
</Cells>
<CellData Scalars="age_conc,U235_conc," Vectors="" Tensors="">
<DataArray type="Float64" Name="age_conc" format="ascii">
49999.999900158095 49999.999999999985 49999.999999999971 49999.999999996187 49999.999999699619 50000.000000000015 49999.999999998749 50000.00000000016 50000.000000011867 50000.000000014588 50000.000000245956 50000.000000000218 50000.000000000015 50000.000000000058 50000 50000.000000000204 49999.999999999935 50000.000000216052 49999.999999999898 49999.999993729849 49999.999999978521 50000.000000012311 49999.999999999956 50000.000000215383 49999.999999731081 49999.999995617269 50000.000000000044 49999.999999097527 50000.000000000102 49999.999999999971 49999.999999923428 50000.000000000044 49999.999995446313 49999.999999999964 50000 49999.999999999978 50000.000006706279 50000.000006264032 49999.999971078076 49999.999999999985 50000 49999.846135980522 49999.998301910658 49999.727412246342 49999.999236298223 49988.143482475745 43925.320869085634 49428.536686992426 49471.351293747139 49975.205073994817 50000.000002457513 49968.715404182629 49968.213973358732 49977.629648786198 49530.88803443814 44868.160391124533 43862.140243757043 49999.982459761377 49999.443277497528 49999.999999999724 49999.997721691427 49999.311897064239 49999.999999999985 49999.999999999687 49999.99999998806 49999.047673543915 49999.999999999884 49375.115848601141 46694.176068134824 49999.999999999898 49999.990905701852 49999.999999999956 49999.98935248176 49961.530084809012 49986.452979062698 49998.746623221516 49958.534476884975 49067.263977549155 42393.017492223858 49208.310240410879 49960.976614483181 49672.465282009725 49998.57425668768 49997.886933651476 38837.037521375896 23165.693679372613 49943.969652117608 42835.618453632516 49119.074771614978 42070.665895385086 41646.83598714367 44147.252225841425 49284.043249019203 49494.177023629672 49979.993454194155 49999.977884037085 49999.367224870439 43841.552226172396 43667.34835282476 49467.566426611862 44083.416911019405 49440.531608507488 49979.003301131874 49999.493287683319 49971.589404240556 49999.174264351677 50000.000000000058 49999.992763461225 50000.000000000029 50000.000000000189 50000.000000000029 49999.999999999956 49999.994018458288 50000.000000000131 50000.000000000058 49999.999999999811 49999.999999999985 49999.999288856372 49999.800037249777 49991.202050998458 49974.524440087916 49337.337997169176 49396.361587037652 43728.511374307644 
</DataArray>
<DataArray type="Float64" Name="U235_conc" format="ascii">
0 0 0 0 0 0 0 0 0 0 0 0 0 0 0 0 0 0 0 0 0 0 0 0 0 2.3305604177830136e-05 0 0 0 0 0 0 0 0 0 4.7309850576179789e-10 0 0 0.00010702252836374945 5.6357610682524345e-10 0 1.0442617206241117e-05 1.8972465173789806e-07 1.8291496008209513e-05 8.5252807036455746e-08 0.0006173527757447184 0.19605558636706566 0.023958778020887309 0.022188155076760249 0.0012780957368005274 0.00010562763982802915 0.0027572784203121945 0.0028025922003966932 0.0011542480577976181 0.019760683371063837 0.16653796368160889 0.19911641324862758 1.9561405381396004e-06 5.3481771849978854e-05 4.7772247925162441e-08 2.479757978082223e-07 4.5681197731980087e-05 1.9643040610912843e-09 0 8.4365964840680083e-07 8.7106968531433456e-05 0 0.035279339692344258 0.15104659326797151 3.4217578182731325e-09 9.8912450826183752e-07 1.1682445366499976e-08 1.1614786831275827e-06 0.0022813171551992802 0.00083948467263950327 8.4675292092725913e-05 0.0021448421210698366 0.039271220609184788 0.2494090174744466 0.033046560814099013 0.0019975935387151872 0.015775541385934257 9.3793776616625299e-05 0.00013921484649912115 0.41713094340063789 0.76686817600262491 0.0028731344233562241 0.23012593793020206 0.036844151633180861 0.25585355797856651 0.26907521731938128 0.18914922768016232 0.030030046332361903 0.021240961375828867 0.001032075470125234 2.3938190907652386e-06 4.1987917553738883e-05 0.19908124484468112 0.20478413706139087 0.022362173297364098 0.19132145971248074 0.023495199871418428 0.0010819275758088848 3.3655555335729661e-05 0.0014631214061261333 5.4745748093160456e-05 8.1329966661217027e-09 7.9057134167677415e-07 0 0 0 0 6.5236623237508027e-07 7.7420053038070614e-11 5.6131617822333886e-09 0 4.9622754478072008e-10 7.9155721711199334e-08 1.3511530342778023e-05 0.00046126794879216399 0.0013108037775417722 0.027735077623263268 0.025273052039977723 0.20192130477380504 
</DataArray>
</CellData>
</Piece>
</UnstructuredGrid>
</VTKFile>
