<?xml version="1.0"?>
<VTKFile type="UnstructuredGrid" version="0.1" byte_order="LittleEndian">
<UnstructuredGrid>
<Piece NumberOfPoints="69" NumberOfCells="124">
<Points>
<DataArray type="Float64" NumberOfComponents="3" format="ascii">
0 0 0 0.084352422163911631 0.086451712656266194 0 0.1249999999997554 0 0 0 0.12500000000034689 0 0.1008171452988615 0.18885703697250469 0 0.2403886547178353 0.24188814792673841 0 0.18402761812864499 0.1117324051466445 0 0.25 -0 0 0.31250000000020822 0.12500000000041631 0 0.4287911518546233 0.15455445427966699 0 0.43749999999913258 0 0 0.43750000000006939 0.37500000000013878 0 0.49457493289300231 0.26251703776555491 0 0.37500000000027761 0.25000000000055511 0 0.33819444444448321 0.33819444444456342 0 0.37499999999973488 0.43749999999986738 0 0.14929124186975251 0.44582793568106382 0 0.24999999999960859 0.37499999999980432 0 0.1249999999997599 0.31249999999987998 0 0 0.25 0 0 0.43750000000034689 0 0 0.62500000000069389 0 0.13900789599611679 0.72618316107059999 0 0.13928587515912139 0.57339806105677438 0 0 1 0 0 0.81250000000104083 0 0.12710107136012311 0.87094806618203435 0 0.1875000000005205 1 0 0.27987960212930818 0.83442741470570525 0 0.44927105396715372 0.85565124085155886 0 0.37500000000069389 1 0 0.26452443700674649 0.51563531581639865 0 0.27589467050686478 0.66058853156435704 0 0.38136204680495073 0.74038592213831234 0 0.4139414069912184 0.60563252640100373 0 0.5 0.5 -0 0.50145856933078625 0.73674663046504862 0 0.5625 0.625 0 0.71259747807844409 0.63846691315701831 0 0.63236534182377013 0.50296756406332266 0 0.56250000000086742 1 0 0.56777512057187585 0.8470224641095303 0 0.625 0.75 0 0.73857795170433571 0.77736788564284653 0 0.6875 0.875 0 0.75 1 0 0.80552984491000901 0.88711122872127413 0 0.85787927391517405 0.753532520882502 0 1 0.83333333333356463 0 0.90637953422180084 0.90208583328057301 0 1 1 0 0.875 1 0 0.86127466977819722 0.57948076978797636 0 1 0.66666666666736052 0 1 0.50000000000138767 0 0.75338430262320943 0.49294443423175599 0 0.86569408477091048 0.40983673916766611 0 0.86087286690217635 0.25206523597959418 0 1 0.33333333333448978 0 1 0.16666666666736049 0 1 0 0 0.87698901648812122 0.1160638338657984 0 0.81249999999947953 0 0 0.71508993406183785 0.15715956854777599 0 0.62499999999895905 0 0 0.54475767668582953 0.1431838882066932 0 0.61108462585082757 0.25750599582343231 0 0.56986707178436635 0.37762093650871992 0 0.71826039492840632 0.34564020717216182 0 
</DataArray>
</Points>
<Cells>
<DataArray type="UInt32" Name="connectivity" format="ascii">
0 1 3 0 2 1 3 4 19 3 1 4 4 1 6 18 4 5 6 5 4 8 5 6 7 6 2 7 8 6 2 6 1 8 7 7 10 8 8 13 5 13 8 8 9 13 13 9 12 65 12 9 8 10 9 10 65 9 15 35 11 35 15 11 15 14 35 11 13 12 11 11 13 13 11 14 17 5 14 13 14 5 15 17 14 17 15 15 31 17 17 31 16 17 16 18 17 18 5 18 17 19 18 20 18 19 4 19 18 20 16 23 20 18 16 20 23 21 21 23 22 25 21 22 32 22 23 28 22 32 31 32 23 31 23 16 27 24 26 24 25 26 25 22 26 28 26 22 27 26 28 30 28 29 30 27 28 29 28 33 29 33 36 30 29 40 34 32 31 15 34 31 28 32 33 34 33 32 34 36 33 37 36 34 15 35 34 37 34 35 37 35 39 37 35 37 42 36 42 37 42 38 43 37 38 42 55 38 39 37 39 38 44 40 41 40 29 41 29 36 41 42 41 36 44 42 43 44 43 46 44 42 44 41 42 44 45 40 44 46 45 45 44 51 45 46 51 46 49 46 47 49 46 43 47 48 47 53 48 49 47 50 49 48 50 51 49 52 38 55 47 38 52 47 43 38 53 47 52 53 52 54 58 54 56 52 56 54 52 55 56 55 68 56 63 57 68 56 68 57 59 58 57 58 56 57 59 57 61 62 60 61 59 61 60 62 61 63 63 61 57 64 63 65 62 63 64 10 64 65 63 66 65 65 66 12 67 12 66 11 12 67 11 67 35 35 67 39 55 39 68 67 68 39 63 68 66 67 66 68 
</DataArray>
<DataArray type="UInt32" Name="offsets" format="ascii">
3 6 9 12 15 18 21 24 27 30 33 35 38 41 43 46 49 52 55 58 60 63 66 68 71 73 76 79 82 85 87 90 93 96 99 101 104 107 109 112 115 118 121 124 127 130 133 136 139 142 145 148 151 154 157 160 163 166 169 172 175 178 181 184 187 190 193 195 198 200 203 206 209 212 215 218 221 224 227 230 232 235 238 241 243 246 249 252 255 258 261 264 267 270 273 276 279 282 285 288 291 294 297 300 303 306 309 312 315 318 321 324 327 330 333 336 339 342 345 348 351 354 357 360 
</DataArray>
<DataArray type="UInt32" Name="types" format="ascii">
5 5 5 5 5 5 5 5 5 5 5 3 5 5 3 5 5 5 5 5 3 5 5 3 5 3 5 5 5 5 3 5 5 5 5 3 5 5 3 5 5 5 5 5 5 5 5 5 5 5 5 5 5 5 5 5 5 5 5 5 5 5 5 5 5 5 5 3 5 3 5 5 5 5 5 5 5 5 5 5 3 5 5 5 3 5 5 5 5 5 5 5 5 5 5 5 5 5 5 5 5 5 5 5 5 5 5 5 5 5 5 5 5 5 5 5 5 5 5 5 5 5 5 5 
</DataArray>
</Cells>
<CellData Scalars="age_conc,U235_conc," Vectors="" Tensors="">
<DataArray type="Float64" Name="age_conc" format="ascii">
99999.999999996377 99999.999999999403 99999.986219733255 99999.999956093903 99999.999975396116 99999.855285795929 99999.997726231668 99999.85631519786 99999.987602411653 99999.376172660748 99999.99994813095 99949.892532051526 99999.999999816093 99995.137246552418 99703.091568975477 99999.999999969325 99999.999997828272 99999.99978795927 99999.999990834651 99999.999656587548 95213.783817661431 99637.137680322106 99974.846831820643 95304.184283646871 99999.999999760097 98677.894247734119 99951.059230536019 99998.186748080741 99998.176619401667 99951.393668203615 98655.849966884809 99999.986328784842 99999.999766869907 99999.999996287981 99995.017533410311 99698.880299536133 99999.999999929511 99999.312725127616 99949.288243656047 99999.999820703903 99999.999996287646 99999.974340631481 99999.369991899555 99969.664822873805 99998.604457795736 99981.221101992123 99999.967446638126 99999.998446737722 76419.60228716617 94876.614401349754 99659.25708948508 99352.514594295004 95218.666808099006 95635.41172727081 79601.75533617055 99410.480648188037 99986.616542578573 75699.931420654466 99999.905936898809 99999.661343752843 99930.315642616682 99998.371930181238 99998.455428717047 99838.657746302255 99983.869253605182 99804.006892781064 99999.989581551883 84925.969132844679 98513.945537839711 71594.020651462735 99992.583227042778 99999.45372961348 99993.801753547683 99999.823987107113 91564.730438325743 98900.04123160438 99861.24003975041 99224.616950551339 99866.602970938417 99045.128253507515 52747.003820216123 95282.313595667292 69469.361982894785 93142.854570568947 28475.826662292857 72705.077890213317 92270.527574970271 98612.395532513998 99800.372280028183 77117.898797408576 93570.101855530549 67959.47665444469 69360.335280753876 99936.131373945711 99473.089409679349 99985.467531693939 95401.768341887451 75950.349516555085 75242.554286339058 95159.482437426777 99264.963270159962 99917.339574395504 99948.372543989361 99452.805208866397 76846.396041761531 94919.261917707947 94141.12296810915 94642.904638925364 75867.116613535094 99731.70047827503 99346.189914485527 99999.424241285276 99976.482054758613 99999.97356943044 99999.735664728127 99999.994550085859 99999.999152475211 99999.999985581671 99999.99959837331 99999.989981410545 99994.910495600052 99999.617396896094 99995.837380605924 99999.979366192827 
</DataArray>
<DataArray type="Float64" Name="U235_conc" format="ascii">
4.6682225431637084e-12 5.5640872505137248e-12 1.9797718104905596e-07 8.8991741153437031e-10 5.0697432050806206e-10 1.9647116625804414e-06 3.3070759161926307e-08 1.9505942649433863e-06 1.7809872943749689e-07 8.4353581453690436e-06 1.051278004009852e-09 0.00071249090573618937 2.6139155168460938e-12 6.8783680600343426e-05 0.0046145045095804648 4.8570365543328287e-13 3.0680335083432911e-11 2.9631139605136076e-09 1.2823773677829768e-10 4.9712496925776948e-09 0.087029789103652611 0.0060563439174636385 0.00038174269987618708 0.085405129722936443 3.686844099309433e-12 0.022504028311251305 0.00075038392183813998 2.5546702212485224e-05 2.5690957685976735e-05 0.00074509326353029346 0.022872222926004365 1.9166013059759361e-07 3.2115472454654617e-09 5.5453755322756333e-11 7.0472059105577541e-05 0.0046788175056524011 1.0144817691178703e-12 9.293653803338326e-06 0.0007210056072562527 2.5808449076204091e-09 5.2108893653625146e-11 3.9302307439372218e-07 1.0270285737532031e-05 0.00052386692889768111 2.2766484297290569e-05 0.00032271096209905416 4.9713622881147016e-07 2.2447904479012761e-08 0.34389194829500397 0.087134218814784906 0.0060239277658114048 0.011474774265359724 0.081364399001977589 0.074411241672750095 0.29952693240711298 0.010445384391648955 0.00021991118863154378 0.35648218277821164 1.4497902291515231e-06 5.0838384028019324e-06 0.0012099654726417507 2.6725732182432829e-05 2.4359901862561026e-05 0.002803928203016334 0.00026450989996268593 0.0034792783374657083 1.5104891571074897e-07 0.27759365185163687 0.026967222043955609 0.49166142987046962 0.00012216641273142463 8.4385833594956374e-06 0.00010223460476952302 2.7043302466204325e-06 0.14374964125159709 0.019509489249390225 0.0024057790142742001 0.013839661199535953 0.002326545113250303 0.016944558354752018 0.71512181995931512 0.083526488949680289 0.45023982573656185 0.11633578286775929 0.89133269525361258 0.39580074758151496 0.13128577033254632 0.024626851541081175 0.0034806252569088182 0.33437649201193986 0.10938295186852072 0.46574896160011819 0.44636036545863789 0.0011091213237495916 0.0093351895545204407 0.00024026543650708902 0.078268671385370692 0.35137829588224345 0.36184748343114309 0.082401344644645255 0.013029736730121616 0.0014362235734890424 0.00089600582810969167 0.0096967765840373817 0.33847377844578685 0.086486330268431874 0.099550744282528594 0.091040562805352832 0.35100198227675239 0.0047372461477676372 0.011591563429271687 9.3953578941319743e-06 0.00040498321746203398 4.0522545390708902e-07 4.0816112261029017e-06 7.9180506637581864e-08 1.195119499330768e-08 2.0326839218110366e-10 5.6126095768165238e-09 1.4546203352348968e-07 8.378800243283779e-05 5.9083556335156478e-06 6.8567119795778883e-05 3.0308009670841703e-07 
</DataArray>
</CellData>
</Piece>
</UnstructuredGrid>
</VTKFile>
