<?xml version="1.0"?>
<VTKFile type="UnstructuredGrid" version="0.1" byte_order="LittleEndian">
<UnstructuredGrid>
<Piece NumberOfPoints="69" NumberOfCells="124">
<Points>
<DataArray type="Float64" NumberOfComponents="3" format="ascii">
0 0 0 0.084352422163911631 0.086451712656266194 0 0.1249999999997554 0 0 0 0.12500000000034689 0 0.1008171452988615 0.18885703697250469 0 0.2403886547178353 0.24188814792673841 0 0.18402761812864499 0.1117324051466445 0 0.25 -0 0 0.31250000000020822 0.12500000000041631 0 0.4287911518546233 0.15455445427966699 0 0.43749999999913258 0 0 0.43750000000006939 0.37500000000013878 0 0.49457493289300231 0.26251703776555491 0 0.37500000000027761 0.25000000000055511 0 0.33819444444448321 0.33819444444456342 0 0.37499999999973488 0.43749999999986738 0 0.14929124186975251 0.44582793568106382 0 0.24999999999960859 0.37499999999980432 0 0.1249999999997599 0.31249999999987998 0 0 0.25 0 0 0.43750000000034689 0 0 0.62500000000069389 0 0.13900789599611679 0.72618316107059999 0 0.13928587515912139 0.57339806105677438 0 0 1 0 0 0.81250000000104083 0 0.12710107136012311 0.87094806618203435 0 0.1875000000005205 1 0 0.27987960212930818 0.83442741470570525 0 0.44927105396715372 0.85565124085155886 0 0.37500000000069389 1 0 0.26452443700674649 0.51563531581639865 0 0.27589467050686478 0.66058853156435704 0 0.38136204680495073 0.74038592213831234 0 0.4139414069912184 0.60563252640100373 0 0.5 0.5 -0 0.50145856933078625 0.73674663046504862 0 0.5625 0.625 0 0.71259747807844409 0.63846691315701831 0 0.63236534182377013 0.50296756406332266 0 0.56250000000086742 1 0 0.56777512057187585 0.8470224641095303 0 0.625 0.75 0 0.73857795170433571 0.77736788564284653 0 0.6875 0.875 0 0.75 1 0 0.80552984491000901 0.88711122872127413 0 0.85787927391517405 0.753532520882502 0 1 0.83333333333356463 0 0.90637953422180084 0.90208583328057301 0 1 1 0 0.875 1 0 0.86127466977819722 0.57948076978797636 0 1 0.66666666666736052 0 1 0.50000000000138767 0 0.75338430262320943 0.49294443423175599 0 0.86569408477091048 0.40983673916766611 0 0.86087286690217635 0.25206523597959418 0 1 0.33333333333448978 0 1 0.16666666666736049 0 1 0 0 0.87698901648812122 0.1160638338657984 0 0.81249999999947953 0 0 0.71508993406183785 0.15715956854777599 0 0.62499999999895905 0 0 0.54475767668582953 0.1431838882066932 0 0.61108462585082757 0.25750599582343231 0 0.56986707178436635 0.37762093650871992 0 0.71826039492840632 0.34564020717216182 0 
</DataArray>
</Points>
<Cells>
<DataArray type="UInt32" Name="connectivity" format="ascii">
0 1 3 0 2 1 3 4 19 3 1 4 4 1 6 18 4 5 6 5 4 8 5 6 7 6 2 7 8 6 2 6 1 8 7 7 10 8 8 13 5 13 8 8 9 13 13 9 12 65 12 9 8 10 9 10 65 9 15 35 11 35 15 11 15 14 35 11 13 12 11 11 13 13 11 14 17 5 14 13 14 5 15 17 14 17 15 15 31 17 17 31 16 17 16 18 17 18 5 18 17 19 18 20 18 19 4 19 18 20 16 23 20 18 16 20 23 21 21 23 22 25 21 22 32 22 23 28 22 32 31 32 23 31 23 16 27 24 26 24 25 26 25 22 26 28 26 22 27 26 28 30 28 29 30 27 28 29 28 33 29 33 36 30 29 40 34 32 31 15 34 31 28 32 33 34 33 32 34 36 33 37 36 34 15 35 34 37 34 35 37 35 39 37 35 37 42 36 42 37 42 38 43 37 38 42 55 38 39 37 39 38 44 40 41 40 29 41 29 36 41 42 41 36 44 42 43 44 43 46 44 42 44 41 42 44 45 40 44 46 45 45 44 51 45 46 51 46 49 46 47 49 46 43 47 48 47 53 48 49 47 50 49 48 50 51 49 52 38 55 47 38 52 47 43 38 53 47 52 53 52 54 58 54 56 52 56 54 52 55 56 55 68 56 63 57 68 56 68 57 59 58 57 58 56 57 59 57 61 62 60 61 59 61 60 62 61 63 63 61 57 64 63 65 62 63 64 10 64 65 63 66 65 65 66 12 67 12 66 11 12 67 11 67 35 35 67 39 55 39 68 67 68 39 63 68 66 67 66 68 
</DataArray>
<DataArray type="UInt32" Name="offsets" format="ascii">
3 6 9 12 15 18 21 24 27 30 33 35 38 41 43 46 49 52 55 58 60 63 66 68 71 73 76 79 82 85 87 90 93 96 99 101 104 107 109 112 115 118 121 124 127 130 133 136 139 142 145 148 151 154 157 160 163 166 169 172 175 178 181 184 187 190 193 195 198 200 203 206 209 212 215 218 221 224 227 230 232 235 238 241 243 246 249 252 255 258 261 264 267 270 273 276 279 282 285 288 291 294 297 300 303 306 309 312 315 318 321 324 327 330 333 336 339 342 345 348 351 354 357 360 
</DataArray>
<DataArray type="UInt32" Name="types" format="ascii">
5 5 5 5 5 5 5 5 5 5 5 3 5 5 3 5 5 5 5 5 3 5 5 3 5 3 5 5 5 5 3 5 5 5 5 3 5 5 3 5 5 5 5 5 5 5 5 5 5 5 5 5 5 5 5 5 5 5 5 5 5 5 5 5 5 5 5 3 5 3 5 5 5 5 5 5 5 5 5 5 3 5 5 5 3 5 5 5 5 5 5 5 5 5 5 5 5 5 5 5 5 5 5 5 5 5 5 5 5 5 5 5 5 5 5 5 5 5 5 5 5 5 5 5 
</DataArray>
</Cells>
<CellData Scalars="age_conc,U235_conc," Vectors="" Tensors="">
<DataArray type="Float64" Name="age_conc" format="ascii">
50000 49999.999999999985 49999.999999969994 49999.999999999607 49999.999999999942 49999.999999939937 49999.999999998996 49999.999999992018 49999.999999998719 49999.999999954656 49999.999999999942 49999.999997353341 50000.000000000029 49999.999999762818 49999.999989581338 49999.999999999956 50000.000000000073 50000.000000000262 50000.000000000029 49999.999999999985 49968.214106208179 50000.000001169756 50000.000000072505 49968.715416272345 49999.999999999971 49999.999969503835 49999.999998257306 50000.000000014887 49999.999999914238 50000.000000438245 50000.000011481854 50000.000000000073 50000 49999.999999999985 49999.999998980798 49999.999973983766 50000.000000000044 49999.999999428997 49999.999984126916 50000.000000000015 49999.999999999956 49999.999999999978 49999.999236298259 49999.727412245978 49999.998301910739 49999.846135980682 49999.999999999964 50000.000000000044 43925.320869887059 49428.536686676147 49988.14348245295 49975.205073941688 49471.351292241568 49530.888033228126 44868.160374682768 49977.629648765025 49999.982459761275 43862.140235975727 50000.000000000015 49999.999999999971 49999.311897063912 49999.997721691332 49999.999999999716 49999.443277603379 50000.000000002881 49999.047673852278 49999.99999999984 49375.115888442946 49961.53008695614 46694.176122466313 49999.989352481913 50000.000000000175 49999.99090570167 49999.999999999942 49067.263976977891 49958.534476813642 49998.746623220031 49986.452979285619 49998.574256684296 49960.976614437684 38837.037540042431 49672.4652854163 42393.017489326943 49208.310239944331 23165.693648709694 42835.618451493894 49119.074772454631 49943.969652189022 49997.886933651258 44147.252236859684 49284.043250092189 41646.835997306429 42070.665905730653 49999.367224869973 49979.993454153773 49999.977884036998 49494.177023207667 43841.552222391183 43667.348356070775 49467.566426575162 49971.58940427332 49999.174264353351 49999.493287683697 49979.003301175479 44083.416904053913 49440.531608718549 49337.33799563202 49396.361586586965 43728.511367629995 49991.202050973254 49974.524440061214 49999.999288856365 49999.800037249515 49999.999999999985 50000.000000000044 49999.99999999992 49999.999999999985 49999.99999999984 49999.999999999985 49999.999999999985 49999.99276346129 50000.000000000051 49999.994018458245 50000.000000000131 
</DataArray>
<DataArray type="Float64" Name="U235_conc" format="ascii">
0 0 0 0 0 0 0 0 0 0 0 0 0 0 0 0 0 0 0 0 0.0028025922112457904 2.3305604167930408e-05 0 0.0027572784160482798 0 0.00010562763944991596 0 0 0 0 0.00010702252855193224 0 0 0 0 0 0 0 0 0 0 4.7309850671728476e-10 8.5252807206380296e-08 1.8291496033995805e-05 1.8972465164578863e-07 1.0442617204100631e-05 5.6357610677561293e-10 0 0.1960555863458065 0.023958778034168741 0.00061735277692506003 0.0012780957395501153 0.022188155140098399 0.019760683421513957 0.16653796421539155 0.0011542480588724994 1.9561405443694875e-06 0.19911641349523496 1.9643040680916332e-09 0 4.5681197735961894e-05 2.4797579849633783e-07 4.7772247079139084e-08 5.3481771390757916e-05 8.4365965706279854e-07 8.7106969590136453e-05 0 0.035279339722186984 0.0022813171365226731 0.15104659344764415 1.1614786851282616e-06 1.1682445382426005e-08 9.8912450903511296e-07 3.4217578335595183e-09 0.039271220627962233 0.0021448421245731848 8.4675292253909792e-05 0.0008394846663400627 9.3793776826599156e-05 0.0019975935409924941 0.4171309436332688 0.015775541289849506 0.24940901751733496 0.033046560833124357 0.76686817520597439 0.23012593799400125 0.036844151598514376 0.002873134419727909 0.00013921484653560398 0.1891492273337686 0.030030046287954977 0.26907521700254367 0.25585355765557971 4.1987917588882104e-05 0.0010320754721936723 2.3938190946309505e-06 0.02124096139332541 0.199081244972141 0.20478413695602513 0.022362173299304188 0.0014631214044846165 5.4745747986170112e-05 3.3655555312519203e-05 0.0010819275735405448 0.19132145993181873 0.023495199862488422 0.027735077686744641 0.025273052058893058 0.20192130498750444 0.00046126795007710375 0.0013108037788824808 7.9155721519253806e-08 1.3511530366105259e-05 4.9622754394023117e-10 5.6131617654122631e-09 0 0 0 0 0 7.9057133948151049e-07 8.1329966692014069e-09 6.5236623205965028e-07 7.7420026177343444e-11 
</DataArray>
</CellData>
</Piece>
</UnstructuredGrid>
</VTKFile>
