<?xml version="1.0"?>
<VTKFile type="UnstructuredGrid" version="0.1" byte_order="LittleEndian">
<UnstructuredGrid>
<Piece NumberOfPoints="107" NumberOfCells="136">
<Points>
<DataArray type="Float64" NumberOfComponents="3" format="ascii">
0.000000000000000e+00 0.000000000000000e+00 0.000000000000000e+00 5.000000000000000e+00 0.000000000000000e+00 0.000000000000000e+00 5.000000000000000e+00 1.000000000000000e+00 0.000000000000000e+00 0.000000000000000e+00 1.000000000000000e+00 0.000000000000000e+00 1.000000000000000e+01 0.000000000000000e+00 -5.000000000000000e+00 1.000000000000000e+01 0.000000000000000e+00 5.000000000000000e+00 1.000000000000000e+01 1.000000000000000e+00 -5.000000000000000e+00 1.000000000000000e+01 1.000000000000000e+00 5.000000000000000e+00 5.555555555544532e-01 0.000000000000000e+00 0.000000000000000e+00 1.111111111108906e+00 0.000000000000000e+00 0.000000000000000e+00 1.666666666663845e+00 0.000000000000000e+00 0.000000000000000e+00 2.222222222218946e+00 0.000000000000000e+00 0.000000000000000e+00 2.777777777774663e+00 0.000000000000000e+00 0.000000000000000e+00 3.333333333330998e+00 0.000000000000000e+00 0.000000000000000e+00 3.888888888887332e+00 0.000000000000000e+00 0.000000000000000e+00 4.444444444443666e+00 0.000000000000000e+00 0.000000000000000e+00 4.444444444444445e+00 1.000000000000000e+00 0.000000000000000e+00 3.888888888888889e+00 1.000000000000000e+00 0.000000000000000e+00 3.333333333333333e+00 1.000000000000000e+00 0.000000000000000e+00 2.777777777777778e+00 1.000000000000000e+00 0.000000000000000e+00 2.222222222222222e+00 1.000000000000000e+00 0.000000000000000e+00 1.666666666666666e+00 1.000000000000000e+00 0.000000000000000e+00 1.111111111111111e+00 1.000000000000000e+00 0.000000000000000e+00 5.555555555555554e-01 1.000000000000000e+00 0.000000000000000e+00 5.357142857142502e+00 0.000000000000000e+00 -3.571428571425028e-01 5.714285714285006e+00 0.000000000000000e+00 -7.142857142850056e-01 6.071428571427509e+00 0.000000000000000e+00 -1.071428571427509e+00 6.428571428570115e+00 0.000000000000000e+00 -1.428571428570115e+00 6.785714285712826e+00 0.000000000000000e+00 -1.785714285712826e+00 7.142857142855537e+00 0.000000000000000e+00 -2.142857142855537e+00 7.499999999998249e+00 0.000000000000000e+00 -2.499999999998248e+00 7.857142857141355e+00 0.000000000000000e+00 -2.857142857141355e+00 8.214285714284463e+00 0.000000000000000e+00 -3.214285714284463e+00 8.571428571427571e+00 0.000000000000000e+00 -3.571428571427570e+00 8.928571428570677e+00 0.000000000000000e+00 -3.928571428570677e+00 9.285714285713786e+00 0.000000000000000e+00 -4.285714285713786e+00 9.642857142856894e+00 0.000000000000000e+00 -4.642857142856893e+00 9.642857142857142e+00 1.000000000000000e+00 -4.642857142857143e+00 9.285714285714286e+00 1.000000000000000e+00 -4.285714285714286e+00 8.928571428571429e+00 1.000000000000000e+00 -3.928571428571429e+00 8.571428571428571e+00 1.000000000000000e+00 -3.571428571428572e+00 8.214285714285714e+00 1.000000000000000e+00 -3.214285714285714e+00 7.857142857142857e+00 1.000000000000000e+00 -2.857142857142857e+00 7.500000000000000e+00 1.000000000000000e+00 -2.500000000000000e+00 7.142857142857143e+00 1.000000000000000e+00 -2.142857142857143e+00 6.785714285714286e+00 1.000000000000000e+00 -1.785714285714286e+00 6.428571428571429e+00 1.000000000000000e+00 -1.428571428571429e+00 6.071428571428572e+00 1.000000000000000e+00 -1.071428571428572e+00 5.714285714285714e+00 1.000000000000000e+00 -7.142857142857144e-01 5.357142857142857e+00 1.000000000000000e+00 -3.571428571428568e-01 5.357142857142502e+00 1.000000000000000e+00 3.571428571425028e-01 5.714285714285006e+00 1.000000000000000e+00 7.142857142850056e-01 6.071428571427509e+00 1.000000000000000e+00 1.071428571427509e+00 6.428571428570115e+00 1.000000000000000e+00 1.428571428570115e+00 6.785714285712826e+00 1.000000000000000e+00 1.785714285712826e+00 7.142857142855537e+00 1.000000000000000e+00 2.142857142855537e+00 7.499999999998249e+00 1.000000000000000e+00 2.499999999998248e+00 7.857142857141355e+00 1.000000000000000e+00 2.857142857141355e+00 8.214285714284463e+00 1.000000000000000e+00 3.214285714284463e+00 8.571428571427571e+00 1.000000000000000e+00 3.571428571427570e+00 8.928571428570677e+00 1.000000000000000e+00 3.928571428570677e+00 9.285714285713786e+00 1.000000000000000e+00 4.285714285713786e+00 9.642857142856894e+00 1.000000000000000e+00 4.642857142856893e+00 9.642857142857142e+00 0.000000000000000e+00 4.642857142857143e+00 9.285714285714286e+00 0.000000000000000e+00 4.285714285714286e+00 8.928571428571429e+00 0.000000000000000e+00 3.928571428571429e+00 8.571428571428571e+00 0.000000000000000e+00 3.571428571428572e+00 8.214285714285714e+00 0.000000000000000e+00 3.214285714285714e+00 7.857142857142857e+00 0.000000000000000e+00 2.857142857142857e+00 7.500000000000000e+00 0.000000000000000e+00 2.500000000000000e+00 7.142857142857143e+00 0.000000000000000e+00 2.142857142857143e+00 6.785714285714286e+00 0.000000000000000e+00 1.785714285714286e+00 6.428571428571429e+00 0.000000000000000e+00 1.428571428571429e+00 6.071428571428572e+00 0.000000000000000e+00 1.071428571428572e+00 5.714285714285714e+00 0.000000000000000e+00 7.142857142857144e-01 5.357142857142857e+00 0.000000000000000e+00 3.571428571428568e-01 4.212316051704127e+00 5.892044409257831e-01 0.000000000000000e+00 2.515703651984364e+00 5.007726862999170e-01 0.000000000000000e+00 3.045649273404015e+00 5.040609728652263e-01 0.000000000000000e+00 3.607229643560429e+00 5.352266455546982e-01 0.000000000000000e+00 6.447232945102525e-01 5.000305982953720e-01 0.000000000000000e+00 1.364876762642804e+00 5.000320447034061e-01 0.000000000000000e+00 1.943059698733141e+00 5.001341218338872e-01 0.000000000000000e+00 6.243107225528528e+00 4.822579089506173e-01 1.243107225528529e+00 6.566220238094560e+00 5.017361111111112e-01 1.566220238094561e+00 7.329385747353681e+00 5.000482253086420e-01 2.329385747353681e+00 6.947544642856381e+00 5.002893518518520e-01 1.947544642856383e+00 7.683342289461289e+00 5.000080375514402e-01 2.683342289461290e+00 8.452380952380411e+00 5.000000000000001e-01 3.452380952380410e+00 8.056382275131595e+00 5.000000000000000e-01 3.056382275131596e+00 8.762194113756150e+00 5.364583333333334e-01 3.762194113756149e+00 9.116805142195448e+00 5.299479166666666e-01 4.116805142195447e+00 9.495657999889593e+00 4.216579861111111e-01 4.495657999889594e+00 5.948621445105409e+00 4.164515817901234e-01 9.486214451054096e-01 5.515246431326914e+00 5.694085969650206e-01 5.152464313269158e-01 6.170424324065833e+00 5.423866719306770e-01 -1.170424324065833e+00 6.566220238094561e+00 5.017361111111112e-01 -1.566220238094561e+00 7.326078869046802e+00 5.000482253086419e-01 -2.326078869046802e+00 6.947544642856382e+00 5.002893518518519e-01 -1.947544642856382e+00 8.095238095237429e+00 5.000000000000000e-01 -3.095238095237428e+00 8.432539682539135e+00 4.999999999999999e-01 -3.432539682539134e+00 7.689267113094448e+00 5.000080375514402e-01 -2.689267113094447e+00 9.493772428595751e+00 5.892602237654321e-01 -4.493772428595750e+00 8.749104387124783e+00 5.060763888888890e-01 -3.749104387124782e+00 5.890890106130610e+00 5.423753713208167e-01 -8.908901061306098e-01 9.105491714432379e+00 5.355613425925926e-01 -4.105491714432380e+00 5.505624541497782e+00 5.903958952201361e-01 -5.056245414977827e-01 
</DataArray>
</Points>
<Cells>
<DataArray type="Int32" Name="connectivity" format="ascii">
77 19 20 77 11 12 78 18 19 77 78 19 78 12 13 12 78 77 76 16 17 79 18 78 17 18 79 17 79 76 13 14 79 79 78 13 79 14 76 15 76 14 8 9 80 80 22 23 23 3 80 76 2 16 0 8 80 0 80 3 1 2 76 15 1 76 81 22 80 80 9 81 77 20 82 82 11 77 82 20 21 10 11 82 21 22 81 81 9 10 81 82 21 10 82 81 85 55 56 85 69 70 83 52 53 84 83 53 83 72 73 72 83 84 87 56 57 87 68 69 90 59 60 90 65 66 88 90 66 59 90 88 89 57 58 89 67 68 87 89 68 57 89 87 88 58 59 88 66 67 89 88 67 58 88 89 86 54 55 85 86 55 86 70 71 70 86 85 84 53 54 86 84 54 84 71 72 71 84 86 60 61 91 91 90 60 65 90 91 87 85 56 69 85 87 64 65 91 92 61 62 91 61 92 91 92 64 64 92 63 83 73 93 93 73 74 50 51 94 83 93 52 94 93 74 51 52 93 51 93 94 94 74 75 92 5 63 94 75 1 1 2 50 94 1 50 62 7 5 62 5 92 97 30 29 97 44 43 95 47 46 95 27 26 96 27 95 46 96 95 103 34 33 103 40 39 100 40 103 33 100 103 101 31 30 101 43 42 99 32 31 99 42 41 101 42 99 31 101 99 100 33 32 100 41 40 99 41 100 32 99 100 96 46 45 96 28 27 98 28 96 45 98 96 98 45 44 98 29 28 97 29 98 44 97 98 102 38 37 104 26 25 26 104 95 105 103 39 38 105 39 38 102 105 34 105 35 105 34 103 105 102 35 101 30 97 43 101 97 36 35 102 47 104 48 47 95 104 106 49 48 104 106 48 25 106 104 24 106 25 102 37 6 1 106 24 49 1 2 49 106 1 36 6 4 102 6 36 
</DataArray>
<DataArray type="Int32" Name="offsets" format="ascii">
3 6 9 12 15 18 21 24 27 30 33 36 39 42 45 48 51 54 57 60 63 66 69 72 75 78 81 84 87 90 93 96 99 102 105 108 111 114 117 120 123 126 129 132 135 138 141 144 147 150 153 156 159 162 165 168 171 174 177 180 183 186 189 192 195 198 201 204 207 210 213 216 219 222 225 228 231 234 237 240 243 246 249 252 255 258 261 264 267 270 273 276 279 282 285 288 291 294 297 300 303 306 309 312 315 318 321 324 327 330 333 336 339 342 345 348 351 354 357 360 363 366 369 372 375 378 381 384 387 390 393 396 399 402 405 408 
</DataArray>
<DataArray type="UInt8" Name="types" format="ascii">
5 5 5 5 5 5 5 5 5 5 5 5 5 5 5 5 5 5 5 5 5 5 5 5 5 5 5 5 5 5 5 5 5 5 5 5 5 5 5 5 5 5 5 5 5 5 5 5 5 5 5 5 5 5 5 5 5 5 5 5 5 5 5 5 5 5 5 5 5 5 5 5 5 5 5 5 5 5 5 5 5 5 5 5 5 5 5 5 5 5 5 5 5 5 5 5 5 5 5 5 5 5 5 5 5 5 5 5 5 5 5 5 5 5 5 5 5 5 5 5 5 5 5 5 5 5 5 5 5 5 5 5 5 5 5 5 
</DataArray>
</Cells>
<PointData Scalars="pressure_nodes_[L]," Vectors="">
<DataArray type="Float64" Name="pressure_nodes_[L]" format="ascii">
9.773844382057947e+00 5.525748311169947e+00 5.696409090713068e+00 9.773844141053194e+00 5.013627585863772e+00 -4.589698666691461e+00 5.024176385722992e+00 -4.768286869994265e+00 9.492978110819578e+00 9.060492587544427e+00 8.545573841916546e+00 8.053277369987031e+00 7.568492676907292e+00 7.085611144471057e+00 6.591010219577560e+00 6.165089412379499e+00 6.165417620593487e+00 6.590270325140001e+00 7.085177346188720e+00 7.568448322403824e+00 8.053268507811481e+00 8.545572373630945e+00 9.060492479806530e+00 9.492978055323842e+00 5.575308978262158e+00 5.536286514067730e+00 5.492801625122904e+00 5.448984711822451e+00 5.402984855390949e+00 5.357339527897379e+00 5.312095686327647e+00 5.266247291751671e+00 5.220956616350008e+00 5.177672661417913e+00 5.133978389905002e+00 5.088686142440708e+00 5.040316067656700e+00 5.049618786757681e+00 5.088612533003285e+00 5.133938129151819e+00 5.177664955248906e+00 5.220956671151686e+00 5.266247316829674e+00 5.312095741213284e+00 5.357339849836107e+00 5.402986814227011e+00 5.449039057155254e+00 5.492800401203151e+00 5.536351471892107e+00 5.584420574609163e+00 4.933605174949637e+00 4.095694076919068e+00 3.328822076056601e+00 2.607141353291878e+00 1.852071193322717e+00 1.074676632781454e+00 3.076178002624688e-01 -4.560976728489542e-01 -1.235646167994413e+00 -1.991982125082808e+00 -2.731433614299505e+00 -3.496388908160081e+00 -4.315073443495371e+00 -4.157420043929875e+00 -3.498949995253592e+00 -2.731596958239259e+00 -1.991204090484605e+00 -1.235646158187742e+00 -4.560978634699427e-01 3.076168699764870e-01 1.074670923853495e+00 1.852037810017005e+00 2.607569234384254e+00 3.330236883951478e+00 4.091855198792869e+00 4.776622197437092e+00 6.261555679522176e+00 7.806974518084932e+00 7.329398409275749e+00 6.839015869731341e+00 9.422633514013340e+00 8.808851146140302e+00 8.299758147191678e+00 2.972545365143797e+00 2.254128506561685e+00 6.863642880144623e-01 1.473345158394103e+00 -7.705016578673939e-02 -1.649136252443095e+00 -8.581634280799587e-01 -2.368728512394110e+00 -3.120234608262178e+00 -3.926565625763807e+00 3.678163759993485e+00 4.527878170694781e+00 5.473696563920097e+00 5.427432728462647e+00 5.334553412664422e+00 5.380749403506449e+00 5.241511175449999e+00 5.197925728267564e+00 5.288800027326437e+00 5.063364778778073e+00 5.155849055494395e+00 5.514617790982281e+00 5.111365091862675e+00 5.561530759515655e+00 
</DataArray>
</PointData>
<CellData Scalars="pressure_elements_[L]," Vectors="velocity_elements_[L/T],">
<DataArray type="Float64" Name="pressure_elements_[L]" format="ascii">
7.807856876968834e+00 7.807856871746528e+00 7.329201576511801e+00 7.567683749435404e+00 7.329201555240880e+00 7.567683742652012e+00 6.340747166801641e+00 7.087271167299797e+00 6.841319198857527e+00 6.584941838492514e+00 6.841319140301652e+00 7.087271133825238e+00 6.584941809964967e+00 6.340747107370662e+00 9.325825294650841e+00 9.325825294260742e+00 9.649908650880167e+00 6.016663801987770e+00 9.649908651045115e+00 9.811950326019737e+00 5.854622141110668e+00 6.016663788269661e+00 9.089766514084854e+00 9.089766514912856e+00 8.051323315383424e+00 8.051323312298381e+00 8.298966248287924e+00 8.298966265367296e+00 8.791691148981730e+00 8.791691150328205e+00 8.549032549862156e+00 8.549032572110502e+00 6.862604616925961e-01 6.862604781416238e-01 2.973538564538710e+00 2.623065037463957e+00 2.973538541203905e+00 2.623065036384291e+00 -7.040208605979549e-02 -7.040208249706231e-02 -2.352418802031404e+00 -2.352418714395507e+00 -2.015121162389860e+00 -2.015121191886894e+00 -8.405819171273036e-01 -8.405819136116331e-01 -4.645014975531681e-01 -4.645014985389015e-01 -1.627024011965761e+00 -1.627023994929431e+00 -1.262203819108440e+00 -1.262203828351002e+00 1.462674400550576e+00 1.077578310577868e+00 1.462674484933426e+00 1.077578335876181e+00 2.238722653890733e+00 1.871120779871756e+00 2.238722678351344e+00 1.871120808738786e+00 -3.109544926692823e+00 -2.738722650653238e+00 -2.738722527272540e+00 3.034214105468420e-01 3.034214158629573e-01 -3.109544558892624e+00 -3.883842014860424e+00 -3.511226245199523e+00 -3.511226062970858e+00 -3.883841738509791e+00 3.313499290669336e+00 3.688076817632577e+00 4.500993477519533e+00 3.313499351701340e+00 4.082034550279523e+00 3.688076931109485e+00 4.082034541547465e+00 4.500993619086360e+00 -4.389788376551214e+00 5.006939817238932e+00 5.371901489235022e+00 5.006939767786106e+00 -4.747026651790767e+00 -4.389788477034866e+00 5.334560386504688e+00 5.334560380183737e+00 5.471970812373565e+00 5.471970807805004e+00 5.451358641799027e+00 5.451358643772036e+00 5.156255942380277e+00 5.156256038508904e+00 5.176919855061045e+00 5.176919808225856e+00 5.289674674644619e+00 5.289674678490783e+00 5.243006724733296e+00 5.243006751630782e+00 5.264878097147308e+00 5.264878088808761e+00 5.199199429346179e+00 5.199199510287784e+00 5.219036723020849e+00 5.219036686146636e+00 5.425726726849431e+00 5.425726723405534e+00 5.404107187569614e+00 5.404107182256857e+00 5.380085419941097e+00 5.380085440768897e+00 5.357574733008112e+00 5.357574721931521e+00 5.065722509226823e+00 5.513371654443800e+00 5.494369680430851e+00 5.134007894331495e+00 5.111653640159552e+00 5.088108253462650e+00 5.111653467796416e+00 5.134007772037886e+00 5.088108185087547e+00 5.311797877715104e+00 5.311797877063145e+00 5.065722423778990e+00 5.513371669583169e+00 5.494369686490079e+00 5.559177124876426e+00 5.536942119251783e+00 5.536942122200207e+00 5.559177144479567e+00 5.035966534136108e+00 5.588933066292394e+00 5.609996510752529e+00 5.588933060075171e+00 5.014877946998123e+00 5.035966492839611e+00 
</DataArray>
<DataArray type="Float64" Name="velocity_elements_[L/T]" NumberOfComponents="3" format="ascii">
8.750251534831213e-01 -2.053912595556540e-15 0.000000000000000e+00   8.750251611972069e-01 5.551115123125783e-17 0.000000000000000e+00   8.750251316187336e-01 -4.274358644806853e-15 0.000000000000000e+00   8.750251427066398e-01 -2.052821668208082e-08 0.000000000000000e+00   8.750251791149032e-01 -6.668926744168857e-09 0.000000000000000e+00   8.750251718458020e-01 -2.034739410294861e-08 0.000000000000000e+00   8.750251508632610e-01 -2.775557561562891e-17 0.000000000000000e+00   8.750251227111596e-01 -1.535576127364990e-08 0.000000000000000e+00   8.750252692907061e-01 2.775557561562891e-17 0.000000000000000e+00   8.750252177820496e-01 -8.499579326470830e-08 0.000000000000000e+00   8.750251643844533e-01 0.000000000000000e+00 0.000000000000000e+00   8.750252953667903e-01 -1.767734215118999e-07 0.000000000000000e+00   8.750252095016232e-01 -8.573445931664425e-08 0.000000000000000e+00   8.750251720162492e-01 -1.540236439166680e-07 0.000000000000000e+00   8.750250622662639e-01 -1.282307593442056e-14 0.000000000000000e+00   8.750250628724736e-01 -1.931788062847772e-14 0.000000000000000e+00   8.750250628724308e-01 -4.218847493575595e-15 0.000000000000000e+00   8.750250801613882e-01 -1.251204164998132e-07 0.000000000000000e+00   8.750250622663102e-01 -3.197442310920451e-14 0.000000000000000e+00   8.750250328233031e-01 2.350370204011628e-10 0.000000000000000e+00   8.750248779958201e-01 1.004397726100947e-08 0.000000000000000e+00   8.750248914232197e-01 -4.329869796038111e-15 0.000000000000000e+00   8.750250647544703e-01 2.017528464784760e-09 0.000000000000000e+00   8.750250603845334e-01 2.017468882674811e-09 0.000000000000000e+00   8.750252131891402e-01 -1.015630860660196e-07 0.000000000000000e+00   8.750252097979091e-01 8.292834039348024e-08 0.000000000000000e+00   8.750252235535152e-01 1.715294573045867e-14 0.000000000000000e+00   8.750253652367738e-01 3.019710986817969e-08 0.000000000000000e+00   8.750251333579673e-01 -5.551115123125783e-17 0.000000000000000e+00   8.750250237619233e-01 -1.961042614961883e-07 0.000000000000000e+00   8.750250358712232e-01 3.394295735592578e-07 0.000000000000000e+00   8.750250297401625e-01 -2.060094981826133e-07 0.000000000000000e+00   5.624872557080708e-02 -1.387778780781446e-16 5.624872557080694e-02   5.624872846691036e-02 5.204170427930421e-17 5.624872846691042e-02   5.624881659590987e-02 -5.898059818321144e-17 5.624881659590984e-02   5.624881643862027e-02 -4.390882171745325e-10 5.624881643862029e-02   5.624880785881715e-02 4.950701022743420e-09 5.624880785881717e-02   5.624881007903008e-02 -8.224631878328559e-10 5.624881007903008e-02   5.624873289811504e-02 -1.387778780781446e-17 5.624873289811524e-02   5.624873356714322e-02 1.838806884535416e-16 5.624873356714330e-02   5.624874622491563e-02 -1.040834085586084e-17 5.624874622491568e-02   5.624872962976119e-02 6.175615574477433e-16 5.624872962976105e-02   5.624873282602381e-02 8.988320601699407e-09 5.624873282602375e-02   5.624874207781100e-02 1.007705697358974e-08 5.624874207781092e-02   5.624872434490089e-02 -4.510281037539698e-17 5.624872434490089e-02   5.624872264586814e-02 -2.220446049250313e-16 5.624872264586816e-02   5.624873157337400e-02 5.735888163743708e-09 5.624873157337401e-02   5.624873110172028e-02 -5.167894105706505e-09 5.624873110172029e-02   5.624873721370921e-02 -1.035217184544579e-08 5.624873721370907e-02   5.624873476256899e-02 8.548268690122818e-10 5.624873476256905e-02   5.624874124088941e-02 -5.888098701667399e-08 5.624874124088916e-02   5.624874487550270e-02 6.500998777844713e-08 5.624874487550244e-02   5.624876241332746e-02 -3.018418848199644e-16 5.624876241332744e-02   5.624873204081664e-02 -1.734153630070234e-08 5.624873204081630e-02   5.624876668937499e-02 2.714711938578418e-08 5.624876668937485e-02   5.624874064812058e-02 3.265554020942529e-08 5.624874064812024e-02   5.624881819871295e-02 -6.810307724008924e-09 5.624881819871297e-02   5.624876956623015e-02 -2.208721425547844e-08 5.624876956623021e-02   5.624881587316048e-02 2.029740214098963e-08 5.624881587316051e-02   5.624875587427645e-02 3.770788224027877e-08 5.624875587427651e-02   5.624868392312466e-02 -1.092875789865388e-15 5.624868392312486e-02   5.624873913985078e-02 -1.973960941925590e-08 5.624873913985085e-02   5.624870227187852e-02 8.821133369932288e-08 5.624870227187857e-02   5.624872910286546e-02 1.035000946406073e-08 5.624872910286567e-02   5.624873092522401e-02 -7.204998229981552e-09 5.624873092522421e-02   5.624865843254714e-02 8.027812763850006e-08 5.624865843254700e-02   5.624876702769128e-02 -3.261280134836397e-16 5.624876702769099e-02   5.624870627461910e-02 6.220129471733171e-08 5.624870627461939e-02   5.624874048702312e-02 4.341940200089378e-08 5.624874048702343e-02   5.624874876496880e-02 6.004511044242091e-08 5.624874876496910e-02   5.624878764491956e-02 -4.174164895329180e-08 5.624878764491960e-02   5.624875489194749e-02 -1.040834085586084e-16 5.624875489194750e-02   5.624871628962697e-02 -1.318389841742373e-16 5.624871628962689e-02   5.624881550651172e-02 3.285365701710674e-09 5.624881550651184e-02   5.624875106673456e-02 -6.798008767017194e-09 5.624875106673451e-02   5.624873218242455e-02 -1.878599605736886e-08 5.624873218242454e-02   5.624872075729574e-02 9.665128430230707e-09 5.624872075729558e-02   5.624873551549667e-02 2.473765204832890e-08 5.624873551549665e-02   5.624880906327474e-02 -4.093947403305265e-16 5.624880906327460e-02   5.624868807040084e-02 1.942890293094024e-16 5.624868807040084e-02   5.624864680735100e-02 6.245004513516506e-17 5.624864680735107e-02   5.624871101866355e-02 1.435534636995417e-08 5.624871101866381e-02   5.624880624780326e-02 -9.714451465470120e-17 5.624880624780339e-02   5.624877440310487e-02 2.897783095423545e-08 5.624877440310467e-02   5.624874420940352e-01 4.052314039881821e-15 -5.624874420940338e-01   5.624874267156472e-01 6.827871601444713e-15 -5.624874267156480e-01   5.624874165903588e-01 2.026157019940911e-15 -5.624874165903591e-01   5.624874083806155e-01 1.110223024625157e-16 -5.624874083806151e-01   5.624874112594976e-01 -6.048709755290815e-09 -5.624874112594976e-01   5.624874130731133e-01 -6.234965210794030e-09 -5.624874130731133e-01   5.624875179268209e-01 -4.274358644806853e-15 -5.624875179268216e-01   5.624873939891153e-01 1.276756478318930e-15 -5.624873939891140e-01   5.624874449403108e-01 -1.416400317831579e-07 -5.624874449403106e-01   5.624874683569290e-01 -1.411905847237271e-07 -5.624874683569290e-01   5.624873966448395e-01 7.160938508832260e-15 -5.624873966448416e-01   5.624873837816915e-01 -2.775557561562891e-16 -5.624873837816922e-01   5.624873877886746e-01 -1.038058528024521e-14 -5.624873877886745e-01   5.624873369419054e-01 -6.550315845288424e-15 -5.624873369419056e-01   5.624873695250530e-01 -4.246120973450654e-08 -5.624873695250523e-01   5.624874006545056e-01 -1.194249779623568e-08 -5.624874006545052e-01   5.624874528839741e-01 -8.548792018725493e-08 -5.624874528839727e-01   5.624874727382879e-01 -4.156732930082896e-08 -5.624874727382887e-01   5.624872252567537e-01 -4.690776997230121e-07 -5.624872252567535e-01   5.624873339141376e-01 2.262731083613190e-07 -5.624873339141376e-01   5.624874203476531e-01 -3.256753872138418e-08 -5.624874203476535e-01   5.624874167505156e-01 1.396630883165884e-08 -5.624874167505156e-01   5.624874743731748e-01 -7.353372613702787e-08 -5.624874743731756e-01   5.624875233915126e-01 1.001084465879210e-07 -5.624875233915133e-01   5.624875920485675e-01 7.327471962526033e-15 -5.624875920485661e-01   5.624875726325882e-01 3.941291737419306e-15 -5.624875726325878e-01   5.624874857627790e-01 1.191806452114936e-07 -5.624874857627783e-01   5.624874457030882e-01 -5.181051510039225e-08 -5.624874457030875e-01   5.624874839621328e-01 -1.632027846198980e-14 -5.624874839621357e-01   5.624875402329852e-01 3.330669073875470e-15 -5.624875402329852e-01   5.624874150787027e-01 3.669814330198307e-08 -5.624874150787018e-01   5.624873254827318e-01 -1.885410613189364e-07 -5.624873254827347e-01   5.624876550108056e-01 8.826783866366895e-15 -5.624876550108041e-01   5.624875808153824e-01 -1.912036799167627e-07 -5.624875808153800e-01   5.624873182836000e-01 1.790171518757852e-07 -5.624873182836022e-01   5.624877055602251e-01 -5.291045562447194e-07 -5.624877055602278e-01   5.624874490016853e-01 -2.094334033975187e-07 -5.624874490016829e-01   5.624874203305447e-01 6.257317854781088e-08 -5.624874203305447e-01   5.624874061548560e-01 -5.910379607954042e-08 -5.624874061548562e-01   5.624876989455998e-01 2.805883084211480e-07 -5.624876989455970e-01   5.624875364367358e-01 -5.099581146028010e-08 -5.624875364367358e-01   5.624874353753588e-01 -8.683473257109497e-08 -5.624874353753579e-01   5.624874567879478e-01 -1.082467449009528e-15 -5.624874567879479e-01   5.624874653323746e-01 1.677281658007956e-08 -5.624874653323733e-01   5.624875425601221e-01 7.146940816937786e-09 -5.624875425601210e-01   5.624874500618784e-01 1.343477442854394e-08 -5.624874500618777e-01   5.624875476633585e-01 1.755017554061489e-07 -5.624875476633571e-01   5.624874310553833e-01 -6.776823771631624e-15 -5.624874310553840e-01   5.624873776989217e-01 9.212619443679496e-15 -5.624873776989218e-01   5.624874491351850e-01 2.111100121104936e-08 -5.624874491351867e-01   5.624873773920840e-01 -9.975456677308921e-15 -5.624873773920853e-01   5.624873139421034e-01 -1.400710706866981e-07 -5.624873139421043e-01   
</DataArray>
</CellData>
</Piece>
</UnstructuredGrid>
</VTKFile>
