<?xml version="1.0"?>
<VTKFile type="UnstructuredGrid" version="0.1" byte_order="LittleEndian">
<UnstructuredGrid>
<Piece NumberOfPoints="2028" NumberOfCells="724">
<Points>
<DataArray type="Float64" NumberOfComponents="3" format="ascii">
6.000000000000000e-01 7.000000000000000e-01 0.000000000000000e+00 9.499999999992372e-01 1.274999999998747e+00 0.000000000000000e+00 9.499999999992372e-01 1.274999999998747e+00 0.000000000000000e+00 1.299999999998378e+00 1.849999999997335e+00 0.000000000000000e+00 1.299999999998378e+00 1.849999999997335e+00 0.000000000000000e+00 1.649999999999066e+00 2.424999999998465e+00 0.000000000000000e+00 1.649999999999066e+00 2.424999999998465e+00 0.000000000000000e+00 2.000000000000000e+00 3.000000000000000e+00 0.000000000000000e+00 5.750000000000000e+00 7.000000000000000e-01 0.000000000000000e+00 5.500000000000827e+00 1.199999999998346e+00 0.000000000000000e+00 5.500000000000827e+00 1.199999999998346e+00 0.000000000000000e+00 5.250000000000705e+00 1.699999999998589e+00 0.000000000000000e+00 5.250000000000705e+00 1.699999999998589e+00 0.000000000000000e+00 5.000000000000000e+00 2.200000000000000e+00 0.000000000000000e+00 5.000000000000000e+00 2.200000000000000e+00 0.000000000000000e+00 4.400000000000134e+00 2.359999999999964e+00 0.000000000000000e+00 4.400000000000134e+00 2.359999999999964e+00 0.000000000000000e+00 3.800000000000203e+00 2.519999999999946e+00 0.000000000000000e+00 3.800000000000203e+00 2.519999999999946e+00 0.000000000000000e+00 3.200000000000143e+00 2.679999999999962e+00 0.000000000000000e+00 3.200000000000143e+00 2.679999999999962e+00 0.000000000000000e+00 2.600000000000082e+00 2.839999999999978e+00 0.000000000000000e+00 2.600000000000082e+00 2.839999999999978e+00 0.000000000000000e+00 2.000000000000000e+00 3.000000000000000e+00 0.000000000000000e+00 2.000000000000000e+00 3.000000000000000e+00 0.000000000000000e+00 2.083333333332920e+00 3.599999999997022e+00 0.000000000000000e+00 2.083333333332920e+00 3.599999999997022e+00 0.000000000000000e+00 2.166666666666273e+00 4.199999999997162e+00 0.000000000000000e+00 2.166666666666273e+00 4.199999999997162e+00 0.000000000000000e+00 2.250000000000000e+00 4.800000000000000e+00 0.000000000000000e+00 2.250000000000000e+00 4.800000000000000e+00 0.000000000000000e+00 1.750000000000000e+00 5.000000000000000e+00 0.000000000000000e+00 2.250000000000000e+00 4.800000000000000e+00 0.000000000000000e+00 2.833333333333118e+00 5.099999999999890e+00 0.000000000000000e+00 2.833333333333118e+00 5.099999999999890e+00 0.000000000000000e+00 3.416666666667265e+00 5.400000000000308e+00 0.000000000000000e+00 3.416666666667265e+00 5.400000000000308e+00 0.000000000000000e+00 4.000000000000000e+00 5.700000000000000e+00 0.000000000000000e+00 4.000000000000000e+00 5.700000000000000e+00 0.000000000000000e+00 3.625000000007225e+00 5.999999999994220e+00 0.000000000000000e+00 3.625000000007225e+00 5.999999999994220e+00 0.000000000000000e+00 3.250000000000000e+00 6.300000000000000e+00 0.000000000000000e+00 4.000000000000000e+00 5.700000000000000e+00 0.000000000000000e+00 4.499999999999542e+00 5.999999999999726e+00 0.000000000000000e+00 4.499999999999542e+00 5.999999999999726e+00 0.000000000000000e+00 5.000000000000000e+00 6.300000000000000e+00 0.000000000000000e+00 6.000000000000000e+00 3.800000000000000e+00 0.000000000000000e+00 6.374999999999935e+00 3.899999999999983e+00 0.000000000000000e+00 6.374999999999935e+00 3.899999999999983e+00 0.000000000000000e+00 6.750000000000000e+00 4.000000000000000e+00 0.000000000000000e+00 6.000000000000000e+00 3.800000000000000e+00 0.000000000000000e+00 5.625000000000065e+00 3.899999999999983e+00 0.000000000000000e+00 5.625000000000065e+00 3.899999999999983e+00 0.000000000000000e+00 5.250000000000000e+00 4.000000000000000e+00 0.000000000000000e+00 4.250000000000000e+00 4.800000000000000e+00 0.000000000000000e+00 4.750000000000338e+00 4.399999999999729e+00 0.000000000000000e+00 4.750000000000338e+00 4.399999999999729e+00 0.000000000000000e+00 5.250000000000000e+00 4.000000000000000e+00 0.000000000000000e+00 4.750000000000000e+00 4.000000000000000e+00 0.000000000000000e+00 5.250000000000000e+00 4.000000000000000e+00 0.000000000000000e+00 3.500000000000000e+00 4.000000000000000e+00 0.000000000000000e+00 3.083333333334594e+00 4.266666666665859e+00 0.000000000000000e+00 3.083333333334594e+00 4.266666666665859e+00 0.000000000000000e+00 2.666666666668059e+00 4.533333333332442e+00 0.000000000000000e+00 2.666666666668059e+00 4.533333333332442e+00 0.000000000000000e+00 2.250000000000000e+00 4.800000000000000e+00 0.000000000000000e+00 3.500000000000000e+00 4.000000000000000e+00 0.000000000000000e+00 3.874999999992375e+00 3.750000000005084e+00 0.000000000000000e+00 3.874999999992375e+00 3.750000000005084e+00 0.000000000000000e+00 4.250000000000000e+00 3.500000000000000e+00 0.000000000000000e+00 1.000000000000000e+00 6.200000000000000e+00 0.000000000000000e+00 1.599999999997112e+00 6.100000000000482e+00 0.000000000000000e+00 1.599999999997112e+00 6.100000000000482e+00 0.000000000000000e+00 2.199999999995692e+00 6.000000000000719e+00 0.000000000000000e+00 2.199999999995692e+00 6.000000000000719e+00 0.000000000000000e+00 2.799999999997127e+00 5.900000000000479e+00 0.000000000000000e+00 2.799999999997127e+00 5.900000000000479e+00 0.000000000000000e+00 3.399999999998564e+00 5.800000000000240e+00 0.000000000000000e+00 3.399999999998564e+00 5.800000000000240e+00 0.000000000000000e+00 4.000000000000000e+00 5.700000000000000e+00 0.000000000000000e+00 4.750000000000000e+00 7.200000000000000e+00 0.000000000000000e+00 4.500000000000000e+00 6.699999999999999e+00 0.000000000000000e+00 4.500000000000000e+00 6.699999999999999e+00 0.000000000000000e+00 4.250000000000000e+00 6.200000000000001e+00 0.000000000000000e+00 4.250000000000000e+00 6.200000000000001e+00 0.000000000000000e+00 4.000000000000000e+00 5.700000000000000e+00 0.000000000000000e+00 2.750000000000000e+00 4.000000000000000e+00 0.000000000000000e+00 3.124999999988985e+00 4.000000000000000e+00 0.000000000000000e+00 3.124999999988985e+00 4.000000000000000e+00 0.000000000000000e+00 3.500000000000000e+00 4.000000000000000e+00 0.000000000000000e+00 5.000000000000000e+00 2.200000000000000e+00 0.000000000000000e+00 4.750000000000000e+00 2.800000000000000e+00 0.000000000000000e+00 5.000000000000000e+00 2.200000000000000e+00 0.000000000000000e+00 5.249999999999616e+00 2.499999999999539e+00 0.000000000000000e+00 5.249999999999616e+00 2.499999999999539e+00 0.000000000000000e+00 5.500000000000000e+00 2.800000000000000e+00 0.000000000000000e+00 5.500000000000000e+00 2.800000000000000e+00 0.000000000000000e+00 5.250000000000325e+00 3.199999999999480e+00 0.000000000000000e+00 5.250000000000325e+00 3.199999999999480e+00 0.000000000000000e+00 5.000000000000298e+00 3.599999999999522e+00 0.000000000000000e+00 5.000000000000298e+00 3.599999999999522e+00 0.000000000000000e+00 4.750000000000000e+00 4.000000000000000e+00 0.000000000000000e+00 5.500000000000000e+00 2.800000000000000e+00 0.000000000000000e+00 5.916666666666305e+00 3.199999999999653e+00 0.000000000000000e+00 5.916666666666305e+00 3.199999999999653e+00 0.000000000000000e+00 6.333333333333001e+00 3.599999999999680e+00 0.000000000000000e+00 6.333333333333001e+00 3.599999999999680e+00 0.000000000000000e+00 6.750000000000000e+00 4.000000000000000e+00 0.000000000000000e+00 5.500000000000000e+00 2.800000000000000e+00 0.000000000000000e+00 5.750000000000000e+00 2.500000000000000e+00 0.000000000000000e+00 5.750000000000000e+00 2.500000000000000e+00 0.000000000000000e+00 6.374999999999980e+00 2.350000000000005e+00 0.000000000000000e+00 6.374999999999980e+00 2.350000000000005e+00 0.000000000000000e+00 7.000000000000000e+00 2.200000000000000e+00 0.000000000000000e+00 7.000000000000000e+00 2.200000000000000e+00 0.000000000000000e+00 7.499999999999977e+00 2.349999999999993e+00 0.000000000000000e+00 7.499999999999977e+00 2.349999999999993e+00 0.000000000000000e+00 8.000000000000000e+00 2.500000000000000e+00 0.000000000000000e+00 7.500000000000000e+00 2.000000000000000e+00 0.000000000000000e+00 7.750000000000000e+00 2.250000000000000e+00 0.000000000000000e+00 7.750000000000000e+00 2.250000000000000e+00 0.000000000000000e+00 8.000000000000000e+00 2.500000000000000e+00 0.000000000000000e+00 8.000000000000000e+00 2.500000000000000e+00 0.000000000000000e+00 8.166666666666181e+00 1.900000000001745e+00 0.000000000000000e+00 8.166666666666181e+00 1.900000000001745e+00 0.000000000000000e+00 8.333333333332911e+00 1.300000000001518e+00 0.000000000000000e+00 8.333333333332911e+00 1.300000000001518e+00 0.000000000000000e+00 8.500000000000000e+00 7.000000000000000e-01 0.000000000000000e+00 8.000000000000000e+00 2.500000000000000e+00 0.000000000000000e+00 8.499999999999950e+00 2.599999999999990e+00 0.000000000000000e+00 8.499999999999950e+00 2.599999999999990e+00 0.000000000000000e+00 9.000000000000000e+00 2.700000000000000e+00 0.000000000000000e+00 9.000000000000000e+00 2.700000000000000e+00 0.000000000000000e+00 9.466666666664466e+00 2.566666666667295e+00 0.000000000000000e+00 9.466666666664466e+00 2.566666666667295e+00 0.000000000000000e+00 9.933333333329530e+00 2.433333333334420e+00 0.000000000000000e+00 9.933333333329530e+00 2.433333333334420e+00 0.000000000000000e+00 1.040000000000000e+01 2.300000000000000e+00 0.000000000000000e+00 1.040000000000000e+01 2.300000000000000e+00 0.000000000000000e+00 1.078333333333231e+01 1.900000000001070e+00 0.000000000000000e+00 1.078333333333231e+01 1.900000000001070e+00 0.000000000000000e+00 1.116666666666699e+01 1.499999999999660e+00 0.000000000000000e+00 1.116666666666699e+01 1.499999999999660e+00 0.000000000000000e+00 1.155000000000000e+01 1.100000000000000e+00 0.000000000000000e+00 8.000000000000000e+00 2.500000000000000e+00 0.000000000000000e+00 8.437500000000002e+00 2.875000000000001e+00 0.000000000000000e+00 8.437500000000002e+00 2.875000000000001e+00 0.000000000000000e+00 8.875000000000004e+00 3.250000000000002e+00 0.0000000000000
[...]
<PointData Scalars="A_conc,B_conc,region_id," Vectors="" Tensors="">
<DataArray type="Float64" Name="A_conc" format="ascii">
2.510835152228732e-01 6.072069116122988e-01 5.564267348463479e-01 6.947825091844729e-01 6.825676054125805e-01 7.640644805035828e-01 7.582781163355145e-01 8.076791016389127e-01 1.638103656003842e-01 8.771537672022285e-02 5.225374673348439e-02 1.738068578087419e-01 1.715390388569213e-01 2.962106004908864e-01 8.256175758881282e-01 8.221997740515773e-01 8.222466190344547e-01 8.186665933295364e-01 8.187148172563906e-01 8.149776176136440e-01 8.150864922397125e-01 8.107571854520272e-01 8.111382382824490e-01 8.039517433488231e-01 8.048177884718950e-01 7.934280246236288e-01 7.944820871853155e-01 7.769038557275337e-01 7.781563408844329e-01 7.571276540447019e-01 7.724496802587142e-01 4.811418770926332e-01 7.494862134073690e-01 7.599248110869198e-01 7.597212047978431e-01 7.754853601166070e-01 7.752318264204285e-01 7.814944677665194e-01 7.882724436145400e-01 7.092309996853940e-01 7.728083224871355e-01 4.301523150406702e-01 6.118184891510556e-01 6.400233764518628e-01 6.424717983528094e-01 6.754735516916577e-01 9.067394134710919e-01 9.168494772247265e-01 9.164517523675308e-01 9.237791083628295e-01 9.071869091631983e-01 8.928624578352484e-01 8.934188744826761e-01 8.723882144398438e-01 7.247946817218210e-01 8.410015317477153e-01 8.185027121901105e-01 8.437929639550035e-01 7.814187215190376e-01 5.288936957722621e-01 6.397715149481192e-01 6.295683649886339e-01 6.290657779887975e-01 6.124927019583907e-01 6.137694710805007e-01 5.912724908584051e-01 6.918603175640480e-01 7.258564904783812e-01 7.347038297036261e-01 8.074111449040265e-01 6.621490532241002e-01 7.440294866541696e-01 7.291617323166830e-01 7.497223088613716e-01 7.481055569924685e-01 7.617577990278761e-01 7.611028544291327e-01 7.721683572752355e-01 7.717997325430609e-01 7.815874310913603e-01 3.594030901155116e-02 1.228793884484471e-01 8.025091430479465e-02 1.927028535190702e-01 2.235573001736694e-01 7.877921199178043e-01 3.435147926242248e-01 3.407599427577311e-01 3.349389701192453e-01 3.687976958715188e-01 9.303151526334728e-01 4.253449404039750e-01 8.733800400830974e-01 8.780134863979405e-01 8.774971318391346e-01 8.798021322589922e-01 8.808312980955540e-01 8.613215307651886e-01 8.641570933375909e-01 8.258676224251734e-01 8.352571812782975e-01 7.536738414804927e-01 5.604638547670285e-01 5.753365885438179e-01 5.766485684317765e-01 5.917040951788306e-01 5.997526104026220e-01 7.556829281376025e-01 9.173287727604719e-01 9.214780235045886e-01 9.212957975954015e-01 9.244215938779254e-01 9.243026730747836e-01 9.266097162959492e-01 9.265972237018758e-01 9.283920819855450e-01 9.283836182768054e-01 9.301013233285571e-01 6.617172088244375e-01 9.562572368924402e-01 8.935407026730117e-01 9.350518061564299e-01 2.902153211157798e-01 2.926000110309763e-01 3.544407981895874e-01 4.801838518416315e-01 4.868022907070669e-01 5.427134447083943e-01 9.401407966731531e-01 9.497465764731559e-01 9.491499663795537e-01 9.528779503073841e-01 9.525951301996597e-01 9.550824941558688e-01 9.550262080978523e-01 9.568258450972622e-01 9.568049765929270e-01 9.584067880283671e-01 9.406721651319297e-01 9.487326200704654e-01 9.486977379445312e-01 9.551512302656225e-01 9.556245635848589e-01 9.594283236785308e-01 9.329591841881468e-01 9.452456017840470e-01 9.447215988962562e-01 9.568647583338847e-01 9.563155907589974e-01 9.671564134899060e-01 9.666170572878333e-01 9.744130919049295e-01 9.744012725967608e-01 9.656735575997575e-01 9.679039008069208e-01 9.495045455260843e-01 9.923563266773423e-01 8.081358116553518e-01 6.235104339046514e-01 9.411960200425733e-01 8.741540579667932e-01 9.419064094662519e-01 9.235967217350143e-01 9.363490054455942e-01 9.355229517800563e-01 9.427422453385811e-01 9.417263239788025e-01 9.454276478159449e-01 8.379037766070783e-01 9.537754599691249e-01 9.287254634016231e-01 9.469105664283329e-01 7.707660851082324e-01 7.942686088856787e-01 7.944514702342808e-01 8.131814939351492e-01 8.139124373887195e-01 8.182535997159079e-01 1.011374376956268e+00 6.563065541033736e-01 5.578623608018538e-01 1.288636020690890e-01 8.371512970048657e-01 9.544342681220853e-01 9.290315598148553e-01 9.469618645079008e-01 9.739247752061545e-01 9.726955044341158e-01 9.727561926932005e-01 9.712027705782921e-01 9.713958038563125e-01 9.685882748499201e-01 9.738900256413858e-01 9.747447890787428e-01 9.747013704721863e-01 9.752481530683257e-01 9.752489078934385e-01 9.757852516747448e-01 9.764603963608167e-01 9.680872164160922e-01 9.818762996758561e-01 9.208861215389894e-01 9.801318438477740e-01 9.807452427314006e-01 9.807256123285846e-01 9.811536350468385e-01 9.811478436618847e-01 9.815177020153837e-01 9.320819526606614e-01 9.407238281389716e-01 9.408986582020249e-01 9.463988819755051e-01 9.465663277968241e-01 9.505361810109060e-01 9.506052323119671e-01 9.509713005500287e-01 9.642785378135711e-01 9.674482902854187e-01 9.674608355314894e-01 9.704907114227715e-01 9.704522977512161e-01 9.732494275993748e-01 9.732734150089544e-01 9.757027183776544e-01 9.643355151263702e-01 9.616870870882021e-01 9.616762422412830e-01 9.555428377556913e-01 8.614177376535238e-01 8.705865855905204e-01 8.699510862970143e-01 8.750427325193653e-01 8.749838345424040e-01 8.775580537736005e-01 9.086387195524602e-01 9.172755562916020e-01 9.168320203378464e-01 9.210614273054651e-01 9.208373060035265e-01 9.236811516902348e-01 5.075125001978603e-01 5.759858115728450e-01 3.335886388474327e-01 3.751612283762359e-01 4.039513752070558e-01 3.472635168288261e-01 6.754222757484221e-01 6.998821534326543e-01 6.995081359370572e-01 7.200827202831316e-01 7.194503629565501e-01 7.377980791515235e-01 7.372725286655507e-01 7.527877489845950e-01 7.861155984882834e-01 8.274731209395726e-01 8.261347273155319e-01 8.860551302737567e-01 8.828759448602163e-01 9.139160587059120e-01 9.066776835764159e-01 9.155629868065722e-01 7.887552694844925e-01 7.991931949467943e-01 7.909811387098317e-01 7.856235655114069e-01 5.122447700111842e-01 5.266927809109807e-01 5.253947842584016e-01 5.250528994880522e-01 5.223286607541858e-01 6.011579132220632e-01 6.073066089739992e-01 7.547165681658933e-01 4.831788924567881e-01 5.745690463818242e-01 8.314179212222877e-01 7.755942919712605e-01 8.353921130756765e-01 5.324623219110208e-01 7.045378074290006e-01 7.083096733428778e-01 7.082413296985410e-01 7.119352931525125e-01 7.118616228034864e-01 7.152064427613529e-01 7.151291952859786e-01 7.181457124157504e-01 2.700296869043682e-01 6.319869238171485e-01 2.852264811138154e-01 2.822479156728134e-01 6.310027452084094e-01 5.939367185132803e-01 7.812337891920194e-01 6.873410241893746e-01 7.526974110257891e-01 7.469667067006535e-01 6.551287659613285e-01 6.718301357978845e-01 7.258244061294927e-01 7.504437069940385e-01 6.827009731338188e-01 6.909872360498786e-01 6.922781022755259e-01 5.614437661284335e-01 5.768551392726126e-01 6.915090335116805e-01 5.625587839513724e-01 7.602659762113181e-01 6.940786270884767e-01 7.807645804489187e-01 7.953575570952593e-01 7.486771904565082e-01 7.772150709235204e-01 7.618178442483892e-01 6.653493929685572e-01 6.943888660655224e-01 7.603558210622119e-01 7.456886223254505e-01 6.716220941529002e-01 6.903985634799894e-01 6.885993180415261e-01 5.840509103983580e-01 6.835475410755757e-01 6.789297981672580e-01 7.480439242153497e-01 7.475009586953846e-01 7.430425319973816e-01 6.831223090693410e-01 7.810262871409316e-01 7.340880672916168e-01 7.557154743926604e-01 7.770080940052587e-01 7.935549126669126e-01 8.053287035483718e-01 7.555502372460834e-01 7.947505958867904e-01 7.802233853577268e-01 6.822408137106855e-01 7.455646110642055e-01 7.641379972421457e-01 6.827720832929892e-01 6.770637393604673e-01 7.461926445250645e-01 7.586389737154293e-01 7.865937333792405e-01 8.079101549939843e-01 7.591016937941065e-01 7.390298294662043e-01 7.869315318099700e-01 7.366602076226250e-01 7.837192798336394e-01 7.535759003469185e-01 7.389802371464447e-01 7.427146731746921e-01 7.874128925924577e-01 7.243546931790295e-01 6.575451431038679e-01 7.457033548421275e-01 7.541999772248552e-01 7.144687734797457e-01 7.369074489882862e-01 7.253695504012236e-01 6.432191659391505e-01 6.578475378017806e-01 6.564066682642695e-01 7.201506603916067e-01 7.209874404929137e-01 7.142742096633047e-01 7.549098487329490e-01 7.110393780487249e-01 7.146704982660156e-02 8.987297316432323e-02 1.563147214111673e-01 -3.419208966288982e-02 -2.685214814389813e-02 6.104423780678794e-02 -1.726497909133481e-03 8.630167010215894e-01 5.246345873271232e-01 7.677818705602825e-01 8.099859543196565e-01 8.310323138946880e-01 6.054896371868664e-02 1.219747837547456e-01 -4.413908829439499e-02 1.289846788260036e-01 -5.060337188136303e-02 -5.035034603160495e-02 2.047665677706205e-01 1.313390734507388e-01 4.808982300675761e-02 9.870562123199256e-03 6.591523980374528e-02 2.077839409154323e-02 2.522313663754387e-02 -1.081569256481189e-01 8.075440980923213e-01 6.624934725324148e-01 7.565712965463520e-01 8.027216991560761e-01 -5.121810894751917e-02 2.200008397962671e-01 8.744327111712306e-02 6.155500706831576e-01 5.065622210581097e-01 7.053762284084585e-01 8.167251297972012e-01 7.145554495940246e-01 7.948734560295534e-01 5.811043817281618e-01 7.602663404993878e-01 6.633819217026460e-01 7.142184264746587e-01 6.716237889597213e-01 7.984619365651660e-01 6.137552696578464e-01 7.029581282386795e-01 7.715565291592319e-01 8.657930258807493e-02 8.272696997388180e-01 8.155762250196947e-01 1.354179589193388e-01 8.254103599113822e-01 9.504254319724253e-02 6.136701817681726e-01 5.070620768755302e-01 4.256638985787569e-01 7.069545438497511e-01 5.054406328107065e-01 6.120643504030610e-01 7.679393985877817e-01 7.258591079836371e-01 8.126121661169310e-01 6.182649695499898e-01 7.036339127078306e-01 4.466168923178160e-01 8.170844538912720e-01 1.391730480382289e-01 3.221019152237346e-01 7.809249866722223e-01 8.251179932204817e-01 5.533279934371778e-01 5.952290085456704e-01 7.839008404438040e-01 5.533582363188837e-01 5.778746456209877e-01 6.649405608413307e-01 7.637474451196182e-01 4.613854429169471e-01 5.579242458262941e-01 3.283053820753279e-01 -5.399339073222867e-02 2.135573838999968e-01 -4.647022912394674e-02 4.512713100799819e-01 5.106183227849783e-01 6.175208987218094e-01 1.998814363366522e-02 6.722132653324189e-02 5.278740527331904e-02 6.294891931083044e-02 3.645067879401337e-02 4.606071215826427e-02 4.002228521642090e-01 1.853580219326464e-01 5.769496070872920e-01 1.323719828297988e-01 2.079887060703781e-01 -5.002582883579047e-02 1.901592017704953e-01 3.101257058767127e-01 5.726596271635503e-01 3.190421719160801e-01 1.880929159932305e-01 4.715459977851034e-01 -4.738436090294493e-02 1.283093278419286e-01 -4.489770400799952e-02 -8.005460333865261e-02 2.885355588145133e-01 1.491420559848648e-01 3.468572388702865e-01 3.240850920077002e-01 2.058632105201249e-01 3.259788365985126e-01 1.338176873068228e-01 2.099467939543355e-01 1.948174979322825e-01 3.357609811264355e-01 4.655135591216774e-01 1.753888796290868e-01 -5.745895590478093e-02 1.365732345622925e-01 1.984852289054215e-01 1.280901451855155e-01 3.321969727068204e-01 1.908643132008153e-01 2.821184660529072e-01 -7.176847515700450e-02 -6.524806593092353e-02 1.830830190118134e-01 -6.341607596739929e-02 6.636271126051648e-01 4.673726834173871e-01 5.005632692486534e-01 4.684335713531312e-01 6.613377510518341e-01 5.837376367006964e-01 4.264168776024650e-01 4.855645782426239e-01 6.133859615771943e-01 4.351154987535402e-01 3.225721187286023e-01 4.760524560237431e-01 4.687004362056134e-01 3.166685317906890e-01 4.919650769165046e-01 3.242942842731736e-01 3.484530600009532e-01 4.746796080414801e-01 4.509787436604753e-02 7.356563722931593e-02 6.446508272951536e-02 5.639555427637182e-02 6.931567209506281e-02 1.654105808568361e-01 5.202891334881180e-01 6.029200802738254e-01 7.879940303392329e-01 5.114677998466737e-01 2.934071420561841e-01 6.101383702238615e-01 -9.531585045222432e-03 -3.532885322582055e-03 2.782041710571192e-02 3.504423724815912e-02 4.108064105894775e-01 9.704423229016079e-02 5.119791512422851e-01 4.680607837677649e-01 -4.558453343093922e-03 1.898669987089699e-01 5.534294232316214e-01 5.242217810461358e-01 1.879191699751024e-01 2.039676608436739e-01 4.999326305015589e-01 1.836754637697496e-01 5.044887845418203e-02 1.959496855652660e-01 3.184921326943971e-02 8.006692078006465e-02 -1.048456369276714e-02 3.706470654591581e-02 8.437086047341556e-02 -1.615377681789412e-02 7.986648562771054e-03 5.651335170599046e-02 1.599284998194923e-01 6.546388581299167e-01 7.503461501573698e-01 7.441370336545897e-01 7.426209812588381e-01 7.487871276396263e-01 8.248943051799775e-01 8.225407519613491e-01 7.494704759208692e-01 8.238726793595943e-01 9.703914811324883e-01 9.698979340148632e-01 9.759070053892734e-01 9.678251286200789e-01 9.529808836997006e-01 9.712626668923602e-01 9.583907237039796e-01 9.572229900345280e-01 9.709829859386636e-01 9.706342713894817e-01 9.588870379196902e-01 9.701588814973358e-01 8.997755035266581e-01 9.459959014247374e-01 8.941931084521050e-01 9.709137199275927e-01 9.565745685506882e-01 9.734602213624534e-01 9.559674241393011e-01 9.568566242658181e-01 9.718890658366339e-01 9.571581962102106e-01 9.285973099833306e-01 9.583278489886706e-01 9.614689336512979e-01 9.300087688084484e-01 9.308867679760046e-01 9.594750686766731e-01 9.593222889983659e-01 9.311578395971593e-01 9.319151318918787e-01 8.831445026322680e-01 9.329169777716210e-01 8.834367667207146e-01 8.756149330924006e-01 9.346294618250334e-01 9.283119107070475e-01 9.580517397883689e-01 9.309870244875647e-01 9.328143070813255e-01 8.868438244851391e-01 9.297639607836579e-01 8.857268279999830e-01 8.147665670786173e-01 8.770706828452915e-01 8.224105841545971e-01 8.876946429292416e-01 8.209283740267814e-01 9.168779135927331e-01 8.753844497078561e-01 8.827467504196096e-01 8.845193456771883e-01 8.766379413714743e-01 8.196451667803147e-01 9.691099792881896e-01 9.422215431343359e-01 9.014485084822182e-01 9.069202556787832e-01 9.751972465110252e-01 9.656842310758632e-01 9.531397807952655e-01 9.711616767365090e-01 9.325825043461163e-01 7.102263973203745e-01 1.921784766227770e-02 4.057670190241291e-01 5.509915167126468e-01 7.595037001723460e-01 5.684149895848432e-01 1.708931806426006e-01 8.466665010210530e-01 9.614636694435454e-01 1.801105045293709e-02 7.132272609661131e-01 2.224297855798785e-01 3.129453485025829e-01 5.318182126575630e-01 2.989779242543900e-01 5.649240251884069e-01 5.379257949522612e-01 3.083800515213449e-01 5.983974572303675e-01 3.363455809866867e-01 5.234744820481795e-01 3.094501999382042e-01 2.981575694793096e-01 1.548063705152674e-01 2.985663830323376e-01 3.276795470884640e-01 1.443004502971487e-01 3.414452890615015e-01 5.285381887887399e-01 5.243168255696342e-01 5.253624512821122e-01 3.432567050877998e-01 2.963091353496520e-01 5.250750761957697e-01 3.140606712391689e-01 5.196880463350955e-01 2.924831274051266e-01 1.485533610290206e-01 1.238303270919160e-01 1.799975498984472e-01 9.561976738184689e-01 6.703619718107544e-01 1.305351982430715e-01 1.578731372179376e-01 3.021887463983824e-01 3.076501751809342e-01 3.028811716377463e-01 1.251155865208810e-01 2.985919603967023e-01 5.168210041364791e-01 3.172658580741756e-01 6.959343870174541e-01 5.744307614732787e-01 7.113135050129242e-01 7.624909220710436e-01 5.251513539381407e-01 7.527622831514351e-01 7.012741321271643e-01 7.413967683958848e-01 7.393710492225239e-01 7.474221515538692e-01 7.542315052493060e-01 7.825005530339785e-01 7.330709839197042e-01 7.552872652278565e-01 7.631895878735276e-01 3.106952677789289e-01 3.649117827074616e-01 5.700157270104094e-01 7.871494460123575e-01 7.581609358079596e-01 6.990196063887231e-01 7.951187453290588e-01 4.865524969955670e-01 7.403200628057903e-01 7.893860539355733e-01 8.055509886925504e-01 5.082330596425643e-01 5.827996487008049e-01 2.485434070361721e-01 6.307653149082658e-01 5.808087171133647e-01 3.659395015305654e-01 2.537185975680744e-01 9.179080427051360e-01 7.156824155691165e-01 9.303757733513153e-01 5.906019476993938e-01 2.217853755244577e-01 4.485762583380618e-01 5.965153010212882e-01 7.134851522589197e-01 6.089199604099554e-01 7.073687159884267e-01 6.092337520144799e-01 6.780297354711654e-01 7.172318354281976e-01 7.291754029017176e-01 7.502013852583616e-01 5.299920817649851e-01 5.791618790891082e-01 5.652230515055277e-01 5.620090000615477e-01 5.382649325722042e-01 5.243613827410728e-01 7.111947601842857e-01 5.844290731925436e-01 5.254609060074508e-01 7.015192799957102e-01 6.718851253085335e-01 7.427101747353637e-01 6.747181706263671e-01 7.592570455774773e-01 7.552178499222375e-01 7.048000145460855e-01 7.096530545660583e-01 5.255926008098788e-01 5.538669053068010e-01 7.024910488817625e-01 5.309413532686023e-01 6.200941125670522e-01 3.033803028534709e-01 6.749845140339353e-01 7.112815341636681e-01 7.100707077480150e-01 5.822620263321874e-01 7.115991904665977e-01 5.778456236159004e-01 5.825466017691385e-01 6.926422057544728e-01 6.486883013647382e-01 7.127619737760504e-01 6.272239574645806e-01 6.610323546737001e-01 7.044476090093523e-01 7.606239211059324e-01 6.738186865612545e-01 7.128975226463404e-01 6.680789727426081e-01 6.089585225701428e-01 7.040748148765693e-01 7.050753839101244e-01 6.090659984936688e-01 6.004754800326432e-01 7.320822262589992e-01 6.765083480919729e-01 7.384125182337015e-01 7.327023283148175e-01 6.837123680623919e-01 6.765215566778940e-01 7.178604598471329e-01 6.087437063072060e-01 7.118679896159188e-01 3.120498950522852e-01 7.885507103394814e-01 8.293966032983208e-01 4.350156722837832e-02 1.363511695189907e-01 9.245691882330387e-02 6.248907870628044e-02 8.104486535925122e-02 5.052680504567886e-02 5.744406598150912e-01 9.044045904413104e-01 8.344180112113506e-01 5.269981772235376e-01 6.618987097452190e-01 3.405326937504593e-01 6.251134736901349e-01 5.752023587759361e-01 8.425971188446008e-01 5.757468603043697e-01 6.267477772205616e-01 4.164841021493923e-01 5.143866746326559e-01 7.922552896585080e-01 8.080970075598023e-01 7.271621459875756e-01 7.187838201234863e-01 7.659817513139529e-01 3.461918833622946e-02 3.081452582600216e-02 2.180832208802325e-02 6.816088253720034e-01 5.123993711282410e-01 8.113646724974777e-01 4.630734941001933e-01 5.081746690067073e-01 8.112786914713945e-01 6.322261883961902e-02 -3.023836121999807e-03 3.324233664854338e-03 7.844897879044915e-01 6.624434252526848e-01 5.249726675706885e-01 8.368301350216356e-01 7.911399748513646e-01 5.537586273088390e-01 7.017789952755118e-01 6.194652649388126e-01 1.500496487670042e-01 1.314407725913420e-01 6.166401217364539e-01 -4.579306078856157e-02 4.483080701656718e-01 7.400107956915749e-01 5.967232722305137e-01 7.265741182015257e-01 4.353230567055646e-01 7.102018689483849e-01 7.508359050688402e-01 9.070118305813109e-01 5.697386731995552e-01 2.069682941810230e-01 3.143799991164584e-01 8.343364965980138e-01 3.535651138071561e-01 -9.755461986225385e-02 -9.131658858856333e-02 -1.401464200731339e-01 4.107132454109041e-01 6.241446788745372e-01 6.539791652831396e-01 3.974263689725757e-01 8.064816226963514e-01 7.261365829489468e-01 1.107211711163033e-01 3.438926481933828e-01 1.019573656047538e-01 8.758984538620022e-02 1.845406502814700e-01 8.427998310215014e-02 9.023174397289950e-02 3.968559215525113e-02 8.779129461539076e-02 4.883789463500657e-02 4.179501835198672e-02 9.253737910044900e-01 8.882852984523137e-01 7.534581729966248e-01 7.074843292078126e-01 9.346947693892801e-01 7.226718832699819e-01 1.206482893858911e-02 6.533623015332769e-02 2.267449512441769e-03 2.237468816567096e-01 5.506766312162652e-01 7.102727455918116e-01 -3.611036579316384e-02 6.039994141182236e-01 1.496927535589248e-01 3.493130598644387e-02 4.714256193503977e-02 3.070188248611180e-02 4.746237209302662e-02 3.432355941498097e-02 7.143752773385113e-02 4.559352957821097e-02 8.840701790496930e-02 1.870478804302568e-02 6.774598544119514e-01 7.300035041284307e-01 7.368985811358912e-01 9.937721443903759e-02 2.218199434105035e-01 2.875651068218011e-01 2.236375700148558e-01 6.187780558756640e-01 2.