<?xml version="1.0"?>
<VTKFile type="UnstructuredGrid" version="0.1" byte_order="LittleEndian">
<UnstructuredGrid>
<Piece NumberOfPoints="2028" NumberOfCells="724">
<Points>
<DataArray type="Float64" NumberOfComponents="3" format="ascii">
6.000000000000000e-01 7.000000000000000e-01 0.000000000000000e+00 9.499999999992372e-01 1.274999999998747e+00 0.000000000000000e+00 9.499999999992372e-01 1.274999999998747e+00 0.000000000000000e+00 1.299999999998378e+00 1.849999999997335e+00 0.000000000000000e+00 1.299999999998378e+00 1.849999999997335e+00 0.000000000000000e+00 1.649999999999066e+00 2.424999999998465e+00 0.000000000000000e+00 1.649999999999066e+00 2.424999999998465e+00 0.000000000000000e+00 2.000000000000000e+00 3.000000000000000e+00 0.000000000000000e+00 5.750000000000000e+00 7.000000000000000e-01 0.000000000000000e+00 5.500000000000827e+00 1.199999999998346e+00 0.000000000000000e+00 5.500000000000827e+00 1.199999999998346e+00 0.000000000000000e+00 5.250000000000705e+00 1.699999999998589e+00 0.000000000000000e+00 5.250000000000705e+00 1.699999999998589e+00 0.000000000000000e+00 5.000000000000000e+00 2.200000000000000e+00 0.000000000000000e+00 5.000000000000000e+00 2.200000000000000e+00 0.000000000000000e+00 4.400000000000134e+00 2.359999999999964e+00 0.000000000000000e+00 4.400000000000134e+00 2.359999999999964e+00 0.000000000000000e+00 3.800000000000203e+00 2.519999999999946e+00 0.000000000000000e+00 3.800000000000203e+00 2.519999999999946e+00 0.000000000000000e+00 3.200000000000143e+00 2.679999999999962e+00 0.000000000000000e+00 3.200000000000143e+00 2.679999999999962e+00 0.000000000000000e+00 2.600000000000082e+00 2.839999999999978e+00 0.000000000000000e+00 2.600000000000082e+00 2.839999999999978e+00 0.000000000000000e+00 2.000000000000000e+00 3.000000000000000e+00 0.000000000000000e+00 2.000000000000000e+00 3.000000000000000e+00 0.000000000000000e+00 2.083333333332920e+00 3.599999999997022e+00 0.000000000000000e+00 2.083333333332920e+00 3.599999999997022e+00 0.000000000000000e+00 2.166666666666273e+00 4.199999999997162e+00 0.000000000000000e+00 2.166666666666273e+00 4.199999999997162e+00 0.000000000000000e+00 2.250000000000000e+00 4.800000000000000e+00 0.000000000000000e+00 2.250000000000000e+00 4.800000000000000e+00 0.000000000000000e+00 1.750000000000000e+00 5.000000000000000e+00 0.000000000000000e+00 2.250000000000000e+00 4.800000000000000e+00 0.000000000000000e+00 2.833333333333118e+00 5.099999999999890e+00 0.000000000000000e+00 2.833333333333118e+00 5.099999999999890e+00 0.000000000000000e+00 3.416666666667265e+00 5.400000000000308e+00 0.000000000000000e+00 3.416666666667265e+00 5.400000000000308e+00 0.000000000000000e+00 4.000000000000000e+00 5.700000000000000e+00 0.000000000000000e+00 4.000000000000000e+00 5.700000000000000e+00 0.000000000000000e+00 3.625000000007225e+00 5.999999999994220e+00 0.000000000000000e+00 3.625000000007225e+00 5.999999999994220e+00 0.000000000000000e+00 3.250000000000000e+00 6.300000000000000e+00 0.000000000000000e+00 4.000000000000000e+00 5.700000000000000e+00 0.000000000000000e+00 4.499999999999542e+00 5.999999999999726e+00 0.000000000000000e+00 4.499999999999542e+00 5.999999999999726e+00 0.000000000000000e+00 5.000000000000000e+00 6.300000000000000e+00 0.000000000000000e+00 6.000000000000000e+00 3.800000000000000e+00 0.000000000000000e+00 6.374999999999935e+00 3.899999999999983e+00 0.000000000000000e+00 6.374999999999935e+00 3.899999999999983e+00 0.000000000000000e+00 6.750000000000000e+00 4.000000000000000e+00 0.000000000000000e+00 6.000000000000000e+00 3.800000000000000e+00 0.000000000000000e+00 5.625000000000065e+00 3.899999999999983e+00 0.000000000000000e+00 5.625000000000065e+00 3.899999999999983e+00 0.000000000000000e+00 5.250000000000000e+00 4.000000000000000e+00 0.000000000000000e+00 4.250000000000000e+00 4.800000000000000e+00 0.000000000000000e+00 4.750000000000338e+00 4.399999999999729e+00 0.000000000000000e+00 4.750000000000338e+00 4.399999999999729e+00 0.000000000000000e+00 5.250000000000000e+00 4.000000000000000e+00 0.000000000000000e+00 4.750000000000000e+00 4.000000000000000e+00 0.000000000000000e+00 5.250000000000000e+00 4.000000000000000e+00 0.000000000000000e+00 3.500000000000000e+00 4.000000000000000e+00 0.000000000000000e+00 3.083333333334594e+00 4.266666666665859e+00 0.000000000000000e+00 3.083333333334594e+00 4.266666666665859e+00 0.000000000000000e+00 2.666666666668059e+00 4.533333333332442e+00 0.000000000000000e+00 2.666666666668059e+00 4.533333333332442e+00 0.000000000000000e+00 2.250000000000000e+00 4.800000000000000e+00 0.000000000000000e+00 3.500000000000000e+00 4.000000000000000e+00 0.000000000000000e+00 3.874999999992375e+00 3.750000000005084e+00 0.000000000000000e+00 3.874999999992375e+00 3.750000000005084e+00 0.000000000000000e+00 4.250000000000000e+00 3.500000000000000e+00 0.000000000000000e+00 1.000000000000000e+00 6.200000000000000e+00 0.000000000000000e+00 1.599999999997112e+00 6.100000000000482e+00 0.000000000000000e+00 1.599999999997112e+00 6.100000000000482e+00 0.000000000000000e+00 2.199999999995692e+00 6.000000000000719e+00 0.000000000000000e+00 2.199999999995692e+00 6.000000000000719e+00 0.000000000000000e+00 2.799999999997127e+00 5.900000000000479e+00 0.000000000000000e+00 2.799999999997127e+00 5.900000000000479e+00 0.000000000000000e+00 3.399999999998564e+00 5.800000000000240e+00 0.000000000000000e+00 3.399999999998564e+00 5.800000000000240e+00 0.000000000000000e+00 4.000000000000000e+00 5.700000000000000e+00 0.000000000000000e+00 4.750000000000000e+00 7.200000000000000e+00 0.000000000000000e+00 4.500000000000000e+00 6.699999999999999e+00 0.000000000000000e+00 4.500000000000000e+00 6.699999999999999e+00 0.000000000000000e+00 4.250000000000000e+00 6.200000000000001e+00 0.000000000000000e+00 4.250000000000000e+00 6.200000000000001e+00 0.000000000000000e+00 4.000000000000000e+00 5.700000000000000e+00 0.000000000000000e+00 2.750000000000000e+00 4.000000000000000e+00 0.000000000000000e+00 3.124999999988985e+00 4.000000000000000e+00 0.000000000000000e+00 3.124999999988985e+00 4.000000000000000e+00 0.000000000000000e+00 3.500000000000000e+00 4.000000000000000e+00 0.000000000000000e+00 5.000000000000000e+00 2.200000000000000e+00 0.000000000000000e+00 4.750000000000000e+00 2.800000000000000e+00 0.000000000000000e+00 5.000000000000000e+00 2.200000000000000e+00 0.000000000000000e+00 5.249999999999616e+00 2.499999999999539e+00 0.000000000000000e+00 5.249999999999616e+00 2.499999999999539e+00 0.000000000000000e+00 5.500000000000000e+00 2.800000000000000e+00 0.000000000000000e+00 5.500000000000000e+00 2.800000000000000e+00 0.000000000000000e+00 5.250000000000325e+00 3.199999999999480e+00 0.000000000000000e+00 5.250000000000325e+00 3.199999999999480e+00 0.000000000000000e+00 5.000000000000298e+00 3.599999999999522e+00 0.000000000000000e+00 5.000000000000298e+00 3.599999999999522e+00 0.000000000000000e+00 4.750000000000000e+00 4.000000000000000e+00 0.000000000000000e+00 5.500000000000000e+00 2.800000000000000e+00 0.000000000000000e+00 5.916666666666305e+00 3.199999999999653e+00 0.000000000000000e+00 5.916666666666305e+00 3.199999999999653e+00 0.000000000000000e+00 6.333333333333001e+00 3.599999999999680e+00 0.000000000000000e+00 6.333333333333001e+00 3.599999999999680e+00 0.000000000000000e+00 6.750000000000000e+00 4.000000000000000e+00 0.000000000000000e+00 5.500000000000000e+00 2.800000000000000e+00 0.000000000000000e+00 5.750000000000000e+00 2.500000000000000e+00 0.000000000000000e+00 5.750000000000000e+00 2.500000000000000e+00 0.000000000000000e+00 6.374999999999980e+00 2.350000000000005e+00 0.000000000000000e+00 6.374999999999980e+00 2.350000000000005e+00 0.000000000000000e+00 7.000000000000000e+00 2.200000000000000e+00 0.000000000000000e+00 7.000000000000000e+00 2.200000000000000e+00 0.000000000000000e+00 7.499999999999977e+00 2.349999999999993e+00 0.000000000000000e+00 7.499999999999977e+00 2.349999999999993e+00 0.000000000000000e+00 8.000000000000000e+00 2.500000000000000e+00 0.000000000000000e+00 7.500000000000000e+00 2.000000000000000e+00 0.000000000000000e+00 7.750000000000000e+00 2.250000000000000e+00 0.000000000000000e+00 7.750000000000000e+00 2.250000000000000e+00 0.000000000000000e+00 8.000000000000000e+00 2.500000000000000e+00 0.000000000000000e+00 8.000000000000000e+00 2.500000000000000e+00 0.000000000000000e+00 8.166666666666181e+00 1.900000000001745e+00 0.000000000000000e+00 8.166666666666181e+00 1.900000000001745e+00 0.000000000000000e+00 8.333333333332911e+00 1.300000000001518e+00 0.000000000000000e+00 8.333333333332911e+00 1.300000000001518e+00 0.000000000000000e+00 8.500000000000000e+00 7.000000000000000e-01 0.000000000000000e+00 8.000000000000000e+00 2.500000000000000e+00 0.000000000000000e+00 8.499999999999950e+00 2.599999999999990e+00 0.000000000000000e+00 8.499999999999950e+00 2.599999999999990e+00 0.000000000000000e+00 9.000000000000000e+00 2.700000000000000e+00 0.000000000000000e+00 9.000000000000000e+00 2.700000000000000e+00 0.000000000000000e+00 9.466666666664466e+00 2.566666666667295e+00 0.000000000000000e+00 9.466666666664466e+00 2.566666666667295e+00 0.000000000000000e+00 9.933333333329530e+00 2.433333333334420e+00 0.000000000000000e+00 9.933333333329530e+00 2.433333333334420e+00 0.000000000000000e+00 1.040000000000000e+01 2.300000000000000e+00 0.000000000000000e+00 1.040000000000000e+01 2.300000000000000e+00 0.000000000000000e+00 1.078333333333231e+01 1.900000000001070e+00 0.000000000000000e+00 1.078333333333231e+01 1.900000000001070e+00 0.000000000000000e+00 1.116666666666699e+01 1.499999999999660e+00 0.000000000000000e+00 1.116666666666699e+01 1.499999999999660e+00 0.000000000000000e+00 1.155000000000000e+01 1.100000000000000e+00 0.000000000000000e+00 8.000000000000000e+00 2.500000000000000e+00 0.000000000000000e+00 8.437500000000002e+00 2.875000000000001e+00 0.000000000000000e+00 8.437500000000002e+00 2.875000000000001e+00 0.000000000000000e+00 8.875000000000004e+00 3.250000000000002e+00 0.0000000000000
[...]
<PointData Scalars="A_conc,B_conc,region_id," Vectors="" Tensors="">
<DataArray type="Float64" Name="A_conc" format="ascii">
4.199674206260252e-01 8.409440297257025e-01 7.721163699924817e-01 8.806705869919522e-01 8.649453162708195e-01 8.972594353414557e-01 8.940804422189514e-01 9.112320423992711e-01 6.005999459693431e-01 4.931331137751002e-01 4.517385327655148e-01 5.291210632170446e-01 5.333387872844561e-01 6.246536540391457e-01 9.173412899236765e-01 9.160748483866464e-01 9.160863143706869e-01 9.147790590561968e-01 9.147905145718133e-01 9.134460595442161e-01 9.134741452581290e-01 9.119634847349403e-01 9.120834651634734e-01 9.097073436939819e-01 9.099619269238916e-01 9.062828247758369e-01 9.066165292359358e-01 9.009555978222586e-01 9.014340682615058e-01 8.943682273930031e-01 9.108398336162442e-01 7.958045798555925e-01 9.023151392226387e-01 9.058569467701963e-01 9.058671251695123e-01 9.136379085132567e-01 9.134429028814044e-01 9.157579339240833e-01 9.179274457777383e-01 8.920668478066578e-01 9.222703748398076e-01 7.777952286197973e-01 8.617087279583210e-01 8.740880783292208e-01 8.754638421803648e-01 8.906322100747264e-01 9.563600943023329e-01 9.599353311078941e-01 9.597982944494238e-01 9.624124523746483e-01 9.566817943339170e-01 9.505986028363947e-01 9.511175174461449e-01 9.395404097193268e-01 8.917342654269002e-01 9.234547930345748e-01 9.176193929475209e-01 9.253588268324481e-01 8.992933420063438e-01 7.746578444118316e-01 8.545631894385717e-01 8.506986697569492e-01 8.501678205847565e-01 8.464227129423297e-01 8.470219403082887e-01 8.404888705927462e-01 8.811037178275795e-01 8.936983278068401e-01 8.976756149127390e-01 9.282111009789796e-01 8.761573768413841e-01 9.035205158295170e-01 8.985863468985686e-01 9.053037690366937e-01 9.048133762359307e-01 9.092592696471491e-01 9.090764169383017e-01 9.126750745747142e-01 9.125821550980480e-01 9.157638214800030e-01 2.958199772469642e-01 4.523249948978177e-01 3.751190647030545e-01 6.134885330840707e-01 6.347450931609657e-01 9.520820128441339e-01 7.000568070916449e-01 6.994579463425481e-01 6.981116015688618e-01 7.193191550583284e-01 9.614532439854367e-01 7.659990831784076e-01 9.437493409246632e-01 9.449654947724334e-01 9.448463722432116e-01 9.455261418487704e-01 9.459519896979079e-01 9.393030503878625e-01 9.409903415449936e-01 9.230242754408839e-01 9.272809208384476e-01 8.873582726544365e-01 8.589981597295017e-01 8.629072017850914e-01 8.631111450532133e-01 8.678883148277464e-01 8.712930134990120e-01 9.185981460996417e-01 9.557059097078355e-01 9.568046651616064e-01 9.567751499836227e-01 9.577915870848063e-01 9.577707061921149e-01 9.586076432513642e-01 9.586066403201057e-01 9.592749026420065e-01 9.592738701019412e-01 9.599276527142978e-01 8.946189284571316e-01 9.625937659733594e-01 9.483330678619822e-01 9.608248483123838e-01 7.168356637977743e-01 7.532960804898229e-01 7.803565768965557e-01 8.415577241391525e-01 8.420857380393616e-01 8.602198014816640e-01 9.624942983648149e-01 9.648998182484895e-01 9.647646800195215e-01 9.659483025669673e-01 9.659015709682583e-01 9.668356348946696e-01 9.668286530420200e-01 9.676266228722488e-01 9.676229231754422e-01 9.683781062298825e-01 9.595003627645434e-01 9.625012650713118e-01 9.625625123752116e-01 9.655047271875034e-01 9.658320843344453e-01 9.681377146946635e-01 9.634773878784455e-01 9.668818973666840e-01 9.668185677434538e-01 9.704747834913675e-01 9.704290475260519e-01 9.742605491991863e-01 9.742285475762519e-01 9.779413528409447e-01 9.780861067420309e-01 9.721519701055934e-01 9.727635610088838e-01 9.637999772727035e-01 9.713934095571684e-01 9.313494569536241e-01 8.785314499045365e-01 9.587826154163048e-01 9.417742116280297e-01 9.636563600562862e-01 9.623903271385763e-01 9.656816067452096e-01 9.654926529702403e-01 9.676410826468120e-01 9.674797855259148e-01 9.689279352876532e-01 9.359573158164939e-01 9.675528754434020e-01 9.617809822055240e-01 9.694020109527047e-01 9.248796793354135e-01 9.295990009312733e-01 9.296724644006039e-01 9.335706841919243e-01 9.337488392478284e-01 9.348647062795912e-01 9.862100820747424e-01 8.816727982774263e-01 9.189352268483053e-01 4.480091437904546e-01 9.357743166823085e-01 9.677529550501300e-01 9.619036121010835e-01 9.694345756785158e-01 9.779015436298133e-01 9.770373125255665e-01 9.770492394750915e-01 9.760765750848049e-01 9.761076479744228e-01 9.747927036927814e-01 9.778870628544652e-01 9.784630764188876e-01 9.784501822132168e-01 9.788694749677415e-01 9.788702024961129e-01 9.792844834476618e-01 9.796568557934270e-01 9.736675062299153e-01 9.775045472117486e-01 9.549978151402656e-01 9.816596542618761e-01 9.822065647022761e-01 9.821935402550708e-01 9.825877551970581e-01 9.825832785795335e-01 9.829249459166001e-01 9.584462797504091e-01 9.610791163613990e-01 9.611859238068788e-01 9.631986203762360e-01 9.632918863141358e-01 9.652285206256134e-01 9.653198288624681e-01 9.655622394393276e-01 9.713080704936683e-01 9.732626769215491e-01 9.732880371406206e-01 9.753358994935202e-01 9.753375059726122e-01 9.773725167851465e-01 9.774011048225509e-01 9.792375404549244e-01 9.706416662881379e-01 9.687838232849481e-01 9.686599844509735e-01 9.654763681208570e-01 9.416929616590978e-01 9.452503413555304e-01 9.449199635420469e-01 9.467959837187856e-01 9.467860331624713e-01 9.476825634923243e-01 9.576395022014599e-01 9.601011962496728e-01 9.600108647744077e-01 9.614098634605214e-01 9.613664512606297e-01 9.623964214985641e-01 8.209892370638976e-01 8.318436299896744e-01 6.663107497921444e-01 7.038068725018318e-01 7.275356906145415e-01 6.915137470052134e-01 8.907151137691245e-01 9.007415011720679e-01 9.005016655849348e-01 9.072817659322575e-01 9.069029596687658e-01 9.112295436409044e-01 9.110598886559073e-01 9.144098230381360e-01 9.295242331165697e-01 9.369314884341181e-01 9.362532585470800e-01 9.465579384825514e-01 9.461441679947926e-01 9.520325013514951e-01 9.508562625107042e-01 9.529800795012486e-01 9.252958155613099e-01 9.285627042846567e-01 9.252434886647835e-01 9.240456926452254e-01 8.329842333881324e-01 8.432482874094414e-01 8.432010309752608e-01 8.499411136709841e-01 8.501349915361668e-01 8.796490559184850e-01 8.798643619682477e-01 9.159805766124088e-01 8.208736740712158e-01 8.421250211632146e-01 9.188514576576268e-01 9.002815805829351e-01 9.204236665425286e-01 8.222659937511170e-01 8.827530678057058e-01 8.840334185657952e-01 8.840198600113598e-01 8.852835628345294e-01 8.852678767730728e-01 8.864017051663107e-01 8.863839688138547e-01 8.873852933788583e-01 4.552693904115875e-01 8.767463408353402e-01 4.641542787154354e-01 4.619148064438177e-01 8.745841593004026e-01 8.230146988798195e-01 9.011286073048482e-01 8.747318245890342e-01 8.935701496892556e-01 8.914425850348416e-01 8.635973235123174e-01 8.685634808849446e-01 8.862971523812621e-01 8.928069636366397e-01 8.678566406667683e-01 8.801512879711959e-01 8.774249529945037e-01 7.786976575139727e-01 8.014386166832534e-01 8.809743145214723e-01 7.787768232153174e-01 8.950081999644838e-01 8.761234595122414e-01 9.013300157842752e-01 9.067784181880768e-01 8.919347118027027e-01 9.009874579676674e-01 8.954726214243376e-01 8.669033212405438e-01 8.760698462854096e-01 8.952330145450684e-01 8.910592085015407e-01 8.686303115770123e-01 8.777705583729702e-01 8.756064929004869e-01 8.115988760220855e-01 8.662317158534780e-01 8.663077970264688e-01 8.922116540952377e-01 8.918188702451517e-01 8.894428386975928e-01 8.663749269652566e-01 9.018821740775526e-01 8.875975358165324e-01 8.942002877117285e-01 9.007246348121934e-01 9.062995980864326e-01 9.100388726395809e-01 8.941791597047074e-01 9.065494892286334e-01 9.017363638604364e-01 8.646479345887029e-01 8.907728904720084e-01 8.973997031005880e-01 8.645663743145068e-01 8.632449770435251e-01 8.911680454975268e-01 8.941616509107655e-01 9.041691671806142e-01 9.112820301044401e-01 8.942051828559555e-01 8.874401425626887e-01 9.043039119874592e-01 8.884697589260038e-01 9.028442338096963e-01 8.934331767938324e-01 8.873016359750553e-01 8.896228249986408e-01 9.044987747926794e-01 8.850274175470136e-01 8.643356947066202e-01 8.911258607992474e-01 8.935381152578077e-01 8.818847357306692e-01 8.885128557572539e-01 8.853417522757315e-01 8.601523121770651e-01 8.642964970618910e-01 8.644638505991469e-01 8.837132290592401e-01 8.839697868747322e-01 8.818462033430188e-01 8.936712812322424e-01 8.808296306186457e-01 4.205810849374572e-01 4.927846870259230e-01 6.017141318208518e-01 -3.629371277820374e-02 -5.926884170177358e-02 2.446585127238695e-01 4.211959609577437e-01 9.543141805948884e-01 7.513696613770238e-01 8.977288657521241e-01 9.115424551572145e-01 9.185292039657482e-01 2.466634448546861e-01 4.024011855489741e-01 -4.089975712617080e-02 4.077929341268446e-01 -9.797297848158307e-03 -4.355529366582217e-02 6.218837307803228e-01 4.138630669348342e-01 2.387938391322313e-01 2.385627772017607e-01 3.231117185401715e-01 2.953997649084777e-01 4.299091834757471e-01 2.697625477777910e-01 9.495197643881448e-01 8.669707601215868e-01 8.946454814502404e-01 9.081976555393222e-01 1.602757640293367e-01 4.923848459134143e-01 3.530893792525907e-01 8.589558966803950e-01 8.367718083223247e-01 8.750648077849001e-01 9.131062820778615e-01 8.817044475517463e-01 9.064652734926698e-01 8.431710625382736e-01 8.955903308698416e-01 8.672157103476663e-01 8.816721623990048e-01 8.695271893776017e-01 9.071075282050046e-01 8.501786406898654e-01 8.828329233741491e-01 9.022872554346942e-01 3.989360474486601e-01 1.009445762646391e+00 9.392533903592502e-01 4.314217232888810e-01 1.016636151767047e+00 3.986221744724759e-01 8.521793344158030e-01 8.343037221389776e-01 8.002591641384753e-01 8.769563632538661e-01 8.346376410734423e-01 8.497729704736626e-01 8.977749469768923e-01 8.851051031422048e-01 9.119477535384848e-01 8.994176085408865e-01 9.397310389587189e-01 7.157055710599609e-01 1.020174790856649e+00 4.269455969997639e-01 6.010442661568990e-01 9.047746116687392e-01 9.172420379469209e-01 8.288478852078246e-01 8.436151667372170e-01 9.062528923978481e-01 8.281188363140009e-01 8.420148002280025e-01 8.677909738115025e-01 8.967929516829409e-01 8.667733695360390e-01 9.078838580789841e-01 6.471543921344364e-01 1.105179644005329e-01 4.954357029888653e-01 1.602201554199316e-01 7.154295556677881e-01 8.418548359241576e-01 9.009015543326672e-01 2.960582948081194e-01 3.213723654178952e-01 3.373275027356484e-01 4.213358453716713e-01 3.224558836229993e-01 3.271501331095735e-01 6.679349572167573e-01 4.528786649716329e-01 9.198198377455442e-01 3.748078983061961e-01 4.944621927971746e-01 1.087230816728201e-01 4.521651355832488e-01 6.267713536861146e-01 9.212101366209067e-01 6.393839599200097e-01 4.906895604453028e-01 8.870242265754130e-01 6.512963343423848e-02 3.774931174185118e-01 1.104331860088781e-01 2.264626060329292e-02 6.128881436493345e-01 4.032855833622993e-01 7.621244819075093e-01 7.706000032264460e-01 6.555511286575595e-01 7.672539698581028e-01 4.168549532271201e-01 6.169350803231864e-01 4.898737115526345e-01 7.643738937892024e-01 8.871009936741332e-01 4.724369763360963e-01 -1.428952825230904e-02 4.085971198684779e-01 4.923515225464777e-01 4.164147885994189e-01 7.682470540400096e-01 4.742287983256215e-01 6.122711211178627e-01 2.251098345776583e-02 -1.461980340829785e-02 4.765394272540801e-01 2.627043213196307e-02 8.691555271015334e-01 8.057685684307591e-01 8.138937185342452e-01 8.068860688110258e-01 8.670204988861078e-01 8.443757400667971e-01 7.982537190865790e-01 8.106345126021444e-01 8.547285969716849e-01 8.169601373425625e-01 7.738637485656045e-01 7.983292513529955e-01 8.068383981523695e-01 7.330038765842488e-01 8.146214610597264e-01 7.715424392754090e-01 7.446121330086438e-01 8.019091506002289e-01 3.244784282002867e-01 4.705917231187673e-01 4.224525891160315e-01 4.461338637322169e-01 3.461740388992285e-01 5.322765291478400e-01 8.462071060931816e-01 8.523988824434067e-01 9.342373295516566e-01 8.515168915221605e-01 6.912541662812091e-01 8.625623128194158e-01 6.603507888471265e-02 7.795881933676120e-03 2.441764931046248e-01 4.055781904829405e-01 8.640107652834869e-01 4.447259468669056e-01 8.952963895949457e-01 8.441149027085507e-01 4.173183936208561e-01 6.363967993492756e-01 8.728608440808793e-01 8.569395967153342e-01 6.122459475727947e-01 6.291924299949884e-01 8.763578338115245e-01 6.152486567060839e-01 3.881581139720251e-01 6.333509694210676e-01 3.880868141992058e-01 4.353135566865680e-01 7.735690460030467e-02 2.676786961142233e-01 4.904497666185279e-01 6.000967000072251e-02 2.139442084977897e-01 3.877838129143418e-01 6.101598988876533e-01 9.059148434645319e-01 9.238245530668667e-01 9.226581536872116e-01 9.223384101890035e-01 9.234102394626932e-01 9.363699872340964e-01 9.359410723967380e-01 9.236084736806289e-01 9.359116662028436e-01 9.753494579613866e-01 9.749780916302917e-01 9.792548419618972e-01 9.732902882627765e-01 9.653610051237155e-01 9.753452433864920e-01 9.680660083112019e-01 9.673091382036441e-01 9.750022909742928e-01 9.753475421403839e-01 9.681439718018187e-01 9.749742611954413e-01 9.499208080802842e-01 9.616497401192290e-01 9.495275456763809e-01 9.754295894645285e-01 9.669286140902311e-01 9.770880727611622e-01 9.669910048001803e-01 9.672833965109684e-01 9.754291813649457e-01 9.670075457230864e-01 9.564796850127919e-01 9.672988896051242e-01 9.677554085472536e-01 9.572193801224562e-01 9.575080250762492e-01 9.677171120893697e-01 9.679059821929457e-01 9.572521471932045e-01 9.572741824868686e-01 9.460485191489428e-01 9.575653402876866e-01 9.466304535804844e-01 9.449555195521750e-01 9.571428398839565e-01 9.568339046517043e-01 9.665145653684833e-01 9.577750428188759e-01 9.578294583600555e-01 9.470390046440940e-01 9.568701061225315e-01 9.467825288206303e-01 9.344147193397087e-01 9.450559670244268e-01 9.357190082061695e-01 9.469335247991340e-01 9.357746417642966e-01 9.535499550547420e-01 9.455384512467182e-01 9.465135543972266e-01 9.466298560016523e-01 9.456210782643690e-01 9.355165464074650e-01 9.700819632636882e-01 9.615135842036178e-01 9.500084288809479e-01 9.506027174751291e-01 9.734505164131564e-01 9.701286014253625e-01 9.653496086061509e-01 9.733526379837052e-01 9.581069028058432e-01 9.139680904060510e-01 5.295801237151501e-01 7.314074939194937e-01 8.634473415722541e-01 9.225908804261167e-01 8.670751772277709e-01 6.755277076417188e-01 9.426572195315197e-01 9.888177960398890e-01 5.369428332320224e-01 9.070941868734945e-01 6.995446099124708e-01 7.567918888271998e-01 8.706247158807982e-01 7.379858554061420e-01 8.765938662358580e-01 8.613218104175623e-01 7.601891407954811e-01 8.864340150129582e-01 7.727117307732657e-01 8.522418169427168e-01 7.612758558803674e-01 7.415186632039813e-01 6.084595713116100e-01 7.320428338839503e-01 7.726371543217271e-01 6.015067829944639e-01 7.729151566649207e-01 8.460917380692076e-01 8.527404975400245e-01 8.531909904011280e-01 7.713443387869847e-01 7.257920783864786e-01 8.488738613287049e-01 7.405077690231240e-01 8.408846547285581e-01 7.372211375050467e-01 6.007627258245201e-01 5.481913513414383e-01 6.860818194093053e-01 9.825136952627266e-01 8.916732223943890e-01 5.562370112253727e-01 5.759645392790427e-01 7.395861947659248e-01 7.355748806019794e-01 7.400274470260074e-01 5.575819189901143e-01 7.183965919245412e-01 8.467801190870737e-01 7.385922365760946e-01 8.807703857339545e-01 8.359234477540052e-01 8.857484940923558e-01 9.063164394846132e-01 8.142285312051571e-01 9.026684323009592e-01 8.884966131645585e-01 9.029390827970836e-01 9.018088550777412e-01 9.044375961132670e-01 9.068881563885679e-01 9.160352091807319e-01 8.997949660519657e-01 9.071814075613097e-01 9.097484569293802e-01 7.537487677930063e-01 7.593743469670168e-01 8.956003347794431e-01 9.175782604065575e-01 9.081261127381076e-01 8.887326447819477e-01 9.267273696004444e-01 8.046509064278435e-01 9.079031192922161e-01 9.234006349761130e-01 9.290351490614814e-01 8.149328506222803e-01 8.791835951266159e-01 7.008038428045867e-01 9.096574605202494e-01 8.844439283410582e-01 7.644061426376544e-01 6.974671600055772e-01 9.523829902738931e-01 9.180872584666497e-01 9.546799227863317e-01 9.083959882602326e-01 7.350997885950006e-01 8.528879621201321e-01 8.521350742129119e-01 8.947126534402308e-01 8.560489930680576e-01 8.925181743500789e-01 8.569012925799261e-01 8.824295522086089e-01 8.946611642672272e-01 8.985693991781287e-01 9.054521854236416e-01 8.181178070673009e-01 8.465820752286077e-01 8.374117185531507e-01 8.397606745469387e-01 8.212876237402610e-01 8.141896773622737e-01 8.843182891948653e-01 8.400082159647310e-01 8.208424890484952e-01 8.884822566552858e-01 8.793774139436578e-01 9.034213651059356e-01 8.806775302375486e-01 9.084682497934741e-01 9.072824754104534e-01 8.817837285851400e-01 8.835594288644156e-01 8.212883724352585e-01 8.272017159977930e-01 8.804266217043407e-01 8.238132009711429e-01 8.807681906418523e-01 7.954908113600608e-01 9.066973679635407e-01 8.847974949537191e-01 8.849158844069527e-01 8.391107400725715e-01 8.856493072215322e-01 8.370754716745114e-01 8.389150150616372e-01 8.836899282275349e-01 8.721220509583553e-01 8.918711263655613e-01 8.565830328247706e-01 8.782207432741672e-01 8.877818426227051e-01 9.089537659319872e-01 8.802578370111587e-01 8.932684636793859e-01 8.793638677256549e-01 8.535272048934972e-01 8.921741155203932e-01 8.927059659011345e-01 8.534122463964566e-01 8.516464766696670e-01 8.996026773070768e-01 8.809988700025349e-01 9.016634847127279e-01 8.997977251042045e-01 8.834120279425974e-01 8.809308836730068e-01 8.961428519213338e-01 8.562105601475011e-01 8.939794205695316e-01 6.916336116723527e-01 9.397224114552785e-01 9.597048792102959e-01 3.693602113499077e-01 6.260045821659352e-01 5.227651406793429e-01 3.822752366518639e-01 3.294777247741872e-01 4.051065531646093e-01 8.905537413549726e-01 9.529126732921541e-01 9.398029990734179e-01 8.801224638328382e-01 8.991757908316893e-01 8.120103055695140e-01 9.002110596893158e-01 8.879201733139660e-01 9.451981308732065e-01 8.899202860684861e-01 9.041299859076142e-01 8.363069550914847e-01 8.173518466126592e-01 9.242588374734434e-01 9.297942864399372e-01 8.967689762862442e-01 8.987821799293374e-01 9.123895673906252e-01 3.350039486484453e-01 2.781749567175491e-01 2.651733471040049e-01 8.842228704642786e-01 8.151454888710720e-01 9.319385915620715e-01 7.952561290091189e-01 8.139425271932819e-01 9.327196504407993e-01 3.123188348206630e-01 1.821085025975134e-01 2.290925565906755e-01 9.312392645076998e-01 8.950229957065002e-01 8.778518269033843e-01 9.413840498095759e-01 9.322708376586313e-01 8.834701118773872e-01 9.746664026488594e-01 9.438098144058233e-01 4.530062564103884e-01 4.247088826102623e-01 9.630677576781265e-01 2.079850514824929e-01 8.501999778259665e-01 9.314429718417707e-01 8.968902602802915e-01 9.258346262175969e-01 8.492927829188309e-01 9.202127537131738e-01 9.264843852241482e-01 9.530229472568690e-01 8.889641673421439e-01 6.164751940010085e-01 6.882332355083275e-01 9.732628061839927e-01 7.239875710111473e-01 2.517202132958790e-02 6.095510029956461e-02 3.098555884234522e-02 7.564982346338252e-01 9.696016846492781e-01 8.947105605531538e-01 7.199689663876501e-01 9.533167963867879e-01 9.876159065751452e-01 4.312544975558121e-01 6.630187780432504e-01 4.835326557496180e-01 3.782319151675829e-01 6.124797405434911e-01 3.545837147699894e-01 4.100881198536928e-01 3.173597748203602e-01 4.101646672788088e-01 3.138331624459165e-01 3.169438046996583e-01 9.532312345252951e-01 9.466949848286490e-01 9.254122412912374e-01 9.158889104658919e-01 9.560368985930043e-01 9.207503776345409e-01 2.572944462610008e-01 3.110402429034180e-01 2.296681787774002e-01 5.821487291180559e-01 8.822769686185882e-01 9.508699420286215e-01 2.052133657748938e-01 9.665422389454935e-01 4.322303182764898e-01 3.365157334617324e-01 3.316372204847885e-01 2.762170574299434e-01 3.297116447957665e-01 3.369872549974046e-01 4.535571151004583e-01 3.716749297236801e-01 5.221881875385821e-01 2.626071087933736e-01 8.804646046825740e-01 9.008727661982037e-01 9.006360312608360e-01 5.361035565724520e-01 6.769044021991300e-01 7.089947516774067e-01 6.743251656348868e-01 9.082358611033829e-01 7.092024605228339e-01 6.