<?xml version="1.0"?>
<VTKFile type="UnstructuredGrid" version="0.1" byte_order="LittleEndian">
<UnstructuredGrid>
<Piece NumberOfPoints="1896" NumberOfCells="677">
<Points>
<DataArray type="Float64" NumberOfComponents="3" format="ascii">
0.000000000000000e+00 3.750000000000000e+00 0.000000000000000e+00 5.624999999964863e-01 3.999999999998438e+00 0.000000000000000e+00 5.624999999964863e-01 3.999999999998438e+00 0.000000000000000e+00 1.124999999995812e+00 4.249999999998138e+00 0.000000000000000e+00 1.124999999995812e+00 4.249999999998138e+00 0.000000000000000e+00 1.687499999998485e+00 4.499999999999327e+00 0.000000000000000e+00 1.687499999998485e+00 4.499999999999327e+00 0.000000000000000e+00 2.250000000000000e+00 4.750000000000000e+00 0.000000000000000e+00 2.250000000000000e+00 4.750000000000000e+00 0.000000000000000e+00 1.750000000000000e+00 5.000000000000000e+00 0.000000000000000e+00 2.250000000000000e+00 4.750000000000000e+00 0.000000000000000e+00 2.875000000000000e+00 4.375000000000000e+00 0.000000000000000e+00 2.875000000000000e+00 4.375000000000000e+00 0.000000000000000e+00 3.500000000000000e+00 4.000000000000000e+00 0.000000000000000e+00 3.500000000000000e+00 4.000000000000000e+00 0.000000000000000e+00 2.750000000000000e+00 4.000000000000000e+00 0.000000000000000e+00 2.250000000000000e+00 4.750000000000000e+00 0.000000000000000e+00 2.687500000002093e+00 5.000000000001196e+00 0.000000000000000e+00 2.687500000002093e+00 5.000000000001196e+00 0.000000000000000e+00 3.125000000002093e+00 5.250000000001196e+00 0.000000000000000e+00 3.125000000002093e+00 5.250000000001196e+00 0.000000000000000e+00 3.562500000002093e+00 5.500000000001196e+00 0.000000000000000e+00 3.562500000002093e+00 5.500000000001196e+00 0.000000000000000e+00 4.000000000000000e+00 5.750000000000000e+00 0.000000000000000e+00 4.000000000000000e+00 5.750000000000000e+00 0.000000000000000e+00 3.500000000000000e+00 5.000000000000000e+00 0.000000000000000e+00 4.000000000000000e+00 5.750000000000000e+00 0.000000000000000e+00 3.250000000000000e+00 6.250000000000000e+00 0.000000000000000e+00 4.000000000000000e+00 5.750000000000000e+00 0.000000000000000e+00 4.500000000000000e+00 6.000000000000000e+00 0.000000000000000e+00 4.500000000000000e+00 6.000000000000000e+00 0.000000000000000e+00 5.000000000000000e+00 6.250000000000000e+00 0.000000000000000e+00 4.750000000000000e+00 7.250000000000000e+00 0.000000000000000e+00 4.500000000005181e+00 6.750000000010362e+00 0.000000000000000e+00 4.500000000005181e+00 6.750000000010362e+00 0.000000000000000e+00 4.250000000005181e+00 6.250000000010362e+00 0.000000000000000e+00 4.250000000005181e+00 6.250000000010362e+00 0.000000000000000e+00 4.000000000000000e+00 5.750000000000000e+00 0.000000000000000e+00 4.000000000000000e+00 5.750000000000000e+00 0.000000000000000e+00 4.625000000000000e+00 5.375000000000000e+00 0.000000000000000e+00 4.625000000000000e+00 5.375000000000000e+00 0.000000000000000e+00 5.250000000000000e+00 5.000000000000000e+00 0.000000000000000e+00 5.250000000000000e+00 5.000000000000000e+00 0.000000000000000e+00 4.750000000000000e+00 4.750000000000000e+00 0.000000000000000e+00 3.500000000000000e+00 4.000000000000000e+00 0.000000000000000e+00 4.250000000000000e+00 3.500000000000000e+00 0.000000000000000e+00 4.250000000000000e+00 4.750000000000000e+00 0.000000000000000e+00 4.750000000000000e+00 4.375000000000000e+00 0.000000000000000e+00 4.750000000000000e+00 4.375000000000000e+00 0.000000000000000e+00 5.250000000000000e+00 4.000000000000000e+00 0.000000000000000e+00 4.250000000000000e+00 1.500000000000000e+00 0.000000000000000e+00 4.624999999997918e+00 1.874999999997918e+00 0.000000000000000e+00 4.624999999997918e+00 1.874999999997918e+00 0.000000000000000e+00 5.000000000000000e+00 2.250000000000000e+00 0.000000000000000e+00 5.000000000000000e+00 2.250000000000000e+00 0.000000000000000e+00 5.250000000000000e+00 1.750000000000000e+00 0.000000000000000e+00 5.250000000000000e+00 1.750000000000000e+00 0.000000000000000e+00 5.500000000000000e+00 1.250000000000000e+00 0.000000000000000e+00 5.500000000000000e+00 1.250000000000000e+00 0.000000000000000e+00 5.750000000000000e+00 7.500000000000000e-01 0.000000000000000e+00 5.000000000000000e+00 2.250000000000000e+00 0.000000000000000e+00 4.750000000000000e+00 2.750000000000000e+00 0.000000000000000e+00 5.000000000000000e+00 2.250000000000000e+00 0.000000000000000e+00 5.500000000000000e+00 2.750000000000000e+00 0.000000000000000e+00 5.500000000000000e+00 2.750000000000000e+00 0.000000000000000e+00 5.750000000000000e+00 2.500000000000000e+00 0.000000000000000e+00 3.500000000000000e+00 4.000000000000000e+00 0.000000000000000e+00 4.125000000008327e+00 4.000000000000000e+00 0.000000000000000e+00 4.125000000008327e+00 4.000000000000000e+00 0.000000000000000e+00 4.750000000000000e+00 4.000000000000000e+00 0.000000000000000e+00 4.750000000000000e+00 4.000000000000000e+00 0.000000000000000e+00 5.250000000000000e+00 4.000000000000000e+00 0.000000000000000e+00 5.500000000000000e+00 2.750000000000000e+00 0.000000000000000e+00 5.125000000000000e+00 3.375000000000000e+00 0.000000000000000e+00 5.125000000000000e+00 3.375000000000000e+00 0.000000000000000e+00 4.750000000000000e+00 4.000000000000000e+00 0.000000000000000e+00 6.000000000000000e+00 3.750000000000000e+00 0.000000000000000e+00 6.750000000000000e+00 4.000000000000000e+00 0.000000000000000e+00 5.250000000000000e+00 5.000000000000000e+00 0.000000000000000e+00 5.749999999991033e+00 4.666666666672645e+00 0.000000000000000e+00 5.749999999991033e+00 4.666666666672645e+00 0.000000000000000e+00 6.249999999991033e+00 4.333333333339311e+00 0.000000000000000e+00 6.249999999991033e+00 4.333333333339311e+00 0.000000000000000e+00 6.750000000000000e+00 4.000000000000000e+00 0.000000000000000e+00 5.500000000000000e+00 2.750000000000000e+00 0.000000000000000e+00 5.916666666666667e+00 3.166666666666667e+00 0.000000000000000e+00 5.916666666666667e+00 3.166666666666667e+00 0.000000000000000e+00 6.333333333333333e+00 3.583333333333333e+00 0.000000000000000e+00 6.333333333333333e+00 3.583333333333333e+00 0.000000000000000e+00 6.750000000000000e+00 4.000000000000000e+00 0.000000000000000e+00 5.250000000000000e+00 5.000000000000000e+00 0.000000000000000e+00 5.750000000000000e+00 5.250000000000000e+00 0.000000000000000e+00 5.750000000000000e+00 5.250000000000000e+00 0.000000000000000e+00 6.250000000000000e+00 5.500000000000000e+00 0.000000000000000e+00 6.250000000000000e+00 5.500000000000000e+00 0.000000000000000e+00 6.750000000000000e+00 5.750000000000000e+00 0.000000000000000e+00 6.750000000000000e+00 5.750000000000000e+00 0.000000000000000e+00 7.250000000000000e+00 6.000000000000000e+00 0.000000000000000e+00 7.250000000000000e+00 6.000000000000000e+00 0.000000000000000e+00 6.875000000000000e+00 5.625000000000000e+00 0.000000000000000e+00 6.875000000000000e+00 5.625000000000000e+00 0.000000000000000e+00 6.500000000000000e+00 5.250000000000000e+00 0.000000000000000e+00 7.250000000000000e+00 6.000000000000000e+00 0.000000000000000e+00 7.600000000000000e+00 6.400000000000000e+00 0.000000000000000e+00 7.600000000000000e+00 6.400000000000000e+00 0.000000000000000e+00 7.950000000000000e+00 6.800000000000000e+00 0.000000000000000e+00 7.950000000000000e+00 6.800000000000000e+00 0.000000000000000e+00 8.300000000000001e+00 7.200000000000000e+00 0.000000000000000e+00 8.300000000000001e+00 7.200000000000000e+00 0.000000000000000e+00 8.650000000000000e+00 7.600000000000000e+00 0.000000000000000e+00 8.650000000000000e+00 7.600000000000000e+00 0.000000000000000e+00 9.000000000000000e+00 8.000000000000000e+00 0.000000000000000e+00 7.250000000000000e+00 6.000000000000000e+00 0.000000000000000e+00 7.750000000000000e+00 6.250000000000000e+00 0.000000000000000e+00 6.750000000000000e+00 4.000000000000000e+00 0.000000000000000e+00 7.249999999991033e+00 4.333333333327355e+00 0.000000000000000e+00 7.249999999991033e+00 4.333333333327355e+00 0.000000000000000e+00 7.749999999991033e+00 4.666666666660689e+00 0.000000000000000e+00 7.749999999991033e+00 4.666666666660689e+00 0.000000000000000e+00 8.250000000000000e+00 5.000000000000000e+00 0.000000000000000e+00 8.250000000000000e+00 5.000000000000000e+00 0.000000000000000e+00 7.500000000000000e+00 4.750000000000000e+00 0.000000000000000e+00 7.750000000000000e+00 5.500000000000000e+00 0.000000000000000e+00 8.250000000000000e+00 5.000000000000000e+00 0.000000000000000e+00 8.250000000000000e+00 5.000000000000000e+00 0.000000000000000e+00 9.000000000000000e+00 5.500000000000000e+00 0.000000000000000e+00 8.250000000000000e+00 5.000000000000000e+00 0.000000000000000e+00 8.750000000000000e+00 5.166666666666667e+00 0.000000000000000e+00 8.750000000000000e+00 5.166666666666667e+00 0.000000000000000e+00 9.250000000000000e+00 5.333333333333333e+00 0.000000000000000e+00 9.250000000000000e+00 5.333333333333333e+00 0.000000000000000e+00 9.750000000000000e+00 5.500000000000000e+00 0.000000000000000e+00 8.250000000000000e+00 5.000000000000000e+00 0.000000000000000e+00 8.750000000000000e+00 4.666666666666667e+00 0.000000000000000e+00 8.750000000000000e+00 4.666666666666667e+00 0.000000000000000e+00 9.250000000000000e+00 4.333333333333333e+00 0.000000000000000e+00 9.250000000000000e+00 4.333333333333333e+00 0.000000000000000e+00 9.750000000000000e+00 4.000000000000000e+00 0.000000000000000e+00 8.250000000000000e+00 3.750000000000000e+00 0.000000000000000e+00 8.750000000000000e+00 3.833333333333334e+00 0.000000000000000e+00 8.750000000000000e+00 3.833333333333334e+00 0.000000000000000e+00 9.250000000000000e+00 3.916666666666667e+00 0.000000000000000e+00 9.250000000000000e+00 3.916666666666667e+00 0.000000000000000e+00 9.750000000000000e+00 4.000000000000000e+00 0.000000000000000e+00 9.750000000000000e+00 4.000000000000000e+00 0.000000000000000e+00 1.025000000000000e+01 4.083333333333333e+00 0.000000000000000e+00 1.025000000000000e+01 4.083333333333333e+00 0.000000000000000e+00 1.075000000000000e+01 4.166666666666667e+00 0.0000000000000
[...]
<PointData Scalars="A_conc,B_conc,region_id," Vectors="" Tensors="">
<DataArray type="Float64" Name="A_conc" format="ascii">
8.150682083670322e-01 8.180855396132661e-01 8.180380008985884e-01 8.209523258910408e-01 8.209041263831703e-01 8.229888755782717e-01 8.229489739390575e-01 8.246278238631387e-01 8.559118811748302e-01 6.977143747067708e-01 8.820314347212934e-01 8.927887694810751e-01 8.915543897240212e-01 8.953621266211657e-01 1.020014440783573e+00 4.590797271238868e-01 7.748914746826688e-01 7.839992740440961e-01 7.840214940552659e-01 7.941300417848816e-01 7.951852539848872e-01 8.091986345976903e-01 8.092072690265116e-01 8.154343841045354e-01 2.305573064719517e-01 3.676679304873052e-01 8.889452572402488e-01 5.224898420025835e-01 7.049251987946109e-01 7.321417859734328e-01 7.337700923808175e-01 7.632043931632676e-01 6.764896317086388e-02 8.588699365022184e-02 1.067245211364103e-01 4.668183781898598e-01 4.861583496140482e-01 8.434309833224612e-01 8.815051235499939e-01 8.969757260787488e-01 8.962184888313746e-01 9.000035458074617e-01 5.799788566531843e-01 1.591478750151895e-01 6.412997047136803e-01 6.626304016159823e-01 7.047121135606657e-01 9.542983826884495e-01 8.996792632762545e-01 9.372161714592373e-01 5.613051898851044e-01 8.793169675487020e-01 8.128712465362541e-01 8.630887754100554e-01 3.575772513780423e-01 2.582848861858029e-01 2.605261254567283e-01 1.627016752154671e-01 1.940085868276830e-01 3.233839642254679e-01 9.895397554388550e-01 3.858620635299908e-01 9.176185485806062e-01 9.251453672159764e-01 9.431462040305740e-01 9.449342225149853e-01 9.068344467871854e-01 9.091983897829520e-01 9.091652256699156e-01 9.113567133030521e-01 9.188514964859317e-01 9.343115607005251e-01 9.238678355261938e-01 9.194331392753791e-01 9.199927540109875e-01 9.052183041575432e-01 9.426323410924540e-01 9.471346910266112e-01 9.353369884256886e-01 9.417552371528395e-01 9.412353924486214e-01 9.445738588441892e-01 9.444407620661727e-01 9.471048072224321e-01 7.700011693196448e-01 7.861971879435625e-01 7.873933913149448e-01 8.088807725255331e-01 8.139835312676541e-01 9.160206258874334e-01 6.477677293677743e-01 6.873541140366084e-01 6.870884388831653e-01 7.257671753416343e-01 7.221122993567759e-01 7.700135235292834e-01 7.705646024116947e-01 8.276695475222983e-01 7.923447935889575e-01 8.308221864936443e-01 8.115684825565681e-01 8.118870655731864e-01 8.815823616283028e-01 8.972407816869219e-01 8.968776622981239e-01 9.196251961886819e-01 9.191099727396372e-01 9.357377537653812e-01 9.330456285045440e-01 9.386425287478670e-01 9.382999468432052e-01 9.390755042107229e-01 7.019612437374170e-01 6.760422655968082e-01 9.469911468717580e-01 9.536808255053369e-01 9.531355748187771e-01 9.565189270208730e-01 9.561116671245340e-01 9.582737757749498e-01 9.790536881593355e-01 8.844638811318420e-01 8.791310292855165e-01 9.808646094309725e-01 1.047334260138186e+00 2.405910491764565e-01 8.510647546451950e-01 8.640962048680141e-01 8.646487593740295e-01 8.759046284010247e-01 8.759042409891438e-01 8.762999426805745e-01 9.728614166485083e-01 9.746076239392051e-01 9.745061207247183e-01 9.755932509854512e-01 9.755550202442109e-01 9.764186308629951e-01 8.904288607364423e-01 9.816822000491341e-01 9.603954806181019e-01 9.712565484089186e-01 9.702738676329168e-01 9.766570700960683e-01 9.763924907376340e-01 9.769960784271982e-01 9.769776130567803e-01 9.774104850177920e-01 9.774109916644027e-01 9.778379898227518e-01 9.867070076459850e-01 9.443197239205270e-01 9.625958248440399e-01 9.664796484106428e-01 9.806745245329237e-01 9.811847630751734e-01 9.811728237902910e-01 9.815542678333249e-01 9.815492412703817e-01 9.818793741755591e-01 9.554275973877703e-01 9.614690181586405e-01 9.612160214991876e-01 9.671160531045703e-01 9.668799087741419e-01 9.724084513034520e-01 9.722592325287046e-01 9.765878051546432e-01 7.544776028941296e-01 9.579294319729712e-01 9.126839395120764e-01 9.536038328764262e-01 9.475722153602048e-01 9.485340513827072e-01 9.485314331839079e-01 9.494626280108434e-01 9.944783496196198e-01 8.066542550689682e-01 9.566350422665119e-01 9.615697630970219e-01 9.611121570270813e-01 9.630495557401230e-01 4.785226409784780e-01 4.811450519234123e-01 5.349088183992037e-01 6.624195635539996e-01 6.667016788935014e-01 7.441424160809105e-01 9.335933084644893e-01 9.433252910289096e-01 7.270718866064684e-01 7.604590198812986e-01 7.626976385498694e-01 8.030586612485051e-01 8.030126528415898e-01 8.356869501969930e-01 8.347994521031444e-01 8.434043476180444e-01 8.430028685447726e-01 8.473647932616761e-01 8.472431405858610e-01 8.500275234360331e-01 8.499979896392417e-01 8.526317465696119e-01 8.526044347955839e-01 8.551662529442424e-01 8.551383592800468e-01 8.576158569737391e-01 8.368975533400933e-01 8.112774163489868e-01 8.143761212311347e-01 7.709006757441350e-01 7.758393394709712e-01 7.067893303954564e-01 7.166592675365294e-01 6.039306021951072e-01 6.521139995034085e-01 3.339644275629143e-01 8.154439444561393e-01 8.087350774722791e-01 8.089243519953251e-01 8.016107485937871e-01 8.019008497624784e-01 7.935117023480801e-01 7.940279127173148e-01 7.835145688367013e-01 7.848203477668046e-01 7.686356376337856e-01 7.804847605110996e-01 7.151315237606528e-01 9.629036088574542e-01 9.648241128703402e-01 9.647643206823487e-01 9.661638801998286e-01 9.697917137760086e-01 9.718216942211232e-01 9.718441650226011e-01 9.739512127081921e-01 9.739321463846325e-01 9.759094602296781e-01 9.759659214949838e-01 9.778583751178238e-01 9.542857849127805e-01 9.581874376644570e-01 9.582509867631253e-01 9.614594617457137e-01 9.615442722113918e-01 9.638035755000709e-01 9.629299981961957e-01 9.618472357082642e-01 9.617389246121441e-01 9.599520488632597e-01 9.598643335760664e-01 9.579588954059090e-01 9.579098528403500e-01 9.554888135558141e-01 9.554509519793395e-01 9.522774790742143e-01 7.630850967086639e-01 7.852750352424582e-01 7.848992776476654e-01 8.025224692377810e-01 8.019218405074743e-01 8.159953939275979e-01 8.155987431370212e-01 8.276113699963626e-01 9.448467086982221e-01 9.464022873723116e-01 9.463515526177960e-01 9.475753457290659e-01 8.220756225342858e-01 8.362958629634877e-01 7.385091650999681e-01 8.484331486058251e-01 8.452225155401338e-01 7.208093666132593e-01 4.310895187727571e-01 7.378513412720112e-01 3.877249050627971e-01 7.408389781132090e-01 7.835109878831191e-01 6.623631774499640e-01 7.343667031805639e-01 7.751483370079396e-01 3.888299722267128e-01 4.078088790001839e-01 7.944732624740668e-01 2.964189206872278e-01 2.002061000099186e-01 1.258909490700577e-01 7.988788533770452e-02 9.462394379598791e-01 9.476088476736353e-01 8.425973017274295e-01 7.983357879575231e-01 6.559239617226882e-01 4.405275334701602e-01 4.489293527856320e-02 7.671789455835114e-02 5.316109169993983e-02 6.998230775015635e-01 7.226125594217249e-01 6.960523819272585e-01 6.252655791240654e-01 7.194607244699193e-01 6.863082598798164e-01 8.453487053107084e-01 6.848238463255050e-01 6.896223804701423e-01 7.672648154683558e-01 7.362140920814647e-01 7.422643872316586e-01 7.427126853380892e-01 7.365755484004692e-01 7.101871960416386e-01 -9.262238093115571e-02 -9.918488176914096e-02 3.766268112193578e-01 4.597725204887178e-01 -1.135230707292226e-01 7.446402235507379e-01 7.211941349566776e-01 6.779625907902999e-01 8.452119490319203e-01 8.413546541450295e-01 6.851068879016284e-01 8.430783822899433e-01 8.413747079420836e-01 6.956404959639936e-01 8.378458609654243e-01 8.396212482697443e-01 6.950616773146109e-01 7.353615961026685e-01 6.691770195559741e-01 7.003258022995313e-01 6.962802543311790e-01 7.191441827443371e-01 7.360638157382523e-01 6.470163915988806e-01 6.694528966720362e-01 6.463708578718708e-01 6.790331968613104e-01 6.981712881292541e-01 6.692082328480585e-01 6.785988954219156e-01 5.869929038796752e-01 6.326177109103904e-01 8.025409485983457e-01 -8.944001331878497e-02 -9.680667343711855e-02 3.849343130508162e-01 -9.653934958686294e-02 3.891843837439036e-01 3.244653734330552e-01 3.872173054800079e-02 3.057962544262254e-01 2.466159905178342e-03 9.909436974097155e-02 7.725883186636953e-02 4.434066693648135e-02 2.725044178794546e-01 1.233186261344860e-01 2.033000547905388e-01 2.727672709973684e-01 1.474548061143106e-01 3.830368650149635e-01 2.738144795792516e-01 1.578673315820184e-01 7.687909180682950e-02 2.688589123909922e-01 2.767155293788061e-01 3.779613546342611e-01 9.889816054633656e-02 2.943404436853010e-01 2.697845615924734e-01 6.927083861857133e-01 5.887509189689961e-01 5.383625762246688e-01 7.680190031067187e-01 7.320519425171335e-01 7.741956648878429e-01 5.871859571062213e-01 8.004080474040105e-01 7.678621490499254e-01 5.972517875357592e-01 8.159137875923597e-01 7.489135486530324e-01 6.939716786376424e-01 5.375022652163194e-01 5.806090919856253e-01 5.624913019578546e-01 4.438958705419352e-01 2.602650987834703e-01 2.706388652316873e-01 3.880987134918626e-01 5.556692234643106e-01 4.872543792369933e-02 3.564103372288186e-02 2.979868468432106e-02 9.399880181225782e-02 -7.448493164501874e-02 3.120832475526518e-01 8.006911727352043e-01 4.423489263332600e-01 5.641901549685850e-01 3.767909344976053e-01 1.546872005952348e-01 2.805359299531086e-01 3.675869747780677e-01 2.577276014572725e-01 3.846752777627831e-01 5.908938599528472e-01 6.184314854706268e-01 6.789423417446740e-01 -5.952507141984881e-02 6.210506502404933e-01 4.125586672051978e-01 2.405324081179642e-02 4.876848507431263e-02 3.063823257996507e-02 4.381424308912726e-01 4.499056740456669e-01 7.681343618695509e-01 1.274526966677996e-01 1.511302307633589e-01 2.193916963529713e-02 1.948284768856952e-02 -2.344901546822237e-03 3.150139728352838e-01 8.907409331401265e-01 9.104379083279901e-01 7.072070951642984e-01 7.634147609729640e-01 8.791586089187126e-01 6.884203445620117e-01 8.352468726729666e-02 1.295178573043795e-01 1.961606528778031e-01 4.913213672968023e-02 1.270989281371235e-01 8.517764646243101e-02 2.192168238705637e-01 4.010027845706150e-01 6.524200053227073e-01 1.171020466391571e-01 6.159034948981648e-01 -5.207990257755036e-02 2.150934342830611e-01 6.540087136882616e-01 5.754171966415843e-01 8.012875335612286e-01 8.141636795572654e-01 3.720533037024337e-01 3.051217471389210e-01 6.628410963090953e-01 4.815374843298578e-01 6.638897999703590e-01 7.500791415050020e-01 4.796201161908846e-01 5.231822694120686e-01 7.332821107200261e-01 7.175039634381319e-01 3.727665255240655e-01 2.850232998148027e-01 8.046610815681181e-01 4.044275915239612e-01 2.184503583762123e-01 1.988217837533821e-01 1.821627634264323e-01 2.095158596847615e-01 3.791016976709934e-01 7.638519082931398e-01 9.153690198516814e-01 7.573000025017101e-01 7.655999369146218e-01 7.800279420666564e-01 7.587136995657427e-01 7.654686808797251e-01 6.164911358401541e-01 4.380093391961107e-01 7.563699301684890e-01 8.173493544372730e-01 5.954186152668777e-01 5.678925153348489e-01 3.668170586599082e-01 3.843648328729972e-01 5.711192978531089e-01 5.606247256918779e-01 3.630663468971697e-01 3.494924616731440e-01 8.230265774171892e-01 7.383626339235035e-01 3.055212445823171e-01 2.104116186514793e-01 6.637960710083939e-01 4.076068577548660e-01 6.573198465494743e-01 2.150232653439077e-01 9.507204334823300e-01 7.816742375135242e-01 7.728797013907402e-01 9.024520853291971e-01 9.354279040203264e-01 7.613412067624868e-01 7.883460059218275e-01 5.449587450304090e-01 7.782786675337148e-01 7.698095694991458e-01 7.612664393238364e-01 5.455131855397326e-01 5.704172578716532e-01 7.777840841361513e-01 5.597808779232366e-01 9.326091972274633e-01 9.511835081105460e-01 7.894476250242860e-01 8.685316155562430e-01 7.774332205049245e-01 9.532223398660652e-01 8.655661734695664e-01 8.410930235045700e-01 6.543786302038158e-01 6.549939989257868e-01 7.906366003830085e-01 8.743433453534252e-01 9.444650716474070e-01 8.695316130641777e-01 9.368513032308202e-01 8.350169916539661e-01 8.566519527159375e-01 9.589243925328675e-01 8.831685026372459e-01 8.572871842327402e-01 5.304361939619102e-01 8.446143030099696e-01 8.572586555806354e-01 5.636113055912207e-01 8.595182041240875e-01 7.591337495585887e-01 5.618938324481648e-01 8.187218101237904e-01 7.883622077221540e-01 7.849217340355839e-01 7.900861955891619e-01 7.673601723846449e-01 7.820894870408266e-01 7.942278464242475e-01 7.835626173098972e-01 7.740640826537051e-01 7.843976910735784e-01 7.695297441389713e-01 7.752875820617728e-01 7.849042843983507e-01 7.686434030354271e-01 7.681656882570639e-01 7.782192166345999e-01 7.197513002988863e-01 7.800003880078250e-01 8.531815328094331e-01 4.341776991198147e-01 4.834982061630388e-01 8.833774102506406e-01 6.171664150382528e-01 6.764239465227759e-01 4.553528262314132e-01 2.519451343389979e-03 1.057709642542595e-01 4.525463571234822e-01 4.443055468941821e-01 8.687064042962243e-03 8.394125699366581e-02 5.273090480741633e-02 6.906791352943817e-02 7.812679536534234e-01 7.970602481179044e-01 7.825684424740984e-01 7.610053616628588e-01 7.922359968596022e-01 7.817931754308679e-01 7.910462462187526e-01 8.160845233065730e-01 7.945765675535740e-01 7.691958402136498e-01 7.766034055485854e-01 7.315912202742960e-01 6.792310781069806e-01 6.963472648092266e-01 7.224337112974621e-01 7.968618119771632e-01 7.994962473371806e-01 7.091210320870485e-01 6.581824677550898e-01 7.719476204410057e-01 7.888757232468319e-01 7.798577860874657e-01 7.069613968304446e-01 7.772387959015068e-01 6.585559006466584e-01 7.680505469675073e-01 7.097758201288458e-01 7.722754447275100e-01 7.554708458359610e-01 7.901921267310640e-01 8.008420191747739e-01 7.378564811723836e-01 7.085009312935083e-01 7.770643531227336e-01 7.746769506098677e-01 7.094822199584493e-01 7.283066000850664e-01 7.614708248777319e-01 7.826603293434019e-01 7.199419915810564e-01 7.918085337978878e-01 7.966118995662080e-01 7.985251629518640e-01 6.961200156102775e-01 7.198469725840492e-01 7.897015520110815e-01 4.022091760076522e-01 1.037408729595590e-01 7.123910102966096e-01 6.790120007780636e-01 8.392190734008775e-01 4.757513322282794e-01 4.007557601451602e-01 6.625444554093372e-01 5.054195224008214e-01 7.778734395558871e-01 7.259632203536225e-01 6.611341578343447e-01 7.314940412349474e-01 4.755121802085128e-01 4.716565342855767e-01 2.345140770153903e-01 4.016177281736782e-01 3.955029520082723e-01 2.304286050797848e-01 4.900667029041103e-01 3.891167832962216e-01 1.944485096946348e-01 2.353937485790624e-01 7.259158388652547e-01 8.389048715296956e-01 2.925985361326402e-01 1.912272916367282e-01 3.888509733999360e-01 4.443138344935743e-01 3.896307810237049e-01 6.983734843383250e-01 4.474951735466886e-01 7.013663266154438e-01 3.841487729664131e-01 5.162553047852980e-01 5.162928638260810e-01 7.287937432284970e-01 6.978245057553167e-01 6.494845520103815e-01 4.196945504686096e-01 6.906358878392385e-01 2.148789283083411e-01 1.984449338207362e-01 4.345763518640734e-01 7.872013189848933e-01 1.082334719895233e-01 3.204220307764814e-01 9.486521759905849e-01 3.025288650652762e-01 5.821939195832421e-01 9.511369211432823e-01 3.455586977011675e-01 3.038740019434732e-01 9.504364652913351e-01 6.157017266048347e-01 3.472334537461361e-01 1.679709944385212e-01 3.603933486134063e-01 5.716266924617859e-01 8.923251010323016e-01 8.940273703501378e-01 9.170707266424054e-01 9.278770272348097e-01 7.577095941381330e-01 9.277242398268880e-01 9.310514949800320e-01 8.976065491235065e-01 7.529391777547921e-01 9.169750549389295e-01 8.981615850616484e-01 9.376652573323538e-01 8.875652336084818e-01 6.730855656631493e-01 7.838858767381874e-01 8.933357807142550e-01 7.905292814440481e-01 6.670726813444232e-01 7.956695364540274e-01 6.246542806450572e-01 6.662246882428975e-01 7.990691562920403e-01 6.388380824637515e-01 6.228282523302945e-01 3.567126243109142e-01 2.261968346087088e-01 1.751505901666765e-01 6.376681183340726e-01 6.788682472509476e-01 4.411670033381961e-01 1.696367391124553e-01 2.332183740638039e-01 3.630032913873805e-01 9.258143658899092e-01 9.496404826065342e-01 9.181855973497183e-01 9.197250596864152e-01 9.228489907050195e-01 8.717190430092869e-01 9.326817006692346e-01 8.526861072061084e-01 8.464906809591397e-01 9.022970228447772e-01 7.122432560776549e-01 8.277952234374671e-01 7.704513193041336e-01 8.626955747160914e-01 7.115975603028002e-01 7.280479023456032e-01 8.285243317929948e-01 8.718635456049925e-01 8.489918575678322e-01 8.553062842886423e-01 7.710953240771128e-01 7.763532423186418e-01 7.125625116366953e-01 6.070810172162743e-01 8.343383648955450e-01 7.311435089914817e-01 6.346007220805939e-01 4.376725999062726e-01 4.423679429198825e-01 5.193440731300318e-01 4.749063887182073e-01 4.865447119072513e-01 6.387941951205250e-01 4.803584979444204e-01 4.171755279443284e-01 4.805872101326798e-01 1.027270696673075e+00 4.472876937827269e-01 9.584828090691699e-01 5.255671003199710e-01 4.064453263675203e-01 8.373902397373132e-01 4.018055627262719e-01 5.887230299454975e-01 8.419485756497153e-01 7.235627463636575e-01 7.661196314501652e-01 7.481464036651360e-01 7.722385733616765e-01 7.992083692036387e-01 7.641588221743262e-01 7.551355449639625e-01 6.839495563113971e-01 6.988893594091889e-01 7.568698821440599e-01 7.759124387530425e-01 7.066813182287923e-01 7.607813780696235e-01 7.565062956198652e-01 6.739929922177819e-01 7.529328894244677e-01 7.531162763246113e-01 8.022202712906152e-01 7.404023954665276e-01 7.542550163847878e-01 6.988955239392006e-01 8.017047759922993e-01 8.112498455506872e-01 7.526926825472994e-01 8.166562474650110e-01 7.626720821432380e-01 7.571130508617774e-01 7.761347611821898e-01 8.163642929151510e-01 7.895085598475080e-01 8.113338359267621e-01 8.028904986143800e-01 8.359711315773010e-01 7.626573937395702e-01 8.038054625134342e-01 7.528852824951924e-01 7.572838822365121e-01 8.035741463229480e-01 8.158309702573788e-01 8.153264676709354e-01 8.228755860822127e-01 8.367530542439724e-01 8.155302000464147e-01 8.030881920161843e-01 8.230975944564773e-01 7.762899903498289e-01 8.206796107644747e-01 8.158754804083012e-01 7.162346411048297e-01 7.448251719928692e-01 7.291672402010380e-01 7.446892428375784e-01 7.353216783705778e-01 7.288339098992850e-01 8.148106521438080e-01 7.722516572393320e-01 8.091763292767435e-01 7.726160668674399e-01 7.515055934224644e-01 8.097726988490692e-01 7.102566673812917e-01 6.591268466765937e-01 7.579600066669401e-01 6.592969560752343e-01 6.697927604886835e-01 7.583181523455180e-01 6.039692128922991e-01 6.538224033750378e-01 7.167195549831229e-01 6.528000918846932e-01 3.353052711770250e-01 3.257020612616229e-01 7.303575488540787e-01 6.832426519590956e-01 7.554861809266110e-01 7.929589161281948e-01 7.499359607809056e-01 7.750162795254671e-01 6.834660474209528e-01 7.311276679202047e-01 6.717753376470365e-01 7.572887759960081e-01 7.498114054035784e-01 7.933333513952248e-01 7.392178096840167e-01 7.662438844695477e-01 6.686058653630509e-01 3.574969170119070e-01 6.968726556322841e-01 6.358329791730276e-01 3.729675625350308e-01 7.164246729765512e-01 6.899839048499473e-01 9.537508570589900e-01 4.593458855977483e-01 9.692460126239066e-01 5.198809376874446e-01 5.194924541744053e-01 4.364732888381372e-01 8.470136216203621e-01 6.838372835184905e-01 6.869843385674490e-01 5.546988937908748e-01 6.367856236684348e-01 4.758979842524942e-01 5.196424388440302e-01 5.176832378739434e-01 6.150782774404137e-01 7.509148707823923e-01 6.405655072838805e-01 5.497285951094482e-01 6.833601333362631e-01 5.755127704450698e-01 6.916907447200568e-01 6.149616933611914e-01 5.161677646264645e-01 5.850424000092803e-01 6.887010492014835e-01 6.149931090971961e-01 5.828285015675927e-01 5.814509676811400e-01 6.462604877654106e-01 6.880178289686962e-01 6.440532019081662e-01 6.796394463547135e-01 8.415553304299281e-01 8.527250373945997e-01 6.736205492326660e-01 7.080002041736756e-01 8.427318749992737e-01 6.870090758244940e-01 6.437124139903567e-01 7.020329719586019e-01 6.801600765010207e-01 8.643781939378385e-01 -2.534466849595294e-02 5.903887602652917e-02 -3.369420753057620e-02 1.952728300084809e-01 1.428374208067039e-01 3.089656170536064e-01 1.924099129749877e-01 1.093022779352041e-01 1.447264037275978e-01 9.422632409830048e-02 9.084722072122629e-02 1.158790565811322e-