<?xml version="1.0"?>
<VTKFile type="UnstructuredGrid" version="0.1" byte_order="LittleEndian">
<UnstructuredGrid>
<Piece NumberOfPoints="360" NumberOfCells="124">
<Points>
<DataArray type="Float64" NumberOfComponents="3" format="ascii">
7.500000000000000e-01 1.000000000000000e+00 0.000000000000000e+00 6.875000000000000e-01 8.750000000000000e-01 0.000000000000000e+00 6.875000000000000e-01 8.750000000000000e-01 0.000000000000000e+00 6.250000000000000e-01 7.500000000000000e-01 0.000000000000000e+00 6.250000000000000e-01 7.500000000000000e-01 0.000000000000000e+00 5.625000000000000e-01 6.250000000000000e-01 0.000000000000000e+00 5.625000000000000e-01 6.250000000000000e-01 0.000000000000000e+00 5.000000000000000e-01 5.000000000000000e-01 -0.000000000000000e+00 0.000000000000000e+00 2.500000000000000e-01 0.000000000000000e+00 1.249999999997599e-01 3.124999999998800e-01 0.000000000000000e+00 1.249999999997599e-01 3.124999999998800e-01 0.000000000000000e+00 2.499999999996086e-01 3.749999999998043e-01 0.000000000000000e+00 2.499999999996086e-01 3.749999999998043e-01 0.000000000000000e+00 3.749999999997349e-01 4.374999999998674e-01 0.000000000000000e+00 3.749999999997349e-01 4.374999999998674e-01 0.000000000000000e+00 5.000000000000000e-01 5.000000000000000e-01 -0.000000000000000e+00 5.000000000000000e-01 5.000000000000000e-01 -0.000000000000000e+00 4.375000000000694e-01 3.750000000001388e-01 0.000000000000000e+00 4.375000000000694e-01 3.750000000001388e-01 0.000000000000000e+00 3.750000000002776e-01 2.500000000005551e-01 0.000000000000000e+00 3.750000000002776e-01 2.500000000005551e-01 0.000000000000000e+00 3.125000000002082e-01 1.250000000004163e-01 0.000000000000000e+00 3.125000000002082e-01 1.250000000004163e-01 0.000000000000000e+00 2.500000000000000e-01 -0.000000000000000e+00 0.000000000000000e+00 3.749999999997349e-01 4.374999999998674e-01 0.000000000000000e+00 4.139414069912184e-01 6.056325264010037e-01 0.000000000000000e+00 2.645244370067465e-01 5.156353158163987e-01 0.000000000000000e+00 3.749999999997349e-01 4.374999999998674e-01 0.000000000000000e+00 5.000000000000000e-01 5.000000000000000e-01 -0.000000000000000e+00 4.139414069912184e-01 6.056325264010037e-01 0.000000000000000e+00 0.000000000000000e+00 2.500000000000000e-01 0.000000000000000e+00 1.249999999997599e-01 3.124999999998800e-01 0.000000000000000e+00 0.000000000000000e+00 4.375000000003469e-01 0.000000000000000e+00 6.875000000000000e-01 8.750000000000000e-01 0.000000000000000e+00 7.500000000000000e-01 1.000000000000000e+00 0.000000000000000e+00 5.625000000008674e-01 1.000000000000000e+00 0.000000000000000e+00 4.139414069912184e-01 6.056325264010037e-01 0.000000000000000e+00 2.758946705068648e-01 6.605885315643570e-01 0.000000000000000e+00 2.645244370067465e-01 5.156353158163987e-01 0.000000000000000e+00 2.798796021293082e-01 8.344274147057053e-01 0.000000000000000e+00 1.390078959961168e-01 7.261831610706000e-01 0.000000000000000e+00 2.758946705068648e-01 6.605885315643570e-01 0.000000000000000e+00 0.000000000000000e+00 4.375000000003469e-01 0.000000000000000e+00 1.492912418697525e-01 4.458279356810638e-01 0.000000000000000e+00 1.392858751591214e-01 5.733980610567744e-01 0.000000000000000e+00 3.750000000006939e-01 1.000000000000000e+00 0.000000000000000e+00 4.492710539671537e-01 8.556512408515589e-01 0.000000000000000e+00 5.625000000008674e-01 1.000000000000000e+00 0.000000000000000e+00 0.000000000000000e+00 4.375000000003469e-01 0.000000000000000e+00 1.392858751591214e-01 5.733980610567744e-01 0.000000000000000e+00 0.000000000000000e+00 6.250000000006939e-01 0.000000000000000e+00 3.750000000006939e-01 1.000000000000000e+00 0.000000000000000e+00 2.798796021293082e-01 8.344274147057053e-01 0.000000000000000e+00 4.492710539671537e-01 8.556512408515589e-01 0.000000000000000e+00 3.750000000006939e-01 1.000000000000000e+00 0.000000000000000e+00 1.875000000005205e-01 1.000000000000000e+00 0.000000000000000e+00 2.798796021293082e-01 8.344274147057053e-01 0.000000000000000e+00 2.798796021293082e-01 8.344274147057053e-01 0.000000000000000e+00 2.758946705068648e-01 6.605885315643570e-01 0.000000000000000e+00 3.813620468049507e-01 7.403859221383123e-01 0.000000000000000e+00 5.625000000008674e-01 1.000000000000000e+00 0.000000000000000e+00 4.492710539671537e-01 8.556512408515589e-01 0.000000000000000e+00 5.677751205718758e-01 8.470224641095303e-01 0.000000000000000e+00 6.875000000000000e-01 8.750000000000000e-01 0.000000000000000e+00 5.625000000008674e-01 1.000000000000000e+00 0.000000000000000e+00 5.677751205718758e-01 8.470224641095303e-01 0.000000000000000e+00 5.625000000000000e-01 6.250000000000000e-01 0.000000000000000e+00 4.139414069912184e-01 6.056325264010037e-01 0.000000000000000e+00 5.000000000000000e-01 5.000000000000000e-01 -0.000000000000000e+00 0.000000000000000e+00 4.375000000003469e-01 0.000000000000000e+00 1.249999999997599e-01 3.124999999998800e-01 0.000000000000000e+00 1.492912418697525e-01 4.458279356810638e-01 0.000000000000000e+00 0.000000000000000e+00 1.000000000000000e+00 0.000000000000000e+00 0.000000000000000e+00 8.125000000010408e-01 0.000000000000000e+00 1.271010713601231e-01 8.709480661820344e-01 0.000000000000000e+00 3.749999999997349e-01 4.374999999998674e-01 0.000000000000000e+00 2.645244370067465e-01 5.156353158163987e-01 0.000000000000000e+00 2.499999999996086e-01 3.749999999998043e-01 0.000000000000000e+00 1.875000000005205e-01 1.000000000000000e+00 0.000000000000000e+00 0.000000000000000e+00 1.000000000000000e+00 0.000000000000000e+00 1.271010713601231e-01 8.709480661820344e-01 0.000000000000000e+00 0.000000000000000e+00 8.125000000010408e-01 0.000000000000000e+00 0.000000000000000e+00 6.250000000006939e-01 0.000000000000000e+00 1.390078959961168e-01 7.261831610706000e-01 0.000000000000000e+00 2.499999999996086e-01 3.749999999998043e-01 0.000000000000000e+00 1.492912418697525e-01 4.458279356810638e-01 0.000000000000000e+00 1.249999999997599e-01 3.124999999998800e-01 0.000000000000000e+00 2.758946705068648e-01 6.605885315643570e-01 0.000000000000000e+00 1.390078959961168e-01 7.261831610706000e-01 0.000000000000000e+00 1.392858751591214e-01 5.733980610567744e-01 0.000000000000000e+00 4.492710539671537e-01 8.556512408515589e-01 0.000000000000000e+00 2.798796021293082e-01 8.344274147057053e-01 0.000000000000000e+00 3.813620468049507e-01 7.403859221383123e-01 0.000000000000000e+00 2.798796021293082e-01 8.344274147057053e-01 0.000000000000000e+00 1.271010713601231e-01 8.709480661820344e-01 0.000000000000000e+00 1.390078959961168e-01 7.261831610706000e-01 0.000000000000000e+00 5.625000000000000e-01 6.250000000000000e-01 0.000000000000000e+00 5.014585693307863e-01 7.367466304650486e-01 0.000000000000000e+00 4.139414069912184e-01 6.056325264010037e-01 0.000000000000000e+00 1.875000000005205e-01 1.000000000000000e+00 0.000000000000000e+00 1.271010713601231e-01 8.709480661820344e-01 0.000000000000000e+00 2.798796021293082e-01 8.344274147057053e-01 0.000000000000000e+00 2.499999999996086e-01 3.749999999998043e-01 0.000000000000000e+00 2.645244370067465e-01 5.156353158163987e-01 0.000000000000000e+00 1.492912418697525e-01 4.458279356810638e-01 0.000000000000000e+00 2.645244370067465e-01 5.156353158163987e-01 0.000000000000000e+00 2.758946705068648e-01 6.605885315643570e-01 0.000000000000000e+00 1.392858751591214e-01 5.733980610567744e-01 0.000000000000000e+00 5.625000000000000e-01 6.250000000000000e-01 0.000000000000000e+00 6.250000000000000e-01 7.500000000000000e-01 0.000000000000000e+00 5.014585693307863e-01 7.367466304650486e-01 0.000000000000000e+00 4.139414069912184e-01 6.056325264010037e-01 0.000000000000000e+00 5.014585693307863e-01 7.367466304650486e-01 0.000000000000000e+00 3.813620468049507e-01 7.403859221383123e-01 0.000000000000000e+00 6.875000000000000e-01 8.750000000000000e-01 0.000000000000000e+00 5.677751205718758e-01 8.470224641095303e-01 0.000000000000000e+00 6.250000000000000e-01 7.500000000000000e-01 0.000000000000000e+00 6.250000000000000e-01 7.500000000000000e-01 0.000000000000000e+00 5.677751205718758e-01 8.470224641095303e-01 0.000000000000000e+00 5.014585693307863e-01 7.367466304650486e-01 0.000000000000000e+00 0.000000000000000e+00 6.250000000006939e-01 0.000000000000000e+00 1.392858751591214e-01 5.733980610567744e-01 0.000000000000000e+00 1.390078959961168e-01 7.261831610706000e-01 0.000000000000000e+00 4.139414069912184e-01 6.056325264010037e-01 0.000000000000000e+00 3.813620468049507e-01 7.403859221383123e-01 0.000000000000000e+00 2.758946705068648e-01 6.605885315643570e-01 0.000000000000000e+00 0.000000000000000e+00 8.125000000010408e-01 0.000000000000000e+00 1.390078959961168e-01 7.261831610706000e-01 0.000000000000000e+00 1.271010713601231e-01 8.709480661820344e-01 0.000000000000000e+00 2.645244370067465e-01 5.156353158163987e-01 0.000000000000000e+00 1.392858751591214e-01 5.733980610567744e-01 0.000000000000000e+00 1.492912418697525e-01 4.458279356810638e-01 0.000000000000000e+00 4.492710539671537e-01 8.556512408515589e-01 0.000000000000000e+00 5.014585693307863e-01 7.367466304650486e-01 0.000000000000000e+00 5.677751205718758e-01 8.470224641095303e-01 0.000000000000000e+00 4.492710539671537e-01 8.556512408515589e-01 0.000000000000000e+00 3.813620468049507e-01 7.403859221383123e-01 0.000000000000000e+00 5.014585693307863e-01 7.367466304650486e-01 0.000000000000000e+00 5.698670717843664e-01 3.776209365087199e-01 0.000000000000000e+00 7.182603949284063e-01 3.456402071721618e-01 0.000000000000000e+00 6.323653418237701e-01 5.029675640633227e-01 0.000000000000000e+00 7.533843026232094e-01 4.929444342317560e-01 0.000000000000000e+00 6.323653418237701e-01 5.029675640633227e-01 0.000000000000000e+00 7.182603949284063e-01 3.456402071721618e-01 0.000000000000000e+00 8.578792739151740e-01 7.535325208825020e-01 0.000000000000000e+00 7.125974780784441e-01 6.384669131570183e-01 0.000000000000000e+00 8.612746697781972e-01 5.794807697879764e-01 0.000000000000000e+00 2.500000000000000e-01 -0.000000000000000e+00 0.0000000
[...]
<PointData Scalars="age_conc,U235_conc," Vectors="" Tensors="">
<DataArray type="Float64" Name="age_conc" format="ascii">
-3.776438967254797e+03 3.525433142706384e+04 3.214528975304134e+04 8.849152891389612e+04 8.575276166983819e+04 1.477460083280538e+05 1.451201632464384e+05 2.083678926426679e+05 3.670119612056164e+05 3.403469985291748e+05 3.434312729533273e+05 3.086470108686782e+05 3.125686197503546e+05 2.621461713361960e+05 2.657383665976871e+05 1.994512673057835e+05 2.076531298650707e+05 2.904456823889430e+05 2.853058336873844e+05 3.282325352948797e+05 3.250916228121984e+05 3.552546531991358e+05 3.527556718833895e+05 3.760603164282487e+05 4.585241782420170e+05 4.619132798580763e+05 4.503063711342537e+05 4.525156050220209e+05 2.655486078763025e+05 4.893133058017428e+05 4.500883562154972e+05 4.496941403227385e+05 4.497755022183160e+05 1.801610022782155e+05 -1.417823730681967e+03 3.504816016305767e+04 4.501893272129070e+05 4.252308728809718e+05 4.538544592244774e+05 3.138472609738359e+05 4.197182163452437e+05 4.404778294145380e+05 4.505390214053320e+05 4.489983152525949e+05 4.451892905216423e+05 -2.398768136781346e+03 2.986561005604690e+05 1.472329646414536e+03 4.529972073407767e+05 4.462254738159764e+05 4.442658432250276e+05 -1.896390704482879e+03 3.061433298700373e+05 2.922606452761638e+05 6.848823073466715e+02 5.668289680221032e+03 3.330908614686550e+05 3.008738889249632e+05 4.569339569443014e+05 4.064447684084445e+05 3.502880854844037e+04 2.874948320244765e+05 2.658090387335203e+05 1.771817878770324e+05 3.301564772810113e+04 2.706967114233295e+05 1.810000909834184e+05 5.093468392284210e+05 2.657719776981017e+05 4.498529738006562e+05 4.498396091317764e+05 4.486700704561609e+05 2.479686031747473e+03 3.799613147203185e+05 2.771621442246634e+05 4.586117896124814e+05 4.491853172428776e+05 4.524786536190273e+05 2.466795564744968e+03 4.104828898702788e+03 2.842479574260131e+05 3.554317477466459e+05 4.657834629376186e+05 4.129354697853250e+05 4.515469974081373e+05 4.483033336914543e+05 4.499615426279102e+05 4.291122397540350e+05 4.138504772602788e+05 4.549076305881516e+05 2.838121825218041e+05 3.036743400303022e+05 4.184350028913894e+05 3.177659321976868e+05 2.488441126964078e+05 4.472923859162151e+05 1.699244444202858e+05 4.351216028986962e+05 5.067444149640902e+05 5.433099993661861e+03 2.564106243716058e+05 3.260920203726216e+05 4.521393112001890e+05 4.483521016295774e+05 4.478783019288341e+05 4.492951107964210e+05 4.280454322356083e+05 4.461119979273438e+05 1.718218254957251e+05 1.358611364700540e+05 4.507906565093811e+05 4.750263517986874e+05 4.077691705444216e+05 3.746293247520175e+05 1.283305282887569e+05 3.469132463148916e+05 1.536108456026532e+05 1.485911345643482e+05 3.391111096180353e+05 4.260053300199428e+05 4.476184111781832e+05 4.493768208339217e+05 4.161825044109437e+05 4.566734696316619e+05 3.826901480865346e+05 4.280574421580754e+05 3.575124008015319e+05 4.267132528161151e+05 2.584538061429856e+05 4.472692313705502e+05 4.443013815861284e+05 4.504411163831648e+05 2.658341246104338e+05 4.234328792906228e+05 2.718565342148096e+05 2.651710835476750e+05 3.856702872371043e+05 4.142225346109547e+05 4.497413996266932e+05 4.082817951466824e+05 4.344517035451932e+05 3.836539143010532e+05 4.412662873941985e+05 4.104686188461323e+05 2.931556563434743e+05 4.656554562480975e+05 2.579253138295604e+05 4.501912834778769e+05 4.490798542177957e+05 4.502903499826207e+05 3.203072362429853e+05 3.850985074931928e+05 4.363888656356871e+05 2.808465094609177e+05 2.585356465561418e+05 2.046773639231666e+03 4.153309073702796e+05 2.786368676652084e+05 4.219754771773405e+05 2.740012796338620e+05 4.187806456015956e+05 2.524898711194844e+05 4.507011591746338e+05 4.483997243133895e+05 4.424978885764591e+05 2.877224132332745e+05 3.275892636891600e+05 2.159354343905112e+05 -1.734781582412666e+03 2.148272149667423e+05 2.984618310907008e+05 -8.186778278233032e+01 3.027821311863919e+05 -7.242952701341282e+01 3.140310463975992e+03 8.572130840954655e+02 2.945266466525843e+05 4.515675592831392e+05 4.167038796747148e+05 4.451451851724872e+05 3.517849853291304e+05 4.272589830790042e+05 4.657645168021882e+05 4.648249560879349e+02 2.962217854139513e+05 2.664723184132146e+05 -7.418982598878919e+02 2.184709856634825e+05 -7.418982598848746e+02 4.078037282646703e+05 4.119530800456055e+05 2.523296369087200e+05 6.818918992808849e+02 2.866023315378852e+05 1.970640633158509e+03 2.607767062871969e+05 4.532102178695321e+05 3.677414503344889e+05 4.504128702778259e+05 4.488926841292308e+05 4.503903797117293e+05 4.589886965342700e+05 2.534503494042406e+05 2.836256203817788e+05 1.513263733494162e+03 4.900895913309246e+02 2.803954788874672e+05 4.498683417206980e+05 4.412295544933865e+05 4.529893262301860e+05 4.061346597561944e+05 4.130186867045956e+05 4.547694290142402e+05 4.455087692795951e+05 4.285491295155875e+05 4.075258464718956e+05 2.666845339361069e+05 4.363503436457138e+05 2.762094786553011e+05 2.555579505790180e+05 2.444063917097237e+05 -1.635800059666614e+03 -2.325978485378203e+02 -6.952891010077545e+02 2.487942651714970e+05 1.263091940184559e+03 2.748506040577535e+05 2.729931509833083e+05 3.538985960826765e+05 2.571974172623729e+05 4.418997555325532e+05 3.837148611224131e+05 2.202392412227012e+03 2.666228715264444e+05 4.482981350181347e+05 4.478365070685363e+05 4.513900008965495e+05 4.547194152590802e+05 4.414293817701450e+05 4.407547093742338e+05 1.642349869874277e+03 2.734665493034729e+05 3.997363960371714e+03 4.409656852734220e+05 4.504005837513618e+05 4.304933601050361e+05 4.462331274557381e+05 4.426544575974460e+05 4.121856599862726e+05 4.067545958338786e+05 4.486944779432351e+05 4.553273059473563e+05 3.613376586159340e+05 4.408343033224741e+05 4.517755294759232e+05 4.492514423528491e+05 4.483852021978514e+05 4.423562710881322e+05 4.097948299552177e+05 4.336579994511990e+05 3.874784733876592e+05 4.389336365502584e+05 4.506422295320869e+05 4.483044901701239e+05 2.821202267914431e+05 3.944959893163387e+05 3.206263358945782e+05 2.426007875907745e+05 4.173019334556691e+05 2.513606332812115e+05 4.501474039749683e+05 4.478290163043850e+05 4.484226495837173e+05 -7.732198899229169e+02 -3.310958321279275e+02 2.296959095557265e+05 2.273669530818936e+03 2.890202075732432e+05 2.530248716503639e+05 2.419928398409194e+05 4.032227912872607e+05 4.062042007238991e+05 4.424493313921863e+05 4.505401614509898e+05 4.396870664012492e+05 4.500987195401594e+05 4.490813243701396e+05 4.497598480582810e+05 4.500947809634362e+05 4.492685454316458e+05 4.475192150187009e+05 4.504212248661904e+05 4.464411564865608e+05 4.500141638965952e+05 -1.589372623069676e+03 2.451781898585902e+05 2.263705510056204e+05 4.515356833971349e+05 4.423838092938379e+05 4.470704252925052e+05 3.362608499246456e+05 2.056342802298446e+05 3.101015203825612e+05 3.388353161764302e+05 4.448083107664409e+05 4.671163894367433e+05 3.754109288301091e+05 4.475592690117281e+05 4.500208930715974e+05 3.763318634314216e+05 3.562291991062045e+05 4.543334137931881e+05 2.844464225873617e+05 3.094694296142951e+05 4.300365476216333e+05 3.261610869766414e+05 3.053350754553730e+05 4.274024911275306e+05 4.558330407534811e+05 4.594672621384540e+05 4.479528177000954e+05 3.505740748820960e+05 3.289729487243581e+05 4.744592407764007e+05 3.135675691281478e+05 3.382468507582102e+05 4.783515982981448e+05 3.247445857811714e+05 4.205125853073831e+05 4.779606092776897e+05 3.082228113891418e+05 4.818084555619871e+05 4.208125583880160e+05 3.444748023303299e+05 3.677302144162801e+05 4.501166745751032e+05 3.507816697891289e+05 4.649676852170757e+05 4.511041370385479e+05 3.296117342515513e+05 3.063763669011291e+05 4.074423270981759e+05 4.531378573619330e+05 4.536196297804108e+05 4.452927327660908e+05 4.537380615130524e+05 4.449689913293630e+05 4.554049524959163e+05 4.525470960335950e+05 4.425963176540672e+05 3.663596132122020e+05 4.442881623885299e+05 4.497647272644016e+05 4.571159567335690e+05 4.450362395966687e+05 4.554855925897703e+05 4.453121076914685e+05 4.479803217569495e+05 4.524996293770494e+05 4.551010344633717e+05 
</DataArray>
<DataArray type="Float64" Name="U235_conc" format="ascii">
9.751089706561010e-01 9.397519864428279e-01 9.246152307663438e-01 8.378750221024726e-01 8.243166786329573e-01 7.073665651378188e-01 7.001449060104056e-01 5.705685600642226e-01 2.002202552851470e-01 2.638508533216192e-01 2.580524810844018e-01 3.378973190804335e-01 3.320117550821242e-01 4.451796028689304e-01 4.466007541081630e-01 5.828181601410892e-01 5.614422391514627e-01 3.831470901158612e-01 3.868705760815739e-01 2.929213701286409e-01 2.961734911070471e-01 2.279241401495163e-01 2.318240072965584e-01 1.774773993726513e-01 -2.907716377095856e-03 -4.424528708615504e-02 4.715300346325089e-02 -3.438272408876334e-02 5.023976936867066e-01 -1.608662593173339e-01 -3.897693360054553e-04 5.835424561168423e-04 5.274720055577450e-04 7.464124005710586e-01 9.476907264418507e-01 9.045250845246829e-01 -2.275588688224879e-02 5.938319505779895e-02 -1.223313727091190e-02 3.642726965622874e-01 5.290277404537032e-02 -2.673051860712175e-02 -3.927385138464126e-04 2.087919083400567e-03 9.027372832184032e-03 9.510433007246737e-01 5.347145532840593e-01 9.463436466070078e-01 -2.963558175862544e-03 9.268424271218795e-03 -1.267973845739859e-03 9.575707229684500e-01 3.676314400537798e-01 4.759998006109846e-01 9.582396756874084e-01 9.496171690603380e-01 4.447268858236020e-01 3.815439901057222e-01 -6.297878250670030e-02 7.651035439491743e-02 9.125305936502306e-01 4.354924091066669e-01 4.728477485204434e-01 7.012712425466040e-01 8.789790513361354e-01 4.860876773273975e-01 6.802482166122331e-01 -1.976854152739731e-01 4.847547195598391e-01 2.528675165395985e-04 1.671338365708932e-04 2.400236010205922e-03 9.405123917115973e-01 2.139741654986107e-01 4.979769155856779e-01 -2.703631782495874e-02 2.922117226716523e-02 -1.575330898787596e-03 9.537151134920526e-01 9.491451580905959e-01 5.490133567059851e-01 2.709556836394552e-01 -8.154094110679734e-02 3.821882861594587e-02 8.847474870511230e-03 1.298632455900561e-03 2.055714246805320e-04 2.622909547966005e-02 8.286195264031387e-02 -2.534555700420989e-02 4.488264484696377e-01 3.428887803026893e-01 2.697147474057987e-02 3.745377237076730e-01 4.756831843529319e-01 -5.439993310746490e-02 6.873116751403372e-01 1.904771042067493e-02 -1.887410175199240e-01 9.453857542828865e-01 4.754841587341175e-01 3.983450232640113e-01 6.974666272272837e-03 1.989434945292230e-02 1.381760110499824e-03 3.799300777002391e-03 4.609256742918069e-02 1.466730818784004e-03 6.654853494937091e-01 7.217824882797721e-01 1.473258695863365e-02 -1.093507492525311e-01 6.947023709186867e-02 1.899031806307519e-01 7.535239292605175e-01 3.297399557614717e-01 6.368465587401293e-01 6.566465891776426e-01 3.182024194709328e-01 4.264140436093008e-02 -1.847846712748139e-02 2.263658297999076e-04 6.648217489852844e-02 -4.734435444069304e-02 1.701840521867531e-01 4.468666085672945e-02 2.517576226078110e-01 -1.743658413784545e-02 4.942682345870755e-01 8.079238571416708e-03 8.229644429654711e-03 -3.992904439893122e-04 4.489519175904623e-01 2.184730454252904e-02 4.324860916238650e-01 4.721840300182214e-01 1.440104193539432e-01 4.378205414037215e-02 -1.096357560568525e-02 8.685021631648744e-02 2.820164202065485e-02 1.572723507836097e-01 3.372025557565945e-04 7.182293928411132e-02 4.194405787420439e-01 -1.073590952136559e-01 4.671896911002323e-01 -8.444078268685133e-04 3.523889026387252e-03 -1.507264689078491e-03 3.239818074497094e-01 1.275157239971047e-01 -6.036182153042615e-03 5.006392292068882e-01 4.804449849024001e-01 9.482232016561114e-01 6.133207201292482e-02 4.400374470347269e-01 2.668241403142398e-02 4.711681398862981e-01 3.621825496525584e-02 4.633880929031660e-01 2.536296142285215e-03 -1.635455507745557e-02 2.466666051353186e-02 3.725970744778315e-01 2.847034225978339e-01 6.021502442904701e-01 9.395902745309964e-01 6.438493612493166e-01 4.106825195862288e-01 9.543915817916386e-01 5.078683438286442e-01 9.615159225082405e-01 9.511792676627744e-01 9.538769273094035e-01 5.294406142886821e-01 -2.925918511987715e-02 6.698332228982774e-02 1.790067162065927e-02 2.738752827539936e-01 2.022126398275423e-03 -7.798137081345584e-02 9.598176411665021e-01 4.562203916526756e-01 4.631166169913152e-01 9.466234866809047e-01 6.977064384015912e-01 9.466234866809429e-01 6.956641366984934e-02 6.538779338439001e-02 4.979634529046699e-01 9.545409064994693e-01 5.510698207158936e-01 9.489367267302902e-01 4.876170368357385e-01 -7.302894857587337e-02 2.048512574453017e-01 -1.660370939418956e-03 4.649688921997177e-03 -2.947655512351906e-03 -8.067264688589065e-02 4.727601140853183e-01 4.502172517833103e-01 9.492292100944009e-01 9.514808354976716e-01 5.653760181157704e-01 3.940331914684598e-04 2.120535005498894e-02 -1.609815046902702e-02 1.010974693711028e-01 6.440680033344581e-02 -3.733825876993548e-02 -3.342563378286138e-03 3.180681091975983e-02 8.962370873892717e-02 4.861893910627139e-01 -1.748323559661922e-02 4.209527095527129e-01 5.029175554928340e-01 5.748368589386091e-01 9.460416102740447e-01 9.525943299796539e-01 9.596310221789029e-01 6.214638918903402e-01 9.467525730110778e-01 5.141470866312489e-01 4.492611068015447e-01 2.503603398299246e-01 4.941905207300588e-01 -5.186770140288431e-02 2.111576561984898e-01 9.411191501698994e-01 5.163000627473230e-01 7.645934400013552e-03 2.907396185493289e-03 -7.011275333389355e-03 -1.961678594965025e-02 2.063313515907414e-02 9.046049171630870e-03 9.545989791822225e-01 5.674364111563188e-01 9.522131163354732e-01 2.486002044443157e-02 -2.475189444817639e-02 2.223111342944269e-02 -1.836554238551842e-03 2.841479339331163e-03 7.743197624658235e-02 1.052363657341305e-01 -1.732155056039398e-02 -2.254792837001790e-02 2.381314436381340e-01 -3.444567757371534e-02 -3.597883642309593e-02 2.208334474338998e-03 6.226503631631254e-04 1.601880993611156e-02 7.742639513874476e-02 1.240105116198871e-02 1.306483817416470e-01 3.084130768734942e-02 -2.848089882917177e-03 -1.929981265776826e-02 4.026516917336855e-01 9.407160240862941e-02 3.119486578255540e-01 5.128609725543271e-01 3.325724295566324e-02 5.078953210789868e-01 -6.780435738660933e-04 2.549944280815382e-03 4.478530857803770e-03 9.463179637481883e-01 9.456049841631765e-01 6.767176562894013e-01 9.421993231259687e-01 4.838452213446948e-01 4.928959795308770e-01 5.338875505618228e-01 8.382402862677869e-02 6.373617483414297e-02 1.238531817491274e-02 -4.353622241812989e-03 1.509774813141915e-02 -3.293291966175399e-04 2.250634503712793e-03 -3.656519627305969e-04 -1.311821961126661e-03 1.693707183686455e-03 4.294870108841809e-03 -7.704998295631439e-03 8.482609779891155e-03 7.665576990547661e-04 9.334019368576425e-01 5.255446463834520e-01 6.284875963579973e-01 -1.036815397367499e-02 7.664233870730305e-03 7.786721308558946e-03 2.743038791575751e-01 5.679818840632365e-01 3.508624341748852e-01 2.939649820662895e-01 -3.909880152770945e-04 -7.354871319063601e-02 1.896765850300350e-01 -4.224060296888959e-03 -1.109032074398290e-02 1.795121614486780e-01 2.389557597348063e-01 -2.137435557498276e-02 4.009624176261570e-01 3.349776567888704e-01 4.276910632866540e-02 2.936951843592785e-01 3.433886858172622e-01 5.150824307867951e-02 6.604885492650207e-03 -3.249843056876173e-02 2.589354507611152e-02 2.512503356953805e-01 3.033230067683793e-01 -8.352075092751790e-02 3.444576798410422e-01 2.839314580439453e-01 -9.807710511064584e-02 3.113391470126232e-01 6.188469610161778e-02 -9.819587404165171e-02 3.557472056643240e-01 -1.114939992476585e-01 6.045061005072282e-02 2.696665136975936e-01 1.998247963878193e-01 -1.082941180792742e-02 2.608808223793965e-01 -6.365363269829902e-02 -1.701876956797498e-02 2.821595385647303e-01 3.528636981588579e-01 9.054013526525218e-02 -2.272296849380702e-03 -1.196856340581536e-03 6.891014388754946e-03 -3.068119494969441e-03 7.792522639480840e-03 -4.591153887176072e-03 -1.976829650927016e-02 9.146789447410359e-03 2.124540272209792e-01 9.210352505007773e-03 2.228637452478782e-03 -8.282789269578358e-03 6.188633982801763e-03 -6.681243589622032e-03 1.416388652459602e-02 1.116186779038629e-02 -1.514062414993720e-03 -6.719050089327272e-03 
</DataArray>
</PointData>
</Piece>
</UnstructuredGrid>
</VTKFile>
