<?xml version="1.0"?>
<VTKFile type="UnstructuredGrid" version="0.1" byte_order="LittleEndian">
<UnstructuredGrid>
<Piece NumberOfPoints="360" NumberOfCells="124">
<Points>
<DataArray type="Float64" NumberOfComponents="3" format="ascii">
7.500000000000000e-01 1.000000000000000e+00 0.000000000000000e+00 6.875000000000000e-01 8.750000000000000e-01 0.000000000000000e+00 6.875000000000000e-01 8.750000000000000e-01 0.000000000000000e+00 6.250000000000000e-01 7.500000000000000e-01 0.000000000000000e+00 6.250000000000000e-01 7.500000000000000e-01 0.000000000000000e+00 5.625000000000000e-01 6.250000000000000e-01 0.000000000000000e+00 5.625000000000000e-01 6.250000000000000e-01 0.000000000000000e+00 5.000000000000000e-01 5.000000000000000e-01 -0.000000000000000e+00 0.000000000000000e+00 2.500000000000000e-01 0.000000000000000e+00 1.249999999997599e-01 3.124999999998800e-01 0.000000000000000e+00 1.249999999997599e-01 3.124999999998800e-01 0.000000000000000e+00 2.499999999996086e-01 3.749999999998043e-01 0.000000000000000e+00 2.499999999996086e-01 3.749999999998043e-01 0.000000000000000e+00 3.749999999997349e-01 4.374999999998674e-01 0.000000000000000e+00 3.749999999997349e-01 4.374999999998674e-01 0.000000000000000e+00 5.000000000000000e-01 5.000000000000000e-01 -0.000000000000000e+00 5.000000000000000e-01 5.000000000000000e-01 -0.000000000000000e+00 4.375000000000694e-01 3.750000000001388e-01 0.000000000000000e+00 4.375000000000694e-01 3.750000000001388e-01 0.000000000000000e+00 3.750000000002776e-01 2.500000000005551e-01 0.000000000000000e+00 3.750000000002776e-01 2.500000000005551e-01 0.000000000000000e+00 3.125000000002082e-01 1.250000000004163e-01 0.000000000000000e+00 3.125000000002082e-01 1.250000000004163e-01 0.000000000000000e+00 2.500000000000000e-01 -0.000000000000000e+00 0.000000000000000e+00 3.749999999997349e-01 4.374999999998674e-01 0.000000000000000e+00 4.139414069912184e-01 6.056325264010037e-01 0.000000000000000e+00 2.645244370067465e-01 5.156353158163987e-01 0.000000000000000e+00 3.749999999997349e-01 4.374999999998674e-01 0.000000000000000e+00 5.000000000000000e-01 5.000000000000000e-01 -0.000000000000000e+00 4.139414069912184e-01 6.056325264010037e-01 0.000000000000000e+00 0.000000000000000e+00 2.500000000000000e-01 0.000000000000000e+00 1.249999999997599e-01 3.124999999998800e-01 0.000000000000000e+00 0.000000000000000e+00 4.375000000003469e-01 0.000000000000000e+00 6.875000000000000e-01 8.750000000000000e-01 0.000000000000000e+00 7.500000000000000e-01 1.000000000000000e+00 0.000000000000000e+00 5.625000000008674e-01 1.000000000000000e+00 0.000000000000000e+00 4.139414069912184e-01 6.056325264010037e-01 0.000000000000000e+00 2.758946705068648e-01 6.605885315643570e-01 0.000000000000000e+00 2.645244370067465e-01 5.156353158163987e-01 0.000000000000000e+00 2.798796021293082e-01 8.344274147057053e-01 0.000000000000000e+00 1.390078959961168e-01 7.261831610706000e-01 0.000000000000000e+00 2.758946705068648e-01 6.605885315643570e-01 0.000000000000000e+00 0.000000000000000e+00 4.375000000003469e-01 0.000000000000000e+00 1.492912418697525e-01 4.458279356810638e-01 0.000000000000000e+00 1.392858751591214e-01 5.733980610567744e-01 0.000000000000000e+00 3.750000000006939e-01 1.000000000000000e+00 0.000000000000000e+00 4.492710539671537e-01 8.556512408515589e-01 0.000000000000000e+00 5.625000000008674e-01 1.000000000000000e+00 0.000000000000000e+00 0.000000000000000e+00 4.375000000003469e-01 0.000000000000000e+00 1.392858751591214e-01 5.733980610567744e-01 0.000000000000000e+00 0.000000000000000e+00 6.250000000006939e-01 0.000000000000000e+00 3.750000000006939e-01 1.000000000000000e+00 0.000000000000000e+00 2.798796021293082e-01 8.344274147057053e-01 0.000000000000000e+00 4.492710539671537e-01 8.556512408515589e-01 0.000000000000000e+00 3.750000000006939e-01 1.000000000000000e+00 0.000000000000000e+00 1.875000000005205e-01 1.000000000000000e+00 0.000000000000000e+00 2.798796021293082e-01 8.344274147057053e-01 0.000000000000000e+00 2.798796021293082e-01 8.344274147057053e-01 0.000000000000000e+00 2.758946705068648e-01 6.605885315643570e-01 0.000000000000000e+00 3.813620468049507e-01 7.403859221383123e-01 0.000000000000000e+00 5.625000000008674e-01 1.000000000000000e+00 0.000000000000000e+00 4.492710539671537e-01 8.556512408515589e-01 0.000000000000000e+00 5.677751205718758e-01 8.470224641095303e-01 0.000000000000000e+00 6.875000000000000e-01 8.750000000000000e-01 0.000000000000000e+00 5.625000000008674e-01 1.000000000000000e+00 0.000000000000000e+00 5.677751205718758e-01 8.470224641095303e-01 0.000000000000000e+00 5.625000000000000e-01 6.250000000000000e-01 0.000000000000000e+00 4.139414069912184e-01 6.056325264010037e-01 0.000000000000000e+00 5.000000000000000e-01 5.000000000000000e-01 -0.000000000000000e+00 0.000000000000000e+00 4.375000000003469e-01 0.000000000000000e+00 1.249999999997599e-01 3.124999999998800e-01 0.000000000000000e+00 1.492912418697525e-01 4.458279356810638e-01 0.000000000000000e+00 0.000000000000000e+00 1.000000000000000e+00 0.000000000000000e+00 0.000000000000000e+00 8.125000000010408e-01 0.000000000000000e+00 1.271010713601231e-01 8.709480661820344e-01 0.000000000000000e+00 3.749999999997349e-01 4.374999999998674e-01 0.000000000000000e+00 2.645244370067465e-01 5.156353158163987e-01 0.000000000000000e+00 2.499999999996086e-01 3.749999999998043e-01 0.000000000000000e+00 1.875000000005205e-01 1.000000000000000e+00 0.000000000000000e+00 0.000000000000000e+00 1.000000000000000e+00 0.000000000000000e+00 1.271010713601231e-01 8.709480661820344e-01 0.000000000000000e+00 0.000000000000000e+00 8.125000000010408e-01 0.000000000000000e+00 0.000000000000000e+00 6.250000000006939e-01 0.000000000000000e+00 1.390078959961168e-01 7.261831610706000e-01 0.000000000000000e+00 2.499999999996086e-01 3.749999999998043e-01 0.000000000000000e+00 1.492912418697525e-01 4.458279356810638e-01 0.000000000000000e+00 1.249999999997599e-01 3.124999999998800e-01 0.000000000000000e+00 2.758946705068648e-01 6.605885315643570e-01 0.000000000000000e+00 1.390078959961168e-01 7.261831610706000e-01 0.000000000000000e+00 1.392858751591214e-01 5.733980610567744e-01 0.000000000000000e+00 4.492710539671537e-01 8.556512408515589e-01 0.000000000000000e+00 2.798796021293082e-01 8.344274147057053e-01 0.000000000000000e+00 3.813620468049507e-01 7.403859221383123e-01 0.000000000000000e+00 2.798796021293082e-01 8.344274147057053e-01 0.000000000000000e+00 1.271010713601231e-01 8.709480661820344e-01 0.000000000000000e+00 1.390078959961168e-01 7.261831610706000e-01 0.000000000000000e+00 5.625000000000000e-01 6.250000000000000e-01 0.000000000000000e+00 5.014585693307863e-01 7.367466304650486e-01 0.000000000000000e+00 4.139414069912184e-01 6.056325264010037e-01 0.000000000000000e+00 1.875000000005205e-01 1.000000000000000e+00 0.000000000000000e+00 1.271010713601231e-01 8.709480661820344e-01 0.000000000000000e+00 2.798796021293082e-01 8.344274147057053e-01 0.000000000000000e+00 2.499999999996086e-01 3.749999999998043e-01 0.000000000000000e+00 2.645244370067465e-01 5.156353158163987e-01 0.000000000000000e+00 1.492912418697525e-01 4.458279356810638e-01 0.000000000000000e+00 2.645244370067465e-01 5.156353158163987e-01 0.000000000000000e+00 2.758946705068648e-01 6.605885315643570e-01 0.000000000000000e+00 1.392858751591214e-01 5.733980610567744e-01 0.000000000000000e+00 5.625000000000000e-01 6.250000000000000e-01 0.000000000000000e+00 6.250000000000000e-01 7.500000000000000e-01 0.000000000000000e+00 5.014585693307863e-01 7.367466304650486e-01 0.000000000000000e+00 4.139414069912184e-01 6.056325264010037e-01 0.000000000000000e+00 5.014585693307863e-01 7.367466304650486e-01 0.000000000000000e+00 3.813620468049507e-01 7.403859221383123e-01 0.000000000000000e+00 6.875000000000000e-01 8.750000000000000e-01 0.000000000000000e+00 5.677751205718758e-01 8.470224641095303e-01 0.000000000000000e+00 6.250000000000000e-01 7.500000000000000e-01 0.000000000000000e+00 6.250000000000000e-01 7.500000000000000e-01 0.000000000000000e+00 5.677751205718758e-01 8.470224641095303e-01 0.000000000000000e+00 5.014585693307863e-01 7.367466304650486e-01 0.000000000000000e+00 0.000000000000000e+00 6.250000000006939e-01 0.000000000000000e+00 1.392858751591214e-01 5.733980610567744e-01 0.000000000000000e+00 1.390078959961168e-01 7.261831610706000e-01 0.000000000000000e+00 4.139414069912184e-01 6.056325264010037e-01 0.000000000000000e+00 3.813620468049507e-01 7.403859221383123e-01 0.000000000000000e+00 2.758946705068648e-01 6.605885315643570e-01 0.000000000000000e+00 0.000000000000000e+00 8.125000000010408e-01 0.000000000000000e+00 1.390078959961168e-01 7.261831610706000e-01 0.000000000000000e+00 1.271010713601231e-01 8.709480661820344e-01 0.000000000000000e+00 2.645244370067465e-01 5.156353158163987e-01 0.000000000000000e+00 1.392858751591214e-01 5.733980610567744e-01 0.000000000000000e+00 1.492912418697525e-01 4.458279356810638e-01 0.000000000000000e+00 4.492710539671537e-01 8.556512408515589e-01 0.000000000000000e+00 5.014585693307863e-01 7.367466304650486e-01 0.000000000000000e+00 5.677751205718758e-01 8.470224641095303e-01 0.000000000000000e+00 4.492710539671537e-01 8.556512408515589e-01 0.000000000000000e+00 3.813620468049507e-01 7.403859221383123e-01 0.000000000000000e+00 5.014585693307863e-01 7.367466304650486e-01 0.000000000000000e+00 5.698670717843664e-01 3.776209365087199e-01 0.000000000000000e+00 7.182603949284063e-01 3.456402071721618e-01 0.000000000000000e+00 6.323653418237701e-01 5.029675640633227e-01 0.000000000000000e+00 7.533843026232094e-01 4.929444342317560e-01 0.000000000000000e+00 6.323653418237701e-01 5.029675640633227e-01 0.000000000000000e+00 7.182603949284063e-01 3.456402071721618e-01 0.000000000000000e+00 8.578792739151740e-01 7.535325208825020e-01 0.000000000000000e+00 7.125974780784441e-01 6.384669131570183e-01 0.000000000000000e+00 8.612746697781972e-01 5.794807697879764e-01 0.000000000000000e+00 2.500000000000000e-01 -0.000000000000000e+00 0.0000000
[...]
<PointData Scalars="age_conc,U235_conc," Vectors="" Tensors="">
<DataArray type="Float64" Name="age_conc" format="ascii">
-3.449167072656299e+03 3.243907966335206e+04 2.868110035141939e+04 7.252351399750191e+04 6.787153871553113e+04 1.089482911651528e+05 1.044369429041294e+05 1.420550616308253e+05 2.225146817741202e+05 2.095886301295242e+05 2.124683219940852e+05 1.948027726621747e+05 1.987445345314988e+05 1.720384602421389e+05 1.771227444585328e+05 1.356551023193491e+05 1.382209933498697e+05 1.847497579480066e+05 1.790779763299751e+05 2.028733270929476e+05 1.994593744383257e+05 2.154973551971373e+05 2.129410320357038e+05 2.246868822996042e+05 2.559775443892294e+05 2.599246234088012e+05 2.460636661514019e+05 2.563619561613379e+05 1.864736612481778e+05 2.778983267503786e+05 2.499863524835183e+05 2.499519926836088e+05 2.501042613720806e+05 1.607508515732498e+05 -3.487195168856764e+03 2.907978716769465e+04 2.534380535012759e+05 2.472259426175234e+05 2.503209173472218e+05 2.240569124034083e+05 2.557757033900247e+05 2.484838563370999e+05 2.504823740415761e+05 2.496200668835155e+05 2.493607389720455e+05 -3.070696232566999e+03 2.508280367693718e+05 1.424701458014044e+02 2.506450907361091e+05 2.514572351838641e+05 2.482135735577102e+05 6.312369948021478e+02 2.213506421019842e+05 2.330863017874034e+05 2.126773456531257e+03 6.396800471410422e+03 2.689273828959035e+05 2.129908200665652e+05 2.589754918174668e+05 2.501256091880890e+05 3.259986723045923e+04 2.127561517628156e+05 2.028793654927116e+05 1.513938196656710e+05 2.403182571641740e+04 2.135456280246354e+05 1.399938143235360e+05 2.958752225643822e+05 1.863595923559979e+05 2.501456307567124e+05 2.499598763725442e+05 2.497966768558554e+05 2.339174493165323e+03 2.719888989451770e+05 2.199398608755808e+05 2.560174700818688e+05 2.476302409444790e+05 2.499567070257890e+05 3.113000667410726e+03 4.023977156558341e+03 2.367734314082149e+05 2.422633538677350e+05 2.533931598459194e+05 2.420357212866055e+05 2.496848302753224e+05 2.501238127440740e+05 2.499934967842754e+05 2.450193876214451e+05 2.521846129464811e+05 2.502967463232984e+05 2.159546294291657e+05 2.128811606044574e+05 2.585426881381765e+05 2.362005913629371e+05 1.785483453501193e+05 2.714223386385457e+05 1.263653699677748e+05 2.764362026817568e+05 2.927832733933195e+05 6.855916609622283e+03 1.893088372983488e+05 2.524218083512929e+05 2.497443818916689e+05 2.491588249044016e+05 2.502070171815473e+05 2.507962223416733e+05 2.470817783573050e+05 2.488629308336047e+05 1.254694043274747e+05 1.027107476514920e+05 2.976519814451116e+05 2.630233779888743e+05 2.531655026808675e+05 2.315672326917262e+05 1.068653906099172e+05 2.663771555711176e+05 1.071327982335552e+05 1.033627523034900e+05 2.522178470482511e+05 2.779440045584401e+05 2.482525827697361e+05 2.518938913054428e+05 2.490472717264491e+05 2.557701739427089e+05 2.375441227246154e+05 2.479982280699677e+05 2.452067310389010e+05 2.505026388047093e+05 1.931496581538655e+05 2.503410834540060e+05 2.486761655900627e+05 2.501976352149107e+05 1.890026244649099e+05 2.684959715128262e+05 1.995448556721589e+05 1.912721931208279e+05 2.384146072740544e+05 2.597279104295362e+05 2.506057946977410e+05 2.467825955795759e+05 2.475224683326680e+05 2.419093406180107e+05 2.488967454598444e+05 2.475263675904367e+05 2.189908160351625e+05 2.769674871723345e+05 1.878928656023802e+05 2.500036903291165e+05 2.500112943184710e+05 2.499911632005936e+05 2.236603636972714e+05 2.397257069912132e+05 2.538974421927363e+05 2.247792833999211e+05 1.937490546211112e+05 3.290031871285693e+03 2.480746666958744e+05 2.036404038068758e+05 2.534575113458574e+05 2.103052148301583e+05 2.673335353640668e+05 1.824734171754500e+05 2.500785077941336e+05 2.499752559589946e+05 2.494140605679507e+05 2.060243895179297e+05 2.315151983888759e+05 1.763001112343132e+05 -3.401332221185628e+03 1.823017377717948e+05 2.262498471762162e+05 -8.333405481987211e+01 2.491244639858843e+05 1.640278819593482e+03 3.336478507506316e+03 1.139674074695422e+03 2.444027132034796e+05 2.507668937298078e+05 2.463231241996802e+05 2.494794884657074e+05 2.374608909247188e+05 2.489449006976002e+05 2.543392300957802e+05 3.889116547832909e+03 2.324396419198333e+05 1.982913253021058e+05 -2.961850146195497e+03 1.942784139254937e+05 -2.961850146192833e+03 2.570780579844078e+05 2.478996158562169e+05 1.859198678802270e+05 1.113667142191402e+03 2.401458101964098e+05 1.555096173382459e+03 1.928357007987383e+05 2.672125029065291e+05 2.329523991635977e+05 2.499928585952921e+05 2.499863234172250e+05 2.500465552895212e+05 2.760372041775860e+05 1.860110606961061e+05 2.154122349614746e+05 8.741142108663771e+02 1.213706345978975e+02 2.364802532514781e+05 2.499425546958226e+05 2.487948714245238e+05 2.511117623247657e+05 2.435400149967573e+05 2.478674614274349e+05 2.525661473622909e+05 2.504287932290896e+05 2.482635988849734e+05 2.450269451969821e+05 2.043146102561445e+05 2.643405852392729e+05 2.006126163327933e+05 1.972200404748103e+05 2.000997594141868e+05 -1.774766082100419e+03 -1.053157814467356e+03 -3.120345173970234e+01 2.122829430469236e+05 1.914574230088761e+03 2.214232202164692e+05 2.034815627689513e+05 2.395406160378752e+05 1.932160385963696e+05 2.584020178864522e+05 2.763496394019614e+05 2.042272591624375e+03 2.122879952415497e+05 2.499098158715469e+05 2.500539760008484e+05 2.501363508522100e+05 2.514046913769912e+05 2.485538341179079e+05 2.498466361727321e+05 2.133030833792529e+03 2.286736530067004e+05 4.331905571306717e+03 2.475669321530153e+05 2.528876069187497e+05 2.505751381565532e+05 2.498437724174015e+05 2.501608404618059e+05 2.472307688812829e+05 2.443521756255357e+05 2.512241423789201e+05 2.512316591773466e+05 2.298403927427528e+05 2.583160888855188e+05 2.529799031408807e+05 2.498495722242132e+05 2.500759692831114e+05 2.492697518926263e+05 2.455343320402353e+05 2.496867318634119e+05 2.413013216680675e+05 2.479496271407557e+05 2.500786871524235e+05 2.524414446040126e+05 2.013890897896408e+05 2.462662369796096e+05 2.244353733422624e+05 1.844462636484480e+05 2.632998335981818e+05 1.925209713574500e+05 2.500351817425846e+05 2.499641946877612e+05 2.497750194373167e+05 -2.964555757196362e+03 -2.609682880224618e+03 2.028517040754007e+05 2.227533190353432e+03 2.303894854329961e+05 1.908428330730824e+05 1.854231921964978e+05 2.473920361318132e+05 2.529352132891833e+05 2.494305748098537e+05 2.501323976218167e+05 2.497053649456814e+05 2.500071712431543e+05 2.499488637641839e+05 2.500127548259410e+05 2.500391049214579e+05 2.499536583701787e+05 2.498983558563735e+05 2.503780797657797e+05 2.497394849058917e+05 2.499524123666251e+05 -4.608267481051962e+03 1.913603828078461e+05 1.920706768924170e+05 2.504849667108501e+05 2.499832334200741e+05 2.496629457857628e+05 2.151707882162283e+05 1.385255056363977e+05 2.083013517044471e+05 2.130337360390225e+05 2.520556021622152e+05 2.634327947367475e+05 2.256102909891845e+05 2.543703097020728e+05 2.534091470507580e+05 2.258634389433636e+05 2.180426436119067e+05 2.595314222523420e+05 1.872187027439683e+05 1.948734879227826e+05 2.645296094586994e+05 1.992078565613432e+05 1.925499353374295e+05 2.623992049448773e+05 2.518990025173605e+05 2.582217449611111e+05 2.500766361218602e+05 2.150728890481396e+05 2.045066242280141e+05 2.707770540896268e+05 2.006004443291343e+05 2.120096035107452e+05 2.724496348472477e+05 2.001891371890865e+05 2.535561100560651e+05 2.695533282488225e+05 1.960052111640271e+05 2.707129324698652e+05 2.545329823004194e+05 2.148847299597567e+05 2.234868766797487e+05 2.591238104466232e+05 2.158403054658371e+05 2.625454657105335e+05 2.538050997942136e+05 2.081520334957363e+05 2.025994544834894e+05 2.492367670546392e+05 2.496208903005956e+05 2.501438415197185e+05 2.511431460639376e+05 2.497794693255067e+05 2.509483827531811e+05 2.505627634008862e+05 2.548351816946631e+05 2.535588531895243e+05 2.230372978372059e+05 2.507167540928368e+05 2.520349733684082e+05 2.505412773412057e+05 2.510955560182069e+05 2.501417165857835e+05 2.510271375605829e+05 2.508727165494757e+05 2.502664360651937e+05 2.524053594355675e+05 
</DataArray>
<DataArray type="Float64" Name="U235_conc" format="ascii">
8.763508977344573e-01 7.879885755829485e-01 7.736476105765072e-01 6.395957279690655e-01 6.403423751150135e-01 5.044166100245564e-01 5.135788211072126e-01 3.834652351582599e-01 9.316020503740108e-02 1.423439515427386e-01 1.289776087989165e-01 1.950967753066817e-01 1.778457612246320e-01 2.768315865035458e-01 2.580757524166337e-01 4.048175995508198e-01 3.959241697779138e-01 2.290437911896970e-01 2.504413617861255e-01 1.636192527359152e-01 1.778884019405713e-01 1.183138181738586e-01 1.298837090150993e-01 8.569391056973122e-02 -1.173003725929281e-02 -4.123026525739441e-02 5.296030251668722e-02 -3.538655909475040e-02 2.779949289646677e-01 -1.570465274523253e-01 3.831070109121301e-04 2.392287530496631e-04 -6.223357639617931e-04 3.692941784368402e-01 8.671879900033147e-01 7.655130393990360e-01 -1.516224135021521e-02 1.245507583679441e-02 2.707165513420786e-03 8.843895459869636e-02 -4.595996708334552e-02 7.894716426838989e-03 -3.741974640401657e-03 2.418976751435897e-03 4.055520357643692e-03 8.775599430842397e-01 3.772211794072877e-02 8.726986587303274e-01 -3.617254369206305e-03 -1.026818719244471e-02 1.388559169574555e-02 9.252215232781852e-01 9.533571552356861e-02 1.979720953188984e-02 8.839099449211127e-01 8.422335551088788e-01 -3.185919478205229e-02 1.415226211254416e-01 -4.617678397150375e-02 -2.013535182431777e-02 8.190113183693539e-01 1.409779493182774e-01 1.282436724237323e-01 3.547706988500708e-01 7.896269613004950e-01 1.164944860573791e-01 4.521475396858324e-01 -2.389608520282643e-01 2.535279820536799e-01 -9.222106420696387e-04 4.274635688645730e-05 9.488005717736348e-04 8.977633388082082e-01 -1.212823225114832e-01 1.044259510932972e-01 -2.918220947775415e-02 2.722850916995535e-02 1.953700307798805e-03 8.680965684329238e-01 8.412235777029411e-01 1.027417253666687e-01 9.033645818767295e-03 -9.645743587769432e-03 3.072683530974647e-02 6.024675567189532e-03 -3.119766049074661e-03 -4.739032268270098e-04 2.801969743987844e-02 -2.659403420343616e-02 2.908999582627370e-03 9.218305870035794e-02 1.287476144689698e-01 -6.614629439567261e-02 9.600627618165616e-03 2.844213382854417e-01 -1.266634801249406e-01 5.115141747497353e-01 -1.486353003959092e-01 -2.066869396357421e-01 8.823320257705977e-01 2.178216824277099e-01 -3.803580370358257e-02 5.192188828092280e-03 1.044940362744302e-02 -5.708725940805634e-03 -5.526490649808476e-03 1.398198618053287e-02 7.092141383538465e-03 4.733115758807582e-01 5.632992433701915e-01 -2.297353173585641e-01 -5.098659404713760e-02 -4.118911492638980e-02 9.217570897352745e-02 5.059053026287816e-01 -8.905604692089933e-02 5.006540268029204e-01 5.591667929980730e-01 -4.873777057510469e-02 -1.529582193177832e-01 1.472769981013953e-02 -9.888674560866643e-03 -4.719364667503807e-03 -2.776479456755255e-02 5.239515747405680e-02 4.218059924389059e-03 -9.632531462977309e-03 -2.786225781628437e-02 2.254446108309033e-01 -2.942890161214724e-03 8.571567850246422e-03 -1.687257355770317e-03 2.439023249104142e-01 -1.242038784240578e-01 1.532808964718853e-01 2.416144074128926e-01 4.048773483419036e-02 -9.011384863330661e-02 -2.242896655556091e-03 8.929179561301354e-04 1.265725551154195e-02 1.814079382892016e-02 7.754624978926940e-03 -3.633959042268607e-03 8.129931566779673e-02 -1.548255243603460e-01 2.448335953456595e-01 9.597563312365951e-05 -3.477428844345711e-04 2.574602567308734e-04 8.120950801704170e-02 2.815013480312363e-02 -2.752125236492444e-02 6.888548762769292e-02 2.043389269327574e-01 8.927950506236998e-01 -3.706705570962920e-03 1.743382080112039e-01 -3.482738472572089e-02 1.163190641015771e-01 -1.239828759335579e-01 2.586780433715927e-01 -9.259871115936411e-04 1.982334896126900e-03 7.117163967627016e-04 1.310366790161949e-01 2.606465046019795e-02 2.465902651432689e-01 9.107157895919261e-01 2.327192155455934e-01 7.109778873895539e-02 8.818493313462176e-01 4.722443676556738e-02 8.577928558548592e-01 8.476548861379609e-01 8.756920526830367e-01 6.943022911576625e-02 -1.777985263737140e-03 1.122215526411865e-02 1.691817379096789e-03 3.824482141761164e-02 -6.974610237377956e-03 -1.451772535515363e-02 8.972011260421627e-01 3.410288591714528e-02 1.868031393408535e-01 8.664594449013064e-01 2.613406447148646e-01 8.664594449013391e-01 -7.517280675197818e-02 -2.200006746719513e-03 2.637602998672147e-01 8.733627395906920e-01 8.812365796819406e-02 8.516366399859265e-01 2.334656342992013e-01 -1.139266520695189e-01 6.694942615852383e-02 1.994963245699524e-04 -3.131238471414928e-04 2.422401957094414e-04 -1.468833872497223e-01 2.383321385766259e-01 1.062954626940032e-01 8.549634654097454e-01 8.735583252113235e-01 1.013511603932581e-01 3.858404794435175e-04 6.541153089291481e-03 -6.511063063372098e-03 2.317307091867177e-02 -1.714863134743700e-03 -1.131390724139816e-02 -2.789195379517205e-03 3.254760339009227e-03 1.249632163116056e-02 1.533371893223990e-01 -8.890630091625577e-02 1.693845283793606e-01 1.829410205774308e-01 1.802187187024945e-01 8.881039023467493e-01 8.741741500170532e-01 8.538835214694469e-01 1.974619548951957e-01 8.976941578055588e-01 8.246917295244562e-02 1.631824617196049e-01 2.142301520208420e-02 2.188121157976969e-01 -6.604513215324240e-02 -1.376963134983372e-01 8.960422875536851e-01 1.347557485529889e-01 1.471165002153444e-04 -6.082709751375206e-04 4.611544749221763e-04 -7.301890299650830e-03 8.252233348002068e-03 -9.488296724407642e-04 8.695734961433380e-01 1.322140869279596e-01 8.411845482673427e-01 2.126536925667467e-02 -1.293473859379369e-02 -8.330630662880974e-03 1.352939798977774e-03 -1.509195977309994e-03 2.111826929382885e-03 1.957752586425288e-02 -7.197746494532677e-03 -5.145864538818004e-03 9.130686197922697e-02 -6.333237062684034e-02 -1.501273289199172e-02 9.161973483127800e-04 -1.124663384447433e-03 3.236359561619755e-03 9.560296400939347e-03 -2.372358261198484e-03 2.208406280341598e-02 1.384788572605103e-02 1.627186089553113e-03 -1.547507181560413e-02 1.697905470914845e-01 -7.264076551158772e-03 6.838324701341793e-02 2.332445817268481e-01 -9.677307885194607e-02 1.993596826231234e-01 -2.496119432287725e-04 -3.177680935212695e-04 1.369912393811257e-03 8.681721776256320e-01 8.669572818970314e-01 2.279461730443413e-01 8.849319986930719e-01 5.776155474415314e-02 2.075623539484005e-01 2.469193959462682e-01 -7.627763751500732e-03 -4.412581582875207e-02 1.772602686803680e-03 -2.940591943939554e-04 -5.833246772579526e-04 -2.927836322747401e-05 2.635413715138773e-04 -1.650962686641841e-04 -2.897490428772960e-04 2.732632453168647e-04 2.222954493344019e-04 -1.655775240790846e-03 1.183108539714069e-03 4.726667010767752e-04 9.003022778384414e-01 2.074542900190418e-01 2.005829572708797e-01 -1.381744024780117e-03 -8.456503516657502e-04 2.227394376445869e-03 1.097051140190161e-01 4.103755758949860e-01 1.416487198464593e-01 1.530060432916649e-01 -1.351765672562586e-02 -7.234735565113631e-02 9.639540084932340e-02 -2.453480788465900e-02 -1.883914191932873e-02 8.636111423313153e-02 1.242891407566154e-01 -4.797634932248571e-02 2.325489014243291e-01 2.039274433527032e-01 -7.995450771362977e-02 1.878919926828727e-01 2.100866762304716e-01 -6.925848795570673e-02 1.253697500993597e-02 -3.201770299678759e-02 1.948072798685161e-02 1.323200102401082e-01 1.794576547704866e-01 -1.027520447537777e-01 1.954078105839009e-01 1.442528792931125e-01 -1.115760253345129e-01 2.034798511814020e-01 -3.154713711180267e-02 -9.397325567206805e-02 2.212410354517699e-01 -9.987495426841782e-02 -3.651501394466442e-02 1.363312120740243e-01 9.430797083550162e-02 -4.691592477354496e-02 1.414586822920239e-01 -6.678512234755368e-02 -2.069424559752728e-02 1.447511973438538e-01 1.716123956128119e-01 -1.581862437254905e-02 3.403610382163730e-03 4.032691616964615e-03 -7.078635999411683e-03 3.186306739073812e-03 -6.127040445693508e-03 2.940733706619693e-03 -2.557789293616599e-02 -2.120794219537340e-02 1.062887993997295e-01 -2.240762287336581e-03 -4.925101250603622e-03 7.165863537940209e-03 -5.223844951524517e-03 6.632537530388996e-03 -1.408692578864476e-03 1.656648979046727e-03 2.739154362489915e-03 -4.395803341536646e-03 
</DataArray>
</PointData>
</Piece>
</UnstructuredGrid>
</VTKFile>
