<?xml version="1.0"?>
<VTKFile type="UnstructuredGrid" version="0.1" byte_order="LittleEndian">
<UnstructuredGrid>
<Piece NumberOfPoints="69" NumberOfCells="124">
<Points>
<DataArray type="Float64" NumberOfComponents="3" format="ascii">
0.000000000000000e+00 1.000000000000000e+00 0.000000000000000e+00 1.000000000000000e+00 1.000000000000000e+00 0.000000000000000e+00 1.000000000000000e+00 0.000000000000000e+00 0.000000000000000e+00 0.000000000000000e+00 0.000000000000000e+00 0.000000000000000e+00 2.500000000000000e-01 -0.000000000000000e+00 0.000000000000000e+00 0.000000000000000e+00 2.500000000000000e-01 0.000000000000000e+00 5.000000000000000e-01 5.000000000000000e-01 -0.000000000000000e+00 7.500000000000000e-01 1.000000000000000e+00 0.000000000000000e+00 6.875000000000000e-01 8.750000000000000e-01 0.000000000000000e+00 6.250000000000000e-01 7.500000000000000e-01 0.000000000000000e+00 5.625000000000000e-01 6.250000000000000e-01 0.000000000000000e+00 1.249999999997599e-01 3.124999999998800e-01 0.000000000000000e+00 2.499999999996086e-01 3.749999999998043e-01 0.000000000000000e+00 3.749999999997349e-01 4.374999999998674e-01 0.000000000000000e+00 4.375000000000694e-01 3.750000000001388e-01 0.000000000000000e+00 3.750000000002776e-01 2.500000000005551e-01 0.000000000000000e+00 3.125000000002082e-01 1.250000000004163e-01 0.000000000000000e+00 1.000000000000000e+00 8.333333333335646e-01 0.000000000000000e+00 1.000000000000000e+00 6.666666666673605e-01 0.000000000000000e+00 1.000000000000000e+00 5.000000000013877e-01 0.000000000000000e+00 1.000000000000000e+00 3.333333333344898e-01 0.000000000000000e+00 1.000000000000000e+00 1.666666666673605e-01 0.000000000000000e+00 8.750000000000000e-01 1.000000000000000e+00 0.000000000000000e+00 5.625000000008674e-01 1.000000000000000e+00 0.000000000000000e+00 3.750000000006939e-01 1.000000000000000e+00 0.000000000000000e+00 1.875000000005205e-01 1.000000000000000e+00 0.000000000000000e+00 0.000000000000000e+00 8.125000000010408e-01 0.000000000000000e+00 0.000000000000000e+00 6.250000000006939e-01 0.000000000000000e+00 0.000000000000000e+00 4.375000000003469e-01 0.000000000000000e+00 0.000000000000000e+00 1.250000000003469e-01 0.000000000000000e+00 1.249999999997554e-01 0.000000000000000e+00 0.000000000000000e+00 4.374999999991326e-01 0.000000000000000e+00 0.000000000000000e+00 6.249999999989591e-01 0.000000000000000e+00 0.000000000000000e+00 8.124999999994795e-01 0.000000000000000e+00 0.000000000000000e+00 2.798796021293082e-01 8.344274147057053e-01 0.000000000000000e+00 2.645244370067465e-01 5.156353158163987e-01 0.000000000000000e+00 4.139414069912184e-01 6.056325264010037e-01 0.000000000000000e+00 4.492710539671537e-01 8.556512408515589e-01 0.000000000000000e+00 2.758946705068648e-01 6.605885315643570e-01 0.000000000000000e+00 1.390078959961168e-01 7.261831610706000e-01 0.000000000000000e+00 1.492912418697525e-01 4.458279356810638e-01 0.000000000000000e+00 5.014585693307863e-01 7.367466304650486e-01 0.000000000000000e+00 1.392858751591214e-01 5.733980610567744e-01 0.000000000000000e+00 3.813620468049507e-01 7.403859221383123e-01 0.000000000000000e+00 1.271010713601231e-01 8.709480661820344e-01 0.000000000000000e+00 5.677751205718758e-01 8.470224641095303e-01 0.000000000000000e+00 5.698670717843664e-01 3.776209365087199e-01 0.000000000000000e+00 7.125974780784441e-01 6.384669131570183e-01 0.000000000000000e+00 8.608728669021763e-01 2.520652359795942e-01 0.000000000000000e+00 8.578792739151740e-01 7.535325208825020e-01 0.000000000000000e+00 5.447576766858295e-01 1.431838882066932e-01 0.000000000000000e+00 7.150899340618379e-01 1.571595685477760e-01 0.000000000000000e+00 8.612746697781972e-01 5.794807697879764e-01 0.000000000000000e+00 7.533843026232094e-01 4.929444342317560e-01 0.000000000000000e+00 8.055298449100090e-01 8.871112287212741e-01 0.000000000000000e+00 8.656940847709105e-01 4.098367391676661e-01 0.000000000000000e+00 7.182603949284063e-01 3.456402071721618e-01 0.000000000000000e+00 6.323653418237701e-01 5.029675640633227e-01 0.000000000000000e+00 6.110846258508276e-01 2.575059958234323e-01 0.000000000000000e+00 4.945749328930023e-01 2.625170377655549e-01 0.000000000000000e+00 7.385779517043357e-01 7.773678856428465e-01 0.000000000000000e+00 8.769890164881212e-01 1.160638338657984e-01 0.000000000000000e+00 9.063795342218008e-01 9.020858332805730e-01 0.000000000000000e+00 4.287911518546233e-01 1.545544542796670e-01 0.000000000000000e+00 2.403886547178353e-01 2.418881479267384e-01 0.000000000000000e+00 1.840276181286450e-01 1.117324051466445e-01 0.000000000000000e+00 3.381944444444832e-01 3.381944444445634e-01 0.000000000000000e+00 1.008171452988615e-01 1.888570369725047e-01 0.000000000000000e+00 8.435242216391163e-02 8.645171265626619e-02 0.000000000000000e+00 
</DataArray>
</Points>
<Cells>
<DataArray type="Int32" Name="connectivity" format="ascii">
7 8 8 9 9 10 10 6 5 11 11 12 12 13 13 6 6 14 14 15 15 16 16 4 13 36 35 13 6 36 5 11 28 8 7 23 36 38 35 34 39 38 28 40 42 24 37 23 28 42 27 24 34 37 24 25 34 34 38 43 23 37 45 8 23 45 10 36 6 28 11 40 0 26 44 13 35 12 25 0 44 26 27 39 12 40 11 38 39 42 37 34 43 34 44 39 10 41 36 25 44 34 12 35 40 35 38 42 10 9 41 36 41 43 8 45 9 9 45 41 27 42 39 36 43 38 26 39 44 35 42 40 37 41 45 37 43 41 46 56 57 53 57 56 49 47 52 4 31 16 49 60 47 52 55 19 51 48 56 52 53 55 31 32 50 54 49 62 17 62 49 17 49 18 21 20 48 32 51 50 33 51 32 18 49 52 1 62 17 53 56 55 18 52 19 52 47 53 16 31 63 51 61 48 20 19 55 14 46 6 51 56 58 10 47 9 55 56 48 8 54 7 22 7 54 20 55 48 33 61 51 33 2 61 31 50 63 6 46 57 21 61 2 10 57 47 46 58 56 51 58 50 53 47 57 14 59 46 9 47 60 10 6 57 54 60 49 8 60 54 15 59 14 1 22 62 21 48 61 8 9 60 46 59 58 16 63 15 15 63 59 50 59 63 22 54 62 50 58 59 14 6 13 11 67 64 4 65 30 4 16 65 13 12 66 15 14 66 65 64 67 16 15 64 12 11 64 15 66 64 12 64 66 11 5 67 16 64 65 14 13 66 3 68 29 3 30 68 29 67 5 30 65 68 29 68 67 67 68 65 
</DataArray>
<DataArray type="Int32" Name="offsets" format="ascii">
2 4 6 8 10 12 14 16 18 20 22 24 27 30 33 36 39 42 45 48 51 54 57 60 63 66 69 72 75 78 81 84 87 90 93 96 99 102 105 108 111 114 117 120 123 126 129 132 135 138 141 144 147 150 153 156 159 162 165 168 171 174 177 180 183 186 189 192 195 198 201 204 207 210 213 216 219 222 225 228 231 234 237 240 243 246 249 252 255 258 261 264 267 270 273 276 279 282 285 288 291 294 297 300 303 306 309 312 315 318 321 324 327 330 333 336 339 342 345 348 351 354 357 360 
</DataArray>
<DataArray type="UInt8" Name="types" format="ascii">
3 3 3 3 3 3 3 3 3 3 3 3 5 5 5 5 5 5 5 5 5 5 5 5 5 5 5 5 5 5 5 5 5 5 5 5 5 5 5 5 5 5 5 5 5 5 5 5 5 5 5 5 5 5 5 5 5 5 5 5 5 5 5 5 5 5 5 5 5 5 5 5 5 5 5 5 5 5 5 5 5 5 5 5 5 5 5 5 5 5 5 5 5 5 5 5 5 5 5 5 5 5 5 5 5 5 5 5 5 5 5 5 5 5 5 5 5 5 5 5 5 5 5 5 
</DataArray>
</Cells>
<CellData Scalars="porosity,age_conc,U235_conc," Vectors="" Tensors="">
<DataArray type="Float64" Name="porosity" format="ascii">
2.500000000000000e-01 2.500000000000000e-01 2.500000000000000e-01 2.500000000000000e-01 2.500000000000000e-01 2.500000000000000e-01 2.500000000000000e-01 2.500000000000000e-01 2.500000000000000e-01 2.500000000000000e-01 2.500000000000000e-01 2.500000000000000e-01 2.500000000000000e-01 2.500000000000000e-01 2.500000000000000e-01 2.500000000000000e-01 2.500000000000000e-01 2.500000000000000e-01 2.500000000000000e-01 2.500000000000000e-01 2.500000000000000e-01 2.500000000000000e-01 2.500000000000000e-01 2.500000000000000e-01 2.500000000000000e-01 2.500000000000000e-01 2.500000000000000e-01 2.500000000000000e-01 2.500000000000000e-01 2.500000000000000e-01 2.500000000000000e-01 2.500000000000000e-01 2.500000000000000e-01 2.500000000000000e-01 2.500000000000000e-01 2.500000000000000e-01 2.500000000000000e-01 2.500000000000000e-01 2.500000000000000e-01 2.500000000000000e-01 2.500000000000000e-01 2.500000000000000e-01 2.500000000000000e-01 2.500000000000000e-01 2.500000000000000e-01 2.500000000000000e-01 2.500000000000000e-01 2.500000000000000e-01 2.500000000000000e-01 2.500000000000000e-01 2.500000000000000e-01 2.500000000000000e-01 2.500000000000000e-01 2.500000000000000e-01 2.500000000000000e-01 2.500000000000000e-01 2.500000000000000e-01 2.500000000000000e-01 2.500000000000000e-01 2.500000000000000e-01 2.500000000000000e-01 2.500000000000000e-01 2.500000000000000e-01 2.500000000000000e-01 2.500000000000000e-01 2.500000000000000e-01 2.500000000000000e-01 2.500000000000000e-01 2.500000000000000e-01 2.500000000000000e-01 2.500000000000000e-01 2.500000000000000e-01 2.500000000000000e-01 2.500000000000000e-01 2.500000000000000e-01 2.500000000000000e-01 2.500000000000000e-01 2.500000000000000e-01 2.500000000000000e-01 2.500000000000000e-01 2.500000000000000e-01 2.500000000000000e-01 2.500000000000000e-01 2.500000000000000e-01 2.500000000000000e-01 2.500000000000000e-01 2.500000000000000e-01 2.500000000000000e-01 2.500000000000000e-01 2.500000000000000e-01 2.500000000000000e-01 2.500000000000000e-01 2.500000000000000e-01 2.500000000000000e-01 2.500000000000000e-01 2.500000000000000e-01 2.500000000000000e-01 2.500000000000000e-01 2.500000000000000e-01 2.500000000000000e-01 2.500000000000000e-01 2.500000000000000e-01 2.500000000000000e-01 2.500000000000000e-01 2.500000000000000e-01 2.500000000000000e-01 2.500000000000000e-01 2.500000000000000e-01 2.500000000000000e-01 2.500000000000000e-01 2.500000000000000e-01 2.500000000000000e-01 2.500000000000000e-01 2.500000000000000e-01 2.500000000000000e-01 2.500000000000000e-01 2.500000000000000e-01 2.500000000000000e-01 2.500000000000000e-01 2.500000000000000e-01 2.500000000000000e-01 2.500000000000000e-01 2.500000000000000e-01 2.500000000000000e-01 
</DataArray>
<DataArray type="Float64" Name="age_conc" format="ascii">
9.999211396793517e-01 9.998391088234633e-01 9.997476271693957e-01 9.996045303757835e-01 9.978598635318416e-01 9.983886920179561e-01 9.989751095650841e-01 9.993770898663537e-01 9.990968663850448e-01 9.982660709689217e-01 9.972222291758110e-01 9.964160430944752e-01 9.619824583152394e-01 9.831959107168461e-01 7.756392534553915e-01 9.996003484171407e-01 9.903859215552726e-01 9.960544404267033e-01 9.237753117873779e-01 9.994218688109420e-01 9.636169133450838e-01 9.988330958465654e-01 9.991471410225955e-01 9.975779169928842e-01 9.987115890969189e-01 9.992859087273456e-01 9.942174069331233e-01 8.392649959783679e-01 9.986500388439661e-01 9.303191205104991e-01 9.991781751227007e-01 9.957992242454977e-01 8.407253942486610e-01 9.931185209166490e-01 9.982040943195574e-01 9.979705625750238e-01 9.967869047027118e-01 9.986941275442639e-01 8.967316458023267e-01 9.813586218017609e-01 9.978773113867685e-01 9.967161277589335e-01 9.988364904747598e-01 9.983997267127327e-01 9.873539408906378e-01 9.954131824067365e-01 9.975177449514305e-01 9.672258005396954e-01 9.982629368885049e-01 9.977631717813022e-01 9.781738786115670e-01 9.868919475173213e-01 9.966353533016347e-01 6.434270451157236e-01 9.970336658082221e-01 9.980519590830891e-01 9.861679650659750e-01 9.957806386703469e-01 8.957806456973363e-01 9.985231982230900e-01 9.989247172548641e-01 9.990735019980637e-01 9.984801188618599e-01 9.352171107225089e-01 9.790286365596204e-01 9.984469178945505e-01 9.994932929069718e-01 9.926936326788731e-01 9.988759511362852e-01 9.947695117853808e-01 7.191766676690126e-01 9.902037523787617e-01 9.987039966379044e-01 9.326413590554865e-01 9.709134389738348e-01 9.929096437612259e-01 9.926877959096962e-01 9.984315199775107e-01 9.990819532782045e-01 9.977061272309748e-01 9.876823066350510e-01 9.977912451589324e-01 8.175383708916207e-01 9.588336061476526e-01 9.986264665187863e-01 9.855360664032015e-01 9.646173292646356e-01 9.553780019778442e-01 9.906244562330764e-01 8.933617504604670e-01 9.956738963394294e-01 9.749442567167296e-01 9.980244091136141e-01 9.977207298933158e-01 8.418657502415317e-01 9.994770497729992e-01 9.977107893397819e-01 9.966835994003188e-01 9.428382367528984e-01 7.127914089523872e-01 7.875642624219366e-01 8.842327094737659e-01 9.990396770848106e-01 9.185636274384736e-01 9.972606864496789e-01 8.724301270828752e-01 6.837409147956147e-01 7.935848827855521e-01 9.912409179873510e-01 9.906459015847792e-01 7.665202850098538e-01 9.379810100884393e-01 9.400022513527796e-01 9.686712205799108e-01 9.698468168672858e-01 7.960554029586309e-01 8.714273444366015e-01 9.948991043664830e-01 5.671405175869340e-01 5.540425936731090e-01 6.988789334325383e-01 6.247434571178054e-01 6.362949829409557e-01 6.848856829812602e-01 
</DataArray>
<DataArray type="Float64" Name="U235_conc" format="ascii">
9.999210323601323e-01 9.998389951309530e-01 9.997480429862649e-01 9.996085290721797e-01 9.979016054467298e-01 9.984208317382379e-01 9.989935737180269e-01 9.993848926660454e-01 9.991177090210906e-01 9.983098080713209e-01 9.972845353122756e-01 9.964877193062107e-01 9.637949594209910e-01 9.840437114388495e-01 7.811491969574131e-01 9.995998011459961e-01 9.908613274928245e-01 9.961624285279966e-01 9.270981945624033e-01 9.994211688701826e-01 9.653307769167865e-01 9.988327080527549e-01 9.991480652134282e-01 9.975987575410183e-01 9.987104867076817e-01 9.992849520821946e-01 9.944288529299479e-01 8.441911868637454e-01 9.986585005425478e-01 9.332840313092945e-01 9.991809542747319e-01 9.959297740790511e-01 8.456913081209843e-01 9.934151824733970e-01 9.982089283861736e-01 9.979896339402584e-01 9.968326721612244e-01 9.986977134022115e-01 9.006405350625879e-01 9.823718269683930e-01 9.978781816703782e-01 9.967674437774319e-01 9.988350205484141e-01 9.983980246316804e-01 9.880053868405489e-01 9.955510433214918e-01 9.975554614129105e-01 9.689852495286941e-01 9.982628523981496e-01 9.977685011726389e-01 9.793307015092605e-01 9.875691460169729e-01 9.967199262621717e-01 6.486143355209986e-01 9.970740481161947e-01 9.980845322491054e-01 9.868138934184386e-01 9.959319323785140e-01 8.991514338712929e-01 9.985225072219102e-01 9.989237493439500e-01 9.990735663522651e-01 9.985180480789912e-01 9.376915945970639e-01 9.798615590388454e-01 9.984528734275704e-01 9.994926195776219e-01 9.930216324570076e-01 9.988849586661962e-01 9.949663944560008e-01 7.249319566658841e-01 9.906163812811299e-01 9.987293021070665e-01 9.359140495917588e-01 9.722671383927790e-01 9.932264358568299e-01 9.930126447030754e-01 9.984370442067494e-01 9.990817034299315e-01 9.977657495295629e-01 9.881894537478385e-01 9.978445720766862e-01 8.228683886764696e-01 9.610293125280538e-01 9.986585102555188e-01 9.863264671309944e-01 9.664374602338313e-01 9.573230599373862e-01 9.910813927911997e-01 8.978152525374516e-01 9.958010281874867e-01 9.763537612181639e-01 9.980272116768928e-01 9.977421397918040e-01 8.473780370006765e-01 9.994763620512158e-01 9.977721635590304e-01 9.967551280847810e-01 9.455583553171669e-01 7.189555539290040e-01 7.936313602631812e-01 8.886255076817283e-01 9.990385169580784e-01 9.220432069039619e-01 9.973169617784812e-01 8.749583554725031e-01 6.856266922961975e-01 7.959399521985715e-01 9.915232423787936e-01 9.909385718740807e-01 7.694706674955155e-01 9.395885459740569e-01 9.415970709938009e-01 9.696559705872555e-01 9.708220533951256e-01 7.983328876625335e-01 8.739470575858241e-01 9.950290981199772e-01 5.683548897047359e-01 5.551593959303189e-01 7.006872852172488e-01 6.265801157250344e-01 6.381747147968762e-01 6.876889955909575e-01 
</DataArray>
</CellData>
</Piece>
</UnstructuredGrid>
</VTKFile>
