<?xml version="1.0"?>
<VTKFile type="UnstructuredGrid" version="0.1" byte_order="LittleEndian">
<UnstructuredGrid>
<Piece NumberOfPoints="3240" NumberOfCells="1080">
<Points>
<DataArray type="Float64" NumberOfComponents="3" format="ascii">
2.179690854119185e-02 1.185794897852074e-01 0.000000000000000e+00 0.000000000000000e+00 1.111111111109777e-01 0.000000000000000e+00 0.000000000000000e+00 1.333333333332549e-01 0.000000000000000e+00 9.788431651098607e-01 8.049154383573708e-02 0.000000000000000e+00 1.000000000000000e+00 8.888888888903346e-02 0.000000000000000e+00 1.000000000000000e+00 6.666666666675342e-02 0.000000000000000e+00 9.619095609780270e-01 1.469647442901770e-01 0.000000000000000e+00 9.561458207326632e-01 1.229301525610412e-01 0.000000000000000e+00 9.446844990568195e-01 1.365972544162028e-01 0.000000000000000e+00 9.561458207326632e-01 1.229301525610412e-01 0.000000000000000e+00 9.619095609780270e-01 1.469647442901770e-01 0.000000000000000e+00 9.753425766502124e-01 1.329145145357886e-01 0.000000000000000e+00 3.828765699483880e-02 5.304505000823728e-02 0.000000000000000e+00 4.409363782274157e-02 7.706114571179593e-02 0.000000000000000e+00 5.559994773146819e-02 6.339045909604388e-02 0.000000000000000e+00 4.409363782274157e-02 7.706114571179593e-02 0.000000000000000e+00 3.828765699483880e-02 5.304505000823728e-02 0.000000000000000e+00 2.477335597731323e-02 6.708142153103731e-02 0.000000000000000e+00 9.550725189111069e-01 4.829411318820009e-02 0.000000000000000e+00 9.789099483921270e-01 5.208622344314002e-02 0.000000000000000e+00 9.679759360039387e-01 3.254350244928760e-02 0.000000000000000e+00 9.852025569480262e-01 3.297143324608116e-02 0.000000000000000e+00 9.679759360039387e-01 3.254350244928760e-02 0.000000000000000e+00 9.789099483921270e-01 5.208622344314002e-02 0.000000000000000e+00 1.000000000000000e+00 4.444444444448301e-02 0.000000000000000e+00 9.852025569480262e-01 3.297143324608116e-02 0.000000000000000e+00 9.789099483921270e-01 5.208622344314002e-02 0.000000000000000e+00 2.085901357486063e-02 3.347530932066585e-02 0.000000000000000e+00 0.000000000000000e+00 2.222222222217273e-02 0.000000000000000e+00 0.000000000000000e+00 4.444444444434547e-02 0.000000000000000e+00 1.000000000000000e+00 2.222222222224152e-02 0.000000000000000e+00 9.852025569480262e-01 3.297143324608116e-02 0.000000000000000e+00 1.000000000000000e+00 4.444444444448301e-02 0.000000000000000e+00 9.792123917142351e-01 1.665277592732634e-01 0.000000000000000e+00 1.000000000000000e+00 1.777777777778356e-01 0.000000000000000e+00 1.000000000000000e+00 1.555555555556712e-01 0.000000000000000e+00 2.085901357486063e-02 3.347530932066585e-02 0.000000000000000e+00 3.828765699483880e-02 5.304505000823728e-02 0.000000000000000e+00 4.395097424174637e-02 3.288070253644709e-02 0.000000000000000e+00 9.792123917142351e-01 1.665277592732634e-01 0.000000000000000e+00 9.619095609780270e-01 1.469647442901770e-01 0.000000000000000e+00 9.562058539142814e-01 1.671301644007421e-01 0.000000000000000e+00 2.073418664683830e-02 8.645182449452284e-02 0.000000000000000e+00 4.409363782274157e-02 7.706114571179593e-02 0.000000000000000e+00 2.477335597731323e-02 6.708142153103731e-02 0.000000000000000e+00 9.793636967455461e-01 1.135425195315997e-01 0.000000000000000e+00 9.561458207326632e-01 1.229301525610412e-01 0.000000000000000e+00 9.753425766502124e-01 1.329145145357886e-01 0.000000000000000e+00 9.789099483921270e-01 5.208622344314002e-02 0.000000000000000e+00 1.000000000000000e+00 6.666666666675342e-02 0.000000000000000e+00 1.000000000000000e+00 4.444444444448301e-02 0.000000000000000e+00 1.000000000000000e+00 6.666666666675342e-02 0.000000000000000e+00 9.789099483921270e-01 5.208622344314002e-02 0.000000000000000e+00 9.788431651098607e-01 8.049154383573708e-02 0.000000000000000e+00 1.035551545049920e-01 3.618647793308308e-02 0.000000000000000e+00 9.618914270776220e-02 5.697243691702588e-02 0.000000000000000e+00 1.211119433954548e-01 4.844499445275665e-02 0.000000000000000e+00 2.070317797483978e-01 1.178091145093580e-01 0.000000000000000e+00 2.168388896782212e-01 1.000000000000000e-01 0.000000000000000e+00 1.972011010366781e-01 1.002115461984506e-01 0.000000000000000e+00 2.168388896782212e-01 1.000000000000000e-01 0.000000000000000e+00 2.021483297087887e-01 7.699474322060029e-02 0.000000000000000e+00 1.972011010366781e-01 1.002115461984506e-01 0.000000000000000e+00 6.325759310354312e-01 7.026396842973263e-02 0.000000000000000e+00 6.356681316088502e-01 4.619464755185967e-02 0.000000000000000e+00 6.137135296600879e-01 5.923923478665676e-02 0.000000000000000e+00 6.356697321454025e-01 1.538055969815540e-01 0.000000000000000e+00 6.328111874952534e-01 1.256166141791064e-01 0.000000000000000e+00 6.133213345751599e-01 1.416284482082639e-01 0.000000000000000e+00 3.676342218244493e-01 1.360641150748462e-01 0.000000000000000e+00 3.674443000888042e-01 1.527014440714697e-01 0.000000000000000e+00 3.893259863673771e-01 1.421635684244698e-01 0.000000000000000e+00 3.674465843820001e-01 4.713905381424529e-02 0.000000000000000e+00 3.676342217843908e-01 6.393588484626157e-02 0.000000000000000e+00 3.894837065875830e-01 5.924533576931833e-02 0.000000000000000e+00 5.102457943773800e-01 5.260948399200950e-02 0.000000000000000e+00 5.085295751046749e-01 2.540532046752223e-02 0.000000000000000e+00 4.894597309299598e-01 3.655092592592592e-02 0.000000000000000e+00 5.085295751029876e-01 1.745946795324778e-01 0.000000000000000e+00 5.102457943763188e-01 1.473905160079905e-01 0.000000000000000e+00 4.894597309285084e-01 1.634490740740741e-01 0.000000000000000e+00 4.741267444728235e-01 1.543553225584215e-01 0.000000000000000e+00 4.684063266565393e-01 1.750187005880394e-01 0.000000000000000e+00 4.894597309285084e-01 1.634490740740741e-01 0.000000000000000e+00 4.684063266582298e-01 2.498129941196055e-02 0.000000000000000e+00 4.741267444740512e-01 4.564467744157848e-02 0.000000000000000e+00 4.894597309299598e-01 3.655092592592592e-02 0.000000000000000e+00 1.183733259857045e-01 7.116885251089573e-02 0.000000000000000e+00 1.211119433954548e-01 4.844499445275665e-02 0.000000000000000e+00 9.618914270776220e-02 5.697243691702588e-02 0.000000000000000e+00 9.352850814676027e-01 4.287915471819994e-02 0.000000000000000e+00 9.435310768418372e-01 6.246374006343971e-02 0.000000000000000e+00 9.550725189111069e-01 4.829411318820009e-02 0.000000000000000e+00 7.942139693228059e-02 3.754246087862223e-02 0.000000000000000e+00 9.618914270776220e-02 5.697243691702588e-02 0.000000000000000e+00 1.035551545049920e-01 3.618647793308308e-02 0.000000000000000e+00 1.020569493188440e-01 1.521532026904773e-01 0.000000000000000e+00 8.277531846929394e-02 1.659099040050232e-01 0.000000000000000e+00 1.059561196782290e-01 1.726640099290462e-01 0.000000000000000e+00 4.881435964943197e-01 5.744412919386780e-02 0.000000000000000e+00 5.102457943773800e-01 5.260948399200950e-02 0.000000000000000e+00 4.894597309299598e-01 3.655092592592592e-02 0.000000000000000e+00 4.741267444740512e-01 4.564467744157848e-02 0.000000000000000e+00 4.881435964943197e-01 5.744412919386780e-02 0.000000000000000e+00 4.894597309299598e-01 3.655092592592592e-02 0.000000000000000e+00 5.102457943763188e-01 1.473905160079905e-01 0.000000000000000e+00 4.881435964933576e-01 1.425558708061322e-01 0.000000000000000e+00 4.894597309285084e-01 1.634490740740741e-01 0.000000000000000e+00 4.881435964933576e-01 1.425558708061322e-01 0.000000000000000e+00 4.741267444728235e-01 1.543553225584215e-01 0.000000000000000e+00 4.894597309285084e-01 1.634490740740741e-01 0.000000000000000e+00 9.202742311744310e-01 6.304724904173428e-02 0.000000000000000e+00 9.435310768418372e-01 6.246374006343971e-02 0.000000000000000e+00 9.352850814676027e-01 4.287915471819994e-02 0.000000000000000e+00 9.311369351563222e-01 1.216872542520513e-01 0.000000000000000e+00 9.446844990568195e-01 1.365972544162028e-01 0.000000000000000e+00 9.561458207326632e-01 1.229301525610412e-01 0.000000000000000e+00 9.440822297766122e-01 1.044866432311947e-01 0.000000000000000e+00 9.311369351563222e-01 1.216872542520513e-01 0.000000000000000e+00 9.561458207326632e-01 1.229301525610412e-01 0.000000000000000e+00 6.942865083870305e-02 7.810901213359711e-02 0.000000000000000e+00 5.559994773146819e-02 6.339045909604388e-02 0.000000000000000e+00 4.409363782274157e-02 7.706114571179593e-02 0.000000000000000e+00 5.587596540385175e-02 9.544964978545428e-02 0.000000000000000e+00 6.942865083870305e-02 7.810901213359711e-02 0.000000000000000e+00 4.409363782274157e-02 7.706114571179593e-02 0.000000000000000e+00 9.383149197178707e-01 8.083033390936589e-02 0.000000000000000e+00 9.440822297766122e-01 1.044866432311947e-01 0.000000000000000e+00 9.564339645724994e-01 8.784519757399348e-02 0.000000000000000e+00 6.437537668157559e-02 1.198167832100239e-01 0.000000000000000e+00 5.587596540385175e-02 9.544964978545428e-02 0.000000000000000e+00 4.380144473816400e-02 1.121383540808015e-01 0.000000000000000e+00 5.997194079032258e-02 4.512095697672458e-02 0.000000000000000e+00 4.395097424174637e-02 3.288070253644709e-02 0.000000000000000e+00 3.828765699483880e-02 5.304505000823728e-02 0.000000000000000e+00 5.559994773146819e-02 6.339045909604388e-02 0.000000000000000e+00 5.997194079032258e-02 4.512095697672458e-02 0.000000000000000e+00 3.828765699483880e-02 5.304505000823728e-02 0.000000000000000e+00 9.404756991568505e-01 1.549621963185481e-01 0.000000000000000e+00 9.562058539142814e-01 1.671301644007421e-01 0.000000000000000e+00 9.619095609780270e-01 1.469647442901770e-01 0.000000000000000e+00 9.446844990568195e-01 1.365972544162028e-01 0.000000000000000e+00 9.404756991568505e-01 1.549621963185481e-01 0.000000000000000e+00 9.619095609780270e-01 1.469647442901770e-01 0.000000000000000e+00 9.105972683830624e-01 1.544218397638132e-01 0.000000000000000e+00 8.927034528382922e-01 1.455120327258070e-01 0.000000000000000e+00 8.960075181349753e-01 1.728216891542547e-01 0.000000000000000e+00 7.412240007220265e-02 5.848278876839397e-02 0.000000000000
[...]
<PointData Scalars="A_conc," Vectors="" Tensors="">
<DataArray type="Float64" Name="A_conc" format="ascii">
2.234493879839512e+00 2.035285548081638e+00 2.035128328334519e+00 7.284481396581786e+00 5.070570799776175e-01 5.070570799776309e-01 1.060570944796183e+01 1.148520450176017e+01 1.286419766812796e+01 1.146395151526368e+01 1.049629960408328e+01 8.140833904135746e+00 2.400608651280729e+00 2.459860586601375e+00 2.578712901178671e+00 2.458819640121147e+00 2.400289088203488e+00 2.266100724482441e+00 1.166145928413251e+01 7.368770919888634e+00 9.411131264863988e+00 5.385767726010983e+00 9.398905983761031e+00 7.077874784733073e+00 7.191537269634956e-01 5.195563563005417e+00 7.051947876125649e+00 2.225921715437868e+00 2.035460082438606e+00 2.035186503715126e+00 2.607060115709939e-01 5.338918784235147e+00 2.607060115714516e-01 7.177080460036182e+00 4.909380327078299e-01 4.909380327078384e-01 2.228477883912653e+00 2.399985883733156e+00 2.457147085677664e+00 7.431318325477259e+00 1.050837128789438e+01 1.145414436952754e+01 2.228041526166213e+00 2.456271973168052e+00 2.266565648951039e+00 7.150691710705309e+00 1.161127823067156e+01 7.988119881171245e+00 7.265105563616391e+00 5.041259976770002e-01 5.041259976778610e-01 9.722114082469209e-01 7.014763856712624e+00 7.032538752652742e+00 3.122329352605515e+00 3.034735701731070e+00 3.333260590550428e+00 4.479973108301659e+00 4.617249875691011e+00 4.342887280366158e+00 4.617038297428921e+00 4.411736968848984e+00 4.342942361772478e+00 8.288322591815927e+00 8.306274167672836e+00 8.191707321187002e+00 8.306508161477900e+00 8.290005146090969e+00 8.190208098522328e+00 6.662653472628564e+00 6.660133765555626e+00 6.913974074064635e+00 6.660374942565869e+00 6.662894682970665e+00 6.915869673414887e+00 7.832393162781035e+00 7.823866707782225e+00 7.729339705165728e+00 7.824218071443373e+00 7.832395239420493e+00 7.729563844153448e+00 7.638278058871134e+00 7.601716495058332e+00 7.732498421409763e+00 7.601441135135976e+00 7.638069747701237e+00 7.732092403452723e+00 3.301395093296927e+00 3.334787830507789e+00 3.033692352148933e+00 1.363649722394392e+01 1.297565591069592e+01 1.178489897991976e+01 2.840955379070937e+00 3.034217282115379e+00 3.120630841438197e+00 3.103882557781020e+00 2.878729497814468e+00 3.149770884458675e+00 7.721114602262608e+00 7.836630794647220e+00 7.727571809096645e+00 7.639094799945648e+00 7.721951868895049e+00 7.728661782999268e+00 7.836563914952744e+00 7.720823033900484e+00 7.727889498668469e+00 7.721657632142971e+00 7.639149541776420e+00 7.728982096306868e+00 1.451602893275916e+01 1.313182807189619e+01 1.366706597716613e+01 1.397611469552828e+01 1.287073658210916e+01 1.173120661948908e+01 1.289959267314905e+01 1.397600024410501e+01 1.172102782391086e+01 2.727127975279190e+00 2.579843871229877e+00 2.459634796580479e+00 2.582894181331263e+00 2.727204001176470e+00 2.459809071659461e+00 1.342246326968020e+01 1.283889929918796e+01 1.157667586267062e+01 2.673256202736014e+00 2.583138603660945e+00 2.456675773108217e+00 2.624323054672765e+00 2.458762079145824e+00 2.400647693341571e+00 2.579634557382878e+00 2.625632402263085e+00 2.399864301093374e+00 1.330466423179181e+01 1.150506249755983e+01 1.067000838808545e+01 1.279114917633806e+01 1.320255993965707e+01 1.085074595800545e+01 1.480696511421256e+01 1.479426475475772e+01 1.483252728993415e+01 2.781838115140946e+00 3.032149318278642e+00 2.841543881597179e+00 1.470293650193819e+01 1.430600769280414e+01 1.474987534350427e+01 1.422176693540436e+01 1.475561415998739e+01 1.425606517074305e+01 2.865300593624043e+00 2.767832005518606e+00 2.640539191400177e+00 1.148813559849967e+01 9.787586841576521e+00 1.290049126241630e+01 9.787821676503569e+00 1.143594781846925e+01 1.286369316034271e+01 2.459744956238331e+00 2.344724689422618e+00 2.580837484700517e+00 2.344792637195122e+00 2.456723942270588e+00 2.581326799859839e+00 1.157575078589733e+01 1.115280587449799e+01 7.603730388553253e+00 1.130884875386470e+01 7.205618761892785e+00 7.189757604734188e+00 7.572438257194782e+00 7.686434339885011e+00 7.668202775520299e+00 7.788213483715221e+00 7.721758461948438e+00 7.833587386052780e+00 7.790936281635006e+00 7.684604975961165e+00 7.721358782972607e+00 7.686522340956393e+00 7.572486573713574e+00 7.668192248783932e+00 7.722111442576193e+00 7.788611776073448e+00 7.833882917600577e+00 7.685010261843876e+00 7.791358982556479e+00 7.721734145381885e+00 2.855032297584839e+00 2.879733436398873e+00 3.101747876073456e+00 2.673993424732016e+00 2.878882927923388e+00 2.854446436356993e+00 1.454962366546481e+01 1.465224937759986e+01 1.486795083540850e+01 1.381131251189283e+01 1.462838222928939e+01 1.447570976485087e+01 6.982756167491792e+00 9.411002581038845e+00 5.380104683087404e+00 7.120096804741407e+00 7.192179255522539e+00 7.022858603664514e+00 6.613576258465835e+00 6.661301493161197e+00 6.411788659555182e+00 6.660467987585307e+00 6.590122551129466e+00 6.410728644290318e+00 8.336481864511608e+00 8.292443760978482e+00 8.428027665840050e+00 8.290640204302990e+00 8.336464558174514e+00 8.425516513087949e+00 8.174304670712669e+00 8.192381824905928e+00 8.283775500894695e+00 8.194069565428089e+00 8.183838953575322e+00 8.283064387991994e+00 4.779819657804495e+00 4.617763336990203e+00 4.897633897557658e+00 4.617656880314014e+00 4.779076682546981e+00 4.411577796813728e+00 4.779225211750398e+00 4.671514099671138e+00 4.411407253039127e+00 4.617764124889120e+00 4.778196071841953e+00 4.897628515838352e+00 4.777751448813266e+00 4.617760368629548e+00 4.479991115488767e+00 4.643729305131765e+00 4.777754880167129e+00 4.479934951936440e+00 7.430595526907189e+00 7.466118185084681e+00 7.296523508676909e+00 7.429766187817821e+00 7.322441190293206e+00 7.515160178283621e+00 7.248477163045115e+00 7.322003079824550e+00 7.432867191613231e+00 7.295532286056161e+00 7.248444416630935e+00 7.434412976866544e+00 7.464691996145353e+00 7.430558653877455e+00 7.295164067065540e+00 7.352982462564849e+00 7.429563023929698e+00 7.514394701896594e+00 7.353198953445123e+00 7.249060600135259e+00 7.432392685186016e+00 7.248601317943241e+00 7.294189818151627e+00 7.434313042089565e+00 5.187247172425842e+00 5.305051250057898e+00 5.015259894514011e+00 5.304958272914610e+00 5.221041372545504e+00 5.015314571008746e+00 5.028052123372265e+00 5.221062212367926e+00 5.345766355103445e+00 1.197771952738138e+01 1.163058173358024e+01 1.242444720245967e+01 1.197692968382719e+01 1.246987605375225e+01 1.155988247679577e+01 1.162402663669272e+01 1.192467081238620e+01 1.241839316473642e+01 1.234280167712531e+01 1.192173166061444e+01 1.147783078097861e+01 1.235066221423381e+01 1.263962054576987e+01 1.192270529706233e+01 1.264230949247861e+01 1.242489458279981e+01 1.192415737953449e+01 3.854200911441441e+00 3.755401947934368e+00 4.030792972035120e+00 3.755400596462548e+00 3.861314214678047e+00 4.030904750404860e+00 8.670099841301004e+00 8.753550189675741e+00 8.526426096512610e+00 8.752771444577084e+00 8.671456716405299e+00 8.525689945202981e+00 7.162173169012078e+00 4.887253139637747e-01 4.887253139638148e-01 7.045331208389024e-01 6.950908232256777e+00 5.195408586928645e+00 6.819454055059503e+00 6.935294890849929e+00 9.306019388402593e-01 7.249361291557448e+00 7.297843322278558e+00 7.105236203977446e+00 7.249093954491435e+00 7.109218111342609e+00 7.325060157185364e+00 7.023779090914462e+00 7.108576209378136e+00 7.253342529152450e+00 7.104570206473119e+00 7.023994110090145e+00 7.252657416446141e+00 7.296510478712791e+00 7.249492872126822e+00 7.103995647854071e+00 7.139172503548346e+00 7.249070466417890e+00 7.357058257803367e+00 7.139146648541045e+00 7.022125914834530e+00 7.252503227208178e+00 7.021827564862333e+00 7.103280488023602e+00 7.253438719961394e+00 1.441055394810784e+01 1.485656643763819e+01 1.469810349003101e+01 8.102083440764209e+00 8.143924822872528e+00 8.088169597206376e+00 8.172062427557441e+00 8.145197258093269e+00 8.101650926939373e+00 8.143987397017819e+00 8.102420705736000e+00 8.088080484795551e+00 8.145068164843654e+00 8.181559878733125e+00 8.102075070542417e+00 5.682659060763485e+00 5.774227051969802e+00 6.020925769401583e+00 5.768402414154536e+00 5.682611995450380e+00 6.031737205083336e+00 1.476394115857195e+01 1.429375597850287e+01 1.411883770748295e+01 1.440439643784569e+01 1.473898845989382e+01 1.411563834339860e+01 9.239913070425049e+00 9.102568789921154e+00 8.897885773318867e+00 8.993046015326890e+00 9.104596076878797e+00 9.368820084107082e+00 8.990963391135644e+00 8.795132819384715e+00 9.095867550820250e+00 8.797352739800367e+00 8.899786934633021e+00 9.091841273402343e+00 9.106920979945649e+00 9.233893782224827e+00 8.892419575067239e+00 9.106946110407579e+00 8.993889694784956e+00 9.399004509896022e+00 8.794007379006160e+00 8.991843273661896e+00 9.098003257077227e+00 8.894718804040123e+00 8.798111464899865e+00 9.095770593028341e+00 1.024104595569976e+01 1.046056439317402e+01 1.085459498468889e+01 7.831369862063319e+00 7.788286601313175e+00 7.898787999727615e+00 7.920242482119260e+00 7.822483485623746e+00 7.830619949323812e+00 7.822832255660091e+00 7.920593035215172e+00 7.830622841276476e+00 7.787889910830479e+00 7.831076271775419e+00 7.904225292160405e+00 1.482445136092427e+01 1.464580890029326e+01 1.482498393516863e+01 3.103481950943766e+00 3.236383603471455e+00 3.350986555651267e+00 1.049670058335552e+01 1.046759904557963e+01 1.003325025414945e+01 9.809894862901762e+00 1.003635614986372e+01 1.044866663230785e+01 1.024152922278125e+01 1.037170389657576e+01 9.989009004264455e+00 9.988572562453907e+00 9.729341282234108e+00 1.023057527773853e+01 3.352193968230330e+00 3.509228703611821e+00 3.610238331716410e+00 3.352302964006131e+00 3.236447568496544e+00 3.507699538943513e+00 1.432968070889472e+01 1.436620279976643e+01 1.372443843030800e+01 1.472057424609326e+01 1.435149403992729e+01 1.431864465815402e+01 1.284557584069097e+01 1.243099072199384e+01 1.324648007699589e+01 3.509395442497771e+00 3.630295150099314e+00 3.805831289349650e+00 7.729524575144000e+00 7.836345404595448e+00 7.730674167653307e+00 7.832887576872530e+00 7.731254933152682e+00 7.824047511170689e+00 7.729638438341942e+00 7.727560036030829e+00 7.826932271633683e+00 7.730936702709683e+00 7.609122195525490e+00 7.731060207748444e+00 7.607198659330604e+00 7.735122475874350e+00 7.601593931241786e+00 7.731453173882482e+00 7.730000895109618e+00 7.603517686177849e+00 7.914284652126020e+00 7.966953505205526e+00 7.984116131454422e+00 7.993167421446471e+00 7.966793534420050e+00 7.915875098837301e+00 8.626754443955438e+00 8.796113641140161e+00 8.886261898011483e+00 8.628456451208493e+00 8.527311549868017e+00 8.783823940762490e+00 7.966397639338614e+00 7.991802401192032e+00 8.030119686590519e+00 8.431863410757622e+00 8.527193834311927e+00 8.621003998295963e+00 7.602351832111161e+00 7.640360923209808e+00 7.511690068290079e+00 7.511540715178151e+00 7.429687892899656e+00 7.606667939843256e+00 1.114111712053863e+01 1.070541676076808e+01 1.146763560789029e+01 1.147815268020585e+01 1.191209261833196e+01 1.114259886116347e+01 6.412571978724460e+00 6.212659175884421e+00 6.147563317091248e+00 7.834944627267597e+00 7.729075054848053e+00 7.729199205740414e+00 7.730795787103024e+00 7.831500450360576e+00 7.824374679108205e+00 7.728024424426248e+00 7.729400893953786e+00 7.827273692609276e+00 7.640151000231166e+00 7.602077468835650e+00 7.511476791409189e+00 7.429514063459270e+00 7.511281774216974e+00 7.606397641898368e+00 6.212323616447548e+00 6.413441444284954e+00 6.148270713216611e+00 1.093047773023115e+01 1.105340117142378e+01 1.154864969339785e+01 1.196487816787600e+01 1.155821647583293e+01 1.105048011080486e+01 7.610626833813530e+00 7.731389670197139e+00 7.732541143201773e+00 7.735492229463554e+00 7.608667521511157e+00 7.601338034464827e+00 7.729531291858676e+00 7.731695124355645e+00 7.603426259069947e+00 7.966967975863085e+00 7.913090441226747e+00 7.983169013517791e+00 7.966819368356973e+00 7.993413422871409e+00 7.916185086662522e+00 7.992031793765401e+00 7.966448598402910e+00 8.030319387987547e+00 8.795581876071639e+00 8.630903234244258e+00 8.891217548409728e+00 8.526847269804207e+00 8.632149114327575e+00 8.783521124033490e+00 8.526939513463748e+00 8.434695277709167e+00 8.624586717116614e+00 1.295775526990605e+01 1.341368788969074e+01 1.372038196691469e+01 3.034786702832228e+00 3.011241638506654e+00 3.298822353378090e+00 3.010033964887135e+00 3.283813606801255e+00 3.300999268692403e+00 1.477731018595795e+01 1.482981299088128e+01 1.474421322388312e+01 1.488566460319608e+01 1.469570888564827e+01 1.480853718231556e+01 1.122678997413877e+01 1.161022429911075e+01 1.299787884142036e+01 1.116164910610876e+01 1.135965143019052e+01 7.603838859397275e+00 1.144942355569528e+01 1.127820937632989e+01 1.350880027256520e+01 1.341993949909997e+01 1.141718706215634e+01 1.296263310434663e+01 2.443291032851054e+00 2.455994169131855e+00 2.237065517653137e+00 2.457226116058355e+00 2.444325315477287e+00 2.671303789434949e+00 1.432032252380798e+01 1.395253040596945e+01 1.305490679799090e+01 1.394811171790636e+01 1.418177965004091e+01 1.299657266776524e+01 1.404463925803988e+01 1.481360246270099e+01 1.422414838892450e+01 1.345798234111929e+01 1.436919122284990e+01 1.296185597772983e+01 1.453558666753834e+01 1.347932475805389e+01 1.310459148262031e+01 2.817321738957418e+00 2.729669084940489e+00 2.582773076527579e+00 2.729935371340908e+00 2.818718369030552e+00 3.008101450464161e+00 2.729435824312470e+00 2.780904614623100e+00 2.579711492522355e+00 2.674517054106232e+00 2.816806456993871e+00 2.583295222456458e+00 9.503819812695614e+00 7.347251173415437e+00 1.144664141123746e+01 7.269197905379688e+00 9.541514303447705e+00 1.149460643833046e+01 2.344705661798355e+00 2.237862851879940e+00 2.454988931387199e+00 2.227288987270945e+00 2.344696585622035e+00 2.458184397153449e+00 1.152652824411719e+01 9.102629778541584e+00 7.295401000647517e+00 7.040105656687883e+00 9.074920201516054e+00 1.096304934775826e+01 2.456337601517417e+00 2.321833987600590e+00 2.229066439051822e+00 2.223837893534133e+00 2.321843787871607e+00 2.424112071828909e+00 1.423808620489989e+01 1.324067773508176e+01 1.288343171207679e+01 1.328956970454497e+01 1.328283082208414e+01 1.425918650877115e+01 1.323623528292025e+01 1.324438285814380e+01 1.165677414230319e+01 1.421713407180373e+01 1.334526507721179e+01 1.418035595458577e+01 2.779954138302647e+00 2.626886650525460e+00 2.580257902606470e+00 2.629332419829162e+00 2.627043058168323e+00 2.838728563179595e+00 2.626421107440434e+00 2.628692459430578e+00 2.458294723000186e+00 2.840512262304871e+00 2.626480905358651e+00 2.781466530654338e+00 1.474261671022294e+01 1.436716185526066e+01 1.469007038161016e+01 2.904911900232554e+00 2.674184320343373e+00 2.854466511240927e+00 2.674251119351017e+00 2.904498407265843e+00 2.818729386513778e+00 1.458144263287575e+01 1.476594081844360e+01 1.488417552549372e+01 1.489424309906560e+01 1.475881510250540e+01 1.471233143961870e+01 1.477000574263294e+01 1.485378654380628e+01 1.483177250083753e+01 1.438417442053419e+01 1.383150537400010e+01 1.371199363116480e+01 3.725798577516989e+00 3.612131836226994e+00 3.879045122647206e+00 8.049029595817764e+00 8.029416431943931e+00 7.991825137771895e+00 8.029563034988152e+00 8.049861774092385e+00 7.991967651416505e+00 1.236379609950665e+01 1.211834676840222e+01 1.167309359385859e+01 1.467857644543806e+01 1.486957123658566e+01 1.472255957107792e+01 1.483312748459552e+01 1.470547968604035e+01 1.485795776478588e+01 1.483394042828988e+01 1.483256073226263e+01 1.473966334646214e+01 1.458506634966411e+01 1.472292182768992e+01 1.483022055338374e+01 1.457431538093261e+01 1.401085361619369e+01 1.458760342595942e+01 1.399359958812417e+01 1.460776015963897e+01 1.399532646408001e+01 1.456151348727035e+01 1.363947718459347e+01 1.447323923714165e+01 1.359988732063495e+01 1.456562399843920e+01 1.433100408990666e+01 7.321248847694384e+00 7.190427145080741e+00 7.119904595679885e+00 1.087147687914888e+01 1.029230624117448e+01 1.024543930027452e+01 1.028554661567173e+01 1.088731615001138e+01 1.104221461082962e+01 1.044208380090224e+01 1.086893205046270e+01 1.023677134504855e+01 1.088269672925838e+01 1.043946891446059e+01 1.113273654066266e+01 4.671732150767672e+00 4.991452148433517e+00 4.864834717850330e+00 4.991298097251168e+00 4.671740933107089e+00 4.779828410529270e+00 4.643789125322325e+00 4.964851432673723e+00 4.778215406787874e+00 1.236740670551259e+01 1.280080645838399e+01 1.211947501219283e+01 1.280307899536460e+01 1.236727895923284e+01 1.324193341467357e+01 5.461427468388996e+00 5.304888041410686e+00 5.592416106439267e+00 5.304840155805254e+00 5.461654637907888e+00 5.221040010264953e+00 5.305021440970259e+00 5.459794188169707e+00 5.592701786388164e+00 5.460042909164724e+00 5.304948710169253e+00 5.187236106436680e+00 3.284779750852216e+00 3.286502367840856e+00 3.479582645772882e+00 3.286094128566303e+00 3.414116917660155e+00 3.480400202314493e+00 1.150503055949003e+01 1.110587383392541e+01 1.166962414051613e+01 4.897896667352756e+00 5.079750882103278e+00 4.779871506392255e+00 5.078942811358968e+00 4.897893337786213e+00 4.778244464020568e+00 7.528896205186722e+00 7.462708950319398e+00 7.610896616102571e+00 7.529406065791723e+00 7.605431499272262e+00 7.430247860141522e+00 7.602092288188861e+00 7.529145491290225e+00 7.607842332079156e+00 7.462342063090256e+00 7.530294880318779e+00 7.429448727579750e+00 7.464142581268501e+00 7.529573301939625e+00 7.612367788407614e+00 7.605183232081475e+00 7.530072585486606e+00 7.430266939877584e+00 7.529817285377611e+00 7.601839151076422e+00 7.609309936372363e+00 7.530968814416613e+00 7.463772286008865e+00 7.429468898391557e+00 9.785887962325081e+00 9.779779497223151e+00 9.380821296864001e+00 1.432134485879231e+01 1.434963318553455e+01 1.477301851430944e+01 7.893913358807099e+00 7.915534784753838e+00 7.832068966426585e+00 7.822699237023322e+00 7.895724424124065e+00 7.831163377932871e+00 7.914289445379371e+00 7.893726372616104e+00 7.830658820045538e+00 7.895579936174981e+00 7.823013554321370e+00 7.829795705309962e+00 8.307074897732551e+00 8.207260025181565e+00 8.332301461196010e+00 8.207184687002416e+00 8.307883730536794e+00 8.332109966104293e+00 1.409647652100760e+01 1.451272903554258e+01 1.348504522866780e+01 7.926229723963238e+00 7.883310743279508e+00 7.970358974358392e+00 7.926311478742750e+00 7.977958473967905e+00 7.894448453855089e+00 7.883102403164562e+00 7.920758597743467e+00 7.970792871020580e+00 3.945877492434910e+00 3.880354725548694e+00 4.155045847751913e+00 8.002682236319352e+00 8.036692510109980e+00 7.975367067513809e+00 2.738993355148528e+00 2.864184350454174e+00 2.639782475829747e+00 7.141031568518080e+00 7.114383828285208e+00 6.910063292318579e+00 7.115675177594047e+00 7.019371008916012e+00 6.908752111019175e+00 1.324055575078357e+01 1.264409411409472e+01 1.247920250297700e+01 1.236766103461363e+01 1.264562495875268e+01 1.324399655537307e+01 1.264611099195528e+01 1.323876242385013e+01 1.324368815516370e+01 4.342810479499050e+00 4.177064954531463e+00 4.479221470586054e+00 8.430962988689291e+00 8.527003986862400e+00 8.659714414849166e+00 8.527982898216569e+00 8.457464138738182e+00 8.660598540753245e+00 1.430694580026155e+01 1.480961473081100e+01 1.465121333390997e+01 8.023655280184602e+00 7.982268287442565e+00 8.045580934532572e+00 8.023810791900607e+00 8.029933208861859e+00 7.966772559467084e+00 7.982127325662819e+00 8.024338209977074e+00 7.966427144701709e+00 7.983138959902363e+00 8.023847064650811e+00 8.046079751700137e+00 8.029688646202052e+00 8.023965732115947e+00 7.966831395166540e+00 8.024516275808560e+00 7.983042689518635e+00 7.966453316355169e+00 1.483629887554313e+01 1.485216297065443e+01 1.473609283221271e+01 7.577377267761486e+00 7.571118625791641e+00 7.689074272951959e+00 7.571094614740544e+00 7.576862231529040e+00 7.688793219711809e+00 8.068722399934201e+00 8.045279468675263e+00 8.109592869495987e+00 8.045713936094122e+00 8.068668404043208e+00 8.109577382844266e+00 7.907778770826707e+00 7.916673384033600e+00 7.832057982253603e+00 7.895066459935333e+00 7.90