<?xml version="1.0"?>
<VTKFile type="UnstructuredGrid" version="0.1" byte_order="LittleEndian">
<UnstructuredGrid>
<Piece NumberOfPoints="3240" NumberOfCells="1080">
<Points>
<DataArray type="Float64" NumberOfComponents="3" format="ascii">
2.179690854119185e-02 1.185794897852074e-01 0.000000000000000e+00 0.000000000000000e+00 1.111111111109777e-01 0.000000000000000e+00 0.000000000000000e+00 1.333333333332549e-01 0.000000000000000e+00 9.788431651098607e-01 8.049154383573708e-02 0.000000000000000e+00 1.000000000000000e+00 8.888888888903346e-02 0.000000000000000e+00 1.000000000000000e+00 6.666666666675342e-02 0.000000000000000e+00 9.619095609780270e-01 1.469647442901770e-01 0.000000000000000e+00 9.561458207326632e-01 1.229301525610412e-01 0.000000000000000e+00 9.446844990568195e-01 1.365972544162028e-01 0.000000000000000e+00 9.561458207326632e-01 1.229301525610412e-01 0.000000000000000e+00 9.619095609780270e-01 1.469647442901770e-01 0.000000000000000e+00 9.753425766502124e-01 1.329145145357886e-01 0.000000000000000e+00 3.828765699483880e-02 5.304505000823728e-02 0.000000000000000e+00 4.409363782274157e-02 7.706114571179593e-02 0.000000000000000e+00 5.559994773146819e-02 6.339045909604388e-02 0.000000000000000e+00 4.409363782274157e-02 7.706114571179593e-02 0.000000000000000e+00 3.828765699483880e-02 5.304505000823728e-02 0.000000000000000e+00 2.477335597731323e-02 6.708142153103731e-02 0.000000000000000e+00 9.550725189111069e-01 4.829411318820009e-02 0.000000000000000e+00 9.789099483921270e-01 5.208622344314002e-02 0.000000000000000e+00 9.679759360039387e-01 3.254350244928760e-02 0.000000000000000e+00 9.852025569480262e-01 3.297143324608116e-02 0.000000000000000e+00 9.679759360039387e-01 3.254350244928760e-02 0.000000000000000e+00 9.789099483921270e-01 5.208622344314002e-02 0.000000000000000e+00 1.000000000000000e+00 4.444444444448301e-02 0.000000000000000e+00 9.852025569480262e-01 3.297143324608116e-02 0.000000000000000e+00 9.789099483921270e-01 5.208622344314002e-02 0.000000000000000e+00 2.085901357486063e-02 3.347530932066585e-02 0.000000000000000e+00 0.000000000000000e+00 2.222222222217273e-02 0.000000000000000e+00 0.000000000000000e+00 4.444444444434547e-02 0.000000000000000e+00 1.000000000000000e+00 2.222222222224152e-02 0.000000000000000e+00 9.852025569480262e-01 3.297143324608116e-02 0.000000000000000e+00 1.000000000000000e+00 4.444444444448301e-02 0.000000000000000e+00 9.792123917142351e-01 1.665277592732634e-01 0.000000000000000e+00 1.000000000000000e+00 1.777777777778356e-01 0.000000000000000e+00 1.000000000000000e+00 1.555555555556712e-01 0.000000000000000e+00 2.085901357486063e-02 3.347530932066585e-02 0.000000000000000e+00 3.828765699483880e-02 5.304505000823728e-02 0.000000000000000e+00 4.395097424174637e-02 3.288070253644709e-02 0.000000000000000e+00 9.792123917142351e-01 1.665277592732634e-01 0.000000000000000e+00 9.619095609780270e-01 1.469647442901770e-01 0.000000000000000e+00 9.562058539142814e-01 1.671301644007421e-01 0.000000000000000e+00 2.073418664683830e-02 8.645182449452284e-02 0.000000000000000e+00 4.409363782274157e-02 7.706114571179593e-02 0.000000000000000e+00 2.477335597731323e-02 6.708142153103731e-02 0.000000000000000e+00 9.793636967455461e-01 1.135425195315997e-01 0.000000000000000e+00 9.561458207326632e-01 1.229301525610412e-01 0.000000000000000e+00 9.753425766502124e-01 1.329145145357886e-01 0.000000000000000e+00 9.789099483921270e-01 5.208622344314002e-02 0.000000000000000e+00 1.000000000000000e+00 6.666666666675342e-02 0.000000000000000e+00 1.000000000000000e+00 4.444444444448301e-02 0.000000000000000e+00 1.000000000000000e+00 6.666666666675342e-02 0.000000000000000e+00 9.789099483921270e-01 5.208622344314002e-02 0.000000000000000e+00 9.788431651098607e-01 8.049154383573708e-02 0.000000000000000e+00 1.035551545049920e-01 3.618647793308308e-02 0.000000000000000e+00 9.618914270776220e-02 5.697243691702588e-02 0.000000000000000e+00 1.211119433954548e-01 4.844499445275665e-02 0.000000000000000e+00 2.070317797483978e-01 1.178091145093580e-01 0.000000000000000e+00 2.168388896782212e-01 1.000000000000000e-01 0.000000000000000e+00 1.972011010366781e-01 1.002115461984506e-01 0.000000000000000e+00 2.168388896782212e-01 1.000000000000000e-01 0.000000000000000e+00 2.021483297087887e-01 7.699474322060029e-02 0.000000000000000e+00 1.972011010366781e-01 1.002115461984506e-01 0.000000000000000e+00 6.325759310354312e-01 7.026396842973263e-02 0.000000000000000e+00 6.356681316088502e-01 4.619464755185967e-02 0.000000000000000e+00 6.137135296600879e-01 5.923923478665676e-02 0.000000000000000e+00 6.356697321454025e-01 1.538055969815540e-01 0.000000000000000e+00 6.328111874952534e-01 1.256166141791064e-01 0.000000000000000e+00 6.133213345751599e-01 1.416284482082639e-01 0.000000000000000e+00 3.676342218244493e-01 1.360641150748462e-01 0.000000000000000e+00 3.674443000888042e-01 1.527014440714697e-01 0.000000000000000e+00 3.893259863673771e-01 1.421635684244698e-01 0.000000000000000e+00 3.674465843820001e-01 4.713905381424529e-02 0.000000000000000e+00 3.676342217843908e-01 6.393588484626157e-02 0.000000000000000e+00 3.894837065875830e-01 5.924533576931833e-02 0.000000000000000e+00 5.102457943773800e-01 5.260948399200950e-02 0.000000000000000e+00 5.085295751046749e-01 2.540532046752223e-02 0.000000000000000e+00 4.894597309299598e-01 3.655092592592592e-02 0.000000000000000e+00 5.085295751029876e-01 1.745946795324778e-01 0.000000000000000e+00 5.102457943763188e-01 1.473905160079905e-01 0.000000000000000e+00 4.894597309285084e-01 1.634490740740741e-01 0.000000000000000e+00 4.741267444728235e-01 1.543553225584215e-01 0.000000000000000e+00 4.684063266565393e-01 1.750187005880394e-01 0.000000000000000e+00 4.894597309285084e-01 1.634490740740741e-01 0.000000000000000e+00 4.684063266582298e-01 2.498129941196055e-02 0.000000000000000e+00 4.741267444740512e-01 4.564467744157848e-02 0.000000000000000e+00 4.894597309299598e-01 3.655092592592592e-02 0.000000000000000e+00 1.183733259857045e-01 7.116885251089573e-02 0.000000000000000e+00 1.211119433954548e-01 4.844499445275665e-02 0.000000000000000e+00 9.618914270776220e-02 5.697243691702588e-02 0.000000000000000e+00 9.352850814676027e-01 4.287915471819994e-02 0.000000000000000e+00 9.435310768418372e-01 6.246374006343971e-02 0.000000000000000e+00 9.550725189111069e-01 4.829411318820009e-02 0.000000000000000e+00 7.942139693228059e-02 3.754246087862223e-02 0.000000000000000e+00 9.618914270776220e-02 5.697243691702588e-02 0.000000000000000e+00 1.035551545049920e-01 3.618647793308308e-02 0.000000000000000e+00 1.020569493188440e-01 1.521532026904773e-01 0.000000000000000e+00 8.277531846929394e-02 1.659099040050232e-01 0.000000000000000e+00 1.059561196782290e-01 1.726640099290462e-01 0.000000000000000e+00 4.881435964943197e-01 5.744412919386780e-02 0.000000000000000e+00 5.102457943773800e-01 5.260948399200950e-02 0.000000000000000e+00 4.894597309299598e-01 3.655092592592592e-02 0.000000000000000e+00 4.741267444740512e-01 4.564467744157848e-02 0.000000000000000e+00 4.881435964943197e-01 5.744412919386780e-02 0.000000000000000e+00 4.894597309299598e-01 3.655092592592592e-02 0.000000000000000e+00 5.102457943763188e-01 1.473905160079905e-01 0.000000000000000e+00 4.881435964933576e-01 1.425558708061322e-01 0.000000000000000e+00 4.894597309285084e-01 1.634490740740741e-01 0.000000000000000e+00 4.881435964933576e-01 1.425558708061322e-01 0.000000000000000e+00 4.741267444728235e-01 1.543553225584215e-01 0.000000000000000e+00 4.894597309285084e-01 1.634490740740741e-01 0.000000000000000e+00 9.202742311744310e-01 6.304724904173428e-02 0.000000000000000e+00 9.435310768418372e-01 6.246374006343971e-02 0.000000000000000e+00 9.352850814676027e-01 4.287915471819994e-02 0.000000000000000e+00 9.311369351563222e-01 1.216872542520513e-01 0.000000000000000e+00 9.446844990568195e-01 1.365972544162028e-01 0.000000000000000e+00 9.561458207326632e-01 1.229301525610412e-01 0.000000000000000e+00 9.440822297766122e-01 1.044866432311947e-01 0.000000000000000e+00 9.311369351563222e-01 1.216872542520513e-01 0.000000000000000e+00 9.561458207326632e-01 1.229301525610412e-01 0.000000000000000e+00 6.942865083870305e-02 7.810901213359711e-02 0.000000000000000e+00 5.559994773146819e-02 6.339045909604388e-02 0.000000000000000e+00 4.409363782274157e-02 7.706114571179593e-02 0.000000000000000e+00 5.587596540385175e-02 9.544964978545428e-02 0.000000000000000e+00 6.942865083870305e-02 7.810901213359711e-02 0.000000000000000e+00 4.409363782274157e-02 7.706114571179593e-02 0.000000000000000e+00 9.383149197178707e-01 8.083033390936589e-02 0.000000000000000e+00 9.440822297766122e-01 1.044866432311947e-01 0.000000000000000e+00 9.564339645724994e-01 8.784519757399348e-02 0.000000000000000e+00 6.437537668157559e-02 1.198167832100239e-01 0.000000000000000e+00 5.587596540385175e-02 9.544964978545428e-02 0.000000000000000e+00 4.380144473816400e-02 1.121383540808015e-01 0.000000000000000e+00 5.997194079032258e-02 4.512095697672458e-02 0.000000000000000e+00 4.395097424174637e-02 3.288070253644709e-02 0.000000000000000e+00 3.828765699483880e-02 5.304505000823728e-02 0.000000000000000e+00 5.559994773146819e-02 6.339045909604388e-02 0.000000000000000e+00 5.997194079032258e-02 4.512095697672458e-02 0.000000000000000e+00 3.828765699483880e-02 5.304505000823728e-02 0.000000000000000e+00 9.404756991568505e-01 1.549621963185481e-01 0.000000000000000e+00 9.562058539142814e-01 1.671301644007421e-01 0.000000000000000e+00 9.619095609780270e-01 1.469647442901770e-01 0.000000000000000e+00 9.446844990568195e-01 1.365972544162028e-01 0.000000000000000e+00 9.404756991568505e-01 1.549621963185481e-01 0.000000000000000e+00 9.619095609780270e-01 1.469647442901770e-01 0.000000000000000e+00 9.105972683830624e-01 1.544218397638132e-01 0.000000000000000e+00 8.927034528382922e-01 1.455120327258070e-01 0.000000000000000e+00 8.960075181349753e-01 1.728216891542547e-01 0.000000000000000e+00 7.412240007220265e-02 5.848278876839397e-02 0.000000000000
[...]
<PointData Scalars="A_conc," Vectors="">
<DataArray type="Float64" Name="A_conc" format="ascii">
1.113746569816885e-03 9.057089921686979e-04 9.051706425999684e-04 1.606504107434343e+01 1.986597382236912e+01 1.986597382236912e+01 1.360173896733452e+01 1.284148634515449e+01 1.145525743594957e+01 1.284917481131681e+01 1.363744052288185e+01 1.549675234253027e+01 1.326359360599359e-03 1.405571429127575e-03 1.570221026052960e-03 1.401054586737830e-03 1.325054955414264e-03 1.156476723936031e-03 1.269926560115869e+01 1.603606624477752e+01 1.448510307234561e+01 1.716989169873436e+01 1.448935346940925e+01 1.612451754439425e+01 1.980916537804204e+01 1.722377948191269e+01 1.613301144237326e+01 1.104679649341598e-03 9.062304665239173e-04 9.052685653576682e-04 1.993227020540648e+01 1.718599325657486e+01 1.993227020540846e+01 1.612869417989061e+01 1.987036598690332e+01 1.987036598690333e+01 1.112675727904105e-03 1.323745247955670e-03 1.398432924820509e-03 1.604229977760046e+01 1.363390364425496e+01 1.285687924460926e+01 1.114550363660937e-03 1.390819514580436e-03 1.158585499325630e-03 1.614304156837355e+01 1.280568350619807e+01 1.554323885422913e+01 1.607654126090262e+01 1.986677302739618e+01 1.986677302739868e+01 1.973956141121122e+01 1.614295509893917e+01 1.613181326467837e+01 2.548977215486214e-03 2.366209273456831e-03 3.007128744864132e-03 7.172794749454554e-03 7.876958457496601e-03 6.499704164198502e-03 7.865599995888666e-03 6.831209499899193e-03 6.505456955665900e-03 5.041804045753886e-01 5.198234813595017e-01 4.171366961457124e-01 5.199022271425086e-01 5.056447370360406e-01 4.157238385712888e-01 3.575957450581754e-02 3.571762364627087e-02 4.390385084220339e-02 3.569831773980608e-02 3.573819999223016e-02 4.395627736605547e-02 1.484119079224381e-01 1.460468230652706e-01 1.205425553578688e-01 1.459731999996846e-01 1.483979101897008e-01 1.205017285701492e-01 1.037544485709944e-01 9.792298744909200e-02 1.200427766193207e-01 9.795950939526128e-02 1.037899929429638e-01 1.201135460501419e-01 2.946302761530147e-03 3.021960023893539e-03 2.355601430824862e-03 1.044162544620409e+01 1.132206217674036e+01 1.265096834919946e+01 1.997853475165980e-03 2.362424610150717e-03 2.534988328074683e-03 2.506981768770449e-03 2.063153938585384e-03 2.598755883953712e-03 1.193098306947869e-01 1.473187014053667e-01 1.210200048423670e-01 1.035729744462523e-01 1.191386577288098e-01 1.207879716170719e-01 1.473263832966002e-01 1.193652725660590e-01 1.209572686721783e-01 1.191919185539490e-01 1.035628885470192e-01 1.207272600228701e-01 8.958533284413225e+00 1.126100604562745e+01 1.042900169536988e+01 9.994622098160594e+00 1.145133140271141e+01 1.275374434455703e+01 1.139445108587715e+01 9.996218548024228e+00 1.275848567759027e+01 1.796280923774294e-03 1.575542415209734e-03 1.404322100828294e-03 1.580346557002773e-03 1.797083447862005e-03 1.405387722674574e-03 1.075451545223689e+01 1.141682942393096e+01 1.283285830205786e+01 1.715235745122817e-03 1.581863038129850e-03 1.400394038313709e-03 1.634896306834404e-03 1.405318911936548e-03 1.326350704943291e-03 1.574894147919056e-03 1.641179036568965e-03 1.322483358363355e-03 1.096856739437471e+01 1.283884507971053e+01 1.358033042940580e+01 1.147965083890736e+01 1.100385530514303e+01 1.351805303303383e+01 8.108991268354051e+00 6.826059577791500e+00 7.042454443463022e+00 1.898271808751344e-03 2.347293554290481e-03 2.002326489863885e-03 8.163720926646606e+00 9.470618788307895e+00 8.004090346954371e+00 9.509427883728605e+00 8.140241937337461e+00 9.496346318439624e+00 2.039827900538886e-03 1.874735612966556e-03 1.669725154496482e-03 1.284168542217650e+01 1.431549754356507e+01 1.139514062837084e+01 1.431527935983509e+01 1.288267059425167e+01 1.140780472745647e+01 1.405243675017649e-03 1.254277810228486e-03 1.570703190824070e-03 1.254593483930563e-03 1.400852923420242e-03 1.573238458715387e-03 1.272369166449231e+01 1.312213607603222e+01 1.596277693300133e+01 1.307520518880004e+01 1.608030369172405e+01 1.609089877596467e+01 9.343098838918616e-02 1.116474624422294e-01 1.086857683632560e-01 1.354989782357063e-01 1.190913946195562e-01 1.480321579576854e-01 1.348670257459089e-01 1.119986828823593e-01 1.192076075201499e-01 1.116479940495296e-01 9.342845177275169e-02 1.086761675810282e-01 1.190221634832354e-01 1.354042972070860e-01 1.479506872659332e-01 1.119210530356779e-01 1.347672991380676e-01 1.191344478659255e-01 2.026287852658801e-03 2.071807814925924e-03 2.489998796858935e-03 1.718574319083907e-03 2.066094990560145e-03 2.022485886291209e-03 8.938311125231516e+00 8.446567570383589e+00 7.230249206933761e+00 1.036835767607172e+01 8.458339872712051e+00 8.974051775867217e+00 1.618336261973494e+01 1.448582001180514e+01 1.717154550566865e+01 5.454265018987440e-02 5.837794099526841e-02 4.939467878931261e-02 3.422979225256075e-02 3.548253806490717e-02 2.896969517379110e-02 3.555620921799026e-02 3.358778037567178e-02 2.906285699438235e-02 5.440049570426049e-01 5.068243448537032e-01 6.178177852626210e-01 5.056167269981979e-01 5.440652379471493e-01 6.164186312426558e-01 3.993015929043351e-01 4.170152310555654e-01 5.016527173025122e-01 4.184150920367007e-01 4.086337325121874e-01 5.009062636401332e-01 8.870437839144032e-03 7.907735579058689e-03 9.604479843570693e-03 7.904951228497024e-03 8.804237496579244e-03 6.819584538218779e-03 8.809698096383024e-03 8.203907132117643e-03 6.803870090928256e-03 7.907973499921790e-03 8.861549949664841e-03 9.604292560019543e-03 8.818623883022375e-03 7.910818435714577e-03 7.172289259802777e-03 8.054978789049205e-03 8.812864170919933e-03 7.165590861137394e-03 7.706853268158026e-02 8.031125247132495e-02 6.558892422628877e-02 7.717355534875649e-02 6.779322378458644e-02 8.544443587196338e-02 6.245200790017640e-02 6.785126073141859e-02 7.679203984196452e-02 6.571318777276500e-02 6.245834686027185e-02 7.660474529554506e-02 8.048044525546033e-02 7.708011386099589e-02 6.573408184673742e-02 7.028940619148406e-02 7.720470138800628e-02 8.554077922840304e-02 7.026779958714090e-02 6.238584739495665e-02 7.685370938445132e-02 6.244430022792074e-02 6.585426736324704e-02 7.662395554306829e-02 1.182380605797687e-02 1.277289847601367e-02 1.045148637018438e-02 1.281394923651197e-02 1.209705175451991e-02 1.047418537244501e-02 1.055068381232102e-02 1.209909752340059e-02 1.315489106914621e-02 2.835763398295268e+00 2.593508153670252e+00 3.164276318154144e+00 2.833517563961001e+00 3.193019380118825e+00 2.542436294218770e+00 2.587965497724318e+00 2.795529265163684e+00 3.155676560003255e+00 3.098286329228098e+00 2.794698595474740e+00 2.488392332043535e+00 3.116396082064423e+00 3.337865098033604e+00 2.793960815669811e+00 3.339196625369016e+00 3.171456464035986e+00 2.792934307214684e+00 4.540259233045215e-03 4.216066967772530e-03 5.153846150781632e-03 4.215031516047220e-03 4.565855565748914e-03 5.155559942054432e-03 7.881891460336924e-01 8.439327534514066e-01 6.891646011491712e-01 8.435633199783612e-01 7.887646199141610e-01 6.888200065136451e-01 1.613751144018916e+01 1.987096835162064e+01 1.987096835162060e+01 1.981319245251617e+01 1.619345994381961e+01 1.722384145991858e+01 1.625798337606633e+01 1.619892771234774e+01 1.975114885138517e+01 6.235996962917223e-02 6.545680855562089e-02 5.347854951408171e-02 6.238869035633675e-02 5.380166226992093e-02 6.750757791555552e-02 4.955688713043158e-02 5.387333617890330e-02 6.194308927499163e-02 5.355216871961513e-02 4.953549613861087e-02 6.201312356963009e-02 6.559505881644484e-02 6.235062406632948e-02 5.359803101476292e-02 5.554025115430702e-02 6.239207750898160e-02 6.982834883283699e-02 5.554639036502929e-02 4.938706932597126e-02 6.203016787373183e-02 4.942088034315885e-02 5.367561050122371e-02 6.193740277941406e-02 5.439351529294406e+00 6.783836826897082e+00 6.196314837917527e+00 3.287067010810248e-01 3.698787378628777e-01 3.151669197088340e-01 3.975500028419645e-01 3.713062793199183e-01 3.283085543080119e-01 3.700424280307719e-01 3.289225335528789e-01 3.151488086408576e-01 3.712590801713687e-01 4.065786060678343e-01 3.285760117520010e-01 1.680988689908917e-02 1.795803318127014e-02 2.127989809976703e-02 1.789588071519493e-02 1.681725730564627e-02 2.144095051512407e-02 6.142376948693426e+00 5.248007800626653e+00 4.939745745020527e+00 5.443278146757800e+00 6.161291417109091e+00 4.942417174937153e+00 1.141601994697166e+00 1.059203597631743e+00 9.340089585073951e-01 9.928348057938254e-01 1.060133419482356e+00 1.218023342183043e+00 9.918888329588118e-01 8.696354688507320e-01 1.056052762916448e+00 8.706654344247743e-01 9.349076379357755e-01 1.054210262180586e+00 1.061639981223817e+00 1.138901176539522e+00 9.315704584467499e-01 1.061608555175986e+00 9.931232367125719e-01 1.235708597533929e+00 8.690700215234618e-01 9.921730209795191e-01 1.057441295931560e+00 9.326365985376471e-01 8.709654407598002e-01 1.056460049351155e+00 1.722648818071574e+00 1.852189995359460e+00 2.087816220072089e+00 1.486342307622720e-01 1.354675136768281e-01 1.716503201075564e-01 1.819413370711553e-01 1.464280986223897e-01 1.489100954360928e-01 1.463529526810247e-01 1.818267288652422e-01 1.488975222543047e-01 1.355628318604380e-01 1.487156854546818e-01 1.739836197306023e-01 7.567457328077371e+00 8.750599605428258e+00 7.184893302452758e+00 2.503090693013332e-03 2.802104140323817e-03 3.057465758572762e-03 1.873935627982620e+00 1.855654151652931e+00 1.601219919618753e+00 1.471784221956539e+00 1.603339339077620e+00 1.843408590585331e+00 1.722977217225624e+00 1.799195055051547e+00 1.575647556638694e+00 1.575512189783216e+00 1.425555965623964e+00 1.716142099863080e+00 3.068929626016138e-03 3.486132670793180e-03 3.751344763060357e-03 3.071236790610623e-03 2.802846518369099e-03 3.466925360955855e-03 5.277330786052870e+00 5.346953295053341e+00 4.389791465671552e+00 6.158747685347222e+00 5.362884797215079e+00 5.290021516678125e+00 3.523862958135919e+00 3.179796689522883e+00 3.882122121064491e+00 3.487757231067691e-03 3.828323855229351e-03 4.357453387582017e-03 1.212385855740156e-01 1.473298786442277e-01 1.212544980187958e-01 1.482170669723561e-01 1.207945854802377e-01 1.459733703883212e-01 1.212157549713944e-01 1.210090170789762e-01 1.452488386023897e-01 1.209599147314984e-01 9.870691569489337e-02 1.211306071904942e-01 9.908153133395066e-02 1.201618685178488e-01 9.795160196231251e-02 1.208562079191276e-01 1.205251790858640e-01 9.756783126894274e-02 1.819566750142733e-01 2.127380537511654e-01 2.227420555946634e-01 2.294563623507462e-01 2.128746328366075e-01 1.834513956509779e-01 7.594838235387703e-01 8.700824272988206e-01 9.287598395535313e-01 7.602250321754211e-01 6.893814027810345e-01 8.644744226268818e-01 2.131161520464716e-01 2.306334740890473e-01 2.593475379754325e-01 6.197304377966852e-01 6.893438384544306e-01 7.567484567131688e-01 9.782606228923216e-02 1.034023750710972e-01 8.589479919412149e-02 8.592940392144609e-02 7.718129270252655e-02 9.717609572623558e-02 2.269734605025083e+00 1.998487889208908e+00 2.478303170277818e+00 2.489656504750170e+00 2.780718539237834e+00 2.270768339345342e+00 2.890061080366563e-02 2.492538910173387e-02 2.373268388175405e-02 1.476374493150303e-01 1.213354641630924e-01 1.215148654210166e-01 1.208851004486421e-01 1.485290236185265e-01 1.459356032946187e-01 1.209248314706754e-01 1.212734013537904e-01 1.451942735912295e-01 1.034378434258555e-01 9.786246544564572e-02 8.592434863772395e-02 7.719650220437553e-02 8.596532499124544e-02 9.720962686365672e-02 2.491172564537307e-02 2.882404176364364e-02 2.366738199811334e-02 2.137874025134330e+00 2.214140448205590e+00 2.530537651085413e+00 2.816043687786120e+00 2.541324395347732e+00 2.210598411522653e+00 9.849027833207016e-02 1.208584322755902e-01 1.208735722715946e-01 1.200799153227105e-01 9.886960116825083e-02 9.797831511250849e-02 1.206056997103220e-01 1.208020339506371e-01 9.757555342041714e-02 2.128216927361820e-01 1.823714635692778e-01 2.232282422491665e-01 2.129181083502348e-01 2.293062466217698e-01 1.833255335448384e-01 2.304792611994304e-01 2.131664534168685e-01 2.592456019980192e-01 8.698605469686719e-01 7.614095146090102e-01 9.309841969111592e-01 6.891642803010406e-01 7.619788715473336e-01 8.643387981976993e-01 6.891865669340440e-01 6.212171186002672e-01 7.584664692848658e-01 3.615523191587630e+00 4.063427511189616e+00 4.384839113141900e+00 2.367078400255071e-03 2.320749576387263e-03 2.921783094158504e-03 2.308763365247457e-03 2.904762213182048e-03 2.941589250423308e-03 7.989313718921218e+00 6.807171101056124e+00 8.142351994286241e+00 7.926154831104676e+00 6.199276635033196e+00 6.817607890654569e+00 1.309727117138967e+01 1.271209120185549e+01 1.131632989577807e+01 1.311855931220011e+01 1.290628829043742e+01 1.595739519497366e+01 1.287582443991149e+01 1.307858371797349e+01 1.072489607621839e+01 1.075564187414653e+01 1.303030622497436e+01 1.132727517818955e+01 1.381052386946575e-03 1.398068916622858e-03 1.121399907876520e-03 1.403363008597633e-03 1.385426238786118e-03 1.705525120834976e-03 9.245376836447873e+00 1.000382135091896e+01 1.133423428057111e+01 1.000453311234065e+01 9.525792773994709e+00 1.140259102971172e+01 9.962601015335853e+00 7.976001860613600e+00 9.507315207744702e+00 1.073969772447964e+01 9.226687880018623e+00 1.137024821974584e+01 8.951322672120879e+00 1.073178060401005e+01 1.127221576476870e+01 1.953001565886828e-03 1.810392721641221e-03 1.579323115959731e-03 1.811851714156412e-03 1.961516745788689e-03 2.298110120923811e-03 1.808713828160697e-03 1.892639747241658e-03 1.574537587961425e-03 1.721919984222205e-03 1.950309756035918e-03 1.582580300027559e-03 1.440768082879137e+01 1.603720225312014e+01 1.288101983039079e+01 1.610574590258046e+01 1.439538721071244e+01 1.284118967936320e+01 1.254347027416413e-03 1.124801791187666e-03 1.393664058044508e-03 1.111403203605081e-03 1.254299999459929e-03 1.398648987967830e-03 1.283598958613050e+01 1.472165040931791e+01 1.608492748677708e+01 1.619444010744530e+01 1.473077659770995e+01 1.326323191666644e+01 1.395088739393462e-03 1.226386384354653e-03 1.115101213273578e-03 1.106663024857406e-03 1.226498737956547e-03 1.351097853491893e-03 9.504702571662365e+00 1.098902602996734e+01 1.144508988402033e+01 1.095733663287166e+01 1.097360751144151e+01 9.497262230985250e+00 1.099145167539373e+01 1.097459724379901e+01 1.278613532765499e+01 9.513623282255084e+00 1.094835074994202e+01 9.527209700614270e+00 1.887204849675025e-03 1.647527367540402e-03 1.577963364713448e-03 1.653912375377893e-03 1.648393902837689e-03 1.985162071359153e-03 1.645204023835946e-03 1.650508353494547e-03 1.402859317040095e-03 1.995744400034056e-03 1.644902753049330e-03 1.896058861502099e-03 6.338665700515255e+00 5.351230197838872e+00 6.182964607587985e+00 2.111999059397803e-03 1.719720580489202e-03 2.022634613811909e-03 1.719940552072185e-03 2.108830221877423e-03 1.961950068391250e-03 5.855480004128750e+00 6.458717275358440e+00 7.147155127129867e+00 7.524280932010363e+00 6.464265948416318e+00 6.359056720183346e+00 6.457268285893442e+00 7.550652110450550e+00 7.180830517857357e+00 5.324969817980143e+00 4.563022191265108e+00 4.404269153255783e+00 4.121009251863115e-03 3.780884630903748e-03 4.612264369853824e-03 2.770677283902574e-01 2.606433394439815e-01 2.303849572237278e-01 2.605190746788724e-01 2.776782914660885e-01 2.302792990950879e-01 3.117574432658937e+00 2.936022864051198e+00 2.618702745531108e+00 6.191813682285122e+00 7.207542567340644e+00 6.353629017961352e+00 7.229276383532619e+00 6.175788921408695e+00 7.232402513052660e+00 7.230703383903165e+00 7.559810709933445e+00 6.343088122988154e+00 8.783485764878376e+00 8.128620289440878e+00 7.187232173010096e+00 5.807087784616675e+00 4.769797776044761e+00 5.851329018655448e+00 4.787131744278534e+00 5.773002904615029e+00 4.778285569942058e+00 8.701895597235859e+00 1.066526240544532e+01 8.976637019850481e+00 1.068118941734813e+01 8.700901653467332e+00 9.242052921471165e+00 6.696456778047648e-02 5.855938885727487e-02 5.456195806224715e-02 2.098938501568942e+00 1.752483435818655e+00 1.726285772837989e+00 1.747036881349922e+00 2.111168225964569e+00 2.204959065368985e+00 1.840407081437794e+00 2.097574969582261e+00 1.721041081149137e+00 2.108352210680283e+00 1.838063511916486e+00 2.260533412288309e+00 8.208955790549298e-03 1.024892239554549e-02 9.413212089658920e-03 1.021781497550366e-02 8.220528331423102e-03 8.864351484881074e-03 8.058598175000270e-03 1.004240004608624e-02 8.856562426752264e-03 3.127179758195500e+00 3.468740626529741e+00 2.937939466854739e+00 3.480066689944018e+00 3.126075007005245e+00 3.870291896561027e+00 1.435124823684722e-02 1.285668389462763e-02 1.570191507317072e-02 1.286593327300991e-02 1.430119730274433e-02 1.211245938887516e-02 1.282076396494564e-02 1.432839783724866e-02 1.565897309032872e-02 1.427011302591594e-02 1.282851930124916e-02 1.183100380065975e-02 2.914253632872451e-03 2.920304738964338e-03 3.392863013225188e-03 2.915020553636258e-03 3.232222863715822e-03 3.401796073383596e-03 2.506929923587770e+00 2.245969667447181e+00 2.614948525891867e+00 9.644573060028949e-03 1.089703693822622e-02 8.874209345439640e-03 1.088977104547657e-02 9.644522015081813e-03 8.865027406004037e-03 8.817711730037293e-02 8.073176736508796e-02 9.849372539703921e-02 8.809825292297892e-02 9.736176890003677e-02 7.709581328318700e-02 9.787178099178079e-02 8.812828637926257e-02 9.897125203186478e-02 8.078906251401889e-02 8.797321577413372e-02 7.721524482391796e-02 8.055855073698637e-02 8.808247448784029e-02 9.828748227981050e-02 9.738291730621458e-02 8.801014601191127e-02 7.708961497942259e-02 8.803687782047352e-02 9.789528869128809e-02 9.876254927530888e-02 8.788158170054665e-02 8.061678049912302e-02 7.720861582214880e-02 1.458164047171621e+00 1.454841043053061e+00 1.223597939363009e+00 5.299932490354484e+00 5.365158584936588e+00 6.312765710909615e+00 1.728745911255281e-01 1.815675830364248e-01 1.483464098775757e-01 1.463464230184709e-01 1.722122599800756e-01 1.486996047154478e-01 1.819661259128736e-01 1.729723796316872e-01 1.486850723311087e-01 1.722984507350949e-01 1.463008808807285e-01 1.490208517013231e-01 5.202772045924944e-01 4.318259617305751e-01 5.416925699700489e-01 4.318715975457591e-01 5.207159511204942e-01 5.416522906982421e-01 9.697471592219499e+00 8.819711218857101e+00 1.076361472686077e+01 1.892057560449039e-01 1.685150231563581e-01 2.126467629632535e-01 1.891052573279143e-01 2.169821620759121e-01 1.732399654316319e-01 1.686960729288895e-01 1.861950507320980e-01 2.125151466122939e-01 4.864628608805917e-03 4.638487134760596e-03 5.648169393511099e-03 2.388194621896325e-01 2.648963343454031e-01 2.185549327408584e-01 1.827715719497094e-03 2.031601271645899e-03 1.664817959866401e-03 5.535444020434518e-02 5.399489306132473e-02 4.423984204131334e-02 5.386524987018098e-02 4.928060808041883e-02 4.437012782554756e-02 3.868802916868280e+00 3.354869745465369e+00 3.215126486984571e+00 3.126873490371362e+00 3.351324329257578e+00 3.860151505534325e+00 3.346889431115982e+00 3.887325712405385e+00 3.883434603961920e+00 6.497942970863145e-03 5.762802136276392e-03 7.136218435905212e-03 6.186282992546583e-01 6.894157088434908e-01 7.833155778831097e-01 6.898822227384598e-01 6.385937649118488e-01 7.837905628794049e-01 9.504974677004721e+00 7.573773574557418e+00 8.448807391402122e+00 2.555368967836063e-01 2.238176423714212e-01 2.736558049470949e-01 2.553668180600417e-01 2.599948191552313e-01 2.125264629163796e-01 2.241000675585769e-01 2.544900029015585e-01 2.131625716418638e-01 2.233159839258727e-01 2.552692900062825e-01 2.730588463874765e-01 2.600757408946465e-01 2.551432887075928e-01 2.124381258661415e-01 2.542368799939382e-01 2.236058206018744e-01 2.130914105010537e-01 7.955468687209558e+00 7.514761407770534e+00 6.176421366970756e+00 9.423421823760179e-02 9.369107501241071e-02 1.111927387542518e-01 9.368497123327664e-02 9.431674732527243e-02 1.112387542619721e-01 2.963573737665177e-01 2.747917187647796e-01 3.350461558649278e-01 2.741794478813218e-01 2.961678381408632e-01 3.343249415256977e-01 1.789292848855246e-01 1.833532883025745e-01 1.482814124532599e-01 1.729020828648813e-01 1.7865773278049