<?xml version="1.0"?>
<VTKFile type="UnstructuredGrid" version="0.1" byte_order="LittleEndian">
<UnstructuredGrid>
<Piece NumberOfPoints="568" NumberOfCells="1054">
<Points>
<DataArray type="Float64" NumberOfComponents="3" format="ascii">
0 0 0 0.0499999999998997 0 0 0.0323698570487533 0.032369857048862 0 0.0584335251122665 0.0584335251122145 0 0 0.050000000000208 0 0 0.100000000000416 0 0.0400584584693195 0.0944578555791577 0 0.0980768456829153 0.0991724147309935 0 0.0944578555792846 0.0400584584694184 0 0.0999999999998147 0 0 0.0564522287083799 0.234565808376616 0 0 0.200000000000832 0 0.0388399996009313 0.179498259931901 0 0 0.150000000000624 0 0.0548726927265955 0.134106856398452 0 0.0896897021915411 0.138513804586622 0 0.122947659685672 0.148251464161954 0 0.0828750765696809 0.178818634882983 0 0.0996947712122641 0.22074048840547 0 0.158996951633215 0.227836749122277 0 0.125875177082847 0.188968332266695 0 0.169013160068682 0.168002193866631 0 0.189220110521158 0.126442066536112 0 0.22626394058332 0.154659468198381 0 0.205967211350529 0.199725178953962 0 0.211554843187388 0.241744476774187 0 0.180351590178421 0.0391903365350905 0 0.149999999999704 0 0 0.138357444660799 0.0589959339188492 0 0.148476056588621 0.112220907400452 0 0.181725902897582 0.0816119740612928 0 0.217206150464847 0.104439454835129 0 0.231674603334463 0.0553437746953104 0 0.199999999999558 0 0 0.249999999999412 0 0 0.283208049853001 0.0508433390825056 0 0.299999999999266 0 0 0.323619558532886 0.0327999278256247 0 0.362462430895343 0.0442183666074772 0 0.349999999999121 0 0 0.355822585194142 0.0854187642572584 0 0.322427311917699 0.0689379334381408 0 0.330767006442793 0.119592255048115 0 0.295063395037039 0.101138089243444 0 0.257146194987713 0.10413999068455 0 0.263189497696013 0.146101733972573 0 0.299142716792971 0.156496209701207 0 0.260171965190135 0.20370391303005 0 0.301079690692898 0.202800200091412 0 0.288402851022681 0.249609553207088 0 0.331796839804983 0.222301993972031 0 0.330801675951106 0.181791113002693 0 0.360307484821635 0.154014700871105 0 0.397289240071895 0.165639932095022 0 0.432407360090089 0.182056809654028 0 0.41732862935313 0.129866986343623 0 0.381034256806799 0.204783951629704 0 0.42421838472614 0.222465020057878 0 0.462293308810443 0.198909164566548 0 0.499999999999971 0.219686411149829 0 0.459520018388269 0.156664873305243 0 0.46567857652706 0.114368061527523 0 0.475746624217828 0.077626823840591 0 0.484924330582892 0.0373213982762724 0 0.499999999998694 0 0 0.449999999998829 0 0 0.446927950142653 0.0518018776450602 0 0.406855818272412 0.0411398773125117 0 0.399999999998975 0 0 0.390616286406845 0.0815251031619917 0 0.375161719606839 0.121918126660369 0 0.43122735573934 0.0881769991929174 0 0.429308231064016 0.40626685012723 0 0.392220576577811 0.380677966902274 0 0.394198866753185 0.419122252400708 0 0.377023860747173 0.458194175644768 0 0.410095980695696 0.490839357492854 0 0.423403423371937 0.447621318748554 0 0.461527143457989 0.473443594123526 0 0.461024257085337 0.432541991343326 0 0.465432111282168 0.387884235436819 0 0.49854341599768 0.370759147681271 0 0.472532117365031 0.340817108308049 0 0.483788712280009 0.297451778269774 0 0.455331360217251 0.252568731208715 0 0.430594867953342 0.303959734190635 0 0.391620987711813 0.295036992928546 0 0.401804626289837 0.256190339758575 0 0.43301393728221 0.359843205574921 0 0.391208871887456 0.334075776884043 0 0.348047572662274 0.35750068079406 0 0.323103257015693 0.32141443408924 0 0.357962884673884 0.256835227867104 0 0.354814354583093 0.30398436674999 0 0.323736926270502 0.27286413781594 0 0.297479491180417 0.296411157380844 0 0.260144435522079 0.292623904436535 0 0.25082138072345 0.257700107422368 0 0.284738052361283 0.343557681186738 0 0.255826059367993 0.395079699895134 0 0.296304338697064 0.429832022968145 0 0.305976555003817 0.393468168521193 0 0.354814223971285 0.403129814650693 0 0.333826635273302 0.441301250475035 0 0.334364244893045 0.478496031217408 0 0.299886550525317 0.467007278275931 0 0.262475847345986 0.447649432958947 0 0.262418491288269 0.490719222921541 0 0.192181271644967 0.465938389648695 0 0.232324767024371 0.466345253695677 0 0.219688017838559 0.433067836400238 0 0.197169318452384 0.387030152393625 0 0.178457744828726 0.430871172570494 0 0.148695787718589 0.404814523960821 0 0.144484766221814 0.453538915812712 0 0.160013142023585 0.497717270559093 0 0.220015181768822 0.28602682846308 0 0.19152147653881 0.327918797702154 0 0.236041954047958 0.321918283269407 0 0.222695530956879 0.358374234325388 0 0.154014700871176 0.360307484821747 0 0.143922094947914 0.306200702035457 0 0.168537671773945 0.272324831592801 0 0.110477540413226 0.263117535981694 0 0.0994921194810273 0.307463985332816 0 0.0732967881614181 0.342269570898506 0 0.116034002194931 0.33748134585014 0 0.0334576460409223 0.363648423312284 0 0 0.350000000001456 0 0.032220921767547 0.329014892144875 0 0.0537301716876466 0.288250771898286 0 0 0.300000000001248 0 0 0.25000000000104 0 0.0648933318035348 0.486697770604545 0 0.109199274598136 0.487580697080498 0 0.0971009795772073 0.435906739990532 0 0.10935320311386 0.378391909217271 0 0.060530514380151 0.395146264289728 0 0 0.400000000001664 0 0 0.450000000001872 0 0.0436128036610927 0.440061111828404 0 0.0294449071642091 0.475000000001966 0 0 0.500000000002059 0 0 0.550000000001734 0 0.0518018776450837 0.553072049857452 0 0.0373213982762153 0.515075669417473 0 0.0776268238405584 0.524253375782261 0 0.114368061527482 0.534321423472927 0 0.121918126660357 0.624838280393159 0 0.0881769991928987 0.568772644260674 0 0.0815251031619976 0.609383713593151 0 0.0411398773124836 0.59314418172763 0 0 0.600000000001387 0 0 0.65000000000104 0 0.0323578435067225 0.676600401985782 0 0.0442183666074753 0.637537569104702 0 0 0.700000000000693 0 0.0486329174879745 0.717891752740162 0 0.0910728127967196 0.741988048646878 0 0.0990187225489634 0.704756315583652 0 0.0854187642572582 0.644177414805869 0 0.0689379334381628 0.677572688082311 0 0.119592255048131 0.669232993557228 0 0.154014700871098 0.63969251517837 0 0.181791113002692 0.669198324048887 0 0.13725179499973 0.741546289628566 0 0.156496209701235 0.70085728320704 0 0.203703913030074 0.739828034809895 0 0.202800200091414 0.698920309307116 0 0.249609553207091 0.711597148977329 0 0.222301993972028 0.668203160195032 0 0.204783951629683 0.618965743193203 0 0.222487080058139 0.575775413711342 0 0.219686411149827 0.500000000000032 0 0.19896328510056 0.537691476689505 0 0.156664873305197 0.540479981611742 0 0.129866986343594 0.582671370646846 0 0.165639932094979 0.602710759928095 0 0.182056809653986 0.567592639909897 0 0.100000000000416 1 0 0.0944578555791882 0.959941541530687 0 0.050000000000208 1 0 0 1 0 0.0304524096104897 0.96954759038951 0 0 0.949999999999792 0 0.0584335251122541 0.941566474887746 0 0 0.899999999999584 0 0.0400584584693226 0.905542144420798 0 0.0979909576452082 0.900450397208809 0 0.122947659685717 0.851748535838097 0 0.0868130391934314 0.817095740868429 0 0.0870417061194161 0.853827995089262 0 0.0524690331668437 0.86696410734367 0 0 0.849999999999653 0 0.043889462445438 0.826759239819513 0 0 0.8 0 0 0.750000000000347 0 0.0529380014213358 0.776889771183312 0 0.112316928024456 0.78020430794084 0 0.16253691950235 0.782849122627686 0 0.243358441913473 0.786511897933875 0 0.203590747653644 0.794224894178719 0 0.228939290247373 0.839908789927278 0 0.171018735363 0.828981264636961 0 0.132261503269228 0.813060330014371 0 0.146882743185419 0.889622656308119 0 0.181725902897639 0.918388025938889 0 0.18958721034944 0.876602973603946 0 0.221311393310948 0.904144943719832 0 0.232226438176177 0.944207511169706 0 0.200000000000832 1 0 0.18045991219398 0.960710939969875 0 0.138347219894628 0.94095916274078 0 0.150000000000624 1 0 0.350000000001456 1 0 0.363638616126136 0.966544916821213 0 0.32894624184181 0.967797018267389 0 0.300000000001248 1 0 0.25000000000104 1 0 0.287907520382944 0.946359528487026 0 0.263054145574704 0.889490620931362 0 0.307381363266577 0.90051880305435 0 0.337480267781999 0.883965456331347 0 0.342269570898513 0.926703211838588 0 0.360307484821742 0.845985299128825 0 0.306195311694726 0.85607519768343 0 0.272549978320415 0.831201948690144 0 0.286026828463086 0.779984818231176 0 0.321918283269405 0.763958045952046 0 0.327918797702134 0.808478523461202 0 0.358374234325384 0.777304469043123 0 0.387030152393619 0.80283068154762 0 0.433067836400233 0.780311982161444 0 0.466346121879671 0.767675855240614 0 0.465938389648691 0.807818728355036 0 0.497717270559088 0.839986857976418 0 0.453538915812708 0.855515233778189 0 0.43087117257049 0.821542255171277 0 0.404814523960818 0.851304212281416 0 0.378391909217271 0.890646796886144 0 0.435906739990533 0.902899020422797 0 0.487580697080494 0.890800725401865 0 0.486697770604543 0.935106668196466 0 0.44006111182841 0.956387196338908 0 0.475000000001966 0.970555092835793 0 0.450000000001872 1 0 0.395146264289732 0.939469485619852 0 0.400000000001664 1 0 0.332314974080817 0.607792187328737 0 0.371046512961454 0.605451707483111 0 0.359843205574921 0.566986062717789 0 0.358156517437794 0.511134404479091 0 0.331306197573488 0.540525641468424 0 0.302927660481639 0.514843047212215 0 0.252871394412626 0.544583554344924 0 0.304297406799597 0.569139051464601 0 0.295036992928544 0.608379012288189 0 0.256190339758569 0.598195373710169 0 0.256845292557732 0.642035542479631 0 0.273496567448602 0.675817419964087 0 0.304216353843215 0.645149391934367 0 0.257700107422386 0.749178619276552 0 0.296411157380843 0.702520508819589 0 0.292551210545191 0.739979902911732 0 0.342702801024459 0.716724167620359 0 0.322598530820738 0.676700726098352 0 0.35944937237717 0.651647898084363 0 0.405647175079827 0.65626423320525 0 0.395079699895129 0.74417394063201 0 0.386423584673078 0.692862589235973 0 0.427155383338081 0.700777593753079 0 0.447649432958942 0.737524152654017 0 0.467368917376544 0.70015537930375 0 0.490731134405986 0.737590046187304 0 0.455174570318146 0.62
[...]
<CellData Scalars="pressure_p0," Vectors="velocity_p0," Tensors="">
<DataArray type="Float64" Name="pressure_p0" format="ascii">
0.00774278887761653 0.0030505245131949 0.013210097236824 0.00853776513116445 0.00377461814854222 0.00377515347617618 0.00925438926439792 0.018376226613596 0.0233723590689176 0.0180476744140184 0.0226112607928601 0.0339447857615477 0.030559618953718 0.0317393406102067 0.022759932594759 0.0189695400670563 0.00531450221144555 0.0166929729466997 0.0089598550459194 0.0165490339598698 0.00366263115078592 0.0088158822056877 0.00892488063262669 0.0212323548728657 0.0274023418393899 0.0287608534875536 0.0306178271618409 0.0222877563117441 0.0285539248354845 0.0338943910757709 0.0247807642978934 0.0481157191275384 0.0352427384086027 0.0411625751010538 0.047714542053479 0.0381157908214187 0.0400310103119992 0.0455224183801333 0.0553349691000276 0.0516583804469169 0.0633985999525482 0.0596407927453169 0.0636017979279396 0.0529389449147819 0.0585865469471695 0.0617467319058364 0.051042401020535 0.0449972450876641 0.0473936519147771 0.0350959388864555 0.0423843894816346 0.0423847647516671 0.0352816931749642 0.0465615547163808 0.0551724965017755 0.0519793713806684 0.0602593523197 0.0606312122147825 0.0523789641630871 0.0537667602768694 0.0589013210895444 0.068895846227661 0.0645899241297602 0.0743302459233123 0.0731179855159851 0.0765726216958967 0.0782684766312288 0.0795114758998212 0.0826228914810313 0.0829780818334073 0.0806209754520132 0.0825137806553201 0.0797332289322018 0.0783213322433232 0.0753484337873132 0.072793839682659 0.0690513187027061 0.065066472146539 0.0678212662543169 0.0682691940489565 0.0744318935114859 0.0741302783878707 0.0703696480808093 0.0668226235548249 0.0698959106517862 0.0705231981105691 0.0739133142595431 0.0751133930607989 0.0761172893378837 0.0798514035961721 0.0810034879999994 0.078910545339969 0.0759752469971854 0.0810641798603357 0.0808060678366972 0.085256113742283 0.0833881295806021 0.0858404305480099 0.0835879530969034 0.0868280473699642 0.0881578639609044 0.0857533911448514 0.0836742765505745 0.0865524626885628 0.0875912650674723 0.0887176888693857 0.0883243792764883 0.0899133673035658 0.0896326108045896 0.0898650778725978 0.0886906099621881 0.0889033427469439 0.0896820467951278 0.0899178829024868 0.0896847243054436 0.0898357857218665 0.0882343302254274 0.0891388891637017 0.0888989449402308 0.0899275361978073 0.0895451118037744 0.089713450417378 0.0892547532187725 0.0877130032720642 0.0870211591289135 0.0880631102922653 0.0845850683714812 0.0843115293067672 0.0850516348785614 0.0866328180915709 0.0863762631480022 0.0868228540244489 0.0870002638566495 0.0836951444142677 0.0860083735112536 0.0831481935283296 0.0853720723533996 0.0858242253002514 0.0837994469580003 0.0878575759024123 0.0887793134812261 0.0884045020163082 0.0895917966996696 0.0899073126820218 0.0897016142790845 0.0899054876797424 0.0897153707321332 0.0882535213373544 0.0889310836189781 0.0884996673182005 0.0899094238108734 0.0899245190817626 0.0897650546067406 0.0898827992531675 0.0886302925755614 0.0892959094107746 0.0891473628561082 0.089793250816628 0.0890982466195493 0.0877128455372453 0.0862135428701181 0.0859365139548852 0.083564275130759 0.084020275646248 0.0869944158250654 0.086007479319237 0.0833230786801233 0.0748018517872708 0.0757024094610392 0.081945623461291 0.0790941421242735 0.0795656800614473 0.082357768100305 0.0751613529262762 0.0779914660700207 0.0785227585621911 0.069713123443437 0.0733145329064374 0.0694949368402264 0.0668329138289353 0.0730818664655952 0.0656468992370438 0.0644485256567303 0.0677644806745683 0.0747152644890672 0.0703565295276009 0.0696679835291286 0.0782983311239493 0.0776362254203102 0.0808083599353163 0.0819794207588443 0.0809598945200144 0.0799521894446006 0.0763741901099341 0.0708136248432132 0.0747874041675791 0.0704425568420162 0.0744222666530545 0.0641133420409546 0.0684113057659721 0.0612092012850858 0.0506953805996769 0.05619321438473 0.0521416370689306 0.0561957023766746 0.0612141176315028 0.0627941219684712 0.0584480513089308 0.0582246187858482 0.0525088448024911 0.0426467170902063 0.0469348110362905 0.0449567580880484 0.0376173444202084 0.0357462943014527 0.0377626305645732 0.0447031933237097 0.0462031995468282 0.0528860456057934 0.0623282341806093 0.0589619136309816 0.0613177019771585 0.0564254952792302 0.05134712885685 0.0566154758507398 0.0631453034150682 0.0537398469426989 0.0484169038245929 0.0348062400240069 0.0377917516767877 0.0441195456648416 0.0453014388689059 0.0385377855539578 0.0398050801121358 0.0205865449206859 0.0325724600343251 0.0245157548938313 0.0211475552438071 0.0330699066452507 0.0268007105808962 0.0276796389430738 0.0226644624735172 0.0130515266318677 0.0156798116313807 0.00315377038266896 0.00618469925125105 0.00303697065149653 0.0149369866894994 0.00808448507193294 0.0050574259597504 0.0103453329558094 0.0192169570133112 0.0252067748478822 0.0234413433360787 0.0323118939644281 0.032686769392431 0.0248219139459025 0.0188136842883723 0.00978457430080038 0.00883747899237523 0.00410710446301138 0.00687266070421737 0.0129480663211464 0.0123645502952775 0.00277434193039754 0.00628482808147517 0.00351679796970283 0.00838281602176927 0.0168399223906493 0.0156275595112132 0.0203234433982198 0.0260209909539508 0.0306900797626199 0.0279045745072936 0.0307598382704496 0.0277550274185342 0.0196934012015481 0.015643474596016 0.016955641197653 0.00873852001545132 0.00387753722724643 0.00803073202466674 0.00720665987516705 0.00416534254400088 0.00305011041931832 0.0136598206473241 0.00458039748236545 0.00762061328640844 0.0140697024333782 0.00954669149840655 0.0180250727661492 0.0222459955423352 0.020229322635625 0.0302266941290194 0.0197335029912884 0.0185757538115215 0.025454344401417 0.0266777781265067 0.0268074529385771 0.0302100648516097 0.0362203407470168 0.041494476411512 0.0412833473065122 0.0482392139097886 0.0447360169094168 0.0344280468320796 0.0359437718439612 0.0483072295898763 0.0500005777586858 0.0570432537524831 0.0584119827701791 0.0609326993141587 0.05355303250878 0.0534214036529804 0.0633002156894203 0.0590558108292438 0.061400643204011 0.0590185332847746 0.0535896467223808 0.0623710757846047 0.0583640041386897 0.0625913793141319 0.0581424458715283 0.0512015982296679 0.0531556439275274 0.0480255151975398 0.0462348882230967 0.0392333652703187 0.0351632158345357 0.036677604075594 0.0423881706070105 0.0380804695095514 0.0401318017956837 0.0491929440402237 0.0469543140885152 0.0431247634567288 0.0317361834376768 0.0189673796474139 0.0227575293101928 0.0130299471046296 0.00286939404551098 0.00756228481289932 0.00835644843624347 0.00925279401260676 0.00377386365661706 0.00377429267062199 0.0178140851737011 0.0183653419698557 0.0233614098765592 0.0305473743775965 0.0337908551447348 0.0285134772614906 0.0315284888291333 0.0275140845411711 0.020331727068676 0.0221376974303955 0.0171740608892833 0.00906188345501753 0.00869789283078594 0.0041366255411242 0.0171949362478256 0.00910372876151923 0.00498533263953176 0.0238472542470118 0.0234633530123976 0.0305929459389782 0.031404832907056 0.0452320378866341 0.0376130534918387 0.0421701857601523 0.0371951847428595 0.0479880843486359 0.0505450230024124 0.0566648293186209 0.0605039311069912 0.0584963062558458 0.0558647844892047 0.0531289560025482 0.0632686255539299 0.0520468778192848 0.0455811473100025 0.0388292201349012 0.0400558232201662 0.0351318700839213 0.042249982485515 0.0464633230107995 0.0523243812641392 0.0611357163398127 0.0613544778333232 0.0555076342771558 0.0524224261354871 0.0538133564574325 0.0589424851684485 0.0473990613081378 0.0423888236279888 0.0450008552359232 0.0350915831607437 0.0798072411583835 0.0826618056582451 0.079459623000236 0.0821833473626918 0.0758584255496649 0.0768550723877672 0.0736829205784046 0.0692063220059579 0.0649454490804388 0.0703970252443055 0.065795509157733 0.0714622632096599 0.0754934357284107 0.0772751488068927 0.0747489347135115 0.082724841347966 0.0804809972376953 0.081232843327642 0.0811596620726766 0.0776004391722918 0.0780598417136701 0.0645780703715499 0.0694215168635792 0.0731151740782784 0.0747109877941686 0.0719830851322034 0.0669499768950046 0.0690960523317827 0.0660199989947711 0.0728121617416178 0.0789614463704305 0.0783033472998753 0.0811036433859955 0.0836611766065241 0.0859866974740206 0.0869096927765517 0.0874712503695166 0.0887916278808868 0.0898509478987627 0.0898868937896606 0.0897207535007473 0.0890520286651961 0.0885247165051688 0.0888563353196512 0.0896096937823421 0.0897445848736516 0.0878449826441655 0.087768578821312 0.0861956704095853 0.084050012594856 0.0837512918309291 0.0857802768789656 0.0873743269528386 0.0860544533877673 0.089173614577065 0.0899320315297624 0.0895095495325042 0.0889866335911796 0.0894730708796119 0.0899126977938401 0.0896408684884842 0.0899229337945777 0.0890608304559318 0.0877987626177262 0.0865328972737658 0.0842703353303375 0.077701313242125 0.0806737673745919 0.080703105853428 0.0828575195308908 0.0801247324451148 0.0775112555987739 0.07764834357922 0.0748441105615833 0.0776634331779384 0.0704925733253855 0.0679804725555979 0.0676788410381945 0.0702329451043417 0.0744694055822903 0.0744755519743347 0.0673571156387241 0.0689811000115095 0.0637864311148796 0.0727786901756479 0.0723480998155227 0.0702464043781413 0.0668202360902427 0.0691761979154789 0.0680563884233295 0.0744294260533937 0.0757709412599628 0.0760208124488064 0.0830798741638507 0.0820168414020681 0.0817623522215987 0.0790639391791081 0.0776820824409495 0.0772439966844008 0.0846397404269029 0.084032362216261 0.0875180106384073 0.0861166580761262 0.0880551247044178 0.0872463411129439 0.0858093105933355 0.0873331640874734 0.0894765591332797 0.0894815902969294 0.0887031439341756 0.0886494423480066 0.0898889718149447 0.089189634352015 0.0893369841584974 0.0898585190764071 0.0897869846960173 0.0898305579234849 0.0896523293212073 0.0894162880301481 0.0881890671127221 0.087147537265281 0.0878056840811613 0.0834799486788697 0.0835121085455047 0.085028899811036 0.0845532787604399 0.0844585199253368 0.0877358163417847 0.0866659992126539 0.0871575539310539 0.089057823672931 0.0890823279749434 0.0897304543531858 0.0895721288509504 0.0899423437605078 0.0887082925198166 0.0883362702745597 0.0874757238143356 0.0870931932658416 0.0864131952190888 0.0858666997532848 0.083658817277114 0.0845819688402436 0.0853734898420483 0.0868188903968949 0.088429990840527 0.0889549309417534 0.0897797139976465 0.0899476334910483 0.0898637288642924 0.0899751926031858 0.0897525105348622 0.0884338549102684 0.0892425175763115 0.0892837495129095 0.089800681578662 0.0891722519227319 0.0890827198178973 0.0876800417190514 0.0861851710489431 0.0859177486583173 0.0835709937417708 0.0840193247999384 0.0870229737102327 0.0859222338818952 0.0831704550764424 0.0748619412950452 0.0756991020802166 0.0819509803212468 0.0790931127684181 0.0795641949423987 0.0823586938592584 0.0779902767652726 0.0751588613144264 0.0785194873782071 0.0733112657851652 0.0697100356599206 0.0694966702421538 0.0668296878682384 0.0730816371694166 0.0656512585637235 0.0644575034395728 0.0705926905287132 0.0697427917861106 0.0679366191803608 0.0640464567962161 0.0684924955188099 0.0707051166397085 0.0707255912768038 0.0747190917948543 0.0757782659894439 0.0775133754861136 0.0810522588779184 0.0806114740821925 0.0827133866704095 0.0814236627951121 0.0779026685845069 0.0754864360174704 0.0768658842039603 0.0845813526783924 0.0843078509591855 0.0877086489507456 0.0880587077530809 0.0870170321355172 0.0892500033196879 0.0897084362247689 0.0895402735314269 0.0899224374983748 0.0891342809135731 0.0888943369702315 0.0898309567933183 0.0882299882229654 0.0866286196314687 0.0863720991446105 0.0850477400536132 0.0833839672855671 0.0852519513932069 0.0835834433293675 0.0858360028294976 0.0868238028207426 0.0881537395713271 0.0886862997473116 0.0899132251798171 0.0896804953134895 0.0896783736002082 0.0888995497453034 0.088320743941265 0.0899107268210392 0.0898708709284204 0.0896322180442174 0.0887139459113646 0.0875837666840607 0.0865480794228425 0.0836705987557335 0.0857478150755354 0.0809993024827205 0.0798464011156923 0.0761113687021779 0.0751094527929035 0.0739082390084042 0.0668185000744904 0.070514115281537 0.0698899021548107 0.0744245427911295 0.0679623538831109 0.0700847432277468 0.0741356917529615 0.0759695471714262 0.0789057754667642 0.081059340463986 0.0808023431908241 0.0806186509466079 0.0829748584032523 0.0797309553039949 0.0825105624252887 0.0783210532139779 0.0753584121488708 0.0675926531781299 0.0690381303419915 0.0644596592751886 0.0727470241032697 0.0742563675727197 0.0639209467818791 0.0688124642541704 0.0730410484712802 0.0765590165917297 0.0782544478260072 0.0794983262813505 0.0826194633573366 0.0346358343163428 0.0410341634065372 0.0413463883564975 0.0468268795143724 0.0582687996328361 0.0512650784521093 0.0525693051747204 0.0548169146015652 0.0602597491178458 0.0626909951790569 0.0520844173214626 0.043114291418031 0.04644829575721 0.0451637133559119 0.0347466371379646 0.0360599063447367 0.0391126617514919 0.036989128425602 0.0454808729969777 0.0546795669263946 0.0509423852421402 0.0626473768946238 0.0598763286735108 0.0523850525759585 0.0589737870861893 0.0587060837835278 0.0618778019280507 0.051257775677798 0.0347847175565687 0.0483696209163934 0.047941812591384 0.0412145996090094 0.033652069489555 0.0278722413442815 0.0217602827570336 0.024373701482354 0.00525201291071512 0.0165540513883068 0.00893999604443821 0.0168556022598141 0.0092470746680144 0.00370496054731806 0.00931534784781126 0.0233747369530207 0.0249978513050866 0.0291652494437279 0.0329573180052651 0.030226366192956 0.0185146962356308 0.0235089904300451 0.0185702917656097 0.00377532777738331 0.00377490284900957 0.00925552435207658 0.00853824386288881 0.00305068320485239 0.0077429134755526 0.0132103799099963 0.0227588078032026 0.0189701140801777 0.031735513894114 0.0426451589402501 0.0469333322834775 0.0449555199845776 0.0376161399288731 0.0357450634344302 0.0377616624092885 0.0447014470821543 0.0462011366592108 0.0521388244029658 0.0561702999906897 0.0506929856841638 0.0561674500322732 0.0611434130182726 0.0611883510995305 0.0627914819064684 0.0525070516334289 0.0582235303494287 0.0584485338154181 0.063151494736309 0.056615237498664 0.0537393351562352 0.0590966675990909 0.0623253483342169 0.0613162049239675 0.0513654229063647 0.056424167733206 0.0530485290074944 0.0453211795935468 0.0399186080338564 0.0385611947831791 0.0484158493705833 0.0441181730856257 0.0377905657826646 0.0348050434774121 0.0276785602151749 0.0267984324163578 0.0330677299758093 0.0211369812564459 0.022663599351099 0.0325729212128534 0.0245078186891753 0.0205176296863878 0.0102737625994114 0.008073622132801 0.00504832064431001 0.015678947478703 0.0130490179251606 0.0149260397966138 0.00303504786702652 0.00315339426874643 0.00618247260813966 0.0041069785604441 0.0097842399975204 0.00883690424408105 0.024821067160644 0.0188130643034948 0.0326856718713689 0.0323110620891436 0.0192163583323172 0.0234714270168793 0.0252061503398717 0.0123654675944488 0.0129477510369329 0.00687247821108247 0.00628585426501931 0.00277428947118694 0.00351787224633519 0.00839044022999869 0.0156662664153883 0.0168718074923333 0.00802863145827298 0.00874485682113861 0.00387764046064306 0.0171378530760289 0.0156029811590988 0.0198298288544944 0.0278883525754569 0.030715250832949 0.0205354127117056 0.0308619019665472 0.0262242847031667 0.0279359963442016 0.0351644756656279 0.0392346492930267 0.0462314402759156 0.0480220712348202 0.0366799999559896 0.042388281550661 0.0380744583372857 0.0401260172935852 0.0491921013299703 0.0469539824579412 0.0431245997898443 0.0535874166852763 0.0590158760968034 0.0613987496578246 0.0623556833246634 0.0583466558846898 0.0581264944551475 0.0625386870460068 0.0511975895264764 0.0531508832214644 0.0570457005295816 0.0500014565116627 0.0609365661263296 0.0584140221659955 0.0632604457827556 0.0590546361058064 0.0535531801158084 0.0534223947617493 0.0482394109495905 0.0362159006599804 0.0412846428439265 0.0414960361274685 0.0368872637171378 0.0346163617877123 0.0483081153927601 0.0454641563840058 0.0323558067519085 0.0206313826120105 0.0238251861404922 0.0196421616699291 0.0269179153209806 0.0303584658160603 0.0268712525999886 0.0256118820823991 0.0187324654566191 0.019850221314274 0.0136989960440135 0.00309156656269912 0.00724536321600183 0.00416284577906724 0.00997346168026493 0.0143181016855065 0.00786962873734623 0.00478728480668463 0.00520950461285886 0.00888756857193167 0.0165008461468824 0.00369530073022432 0.00931094986380252 0.00923325744216352 0.0168414905009768 0.0251248930133259 0.0235384085217056 0.0296015904163577 0.0289120010767742 0.0333756357854686 0.0245298953736964 0.0224956229784659 0.0132107076212797 0.00305073992900201 0.00774311376189592 0.0085383950524598 0.00925558069500333 0.00377488965380728 0.00377526158546281 0.018531315676131 0.0330818884436218 0.0302859619377197 0.0341453058272851 0.0234749140835781 0.0184800334669259 0.0189705412811467 0.0317372691876393 0.0227597137309641 0.0473273319381958 0.0419570990374888 0.0347292613204992 0.0443310929202145 0.0409473591395775 0.0353725888687724 0.0421418540275586 0.046290858472765 0.0520109853558869 0.0610271648054639 0.0614811899090178 0.0554212839901611 0.0539202662566599 0.0522992985393467 0.0591135932880412 0.0468023811737185 0.0453140349075254 0.0496216599989722 0.0369914809442023 0.0407734045015953 0.0353356208354685 0.0371561067808937 0.0390145062896601 0.0454061259009022 0.0525209455604016 0.0516943004395602 0.0557022081422239 0.0630727426249904 0.0580260115202577 0.0562653534140898 0.0603964031025761 0.0691026040741498 0.0659188538253593 0.072819968042978 0.0719765404873761 0.0747180930716779 0.0668369367577393 0.0694190469435584 0.0644995071519146 0.0731096180037366 0.0776071481345336 0.0780662818324644 0.0812390507924502 0.0811669249949426 0.0811115104216291 0.0789917896252515 0.0783121720427011 0.0737070813103883 0.0692277847490308 0.0651227672325125 0.0704303508275286 0.0659750193845474 0.0714767553069119 0.0755037149967582 0.0772842414885554 0.0804866367967251 0.0827304429970465 0.0747758351379182 0.075883400542061 0.0794678483594679 0.0821890275928736 0.0826669477747012 0.0798147642119927 0.0768612246864111 0.0878045264268753 0.0842760517312916 0.0865386115424626 0.087380119785102 0.0857861590685412 0.0860606289170904 0.0891791059089098 0.0895149962415383 0.0899371360313992 0.0889922756457148 0.0894786919180579 0.0899180837226889 0.089928301382461 0.0896464125437531 0.0890665038868559 0.0869197789216788 0.087494908046523 0.0859979595582096 0.0836686326929501 0.0840571723505288 0.0837578571654556 0.0878510149056067 0.0862029307391793 0.0877749145889315 0.088862206773402 0.0897495047868341 0.0896145762608201 0.0898904596762875 0.0897324159464344 0.0890715114909824 0.0885332265986411 0.0888231008778227 0.0898675600304085 0.089513548168659 0.0895422079770458 0.0898859855094879 0.0899085575759869 0.0887914193838044 0.0886894476095548 0.08737991056456 0.0831607444721398 0.0858930228960954 0.0842992262120581 0.0839741508715599 0.0874637248515356 0.0861507619302996 0.0879500371693019 0.0869849493310974 0.089224962427316 0.0894277285753415 0.0897574323753972 0.0898165911413626 0.0897608009885334 0.0894327677756597 0.089790450621222 0.0894292728926291 0.0894000486205031 0.0881384521171946 0.0881890635842153 0.08734868516146 0.0853103493891508 0.08366487200337 0.0836066105068134 0.0880000324185814 0.0870301805061019 0.0844658063125399 0.0818510044772075 0.0819428441939673 0.0778850602977973 0.0808119952344116 0.0810046881577738 0.0749682926712218 0.0779084922080317 0.0775147886804467 0.0702855805231034 0.0677404952348405 0.0746780289020113 0.0746816410901686 0.0702145028503371 0.0676477530411887 0.0673546359758426 0.0689289319870427 0.0702321803104513 0.0726659823125618 0.0722510708438733 0.0637445632125715 0.0691815932280525 0.0680210446866043 0.0668264444316224 0.0744625256874224