<?xml version="1.0"?>
<VTKFile type="UnstructuredGrid" version="0.1" byte_order="LittleEndian">
<UnstructuredGrid>
<Piece NumberOfPoints="568" NumberOfCells="1054">
<Points>
<DataArray type="Float64" NumberOfComponents="3" format="ascii">
0 0 0 0.0499999999998997 0 0 0.0323698570487533 0.032369857048862 0 0.0584335251122665 0.0584335251122145 0 0 0.050000000000208 0 0 0.100000000000416 0 0.0400584584693195 0.0944578555791577 0 0.0980768456829153 0.0991724147309935 0 0.0944578555792846 0.0400584584694184 0 0.0999999999998147 0 0 0.0564522287083799 0.234565808376616 0 0 0.200000000000832 0 0.0388399996009313 0.179498259931901 0 0 0.150000000000624 0 0.0548726927265955 0.134106856398452 0 0.0896897021915411 0.138513804586622 0 0.122947659685672 0.148251464161954 0 0.0828750765696809 0.178818634882983 0 0.0996947712122641 0.22074048840547 0 0.158996951633215 0.227836749122277 0 0.125875177082847 0.188968332266695 0 0.169013160068682 0.168002193866631 0 0.189220110521158 0.126442066536112 0 0.22626394058332 0.154659468198381 0 0.205967211350529 0.199725178953962 0 0.211554843187388 0.241744476774187 0 0.180351590178421 0.0391903365350905 0 0.149999999999704 0 0 0.138357444660799 0.0589959339188492 0 0.148476056588621 0.112220907400452 0 0.181725902897582 0.0816119740612928 0 0.217206150464847 0.104439454835129 0 0.231674603334463 0.0553437746953104 0 0.199999999999558 0 0 0.249999999999412 0 0 0.283208049853001 0.0508433390825056 0 0.299999999999266 0 0 0.323619558532886 0.0327999278256247 0 0.362462430895343 0.0442183666074772 0 0.349999999999121 0 0 0.355822585194142 0.0854187642572584 0 0.322427311917699 0.0689379334381408 0 0.330767006442793 0.119592255048115 0 0.295063395037039 0.101138089243444 0 0.257146194987713 0.10413999068455 0 0.263189497696013 0.146101733972573 0 0.299142716792971 0.156496209701207 0 0.260171965190135 0.20370391303005 0 0.301079690692898 0.202800200091412 0 0.288402851022681 0.249609553207088 0 0.331796839804983 0.222301993972031 0 0.330801675951106 0.181791113002693 0 0.360307484821635 0.154014700871105 0 0.397289240071895 0.165639932095022 0 0.432407360090089 0.182056809654028 0 0.41732862935313 0.129866986343623 0 0.381034256806799 0.204783951629704 0 0.42421838472614 0.222465020057878 0 0.462293308810443 0.198909164566548 0 0.499999999999971 0.219686411149829 0 0.459520018388269 0.156664873305243 0 0.46567857652706 0.114368061527523 0 0.475746624217828 0.077626823840591 0 0.484924330582892 0.0373213982762724 0 0.499999999998694 0 0 0.449999999998829 0 0 0.446927950142653 0.0518018776450602 0 0.406855818272412 0.0411398773125117 0 0.399999999998975 0 0 0.390616286406845 0.0815251031619917 0 0.375161719606839 0.121918126660369 0 0.43122735573934 0.0881769991929174 0 0.429308231064016 0.40626685012723 0 0.392220576577811 0.380677966902274 0 0.394198866753185 0.419122252400708 0 0.377023860747173 0.458194175644768 0 0.410095980695696 0.490839357492854 0 0.423403423371937 0.447621318748554 0 0.461527143457989 0.473443594123526 0 0.461024257085337 0.432541991343326 0 0.465432111282168 0.387884235436819 0 0.49854341599768 0.370759147681271 0 0.472532117365031 0.340817108308049 0 0.483788712280009 0.297451778269774 0 0.455331360217251 0.252568731208715 0 0.430594867953342 0.303959734190635 0 0.391620987711813 0.295036992928546 0 0.401804626289837 0.256190339758575 0 0.43301393728221 0.359843205574921 0 0.391208871887456 0.334075776884043 0 0.348047572662274 0.35750068079406 0 0.323103257015693 0.32141443408924 0 0.357962884673884 0.256835227867104 0 0.354814354583093 0.30398436674999 0 0.323736926270502 0.27286413781594 0 0.297479491180417 0.296411157380844 0 0.260144435522079 0.292623904436535 0 0.25082138072345 0.257700107422368 0 0.284738052361283 0.343557681186738 0 0.255826059367993 0.395079699895134 0 0.296304338697064 0.429832022968145 0 0.305976555003817 0.393468168521193 0 0.354814223971285 0.403129814650693 0 0.333826635273302 0.441301250475035 0 0.334364244893045 0.478496031217408 0 0.299886550525317 0.467007278275931 0 0.262475847345986 0.447649432958947 0 0.262418491288269 0.490719222921541 0 0.192181271644967 0.465938389648695 0 0.232324767024371 0.466345253695677 0 0.219688017838559 0.433067836400238 0 0.197169318452384 0.387030152393625 0 0.178457744828726 0.430871172570494 0 0.148695787718589 0.404814523960821 0 0.144484766221814 0.453538915812712 0 0.160013142023585 0.497717270559093 0 0.220015181768822 0.28602682846308 0 0.19152147653881 0.327918797702154 0 0.236041954047958 0.321918283269407 0 0.222695530956879 0.358374234325388 0 0.154014700871176 0.360307484821747 0 0.143922094947914 0.306200702035457 0 0.168537671773945 0.272324831592801 0 0.110477540413226 0.263117535981694 0 0.0994921194810273 0.307463985332816 0 0.0732967881614181 0.342269570898506 0 0.116034002194931 0.33748134585014 0 0.0334576460409223 0.363648423312284 0 0 0.350000000001456 0 0.032220921767547 0.329014892144875 0 0.0537301716876466 0.288250771898286 0 0 0.300000000001248 0 0 0.25000000000104 0 0.0648933318035348 0.486697770604545 0 0.109199274598136 0.487580697080498 0 0.0971009795772073 0.435906739990532 0 0.10935320311386 0.378391909217271 0 0.060530514380151 0.395146264289728 0 0 0.400000000001664 0 0 0.450000000001872 0 0.0436128036610927 0.440061111828404 0 0.0294449071642091 0.475000000001966 0 0 0.500000000002059 0 0 0.550000000001734 0 0.0518018776450837 0.553072049857452 0 0.0373213982762153 0.515075669417473 0 0.0776268238405584 0.524253375782261 0 0.114368061527482 0.534321423472927 0 0.121918126660357 0.624838280393159 0 0.0881769991928987 0.568772644260674 0 0.0815251031619976 0.609383713593151 0 0.0411398773124836 0.59314418172763 0 0 0.600000000001387 0 0 0.65000000000104 0 0.0323578435067225 0.676600401985782 0 0.0442183666074753 0.637537569104702 0 0 0.700000000000693 0 0.0486329174879745 0.717891752740162 0 0.0910728127967196 0.741988048646878 0 0.0990187225489634 0.704756315583652 0 0.0854187642572582 0.644177414805869 0 0.0689379334381628 0.677572688082311 0 0.119592255048131 0.669232993557228 0 0.154014700871098 0.63969251517837 0 0.181791113002692 0.669198324048887 0 0.13725179499973 0.741546289628566 0 0.156496209701235 0.70085728320704 0 0.203703913030074 0.739828034809895 0 0.202800200091414 0.698920309307116 0 0.249609553207091 0.711597148977329 0 0.222301993972028 0.668203160195032 0 0.204783951629683 0.618965743193203 0 0.222487080058139 0.575775413711342 0 0.219686411149827 0.500000000000032 0 0.19896328510056 0.537691476689505 0 0.156664873305197 0.540479981611742 0 0.129866986343594 0.582671370646846 0 0.165639932094979 0.602710759928095 0 0.182056809653986 0.567592639909897 0 0.100000000000416 1 0 0.0944578555791882 0.959941541530687 0 0.050000000000208 1 0 0 1 0 0.0304524096104897 0.96954759038951 0 0 0.949999999999792 0 0.0584335251122541 0.941566474887746 0 0 0.899999999999584 0 0.0400584584693226 0.905542144420798 0 0.0979909576452082 0.900450397208809 0 0.122947659685717 0.851748535838097 0 0.0868130391934314 0.817095740868429 0 0.0870417061194161 0.853827995089262 0 0.0524690331668437 0.86696410734367 0 0 0.849999999999653 0 0.043889462445438 0.826759239819513 0 0 0.8 0 0 0.750000000000347 0 0.0529380014213358 0.776889771183312 0 0.112316928024456 0.78020430794084 0 0.16253691950235 0.782849122627686 0 0.243358441913473 0.786511897933875 0 0.203590747653644 0.794224894178719 0 0.228939290247373 0.839908789927278 0 0.171018735363 0.828981264636961 0 0.132261503269228 0.813060330014371 0 0.146882743185419 0.889622656308119 0 0.181725902897639 0.918388025938889 0 0.18958721034944 0.876602973603946 0 0.221311393310948 0.904144943719832 0 0.232226438176177 0.944207511169706 0 0.200000000000832 1 0 0.18045991219398 0.960710939969875 0 0.138347219894628 0.94095916274078 0 0.150000000000624 1 0 0.350000000001456 1 0 0.363638616126136 0.966544916821213 0 0.32894624184181 0.967797018267389 0 0.300000000001248 1 0 0.25000000000104 1 0 0.287907520382944 0.946359528487026 0 0.263054145574704 0.889490620931362 0 0.307381363266577 0.90051880305435 0 0.337480267781999 0.883965456331347 0 0.342269570898513 0.926703211838588 0 0.360307484821742 0.845985299128825 0 0.306195311694726 0.85607519768343 0 0.272549978320415 0.831201948690144 0 0.286026828463086 0.779984818231176 0 0.321918283269405 0.763958045952046 0 0.327918797702134 0.808478523461202 0 0.358374234325384 0.777304469043123 0 0.387030152393619 0.80283068154762 0 0.433067836400233 0.780311982161444 0 0.466346121879671 0.767675855240614 0 0.465938389648691 0.807818728355036 0 0.497717270559088 0.839986857976418 0 0.453538915812708 0.855515233778189 0 0.43087117257049 0.821542255171277 0 0.404814523960818 0.851304212281416 0 0.378391909217271 0.890646796886144 0 0.435906739990533 0.902899020422797 0 0.487580697080494 0.890800725401865 0 0.486697770604543 0.935106668196466 0 0.44006111182841 0.956387196338908 0 0.475000000001966 0.970555092835793 0 0.450000000001872 1 0 0.395146264289732 0.939469485619852 0 0.400000000001664 1 0 0.332314974080817 0.607792187328737 0 0.371046512961454 0.605451707483111 0 0.359843205574921 0.566986062717789 0 0.358156517437794 0.511134404479091 0 0.331306197573488 0.540525641468424 0 0.302927660481639 0.514843047212215 0 0.252871394412626 0.544583554344924 0 0.304297406799597 0.569139051464601 0 0.295036992928544 0.608379012288189 0 0.256190339758569 0.598195373710169 0 0.256845292557732 0.642035542479631 0 0.273496567448602 0.675817419964087 0 0.304216353843215 0.645149391934367 0 0.257700107422386 0.749178619276552 0 0.296411157380843 0.702520508819589 0 0.292551210545191 0.739979902911732 0 0.342702801024459 0.716724167620359 0 0.322598530820738 0.676700726098352 0 0.35944937237717 0.651647898084363 0 0.405647175079827 0.65626423320525 0 0.395079699895129 0.74417394063201 0 0.386423584673078 0.692862589235973 0 0.427155383338081 0.700777593753079 0 0.447649432958942 0.737524152654017 0 0.467368917376544 0.70015537930375 0 0.490731134405986 0.737590046187304 0 0.455174570318146 0.62
[...]
<CellData Scalars="pressure_p0," Vectors="velocity_p0," Tensors="">
<DataArray type="Float64" Name="pressure_p0" format="ascii">
0.00774272192870629 0.0030504974788328 0.013209982564043 0.0085376892442888 0.00377457711116535 0.00377511542560955 0.00925430552610602 0.0183760652780646 0.023372152667648 0.0180475265295039 0.0226110882654049 0.0339445112094505 0.0305593513066223 0.0317390848744539 0.0227597393293429 0.0189693757710313 0.00531448075144028 0.0166928869517024 0.00895981196127896 0.0165489321349212 0.00366261081953413 0.00881582693082157 0.00892481285241188 0.0212322125547779 0.0274021555865966 0.028760632795796 0.030617636612826 0.0222876511396677 0.0285537728846616 0.0338942435966565 0.0247806669693535 0.0481155306201839 0.0352425683647355 0.0411623609962659 0.0477143086917528 0.0381155499379829 0.0400307145993651 0.0455220742680194 0.0553345977652409 0.0516580411906172 0.0633982307815905 0.0596404883829987 0.0636014876773821 0.0529386404982458 0.0585862830046332 0.0617464800017449 0.0510421753691455 0.0449968892951295 0.0473933285628394 0.0350956576161845 0.0423840693869265 0.0423843846664655 0.0352813704568399 0.0465611627122448 0.0551721028250391 0.0519789692274442 0.0602589775444394 0.0606308173964692 0.0523785975898876 0.05376642123387 0.0589009710010581 0.0688954407559891 0.0645895302341003 0.0743298248065849 0.0731175673739066 0.0765721855186165 0.0782679903493846 0.0795109910580931 0.0826224033319434 0.0829776048849107 0.0806205401694915 0.0825132702513325 0.0797327054579742 0.0783208699502603 0.0753480111504714 0.0727934157479927 0.0690509065761821 0.0650660579753916 0.0678208995330421 0.0682689319948554 0.0744316275279237 0.0741299255039868 0.070369330154825 0.0668223688814529 0.0698956655992956 0.0705229563068524 0.0739130726870766 0.0751131300462599 0.0761170378504429 0.0798511094699107 0.0810031803224291 0.0789102052650365 0.075974931467567 0.0810638473729362 0.080805679719907 0.0852556887780687 0.0833877344136256 0.0858400733066235 0.0835875894799275 0.0868276580828713 0.0881574798283792 0.0857530751349093 0.0836739597374554 0.0865521315944305 0.0875909967784088 0.0887174156134969 0.088324066687996 0.0899130884364827 0.0896323593002549 0.0898648664306215 0.0886901949545463 0.0889030048069764 0.0896817206355154 0.0899175025345521 0.089684353753178 0.089835324008881 0.0882338643679612 0.0891384134114684 0.0888984430383078 0.0899269727486662 0.0895445725254061 0.0897128708900798 0.0892542125468748 0.087712519423346 0.0870206756923035 0.0880626113451789 0.0845845835149333 0.0843110454733203 0.0850511526959018 0.08663232345332 0.0863757806428093 0.086822931796521 0.0870002672096519 0.0836951442223486 0.0860084002677102 0.0831482382488748 0.0853721547000702 0.0858243300109151 0.0837995627547617 0.0878577029462238 0.0887794435925364 0.0884046376505585 0.0895919202215817 0.0899074335042017 0.0897017357221002 0.0899056075537888 0.0897154752168362 0.08825363888169 0.0889311874179024 0.0884997122239332 0.0899094971575841 0.0899245152488271 0.0897650824501582 0.0898827329243621 0.0886302153176995 0.0892957993462965 0.089147371648811 0.0897930741161505 0.0890980718678293 0.0877126192094989 0.0862133126252898 0.0859363348117461 0.0835640741325009 0.0840199908891538 0.08699429985572 0.0860074114325897 0.0833229812295858 0.0748017426657066 0.075702249874768 0.0819454602548447 0.0790939560618972 0.0795653794773859 0.0823574948115557 0.0751610907216805 0.0779912027464463 0.078522461452421 0.0697128743179221 0.0733142635203181 0.0694947222703623 0.0668326707453414 0.0730816573509776 0.0656467124710462 0.0644484222678976 0.0677644949841736 0.0747152738599359 0.0703565109681364 0.0696679042969503 0.0782982613894747 0.077636219078613 0.080808408023458 0.0819793605679442 0.08096000689188 0.0799522740653228 0.076374266526418 0.0708137337936871 0.0747875043738619 0.0704426149862982 0.0744223222894025 0.0641134233266605 0.0684113901529432 0.0612092948355459 0.0506954306441897 0.0561932757725248 0.052141641321044 0.0561957374243828 0.0612141668050417 0.0627941387413511 0.0584479786342941 0.058224592957669 0.0525088230689629 0.0426466876835385 0.0469347662465207 0.0449566830552225 0.0376172660792356 0.0357462571453274 0.0377626325371724 0.0447032085539349 0.0462031957287202 0.0528858589740832 0.0623280251740652 0.0589617010105146 0.0613175103608645 0.0564253221622456 0.0513469641146188 0.0566153243915303 0.0631451526727366 0.0537397354240047 0.0484167983696542 0.0348061522454024 0.0377916514595917 0.0441194223631061 0.0453012941923179 0.0385376622719546 0.0398049264350468 0.0205864860181554 0.0325723741776847 0.0245156914932806 0.0211474962919557 0.0330698216021885 0.0268006405645322 0.027679568808456 0.0226644063531453 0.013051485123407 0.0156797676637497 0.00315375914905057 0.00618467483127677 0.00303695800967943 0.0149369377554991 0.00808445479746513 0.00505740853764732 0.0103453022901183 0.0192169310774908 0.0252067563621501 0.0234413224892378 0.0323118775958452 0.0326867124153482 0.0248218645309738 0.0188136488686513 0.00978455198515273 0.00883745571649497 0.00410709490081029 0.00687264510095494 0.0129480417590849 0.0123645289247227 0.00277433603910648 0.00628481659191582 0.00351679239410971 0.00838280612878902 0.0168399013576203 0.0156275452292358 0.0203234355838065 0.0260209871396452 0.0306900989248164 0.02790455951303 0.0307598905233003 0.0277550559169571 0.0196934102572641 0.0156434881513565 0.0169556333796395 0.00873850810538139 0.00387753315665324 0.00803073463432345 0.00720667213948457 0.0041653463035716 0.00305011640863925 0.0136598585610263 0.00458041721259281 0.00762064157484136 0.0140697520662564 0.00954673880965339 0.0180251617274007 0.0222460941876447 0.0202293994235677 0.030226826761396 0.0197335380290553 0.0185758028545355 0.0254544193423028 0.0266778658621605 0.0268075035494208 0.0302101393922693 0.0362204351619845 0.0414946120250936 0.041283471757928 0.0482393728888981 0.0447362031943897 0.0344281574115374 0.0359439056197312 0.0483074053623291 0.0500007767154373 0.0570434907480306 0.0584122157785297 0.0609329630083585 0.0535532198896433 0.0534216086208268 0.0633004533813731 0.0590559973917209 0.0614008035950438 0.0590186773067977 0.0535897845323505 0.0623712224334896 0.058364135880003 0.0625915146873086 0.0581425672942881 0.0512016735591403 0.0531557671455878 0.048025610039037 0.0462349579033424 0.0392333897480492 0.0351632162807984 0.0366776301901453 0.0423882383208997 0.0380805517206765 0.0401319110626533 0.049193085011541 0.0469544653386652 0.0431248568276611 0.0317364122881917 0.0189675081235865 0.0227576875641988 0.0130300291165397 0.00286941222134649 0.00756233081242449 0.00835650168822087 0.00925285635857043 0.0037738889340752 0.00377431670015488 0.0178142025891193 0.0183654672467254 0.0233615727231103 0.0305475941003594 0.0337910759489376 0.0285136614957444 0.0315286899595314 0.0275142580461299 0.0203318479909603 0.0221378391959266 0.0171741613746043 0.00906193369886489 0.00869794725611647 0.00413664873261111 0.0171950330665518 0.00910377928715423 0.00498535939265366 0.023847383790612 0.0234634876576119 0.0305931307334527 0.0314049934062295 0.0452322528767763 0.0376132519321535 0.0421704320096673 0.0371953954425941 0.0479883400712729 0.050545266852312 0.0566650901557949 0.0605042019503335 0.0584965950559934 0.0558650626769272 0.0531292367408146 0.0632689349687797 0.0520471629606987 0.045581420961253 0.0388294709388435 0.0400560816097416 0.03513210827379 0.0422502512142251 0.0464635910881088 0.0523246431074378 0.0611359947004031 0.0613547190499849 0.0555078752224303 0.0524226827507924 0.0538136226443595 0.058942740585213 0.0473993410594478 0.0423891137974595 0.0450011395764762 0.0350918393921921 0.0798076034948786 0.0826622386632613 0.0794599761345294 0.0821837562351637 0.0758587112171556 0.0768553705562833 0.0736831546340342 0.0692065297304036 0.064945683929661 0.0703972966206051 0.0657957547914651 0.0714625701506453 0.075493745487633 0.077275461349713 0.0747492110622402 0.0827252482455134 0.0804813541661621 0.0812331651595556 0.0811599755291778 0.0776007550145888 0.0780601484621602 0.0645783803465522 0.0694218394352406 0.0731155043480286 0.0747113120912913 0.0719834193456615 0.0669502982523052 0.0690963563746446 0.066020302299989 0.072812469929737 0.0789617427380653 0.0783036632199257 0.0811039563851516 0.0836614679754326 0.0859869716776146 0.0869099621761308 0.0874715080611606 0.0887918575266178 0.0898511294501966 0.0898870928891459 0.0897209529817914 0.0890522548164433 0.0885249562045192 0.0888565936027459 0.0896099294790502 0.0897448278241572 0.0878453237866499 0.0877688899792218 0.0861959600216863 0.08405032529336 0.0837516221735804 0.0857806867962784 0.0873747413204443 0.0860548196055905 0.0891739024922723 0.0899322910282631 0.0895098447746456 0.0889869872205044 0.0894734343049395 0.0899130010328646 0.0896412252947993 0.0899232387984404 0.0890612339828642 0.0877992397964467 0.0865333852721241 0.0842708095337867 0.0777014613445296 0.0806739245629456 0.0807032415411324 0.0828576368805562 0.0801248541139631 0.077511372979249 0.0776484588531721 0.0748442264593397 0.077663561805063 0.0704927115978002 0.0679806154521113 0.0676790029639999 0.0702331263730485 0.0744696026151598 0.0744757347648034 0.0673572971075095 0.0689813139704721 0.0637866476713916 0.0727789087324881 0.0723483404739572 0.0702466020747672 0.0668205237450167 0.0691764793073836 0.0680566398895299 0.0744297074783132 0.0757712340826096 0.0760210640646866 0.0830801445519055 0.0820171295688308 0.0817625741713314 0.0790641612889342 0.0776822645039657 0.0772441941342279 0.0846398966297279 0.0840325451880242 0.0875182235302062 0.0861168764612444 0.0880553121310828 0.087246508107174 0.0858095775939454 0.087333429986876 0.0894767581241392 0.0894817943856918 0.0887033751272645 0.0886496588330182 0.0898891661565573 0.0891898202206037 0.0893371787511097 0.0898587047694951 0.0897871577843002 0.0898307179690561 0.0896524656485046 0.0894164385093454 0.0881892179297083 0.0871476689267054 0.0878058078963261 0.083480053475722 0.0835122601442872 0.085029030505327 0.0845534030073666 0.0844586134495265 0.0877359481223405 0.086666109854633 0.08715768627947 0.0890579521423966 0.0890824587908723 0.0897305759767193 0.0895722372720979 0.0899424592262663 0.0887083973314158 0.0883363779147761 0.0874758204728341 0.0870932874514773 0.086413292917197 0.0858667937335427 0.0836588987022317 0.0845820527117177 0.0853735707322591 0.0868189813283131 0.0884301072854854 0.0889550513665084 0.0897798481717562 0.0899477614921375 0.0898638744627351 0.0899753622742107 0.0897526689308278 0.0884339736198534 0.0892426508217691 0.0892838768734045 0.0898008589749082 0.0891723975262428 0.0890828688386035 0.0876801575388728 0.0861852543118043 0.0859178260224861 0.083571029640274 0.0840193636281919 0.0870230671416364 0.0859223106894259 0.0831704984937856 0.0748619550247373 0.0756991017010161 0.0819510032623779 0.0790931126350084 0.0795641737668373 0.0823587026954296 0.0779902434405607 0.0751588189025884 0.0785194832301456 0.0733112375946883 0.0697100085836675 0.0694966372482974 0.0668296632263354 0.0730816105935393 0.065651227228765 0.0644575050210242 0.0705927240998536 0.0697428087652451 0.0679366670785321 0.064046538817351 0.0684925729714872 0.0707052072168599 0.0707256554070792 0.0747191569827334 0.0757783459136933 0.0775134486093633 0.0810523265097949 0.0806115201524945 0.082713433546153 0.081423699438217 0.0779026988914171 0.0754864681228023 0.0768659263329084 0.0845815034826842 0.0843080019288886 0.0877088633024128 0.0880589247867817 0.0870172271746923 0.0892502468802532 0.089708693284944 0.0895405204591365 0.0899226975058315 0.0891345070118288 0.0888945753145371 0.0898311875104369 0.0882301687500182 0.0866287900518026 0.0863722898062139 0.0850478534092243 0.0833839996909022 0.0852520214605755 0.0835834621914037 0.0858360459691176 0.0868238793794157 0.0881538622653507 0.088686462171627 0.0899134292639241 0.0896806639445282 0.0896785218575439 0.0888996721908105 0.0883208460491398 0.0899108896095902 0.0898710407805256 0.0896323692894564 0.0887140707362638 0.0875838784101385 0.0865481368989773 0.0836706381142124 0.0857478821111224 0.0809993140411934 0.0798463871527721 0.0761113564702697 0.0751094421664861 0.0739082293906841 0.0668184797362231 0.0705141061135363 0.0698898907813253 0.0744245317871227 0.0679623539503177 0.0700847665430767 0.0741357156925855 0.0759695401965339 0.0789057545415814 0.0810593213002097 0.0808023563186527 0.0806186957961286 0.0829749475430552 0.0797310579833851 0.0825106853323474 0.0783211205762678 0.0753584673224226 0.0675926955023731 0.0690381828488749 0.0644597128324512 0.0727470803997387 0.0742564279014905 0.063921014490775 0.0688125280613875 0.0730410993904003 0.076559063366704 0.0782545324470445 0.0794984073671956 0.0826195812731846 0.0346357184493312 0.0410341087649784 0.0413463192689628 0.0468268559665957 0.058268872908592 0.0512650866568356 0.0525693327987486 0.0548169359028296 0.0602597894510931 0.0626910261988517 0.052084412425037 0.0431142580520548 0.0464482770521443 0.0451636813341765 0.0347465697812141 0.0360598584823796 0.0391126343853631 0.0369890999680082 0.045480851252395 0.0546795471701159 0.0509423541319818 0.0626473695158168 0.0598763270668628 0.0523850223861545 0.0589737694010501 0.0587060649863574 0.0618777817001852 0.0512577503445422 0.0347846837556511 0.048369594055149 0.0479417826960297 0.0412145684289763 0.0336520294276982 0.0278722124513152 0.0217602632837441 0.0243736634966112 0.00525200049047231 0.0165540313405575 0.00893997701018949 0.0168555702004457 0.00924705073409108 0.00370494896177799 0.00931532754854523 0.0233747001527997 0.0249978139363152 0.0291652152657552 0.0329572771760433 0.0302262781954126 0.0185146556426783 0.0235089236025231 0.0185702601416351 0.00377531915706899 0.00377489305937032 0.00925550061681076 0.00853821504659655 0.00305067255141583 0.00774288290767307 0.0132103290745994 0.0227586979419232 0.0189700406200394 0.0317353503075739 0.042645196862773 0.0469333636632986 0.0449555337193996 0.0376161410601996 0.0357450919370706 0.037761725954576 0.0447015104599298 0.0462011929814469 0.0521388874577492 0.0561703743229416 0.0506930686754887 0.0561675369258799 0.0611435072087436 0.0611884239064633 0.0627915370754313 0.0525070984893242 0.058223566166251 0.0584485408181763 0.0631514716812878 0.0566152132804572 0.0537393274027701 0.0590966469507106 0.0623253243747907 0.0613161772155246 0.051365413756846 0.056424145815413 0.0530485120805526 0.0453211674168862 0.0399185732969141 0.0385611645555507 0.0484158588547491 0.0441181786069541 0.0377905583530287 0.0348050349570326 0.0276785520763138 0.026798420343769 0.0330677135584329 0.0211369634548665 0.0226635994690129 0.0325728924076522 0.0245077847042862 0.0205175869871594 0.0102737338633434 0.00807361363665249 0.00504830936746822 0.0156789481784088 0.0130490163135377 0.0149260307666622 0.003035047046966 0.00315339594686411 0.00618247438534774 0.00410698279687934 0.00978424687264333 0.00883690716766741 0.0248210758563864 0.0188130784724026 0.0326856821835956 0.0323111054304482 0.0192163820184187 0.0234714790576186 0.0252061907487821 0.0123654888131411 0.0129477680202704 0.00687248800707514 0.00628586718348713 0.00277429473348475 0.00351788086945452 0.00839046235987635 0.0156663078507555 0.0168718465143302 0.00802865019991517 0.00874488025948769 0.00387765028640315 0.0171379000268545 0.0156030180283915 0.0198298812999809 0.0278884291815461 0.0307153346152548 0.0205354711148094 0.0308619891361027 0.0262243599700614 0.0279360680113267 0.0351645560334519 0.0392347462265563 0.046231545313607 0.0480221891708904 0.0366801033876556 0.0423883997989276 0.038074575257826 0.0401261439671175 0.0491922483086329 0.0469541355072722 0.043124727494705 0.0535875599555638 0.059016025306075 0.0613989068823671 0.0623558283687415 0.0583467881410847 0.0581266139015801 0.0625388024555271 0.0511976929318965 0.0531510123365404 0.057045764328128 0.0500015388834527 0.0609365860515634 0.0584141320481151 0.0632605563391907 0.0590548088026775 0.0535533627537953 0.0534225472345298 0.0482395787282697 0.0362160018451836 0.0412847704482528 0.0414961475122625 0.0368873312089309 0.0346164352965787 0.048308238125741 0.0454642239176532 0.0323558584188581 0.020631406217391 0.0238252211367507 0.0196421905298786 0.0269179765382201 0.0303585316903255 0.0268712912805502 0.0256119202242752 0.018732494822628 0.0198502645178782 0.0136990106607119 0.00309156924409497 0.00724537408737691 0.0041628543673264 0.00997347125405388 0.0143181088092614 0.00786962947857611 0.00478728659735211 0.00520950830662794 0.00888757486822418 0.016500861726068 0.00369530123928597 0.0093109486708513 0.00923325741813432 0.016841491953519 0.0251248656786104 0.0235384009580258 0.0296015926177517 0.028912029382831 0.0333756707729773 0.024529934079766 0.0224956596605372 0.0132106942842217 0.00305073776202621 0.00774310556090281 0.00853838929632696 0.00925557810457231 0.00377489490155865 0.00377526736842431 0.0185313046643888 0.0330818424016064 0.0302859061443221 0.0341452345509726 0.0234748912356085 0.0184800266027501 0.0189705211025272 0.0317371944955716 0.0227596727077034 0.0473271450859534 0.0419569608964269 0.0347291726227126 0.044330945528447 0.0409472402929491 0.035372524430142 0.0421417420027375 0.046290736869639 0.0520108175870409 0.0610269789813453 0.0614809508867464 0.0554210611228359 0.0539200203860485 0.0522990772892399 0.0591132990817822 0.0468023547018746 0.0453140749391002 0.0496216592364667 0.0369915256921775 0.040773394891898 0.0353356419363261 0.0371560873000341 0.0390144604373389 0.0454060402786519 0.0525208679186376 0.051694188926413 0.0557020463171457 0.0630726220102421 0.0580259257661466 0.0562653172588048 0.0603963748947978 0.0691025626661814 0.0659187909217783 0.0728199098467868 0.0719764162281163 0.0747179848217154 0.0668368340503735 0.0694188584189606 0.0644993451497651 0.0731094541338667 0.0776069674145713 0.0780660733026907 0.0812388162914496 0.0811667395341681 0.0811113432254464 0.0789917099450527 0.0783120418535702 0.0737067420999205 0.0692274622273212 0.0651224601114774 0.0704300743146082 0.0659747370024049 0.0714765285787247 0.0755034879610798 0.0772839752730069 0.0804863690729344 0.0827301446612499 0.0747755342271145 0.0758830700879912 0.0794675030759341 0.0821886888054639 0.0826665699649983 0.0798143962302297 0.0768608578487338 0.0878040583952898 0.0842756730646491 0.0865381994439079 0.0873797368468274 0.0857858671181951 0.0860603815280808 0.0891787606020305 0.0895145340260335 0.0899366148950533 0.088991809288513 0.0894781335548905 0.0899174749708277 0.0899276924927677 0.0896458348978528 0.0890659710238374 0.0869195649591759 0.0874947418451104 0.085997782134009 0.0836684742008103 0.0840569515355717 0.0837576253084808 0.0878507465548868 0.0862027036707062 0.0877746786547793 0.0888619607772244 0.0897491956007302 0.0896143182873051 0.0898902028797685 0.0897321812664593 0.0890712826164387 0.0885329917147684 0.0888229049631516 0.0898673507682783 0.0895133654673907 0.0895420624356533 0.0898858958166908 0.0899084207451221 0.0887913057661664 0.0886893885507882 0.0873797822995357 0.0831606803440087 0.0858929298292435 0.0842993002645716 0.0839741801780862 0.0874637101630326 0.0861507313024459 0.087950067222522 0.0869850210271757 0.0892249832737609 0.0894276879839621 0.0897574701680132 0.0898166655318318 0.0897609336111811 0.0894328765997467 0.0897905749341283 0.0894294061038266 0.0894001596138854 0.0881385520055785 0.088189186748073 0.0873487936306732 0.0853104521338549 0.0836649927073543 0.0836066963738918 0.0880001414944713 0.0870303074573744 0.0844659324883866 0.0818511218134781 0.0819429737692974 0.0778852059032983 0.0808120917422789 0.0810048235403205 0.0749684131064574 0.0779086385990722 0.0775148699500545 0.0702857216649308 0.0677406184657637 0.0746781664560387 0.074681791967231 0.0702146588822681 0.067647905850457 0.0673547863724734 0.0689290504164211 0.0702323160832445 0.0726660714837395 0.0722511333171347 0.0637447057250921 0.0691816153087379 0.0680211073357276 0.0668264471533175 0.0744625434248429 0.