<?xml version="1.0"?>
<VTKFile type="UnstructuredGrid" version="0.1" byte_order="LittleEndian">
<UnstructuredGrid>
<Piece NumberOfPoints="568" NumberOfCells="1054">
<Points>
<DataArray type="Float64" NumberOfComponents="3" format="ascii">
0 0 0 0.0499999999998997 0 0 0.0323698570487533 0.032369857048862 0 0.0584335251122665 0.0584335251122145 0 0 0.050000000000208 0 0 0.100000000000416 0 0.0400584584693195 0.0944578555791577 0 0.0980768456829153 0.0991724147309935 0 0.0944578555792846 0.0400584584694184 0 0.0999999999998147 0 0 0.0564522287083799 0.234565808376616 0 0 0.200000000000832 0 0.0388399996009313 0.179498259931901 0 0 0.150000000000624 0 0.0548726927265955 0.134106856398452 0 0.0896897021915411 0.138513804586622 0 0.122947659685672 0.148251464161954 0 0.0828750765696809 0.178818634882983 0 0.0996947712122641 0.22074048840547 0 0.158996951633215 0.227836749122277 0 0.125875177082847 0.188968332266695 0 0.169013160068682 0.168002193866631 0 0.189220110521158 0.126442066536112 0 0.22626394058332 0.154659468198381 0 0.205967211350529 0.199725178953962 0 0.211554843187388 0.241744476774187 0 0.180351590178421 0.0391903365350905 0 0.149999999999704 0 0 0.138357444660799 0.0589959339188492 0 0.148476056588621 0.112220907400452 0 0.181725902897582 0.0816119740612928 0 0.217206150464847 0.104439454835129 0 0.231674603334463 0.0553437746953104 0 0.199999999999558 0 0 0.249999999999412 0 0 0.283208049853001 0.0508433390825056 0 0.299999999999266 0 0 0.323619558532886 0.0327999278256247 0 0.362462430895343 0.0442183666074772 0 0.349999999999121 0 0 0.355822585194142 0.0854187642572584 0 0.322427311917699 0.0689379334381408 0 0.330767006442793 0.119592255048115 0 0.295063395037039 0.101138089243444 0 0.257146194987713 0.10413999068455 0 0.263189497696013 0.146101733972573 0 0.299142716792971 0.156496209701207 0 0.260171965190135 0.20370391303005 0 0.301079690692898 0.202800200091412 0 0.288402851022681 0.249609553207088 0 0.331796839804983 0.222301993972031 0 0.330801675951106 0.181791113002693 0 0.360307484821635 0.154014700871105 0 0.397289240071895 0.165639932095022 0 0.432407360090089 0.182056809654028 0 0.41732862935313 0.129866986343623 0 0.381034256806799 0.204783951629704 0 0.42421838472614 0.222465020057878 0 0.462293308810443 0.198909164566548 0 0.499999999999971 0.219686411149829 0 0.459520018388269 0.156664873305243 0 0.46567857652706 0.114368061527523 0 0.475746624217828 0.077626823840591 0 0.484924330582892 0.0373213982762724 0 0.499999999998694 0 0 0.449999999998829 0 0 0.446927950142653 0.0518018776450602 0 0.406855818272412 0.0411398773125117 0 0.399999999998975 0 0 0.390616286406845 0.0815251031619917 0 0.375161719606839 0.121918126660369 0 0.43122735573934 0.0881769991929174 0 0.429308231064016 0.40626685012723 0 0.392220576577811 0.380677966902274 0 0.394198866753185 0.419122252400708 0 0.377023860747173 0.458194175644768 0 0.410095980695696 0.490839357492854 0 0.423403423371937 0.447621318748554 0 0.461527143457989 0.473443594123526 0 0.461024257085337 0.432541991343326 0 0.465432111282168 0.387884235436819 0 0.49854341599768 0.370759147681271 0 0.472532117365031 0.340817108308049 0 0.483788712280009 0.297451778269774 0 0.455331360217251 0.252568731208715 0 0.430594867953342 0.303959734190635 0 0.391620987711813 0.295036992928546 0 0.401804626289837 0.256190339758575 0 0.43301393728221 0.359843205574921 0 0.391208871887456 0.334075776884043 0 0.348047572662274 0.35750068079406 0 0.323103257015693 0.32141443408924 0 0.357962884673884 0.256835227867104 0 0.354814354583093 0.30398436674999 0 0.323736926270502 0.27286413781594 0 0.297479491180417 0.296411157380844 0 0.260144435522079 0.292623904436535 0 0.25082138072345 0.257700107422368 0 0.284738052361283 0.343557681186738 0 0.255826059367993 0.395079699895134 0 0.296304338697064 0.429832022968145 0 0.305976555003817 0.393468168521193 0 0.354814223971285 0.403129814650693 0 0.333826635273302 0.441301250475035 0 0.334364244893045 0.478496031217408 0 0.299886550525317 0.467007278275931 0 0.262475847345986 0.447649432958947 0 0.262418491288269 0.490719222921541 0 0.192181271644967 0.465938389648695 0 0.232324767024371 0.466345253695677 0 0.219688017838559 0.433067836400238 0 0.197169318452384 0.387030152393625 0 0.178457744828726 0.430871172570494 0 0.148695787718589 0.404814523960821 0 0.144484766221814 0.453538915812712 0 0.160013142023585 0.497717270559093 0 0.220015181768822 0.28602682846308 0 0.19152147653881 0.327918797702154 0 0.236041954047958 0.321918283269407 0 0.222695530956879 0.358374234325388 0 0.154014700871176 0.360307484821747 0 0.143922094947914 0.306200702035457 0 0.168537671773945 0.272324831592801 0 0.110477540413226 0.263117535981694 0 0.0994921194810273 0.307463985332816 0 0.0732967881614181 0.342269570898506 0 0.116034002194931 0.33748134585014 0 0.0334576460409223 0.363648423312284 0 0 0.350000000001456 0 0.032220921767547 0.329014892144875 0 0.0537301716876466 0.288250771898286 0 0 0.300000000001248 0 0 0.25000000000104 0 0.0648933318035348 0.486697770604545 0 0.109199274598136 0.487580697080498 0 0.0971009795772073 0.435906739990532 0 0.10935320311386 0.378391909217271 0 0.060530514380151 0.395146264289728 0 0 0.400000000001664 0 0 0.450000000001872 0 0.0436128036610927 0.440061111828404 0 0.0294449071642091 0.475000000001966 0 0 0.500000000002059 0 0 0.550000000001734 0 0.0518018776450837 0.553072049857452 0 0.0373213982762153 0.515075669417473 0 0.0776268238405584 0.524253375782261 0 0.114368061527482 0.534321423472927 0 0.121918126660357 0.624838280393159 0 0.0881769991928987 0.568772644260674 0 0.0815251031619976 0.609383713593151 0 0.0411398773124836 0.59314418172763 0 0 0.600000000001387 0 0 0.65000000000104 0 0.0323578435067225 0.676600401985782 0 0.0442183666074753 0.637537569104702 0 0 0.700000000000693 0 0.0486329174879745 0.717891752740162 0 0.0910728127967196 0.741988048646878 0 0.0990187225489634 0.704756315583652 0 0.0854187642572582 0.644177414805869 0 0.0689379334381628 0.677572688082311 0 0.119592255048131 0.669232993557228 0 0.154014700871098 0.63969251517837 0 0.181791113002692 0.669198324048887 0 0.13725179499973 0.741546289628566 0 0.156496209701235 0.70085728320704 0 0.203703913030074 0.739828034809895 0 0.202800200091414 0.698920309307116 0 0.249609553207091 0.711597148977329 0 0.222301993972028 0.668203160195032 0 0.204783951629683 0.618965743193203 0 0.222487080058139 0.575775413711342 0 0.219686411149827 0.500000000000032 0 0.19896328510056 0.537691476689505 0 0.156664873305197 0.540479981611742 0 0.129866986343594 0.582671370646846 0 0.165639932094979 0.602710759928095 0 0.182056809653986 0.567592639909897 0 0.100000000000416 1 0 0.0944578555791882 0.959941541530687 0 0.050000000000208 1 0 0 1 0 0.0304524096104897 0.96954759038951 0 0 0.949999999999792 0 0.0584335251122541 0.941566474887746 0 0 0.899999999999584 0 0.0400584584693226 0.905542144420798 0 0.0979909576452082 0.900450397208809 0 0.122947659685717 0.851748535838097 0 0.0868130391934314 0.817095740868429 0 0.0870417061194161 0.853827995089262 0 0.0524690331668437 0.86696410734367 0 0 0.849999999999653 0 0.043889462445438 0.826759239819513 0 0 0.8 0 0 0.750000000000347 0 0.0529380014213358 0.776889771183312 0 0.112316928024456 0.78020430794084 0 0.16253691950235 0.782849122627686 0 0.243358441913473 0.786511897933875 0 0.203590747653644 0.794224894178719 0 0.228939290247373 0.839908789927278 0 0.171018735363 0.828981264636961 0 0.132261503269228 0.813060330014371 0 0.146882743185419 0.889622656308119 0 0.181725902897639 0.918388025938889 0 0.18958721034944 0.876602973603946 0 0.221311393310948 0.904144943719832 0 0.232226438176177 0.944207511169706 0 0.200000000000832 1 0 0.18045991219398 0.960710939969875 0 0.138347219894628 0.94095916274078 0 0.150000000000624 1 0 0.350000000001456 1 0 0.363638616126136 0.966544916821213 0 0.32894624184181 0.967797018267389 0 0.300000000001248 1 0 0.25000000000104 1 0 0.287907520382944 0.946359528487026 0 0.263054145574704 0.889490620931362 0 0.307381363266577 0.90051880305435 0 0.337480267781999 0.883965456331347 0 0.342269570898513 0.926703211838588 0 0.360307484821742 0.845985299128825 0 0.306195311694726 0.85607519768343 0 0.272549978320415 0.831201948690144 0 0.286026828463086 0.779984818231176 0 0.321918283269405 0.763958045952046 0 0.327918797702134 0.808478523461202 0 0.358374234325384 0.777304469043123 0 0.387030152393619 0.80283068154762 0 0.433067836400233 0.780311982161444 0 0.466346121879671 0.767675855240614 0 0.465938389648691 0.807818728355036 0 0.497717270559088 0.839986857976418 0 0.453538915812708 0.855515233778189 0 0.43087117257049 0.821542255171277 0 0.404814523960818 0.851304212281416 0 0.378391909217271 0.890646796886144 0 0.435906739990533 0.902899020422797 0 0.487580697080494 0.890800725401865 0 0.486697770604543 0.935106668196466 0 0.44006111182841 0.956387196338908 0 0.475000000001966 0.970555092835793 0 0.450000000001872 1 0 0.395146264289732 0.939469485619852 0 0.400000000001664 1 0 0.332314974080817 0.607792187328737 0 0.371046512961454 0.605451707483111 0 0.359843205574921 0.566986062717789 0 0.358156517437794 0.511134404479091 0 0.331306197573488 0.540525641468424 0 0.302927660481639 0.514843047212215 0 0.252871394412626 0.544583554344924 0 0.304297406799597 0.569139051464601 0 0.295036992928544 0.608379012288189 0 0.256190339758569 0.598195373710169 0 0.256845292557732 0.642035542479631 0 0.273496567448602 0.675817419964087 0 0.304216353843215 0.645149391934367 0 0.257700107422386 0.749178619276552 0 0.296411157380843 0.702520508819589 0 0.292551210545191 0.739979902911732 0 0.342702801024459 0.716724167620359 0 0.322598530820738 0.676700726098352 0 0.35944937237717 0.651647898084363 0 0.405647175079827 0.65626423320525 0 0.395079699895129 0.74417394063201 0 0.386423584673078 0.692862589235973 0 0.427155383338081 0.700777593753079 0 0.447649432958942 0.737524152654017 0 0.467368917376544 0.70015537930375 0 0.490731134405986 0.737590046187304 0 0.455174570318146 0.62
[...]
<CellData Scalars="pressure_p0," Vectors="velocity_p0," Tensors="">
<DataArray type="Float64" Name="pressure_p0" format="ascii">
0.0328479542880463 0.0129415219935078 0.0560424252911609 0.0362205499213525 0.016013382856589 0.016015669465657 0.0392607485286592 0.0779591876764867 0.0991547345128415 0.0765653967362502 0.0959260085473112 0.144007287134009 0.129645927544883 0.134650845382647 0.0965565981126361 0.0804762494325649 0.0225463545968569 0.07081850026816 0.0380114314419133 0.070207752107396 0.0155383873695099 0.0374005591858313 0.0378629124141421 0.0900762459745083 0.116251824156337 0.122015041789305 0.129893315071096 0.0945539478951415 0.121137547225028 0.143794243729715 0.105130457903026 0.204127227264166 0.149514370584703 0.17462867518172 0.202424908320727 0.161702718004087 0.169827632047128 0.193124347695558 0.234753314052419 0.219155812053026 0.268962765258249 0.253020937504826 0.269825167885209 0.22458873424972 0.248548640065006 0.261955665425039 0.216543254332179 0.190896182980982 0.201062887549445 0.148890876286757 0.179811458215947 0.179812834707699 0.149678787995447 0.197532561297978 0.234063856008991 0.220517237278262 0.25564465527801 0.257222098008548 0.222212574948363 0.22810030260686 0.249883274593502 0.292284135718092 0.274016610120936 0.315339172148014 0.310196230198965 0.324852211305406 0.332046579291709 0.337319908736546 0.350519870883055 0.352026904556548 0.342027236995008 0.350056939822377 0.33826056303922 0.332270989662508 0.319658838983602 0.308821090322986 0.292943762832692 0.276038283089434 0.287725604609804 0.289626506857783 0.315771403467228 0.31449126331021 0.298537203490257 0.283489838434098 0.296528029934525 0.299189136266996 0.313571671353535 0.318662972050183 0.322921751905237 0.338763335270926 0.343651062591747 0.334771385599099 0.322318670453785 0.343908197830962 0.342812747719521 0.361691667901463 0.35376701213029 0.36417107634657 0.354614999774968 0.36836073611096 0.374002419066972 0.363802229659271 0.354981764691098 0.367192041644867 0.371599617535849 0.37637827362661 0.374709372583117 0.381450687200256 0.380259878528034 0.381246419893135 0.376262345256112 0.377165374993181 0.380469008196808 0.381469126893719 0.380480056534159 0.38112039715565 0.374326311745502 0.378163764415563 0.377145655502315 0.381509125721158 0.379886798073354 0.380600757278048 0.378654930211527 0.372114420083563 0.369179267253972 0.373599628910189 0.358844303543848 0.357683865209219 0.360823844614024 0.367531836126819 0.366443402310497 0.368342725298595 0.369094627483785 0.355072953903941 0.364886867756976 0.352752989765395 0.362188038038484 0.364106644259943 0.355516864977035 0.372733235865409 0.376643473226639 0.375053862662302 0.380090937225299 0.381429244043466 0.380556295727391 0.381420970394426 0.380614099331474 0.374412506387658 0.377286770286234 0.37545599522494 0.381437017439218 0.381500328601796 0.380824111545847 0.381322840698507 0.376009170796982 0.378832703462227 0.378203452104994 0.380942026589137 0.377993611107032 0.372115784133733 0.365755151640072 0.364580289821461 0.354516085647921 0.356449979611313 0.369068844151256 0.364882242957868 0.353493654059532 0.31734274394455 0.321162910575103 0.347649362415303 0.33555195654366 0.337551582213464 0.349397038529672 0.318866748236703 0.330873369893694 0.333126884289145 0.29575287208773 0.311031528077743 0.294827570951049 0.283533694918304 0.310045024090856 0.278502644660631 0.273419266641149 0.287488017782353 0.316976400135174 0.298484387135732 0.295562767403365 0.332176742601249 0.329368314216418 0.342826419424484 0.347793611896396 0.343470081445272 0.339194557961718 0.324015007613594 0.300424906734338 0.317283467154443 0.298850048753944 0.315733792589855 0.271998853232059 0.290232832616686 0.259678331524649 0.215073626285978 0.238397971570664 0.221208817525552 0.238408248483708 0.259698703486609 0.266401487885317 0.247962766092939 0.247015230970402 0.222766400181373 0.180926778934213 0.199118646239093 0.190726591809763 0.159589445883108 0.151651995923766 0.160206622657996 0.189651732006444 0.196015237725718 0.224365142452478 0.264423053697894 0.25014152913193 0.260136118265369 0.239381337612596 0.217836598234786 0.240187546073221 0.267890044605411 0.22798813103247 0.205405834904148 0.14766334301603 0.160329081295587 0.18717430586182 0.192188208290889 0.163493800440428 0.168870007906498 0.0873369381338926 0.138186441643826 0.104006407957455 0.0897170856831785 0.140296908978119 0.113700281053414 0.11742915413086 0.0961526309813611 0.0553702459565181 0.0665206326359547 0.0133796677903561 0.0262381624914077 0.0128841302527777 0.0633691443991748 0.0342978473725318 0.0214557619640744 0.0438893242244238 0.0815270762228676 0.106938728818426 0.0994490326449378 0.13708189859565 0.138671903481714 0.105305631354129 0.079816096605951 0.0415105267803225 0.0374924835897057 0.0174241766250658 0.0291569265947106 0.0549315799542125 0.0524560888467454 0.011770018850636 0.0266631224487806 0.0149198846142131 0.0355638217170119 0.0714427419902358 0.0662994082026603 0.0862216399098034 0.11039333096436 0.130201997594502 0.118384229769357 0.130498277477452 0.117750246130146 0.0835488906732262 0.0663672280976113 0.071933882649242 0.0370729135006497 0.0164503519385524 0.0340702512201668 0.0305742245521149 0.0176714207410261 0.0129400933028221 0.0579518125294211 0.019432408844851 0.032330530607955 0.0596908302671748 0.0405020457226227 0.0764717549714979 0.0943789969305392 0.085823117406466 0.128237268259353 0.0837192431293607 0.0788076301995891 0.107990117572817 0.113180649038522 0.113730423681526 0.12816613968715 0.153664740240222 0.176040571475507 0.175144693978632 0.204654925033584 0.189793280567355 0.146061242781878 0.152491910770607 0.204943867214677 0.212128140348466 0.24200686686843 0.247813502713538 0.258508078339296 0.227198934837627 0.22664077104572 0.26855176985434 0.250544343903373 0.260491958159204 0.250385633777448 0.227353573663864 0.264608530368299 0.247608381075027 0.265542578558966 0.246668177015958 0.217221514359239 0.2255120563392 0.203747402443403 0.19615045656966 0.166446495910306 0.149178817350844 0.155603907404937 0.179831085344363 0.161556042007708 0.170259005863886 0.208700723983412 0.199203577771649 0.182956301726465 0.134642269954817 0.0804699682272418 0.0965498762532326 0.0552801165281192 0.0121735287447963 0.0320833163038101 0.0354525949263351 0.0392553867760018 0.0160107793907842 0.0160125891786104 0.0755769997736199 0.0779157694517826 0.0991118399852613 0.129598651413342 0.143359083920026 0.120969559198529 0.133760755782618 0.116729520996255 0.0862580573415737 0.0939200628460214 0.0728615648848484 0.0384453495655817 0.0369011527990849 0.0175497676057987 0.0729500483273461 0.0386228412873634 0.0211504051809689 0.101172593052731 0.0995439770016124 0.129791566874297 0.133235731957359 0.191897915614963 0.159574341197204 0.178908374180698 0.157801679737177 0.203590869060134 0.21443849471225 0.240401887074488 0.256689241038184 0.248172257920828 0.237008265703648 0.225401262931198 0.268419031169807 0.220810675838321 0.193379740366054 0.164734401789393 0.16993839056357 0.149048492920737 0.179247337868149 0.197122449429753 0.221988067343961 0.259370291616715 0.260298355162283 0.235493044427791 0.22240409923097 0.228305222934694 0.25006561197671 0.201092528213532 0.179836535087382 0.190918070358969 0.148877719570788 0.338585239493587 0.350696107223897 0.33711038500908 0.348666064932147 0.32183192205057 0.326060329645953 0.312602115141484 0.293609944303665 0.275533199588084 0.29866165581133 0.279139568330159 0.30318097869302 0.320283306428543 0.327842377368455 0.317124783338361 0.350963278516491 0.341443430844014 0.344632871941941 0.344322006464937 0.329222082221274 0.331171222796483 0.273974555728431 0.294523030214359 0.310193305021724 0.316963196160997 0.305390250222881 0.284037130420005 0.293141482463542 0.280091423873277 0.308907156671097 0.33499541631393 0.332203775546723 0.34408416254221 0.35493425210161 0.364800243852776 0.368716282719495 0.371098200232874 0.376699889276332 0.381193886776653 0.381346915001622 0.380641837361259 0.377804861696607 0.375567946823009 0.376975136250162 0.380171239852131 0.380743753534217 0.372685087445672 0.372360633441755 0.365687308444632 0.356584471480675 0.355317414749925 0.363926021090139 0.370688923209284 0.365088893925243 0.378321705104855 0.381539380166356 0.37974709009412 0.377528928557911 0.379592765851027 0.381457664254212 0.380304681809514 0.381501138802681 0.377844025219973 0.372489975571294 0.367119522175492 0.357520488724304 0.329646874804201 0.342257967986037 0.34238202059275 0.351521355347512 0.339927603515457 0.328839776230716 0.329421136224653 0.317524677586348 0.329485837566583 0.299063489183665 0.288405730821189 0.28712666285541 0.297962695175907 0.3159361824452 0.315961930091217 0.285762269255003 0.2926525088276 0.270614246418904 0.308763893212705 0.306937397116852 0.298020264347035 0.283486069381887 0.293481085062984 0.288729975617348 0.31576792893013 0.321459549119455 0.322519055958488 0.352467420980087 0.347957858275381 0.346877291768478 0.335429218335721 0.329566024642089 0.327707761349186 0.359083806363806 0.356507418784238 0.371295504848486 0.365350386572628 0.373573810961526 0.37014225207698 0.364046999700867 0.37051212242165 0.379605451232239 0.379626571488239 0.376323971448085 0.37609580414488 0.381354710735273 0.37838700534179 0.379012473323186 0.381225187502355 0.380921112639365 0.3811056051601 0.380348787166991 0.37934777672383 0.374141398738094 0.369722418349218 0.372514299350812 0.354162485434671 0.354299613333518 0.360734198565788 0.358715308873647 0.358313728689206 0.372217456747363 0.367678936309778 0.36976394210753 0.377826396552239 0.377930072749649 0.380679497569539 0.3800077818244 0.381578587396786 0.376343156467868 0.374765193598569 0.371113852361251 0.369490718837288 0.366606575435974 0.364287799221888 0.354920716805701 0.35883687580887 0.362195852470907 0.368328309126285 0.375163438202233 0.377390140400712 0.380889330294418 0.381601459372552 0.381246179648316 0.381719873609802 0.380775133281083 0.375180589956947 0.378611149515297 0.378785764888263 0.380980266853641 0.37831357973355 0.377934060185724 0.371983252214041 0.365640985007164 0.364506130668758 0.35454986809816 0.356452373795043 0.369194832924319 0.364524537181525 0.352850042738815 0.317601141864033 0.321152962458578 0.347676687546088 0.335552162786146 0.337551158148383 0.34940685956044 0.330873544980389 0.31886126491168 0.333119324716582 0.311023133319354 0.295744861434874 0.294839348621986 0.2835251050947 0.31004848635649 0.278525136143582 0.273460362206064 0.299488566069986 0.295883102146646 0.288220094319935 0.271715885121177 0.290578054431904 0.299964871682289 0.300052063383848 0.316994410621839 0.321487495527649 0.328848872685013 0.343862560466495 0.341992800148998 0.350910324032273 0.345438997476816 0.330501226787773 0.320250150010622 0.326102268251714 0.358838803344757 0.357678414289188 0.372106589139632 0.373591793431126 0.36917240361202 0.37864598267268 0.380590955116642 0.37987741146497 0.381498773159013 0.37815476313241 0.377136938655951 0.381110385005401 0.374318021560095 0.367524217697107 0.366436133362662 0.360817024696807 0.353757899249627 0.361683047943644 0.35460392411641 0.36416044858714 0.368351526862627 0.373994003191358 0.376253712947463 0.381459134838138 0.380471536617681 0.380462239023431 0.377157921666113 0.374702066373209 0.381447872350932 0.381278310622517 0.380265972575545 0.376370097166515 0.371575074388234 0.367181334240874 0.354973208255104 0.363786024822077 0.343640219968649 0.338749138159814 0.322903254214477 0.31865224272583 0.313556292655588 0.283477894241678 0.299156978164571 0.29650851426514 0.315747048444325 0.288331280643956 0.297335835054649 0.314522073711147 0.322301943081849 0.33475886888906 0.343895196926709 0.342805347233517 0.342026286129381 0.352022771771685 0.338260637009677 0.350053232148589 0.33227886800076 0.319709748677199 0.286763283319119 0.292895893333525 0.273471692772843 0.308630978836659 0.315034470035105 0.27118630810535 0.291938667511437 0.309878453593499 0.324803493346833 0.331996499843826 0.337273697384671 0.350515334229357 0.146942821259814 0.174088101588738 0.175412692161079 0.198663999376233 0.247206996732533 0.217493236848477 0.223026567861127 0.232561978073608 0.255653382172161 0.265967852417941 0.220969120741574 0.18291310573959 0.197057704630976 0.191607879943317 0.147413058552765 0.1529846692819 0.165936009983595 0.156926812054052 0.192953293529983 0.231978933480119 0.216123754920829 0.265782380514936 0.254026345674344 0.222244187293878 0.250196965384072 0.249061065138154 0.262516974120168 0.217461476925228 0.147574395027093 0.205208321598978 0.20339358022226 0.174853318027609 0.142769008216478 0.118248208199625 0.0923181576327253 0.103405463851452 0.0222816599080047 0.0702306857591378 0.0379279572467459 0.0715100165975199 0.0392307643449154 0.0157182990659843 0.0395204524952698 0.0991675475283755 0.106053687852506 0.12373385857866 0.13982186445395 0.128235645494247 0.0785488168903125 0.0997371213698667 0.0787846953166756 0.0160168653516069 0.0160150628699965 0.039266662518026 0.0362235701029505 0.0129425478203338 0.032849360074382 0.0560451243140139 0.0965543014441994 0.0804808292515343 0.134637951730132 0.180921472130924 0.199114091417163 0.190723331400788 0.159586064109247 0.151647897428542 0.16020316622636 0.189645067116679 0.196007581639448 0.221198173478452 0.238301573093059 0.215063991309382 0.238289355435513 0.259399697641827 0.25959058216675 0.266391968423875 0.22276049958305 0.247012611384144 0.247967271679382 0.267919745236795 0.2401897561406 0.227988662662421 0.250717800038631 0.264415344382192 0.260133864372069 0.217917796216805 0.239379340400369 0.225058534042302 0.192275040690516 0.169354784459715 0.16359584215156 0.205403891947006 0.18717118806398 0.160326273514252 0.147660090004393 0.117426065383722 0.113692200992563 0.140289707009699 0.0896735383952118 0.0961501022035078 0.138190535867787 0.10397433012805 0.0870459731034892 0.0435863757665923 0.0342523028397711 0.0214174668347648 0.0665178011392416 0.0553603768135127 0.0633236499187417 0.0128761778540513 0.0133782525208399 0.0262291097523531 0.0174238002882836 0.0415095159816384 0.0374904781516309 0.105303062147392 0.0798141620178224 0.138668528688085 0.137079143932448 0.0815250879131573 0.0995770946764775 0.106936664273234 0.0524602560045854 0.0549306044765115 0.0291563830819372 0.0266676191999975 0.0117698780826649 0.0149245017267694 0.0355962577891287 0.066463807604856 0.0715783177614128 0.0340612079363586 0.0370998304741252 0.016450779420845 0.0727068972625605 0.0661951399579752 0.0841274799433657 0.118315558519756 0.130308522318077 0.0871210258300656 0.130930865112774 0.111255960531835 0.118517926343441 0.149184608712521 0.166452175565162 0.196135862125105 0.203732463482623 0.155614045660796 0.179831229055115 0.161529799648277 0.170233403657943 0.208696096838287 0.1992008653339 0.182954956532782 0.227343082438517 0.250373051249329 0.260482163418459 0.264542213803605 0.247534169634555 0.246600281018681 0.265318971707371 0.217204673219701 0.22549123015003 0.2420135878635 0.212128859837602 0.258520097473165 0.247818940179149 0.268379684134566 0.250537278668031 0.227197604491952 0.226642477750823 0.204654183930135 0.153644709760011 0.175148659863612 0.176045328796257 0.156492536407242 0.146858456637531 0.204945229476488 0.192879494839136 0.137267968212807 0.0875276733944939 0.101077219491187 0.0833309025039616 0.114198326886879 0.12879466141191 0.114000100883378 0.108657335119365 0.0794717252489684 0.0842138624439078 0.0581173911807471 0.0131158293172324 0.0307381568623326 0.0176607234745679 0.0423118967137882 0.0607438486106659 0.033386496226596 0.0203098062241192 0.022101038715653 0.0377050094465566 0.0700039187320908 0.0156770907408872 0.0395011086512655 0.0391715213724357 0.0714489930077914 0.106590650099358 0.0998602037475128 0.12558294163579 0.122657550320989 0.141594363425992 0.104066839772637 0.0954365072672971 0.0560455011845904 0.0129425546148534 0.0328496150811875 0.0362235566710495 0.0392661873873264 0.016014747574464 0.016016330687913 0.0786178729577239 0.140347612194739 0.128485978143484 0.144858937986286 0.0995906941344513 0.0784003151814499 0.0804811886975076 0.13464295378747 0.0965564104091785 0.200782282507717 0.177999639854523 0.147336227230604 0.188071128741008 0.173715997532568 0.150065658517258 0.178783618425953 0.196385477769561 0.220652535818929 0.258903052967153 0.260828929799322 0.235120233599149 0.228752123479575 0.22187540052914 0.250784255262622 0.19855618803196 0.192242409055793 0.210517018999005 0.156934462528585 0.17297867591464 0.149909373201912 0.157632413012271 0.165516403577723 0.192632260825647 0.222816562615763 0.219309357697994 0.236312382902046 0.267581727951632 0.246171477094045 0.238702327247533 0.256228158439334 0.293163662591029 0.279656619066326 0.308934260915492 0.305355569324717 0.316986608842372 0.283551240228165 0.294505103076446 0.273634401569392 0.31016230727534 0.329242695184434 0.331190329533685 0.34465043994042 0.344344870318654 0.344109966765924 0.335117803161093 0.332234177104888 0.312695948916735 0.293692907340232 0.276277725489651 0.298794986595447 0.279893494048864 0.303234567030859 0.320318677475643 0.327872213758569 0.341458158291627 0.350977177296082 0.317230281373705 0.321928892578712 0.337135592838919 0.348680044815958 0.350707383946647 0.338607242292923 0.326077057476796 0.372502806184656 0.357533901155679 0.367132508748177 0.370702711221341 0.363940880597814 0.365105569015625 0.378335053944882 0.379759468311956 0.381550084663564 0.377541805665503 0.379604960428049 0.381468818507398 0.381512142976871 0.380316388759935 0.377856375077066 0.368750933934771 0.371191365691652 0.364840480029145 0.35495854888401 0.356606338476187 0.355336351278697 0.372701101795898 0.365709581701534 0.372378494897845 0.376991274037052 0.380755148787945 0.380183061214232 0.381353598892547 0.380683340723497 0.37787953138248 0.375595772902504 0.376825950517509 0.381256928063916 0.37975527026701 0.379877173154904 0.381336143373348 0.381431507159745 0.376692240054071 0.376260060600246 0.370703842620105 0.352804641479751 0.364396080998269 0.357635828027866 0.356256274465455 0.371060340449929 0.365490029260302 0.373123922182045 0.369029950779255 0.378532631104073 0.379392343134813 0.38079178663935 0.381043169019841 0.380807182166411 0.379415157283682 0.380933468613492 0.379400925522372 0.379277392768306 0.373925001906607 0.374139319349158 0.370574213982904 0.361926631095766 0.354945659379966 0.354698755511757 0.373336804366074 0.369222552204066 0.358343347619165 0.347249697294071 0.347639645567354 0.330424876255677 0.342842692810301 0.343660095630385 0.318050918653536 0.330524536004721 0.328854420731175 0.298184738293514 0.287387463124602 0.316818801653753 0.316834404256051 0.297882819105111 0.286993659464731 0.285749738840745 0.292428188373843 0.297957400550321 0.308282224149025 0.30652173188863 0.270433811618372 0.293499253645141 0.288575996369455 0.283507497216632 0.31590328586702 0.322400001212744 0.321590263299493 0.348065635772958 0.346913409509523 0.334929410245833 0.329967183179102 0.327008406860063 
</DataArray>
<DataArray type="Float64" Name="velocity_p0" NumberOfComponents="3" format="ascii">