<?xml version="1.0"?>
<VTKFile type="UnstructuredGrid" version="0.1" byte_order="LittleEndian">
<UnstructuredGrid>
<Piece NumberOfPoints="568" NumberOfCells="1054">
<Points>
<DataArray type="Float64" NumberOfComponents="3" format="ascii">
0 0 0 0.0499999999998997 0 0 0.0323698570487533 0.032369857048862 0 0.0584335251122665 0.0584335251122145 0 0 0.050000000000208 0 0 0.100000000000416 0 0.0400584584693195 0.0944578555791577 0 0.0980768456829153 0.0991724147309935 0 0.0944578555792846 0.0400584584694184 0 0.0999999999998147 0 0 0.0564522287083799 0.234565808376616 0 0 0.200000000000832 0 0.0388399996009313 0.179498259931901 0 0 0.150000000000624 0 0.0548726927265955 0.134106856398452 0 0.0896897021915411 0.138513804586622 0 0.122947659685672 0.148251464161954 0 0.0828750765696809 0.178818634882983 0 0.0996947712122641 0.22074048840547 0 0.158996951633215 0.227836749122277 0 0.125875177082847 0.188968332266695 0 0.169013160068682 0.168002193866631 0 0.189220110521158 0.126442066536112 0 0.22626394058332 0.154659468198381 0 0.205967211350529 0.199725178953962 0 0.211554843187388 0.241744476774187 0 0.180351590178421 0.0391903365350905 0 0.149999999999704 0 0 0.138357444660799 0.0589959339188492 0 0.148476056588621 0.112220907400452 0 0.181725902897582 0.0816119740612928 0 0.217206150464847 0.104439454835129 0 0.231674603334463 0.0553437746953104 0 0.199999999999558 0 0 0.249999999999412 0 0 0.283208049853001 0.0508433390825056 0 0.299999999999266 0 0 0.323619558532886 0.0327999278256247 0 0.362462430895343 0.0442183666074772 0 0.349999999999121 0 0 0.355822585194142 0.0854187642572584 0 0.322427311917699 0.0689379334381408 0 0.330767006442793 0.119592255048115 0 0.295063395037039 0.101138089243444 0 0.257146194987713 0.10413999068455 0 0.263189497696013 0.146101733972573 0 0.299142716792971 0.156496209701207 0 0.260171965190135 0.20370391303005 0 0.301079690692898 0.202800200091412 0 0.288402851022681 0.249609553207088 0 0.331796839804983 0.222301993972031 0 0.330801675951106 0.181791113002693 0 0.360307484821635 0.154014700871105 0 0.397289240071895 0.165639932095022 0 0.432407360090089 0.182056809654028 0 0.41732862935313 0.129866986343623 0 0.381034256806799 0.204783951629704 0 0.42421838472614 0.222465020057878 0 0.462293308810443 0.198909164566548 0 0.499999999999971 0.219686411149829 0 0.459520018388269 0.156664873305243 0 0.46567857652706 0.114368061527523 0 0.475746624217828 0.077626823840591 0 0.484924330582892 0.0373213982762724 0 0.499999999998694 0 0 0.449999999998829 0 0 0.446927950142653 0.0518018776450602 0 0.406855818272412 0.0411398773125117 0 0.399999999998975 0 0 0.390616286406845 0.0815251031619917 0 0.375161719606839 0.121918126660369 0 0.43122735573934 0.0881769991929174 0 0.429308231064016 0.40626685012723 0 0.392220576577811 0.380677966902274 0 0.394198866753185 0.419122252400708 0 0.377023860747173 0.458194175644768 0 0.410095980695696 0.490839357492854 0 0.423403423371937 0.447621318748554 0 0.461527143457989 0.473443594123526 0 0.461024257085337 0.432541991343326 0 0.465432111282168 0.387884235436819 0 0.49854341599768 0.370759147681271 0 0.472532117365031 0.340817108308049 0 0.483788712280009 0.297451778269774 0 0.455331360217251 0.252568731208715 0 0.430594867953342 0.303959734190635 0 0.391620987711813 0.295036992928546 0 0.401804626289837 0.256190339758575 0 0.43301393728221 0.359843205574921 0 0.391208871887456 0.334075776884043 0 0.348047572662274 0.35750068079406 0 0.323103257015693 0.32141443408924 0 0.357962884673884 0.256835227867104 0 0.354814354583093 0.30398436674999 0 0.323736926270502 0.27286413781594 0 0.297479491180417 0.296411157380844 0 0.260144435522079 0.292623904436535 0 0.25082138072345 0.257700107422368 0 0.284738052361283 0.343557681186738 0 0.255826059367993 0.395079699895134 0 0.296304338697064 0.429832022968145 0 0.305976555003817 0.393468168521193 0 0.354814223971285 0.403129814650693 0 0.333826635273302 0.441301250475035 0 0.334364244893045 0.478496031217408 0 0.299886550525317 0.467007278275931 0 0.262475847345986 0.447649432958947 0 0.262418491288269 0.490719222921541 0 0.192181271644967 0.465938389648695 0 0.232324767024371 0.466345253695677 0 0.219688017838559 0.433067836400238 0 0.197169318452384 0.387030152393625 0 0.178457744828726 0.430871172570494 0 0.148695787718589 0.404814523960821 0 0.144484766221814 0.453538915812712 0 0.160013142023585 0.497717270559093 0 0.220015181768822 0.28602682846308 0 0.19152147653881 0.327918797702154 0 0.236041954047958 0.321918283269407 0 0.222695530956879 0.358374234325388 0 0.154014700871176 0.360307484821747 0 0.143922094947914 0.306200702035457 0 0.168537671773945 0.272324831592801 0 0.110477540413226 0.263117535981694 0 0.0994921194810273 0.307463985332816 0 0.0732967881614181 0.342269570898506 0 0.116034002194931 0.33748134585014 0 0.0334576460409223 0.363648423312284 0 0 0.350000000001456 0 0.032220921767547 0.329014892144875 0 0.0537301716876466 0.288250771898286 0 0 0.300000000001248 0 0 0.25000000000104 0 0.0648933318035348 0.486697770604545 0 0.109199274598136 0.487580697080498 0 0.0971009795772073 0.435906739990532 0 0.10935320311386 0.378391909217271 0 0.060530514380151 0.395146264289728 0 0 0.400000000001664 0 0 0.450000000001872 0 0.0436128036610927 0.440061111828404 0 0.0294449071642091 0.475000000001966 0 0 0.500000000002059 0 0 0.550000000001734 0 0.0518018776450837 0.553072049857452 0 0.0373213982762153 0.515075669417473 0 0.0776268238405584 0.524253375782261 0 0.114368061527482 0.534321423472927 0 0.121918126660357 0.624838280393159 0 0.0881769991928987 0.568772644260674 0 0.0815251031619976 0.609383713593151 0 0.0411398773124836 0.59314418172763 0 0 0.600000000001387 0 0 0.65000000000104 0 0.0323578435067225 0.676600401985782 0 0.0442183666074753 0.637537569104702 0 0 0.700000000000693 0 0.0486329174879745 0.717891752740162 0 0.0910728127967196 0.741988048646878 0 0.0990187225489634 0.704756315583652 0 0.0854187642572582 0.644177414805869 0 0.0689379334381628 0.677572688082311 0 0.119592255048131 0.669232993557228 0 0.154014700871098 0.63969251517837 0 0.181791113002692 0.669198324048887 0 0.13725179499973 0.741546289628566 0 0.156496209701235 0.70085728320704 0 0.203703913030074 0.739828034809895 0 0.202800200091414 0.698920309307116 0 0.249609553207091 0.711597148977329 0 0.222301993972028 0.668203160195032 0 0.204783951629683 0.618965743193203 0 0.222487080058139 0.575775413711342 0 0.219686411149827 0.500000000000032 0 0.19896328510056 0.537691476689505 0 0.156664873305197 0.540479981611742 0 0.129866986343594 0.582671370646846 0 0.165639932094979 0.602710759928095 0 0.182056809653986 0.567592639909897 0 0.100000000000416 1 0 0.0944578555791882 0.959941541530687 0 0.050000000000208 1 0 0 1 0 0.0304524096104897 0.96954759038951 0 0 0.949999999999792 0 0.0584335251122541 0.941566474887746 0 0 0.899999999999584 0 0.0400584584693226 0.905542144420798 0 0.0979909576452082 0.900450397208809 0 0.122947659685717 0.851748535838097 0 0.0868130391934314 0.817095740868429 0 0.0870417061194161 0.853827995089262 0 0.0524690331668437 0.86696410734367 0 0 0.849999999999653 0 0.043889462445438 0.826759239819513 0 0 0.8 0 0 0.750000000000347 0 0.0529380014213358 0.776889771183312 0 0.112316928024456 0.78020430794084 0 0.16253691950235 0.782849122627686 0 0.243358441913473 0.786511897933875 0 0.203590747653644 0.794224894178719 0 0.228939290247373 0.839908789927278 0 0.171018735363 0.828981264636961 0 0.132261503269228 0.813060330014371 0 0.146882743185419 0.889622656308119 0 0.181725902897639 0.918388025938889 0 0.18958721034944 0.876602973603946 0 0.221311393310948 0.904144943719832 0 0.232226438176177 0.944207511169706 0 0.200000000000832 1 0 0.18045991219398 0.960710939969875 0 0.138347219894628 0.94095916274078 0 0.150000000000624 1 0 0.350000000001456 1 0 0.363638616126136 0.966544916821213 0 0.32894624184181 0.967797018267389 0 0.300000000001248 1 0 0.25000000000104 1 0 0.287907520382944 0.946359528487026 0 0.263054145574704 0.889490620931362 0 0.307381363266577 0.90051880305435 0 0.337480267781999 0.883965456331347 0 0.342269570898513 0.926703211838588 0 0.360307484821742 0.845985299128825 0 0.306195311694726 0.85607519768343 0 0.272549978320415 0.831201948690144 0 0.286026828463086 0.779984818231176 0 0.321918283269405 0.763958045952046 0 0.327918797702134 0.808478523461202 0 0.358374234325384 0.777304469043123 0 0.387030152393619 0.80283068154762 0 0.433067836400233 0.780311982161444 0 0.466346121879671 0.767675855240614 0 0.465938389648691 0.807818728355036 0 0.497717270559088 0.839986857976418 0 0.453538915812708 0.855515233778189 0 0.43087117257049 0.821542255171277 0 0.404814523960818 0.851304212281416 0 0.378391909217271 0.890646796886144 0 0.435906739990533 0.902899020422797 0 0.487580697080494 0.890800725401865 0 0.486697770604543 0.935106668196466 0 0.44006111182841 0.956387196338908 0 0.475000000001966 0.970555092835793 0 0.450000000001872 1 0 0.395146264289732 0.939469485619852 0 0.400000000001664 1 0 0.332314974080817 0.607792187328737 0 0.371046512961454 0.605451707483111 0 0.359843205574921 0.566986062717789 0 0.358156517437794 0.511134404479091 0 0.331306197573488 0.540525641468424 0 0.302927660481639 0.514843047212215 0 0.252871394412626 0.544583554344924 0 0.304297406799597 0.569139051464601 0 0.295036992928544 0.608379012288189 0 0.256190339758569 0.598195373710169 0 0.256845292557732 0.642035542479631 0 0.273496567448602 0.675817419964087 0 0.304216353843215 0.645149391934367 0 0.257700107422386 0.749178619276552 0 0.296411157380843 0.702520508819589 0 0.292551210545191 0.739979902911732 0 0.342702801024459 0.716724167620359 0 0.322598530820738 0.676700726098352 0 0.35944937237717 0.651647898084363 0 0.405647175079827 0.65626423320525 0 0.395079699895129 0.74417394063201 0 0.386423584673078 0.692862589235973 0 0.427155383338081 0.700777593753079 0 0.447649432958942 0.737524152654017 0 0.467368917376544 0.70015537930375 0 0.490731134405986 0.737590046187304 0 0.455174570318146 0.62
[...]
<CellData Scalars="pressure_p0," Vectors="velocity_p0," Tensors="">
<DataArray type="Float64" Name="pressure_p0" format="ascii">
0.00069568658104293 0.000274088370355703 0.00118692204375147 0.000767114635900068 0.000339147107766028 0.00033919540257029 0.000831502776696071 0.00165109610760971 0.00209999661035315 0.00162157647369657 0.00203161374356724 0.00304992561879921 0.00274576907974023 0.00285176911120319 0.00204497144380975 0.00170440571031849 0.000477507097228841 0.00149985991579025 0.000805041138669772 0.00148692625158663 0.000329086550480026 0.000792104660088015 0.000801897387437299 0.00190772069341969 0.00246209181157547 0.00258415219424379 0.00275100310960135 0.00200255036342323 0.00256556342520193 0.00304540385893939 0.00222654725198476 0.00432318816099812 0.00316655246871184 0.00369844821312155 0.00428714206804043 0.00342469283987675 0.00359677209655426 0.00409017282835897 0.00497183160274235 0.00464149064770653 0.00569635121218795 0.00535871318138448 0.00571461146889778 0.00475655132014408 0.00526399008973226 0.00554793252085233 0.00458614975141911 0.00404298739928195 0.00425830901286334 0.0031533583520165 0.00380822495910038 0.00380825227885458 0.0031700437436762 0.00418353652263974 0.00495723351449113 0.00467032841277087 0.00541428912848511 0.00544770067232986 0.00470623667411136 0.0048309336574094 0.00529227505290561 0.00619028204754812 0.00580339406671154 0.00667856293076271 0.0065696416537653 0.00688004064163422 0.00703240865662565 0.00714409326889344 0.00742365496472493 0.00745556705041245 0.00724378316130188 0.00741384779441632 0.00716401322331529 0.00703715805961231 0.00677004535421281 0.00654051516726179 0.00620424881039045 0.00584620933252229 0.00609373057456233 0.00613398262060084 0.00668770143760509 0.00666059806674145 0.0063227067252262 0.00600400171372591 0.00628014008469167 0.00633650557006332 0.00664110424347292 0.00674892666418318 0.00683913363594046 0.00717464072734876 0.00727815139287362 0.00709010557652071 0.00682637029737293 0.00728360809235262 0.00726041631122586 0.00766025036619642 0.00749241336724085 0.00771275282285574 0.00751036760133052 0.00780149032737926 0.00792097550695412 0.00770493035688977 0.00751811982531848 0.00777672910284798 0.00787006562418159 0.00797127737613301 0.00793593813074191 0.00807871311889021 0.00805348535622769 0.00807437305274404 0.00796884233739127 0.00798795858875559 0.00805792723690786 0.00807911677842285 0.00805816683198445 0.00807173519154303 0.00792784276544488 0.00800911802145652 0.00798755778623121 0.00807997211592025 0.00804561349662756 0.00806073620851532 0.00801952531466692 0.00788100264210033 0.00781884143555433 0.00791245945710039 0.00759995742215188 0.00757537915650535 0.00764187501043381 0.00778394451953564 0.00776089573403687 0.00780102128868054 0.00781696357713755 0.0075199949710448 0.00772784043653661 0.00747085034616816 0.00767066565260857 0.00771128841285169 0.00752935929117497 0.00789398520631031 0.00797680759267183 0.00794312214263735 0.00804979824747037 0.0080781518237204 0.00805967505593106 0.00807799776772031 0.00806091896917851 0.00792956904786555 0.00799045091939856 0.00795168803673942 0.00807835621100405 0.00807971393709856 0.00806538517006531 0.00807596457122384 0.00796342369459861 0.00802323037729123 0.00800988464161623 0.00806791829902656 0.00800546983505254 0.00788098910603793 0.00774627390859227 0.00772138294549225 0.00750823523055719 0.00754920627926197 0.00781643715040711 0.00772776036750863 0.00748656463033638 0.00672093061426089 0.00680184519999764 0.00736279909258404 0.00710659219156813 0.00714895762533386 0.00739982828953856 0.0067532290191981 0.00700751436461875 0.00705525528514392 0.00626370878683228 0.00658729489554041 0.00624410343082671 0.00600492384030026 0.0065663882289612 0.00589835842669111 0.00579068551361394 0.00608862490666595 0.00671315135199504 0.00632152006402663 0.00625965364092848 0.00703508892837646 0.00697559931788797 0.00726061564824099 0.00736583605860426 0.00727422709934468 0.00718368729102665 0.00686220385780759 0.00636258665424824 0.00671962918639845 0.00632924926111739 0.00668682527291537 0.00576056995858727 0.00614674082600944 0.00549963229590808 0.00455496521486856 0.00504894603611213 0.00468491256447324 0.00504917036876043 0.00550007565819428 0.00564203934490319 0.0052515441296204 0.00523146953595121 0.00471790711311964 0.00383179490425047 0.00421708032488665 0.00403935240849759 0.00337990698014327 0.00321179269542639 0.00339295898993505 0.00401656805249646 0.0041513439861925 0.00475180106685282 0.00560017945524524 0.00529771677577177 0.00550938197583439 0.0050698172065432 0.0046135282787692 0.00508688600114326 0.00567359026563026 0.0048285117489042 0.00435024614329722 0.00312733051998235 0.00339557940745339 0.00396412982682773 0.00407032377638966 0.00346261271869163 0.00357647854243718 0.00184969852713441 0.00292663025804691 0.00220273703900951 0.00190010324129524 0.00297132428935481 0.00240803753229008 0.00248700780350432 0.0020363947179383 0.00117267547415577 0.00140882583382613 0.000283364959535053 0.000555692775422291 0.000272870695504148 0.00134208410891197 0.000726388647697123 0.00045440864229015 0.000929526858141271 0.0017266355984554 0.00226481863487177 0.00210619327393267 0.00290321227980867 0.0029368953371106 0.00223024029356702 0.00169040218661199 0.000879140106933199 0.000794044284672293 0.000369021502642034 0.000617505140987825 0.00116337733163418 0.00111094814081722 0.000249273138548759 0.000564688259447256 0.000315982182355813 0.000753190887887955 0.00151305790285785 0.00140412735206381 0.00182604989498798 0.00233797227770761 0.00275748807188814 0.00250721218860368 0.00276375555043049 0.00249377442682065 0.00176944043546597 0.0014055566639687 0.00152345369264284 0.000785149898677628 0.000348393948611048 0.000721556012517564 0.000647513836496782 0.000374253318122497 0.000274050419050029 0.00122732728895732 0.000411546245351336 0.000684707942153854 0.00126415511624307 0.000857765189264373 0.00161954333532255 0.00199879105000909 0.00181759377021184 0.00271585203137925 0.0017730440302985 0.00166902136237636 0.00228705912296947 0.00239698366803625 0.00240863493830315 0.00271435794383918 0.00325437854934197 0.00372825614181153 0.00370928722545783 0.0043342712660235 0.00401950601119012 0.00309334024648848 0.00322952712204925 0.00434037887923455 0.00449252444147178 0.00512530555672587 0.00524828704349003 0.0054747691263527 0.00481171520271988 0.00479988689391004 0.00568749197863774 0.00530613666019337 0.00551681903440111 0.0053027897672881 0.00481500856810951 0.00560401750966119 0.00524398602819372 0.00562382012510715 0.00522408182862729 0.0046004478416435 0.00477601592911058 0.00431507559376038 0.00415418909670792 0.00352510164350078 0.00315940002519286 0.00329546523374144 0.00380855915161795 0.0034215122538059 0.0036058237236476 0.00441996678155421 0.00421882562464534 0.00387474167781027 0.00285147820701106 0.00170420770678119 0.00204475064353846 0.00117073235589121 0.000257813224190148 0.000679466255714256 0.000750821613427598 0.00083135810890217 0.000339079461597235 0.000339117967891238 0.00160058531973031 0.00165011549456266 0.00209900940980405 0.00274466485072069 0.00303608914765663 0.00256191987537819 0.00283281819477635 0.00247212543893359 0.00182679410048375 0.00198905939296012 0.00154307910161763 0.000814204581688746 0.000781500524647911 0.000371673372135604 0.00154495535434726 0.000817964930013294 0.000447929465875634 0.00214266347761277 0.00210816982853822 0.00274876025569486 0.00282170777875528 0.00406407340417024 0.00337951280636702 0.00378896818339443 0.00334196737769069 0.00431170144217099 0.00454144095176712 0.00509130075068532 0.00543624257943658 0.00525585662488321 0.00501941173626933 0.00477360413399886 0.00568464519203984 0.00467637919684353 0.00409543872359749 0.00348878519198437 0.0035989936390824 0.00315657847711701 0.00379613505559271 0.00417469939698235 0.00470130789209938 0.00549299869137486 0.00551264907232959 0.0049873166762226 0.00471011525762602 0.0048350890300361 0.00529593397084483 0.00425877337600346 0.00380861069212497 0.00404329849674933 0.00315295939560526 0.00717061674697652 0.00742710219529036 0.00713938337109698 0.00738411208939204 0.00681581422822676 0.00690536205521324 0.00662034250864509 0.00621812305206125 0.00583529145507276 0.00632511404758831 0.00591167035037362 0.00642082934816812 0.00678302591765187 0.0069431095029481 0.00671612781649541 0.0074327656347649 0.00723115544717312 0.00729870670130637 0.00729213587758581 0.00697234195376789 0.00701361568165465 0.0058022947056253 0.00623747366868224 0.0065693475923249 0.00671273426984693 0.00646763346423541 0.00601541358121038 0.00620823944572155 0.00593185724544773 0.00654212799317526 0.00709463525733357 0.00703550345112381 0.00728710528716717 0.00751689786040001 0.00772584189000035 0.00780876815691261 0.00785922920394305 0.00797786010242686 0.00807303466824938 0.00807625928413533 0.00806133498706878 0.00800125311692478 0.0079538734602736 0.0079836676863141 0.00805135341950297 0.00806347102189037 0.0078928019796385 0.00788593709230333 0.00774461297211001 0.00755182912745168 0.00752498812903547 0.0077072936757258 0.00785051646615389 0.00773192622639092 0.00801217216300793 0.00808031022290342 0.00804235428697259 0.00799537493269766 0.00803908072255915 0.00807857521611866 0.00805415581318245 0.00807949455747027 0.00800204446919913 0.00788865568324116 0.00777492052117496 0.00757163067917707 0.0069814288327968 0.00724849508596319 0.00725113459538204 0.00744471703357468 0.00719917746616611 0.006964360881351 0.00697668202611164 0.00672471537444224 0.00697802785750013 0.0063337337548564 0.00610802765372089 0.00608091884005707 0.00631040169245624 0.00669104132548905 0.00669159676132956 0.00605200636790574 0.00619791712217185 0.00573117931374315 0.00653912619376224 0.00650043700727749 0.00631160584288958 0.0060037608722303 0.00621544329397421 0.00611482969114213 0.00668744082173383 0.00680797284769765 0.00683042596811155 0.00746467501258739 0.00736915974554784 0.00734629764232278 0.00710384841768979 0.00697969414465124 0.00694032985278972 0.00760483109366674 0.00755025622464213 0.00786344020472157 0.00773752869629204 0.00791170189593235 0.00783903479956481 0.00770991301701728 0.00784682725857537 0.00803939998708091 0.00803985622818319 0.00796991808212861 0.00796509598438067 0.00807646059382246 0.00801363602184825 0.00802687135085983 0.00807372811625015 0.00806730813211774 0.0080712271011034 0.008055220857971 0.00803400828971394 0.0079237415235248 0.00783016257918064 0.00788930051487617 0.00750063150656999 0.00750351705539007 0.00763980282308785 0.00759708614382967 0.00758855940938669 0.00788303170846985 0.00778690284879625 0.00783107957958686 0.00800180697656431 0.00800401398745808 0.0080622507739805 0.00804802425323191 0.00808128554998398 0.00797040554128179 0.00793697430917841 0.0078596616428648 0.00782529571122635 0.00776418606127686 0.0077150880856266 0.00751671258561407 0.00759966273337379 0.00767076307567781 0.00780062666559324 0.00794538573997895 0.00799255756034995 0.00806666460262488 0.00808175534508348 0.0080742080603172 0.00808421356727894 0.0080642044817669 0.00794572104779334 0.00801838372560461 0.00802209244425978 0.00806852357751251 0.00801206399098332 0.00800401521157419 0.00787798026130075 0.00774366695247983 0.00771964326831419 0.00750878568250726 0.00754906116424243 0.00781895245091721 0.00772005600864313 0.00747280738709151 0.00672629127438337 0.006801504519724 0.00736323133842111 0.00710645145266802 0.00714876785156701 0.00739985487833377 0.00700735499369545 0.00675295359985566 0.00705489940898095 0.00658694662850889 0.00626338044021497 0.00624421358123436 0.00600458242030244 0.00656632182068496 0.00589870796036051 0.00579145952859899 0.00634271082291378 0.00626634178618992 0.00610406909291092 0.00575455053564838 0.00615402478583191 0.00635283285971221 0.00635466240507544 0.00671347613281755 0.00680865240762278 0.00696454607029361 0.00728251077117201 0.00724289855012099 0.0074317507407386 0.00731586328475801 0.00699950360314605 0.00678241116527477 0.00690635806545951 0.00759954633948828 0.00757497333205827 0.00788053682605081 0.00791198848937227 0.00781839293928518 0.00801902726737914 0.00806021782454294 0.00804510876430763 0.00807944706097675 0.00800863090529482 0.00798707213661797 0.00807122728143249 0.00792737842051371 0.00778349568500384 0.00776044775473179 0.00764145117230167 0.00749195883061505 0.0076597977284087 0.0075098831309259 0.00771227636557871 0.00780102934248925 0.0079205264872804 0.00796837774168211 0.00807861879397584 0.00805770659186007 0.00805751716509729 0.00798753923378694 0.00793553508390133 0.00807839773193964 0.00807482479114504 0.00805337722660258 0.00797086917841308 0.00786932538178665 0.00777625931309079 0.00751772400057521 0.00770436062939964 0.00727770663507789 0.00717411419185693 0.00683852551906277 0.00674851021477644 0.00664057949232501 0.00600357409229818 0.00633561701089284 0.00627953519631435 0.00668696378196243 0.006106342861963 0.00629703653577213 0.00666100925904338 0.00682577850151407 0.00708959401030239 0.00728309244655625 0.00725999974672565 0.00724349635173833 0.00745520198787349 0.00716374080347169 0.00741348719376779 0.00703706084459691 0.00677087019466158 0.00607312544092462 0.00620299930506436 0.00579162861986464 0.00653623902101039 0.00667185127499677 0.00574322647412509 0.00618272283363435 0.00656265496247628 0.00687873956780822 0.0070310761145396 0.00714283624715996 0.00742326982935153 0.00311197776179559 0.00368686588949718 0.00371491720270712 0.00420733668508849 0.00523538816703675 0.00460610709055393 0.00472329149467578 0.00492523722961967 0.00541427127773895 0.00563271638686243 0.00467972424590796 0.00387376584492475 0.00417332413394493 0.00405790334911666 0.00312193834094058 0.00323993639069591 0.00351422644748615 0.00332343023136675 0.00408640330195653 0.00491289540500382 0.00457711392691856 0.00562879753974645 0.00537982030931909 0.00470673762092075 0.00529873031286583 0.00527467969525731 0.00555965702124455 0.00460545698838329 0.00312536799107023 0.00434596096868087 0.00430751886666184 0.00370308545855625 0.00302360146830474 0.00250428892292303 0.00195513718649039 0.00218994955208793 0.000471886976936185 0.00148736227428469 0.000803247626379277 0.00151445452863595 0.000830837262086074 0.000332885669551196 0.000836971538512178 0.00210019089268307 0.00224602510433865 0.00262046285426212 0.00296117367244253 0.00271579522497337 0.00166352006150301 0.00211224891788122 0.00166851640628984 0.00033920807624981 0.00033916971867493 0.000831595781391112 0.000767148422469945 0.000274099276545902 0.00069568871704648 0.00118693221416952 0.00204484163247752 0.00170443542392408 0.00285138306825757 0.00383164617590545 0.00421693291769398 0.00403922366184952 0.00337978402607813 0.00321167589656529 0.00339287382537351 0.00401640950068581 0.0041511526813048 0.00468465045007747 0.00504687899508919 0.0045547500990212 0.0050466271889225 0.00549371720684675 0.00549774725537262 0.00564178245489118 0.00471773065920188 0.00523135012618494 0.00525156053526247 0.00567410998055417 0.00508683171019267 0.00482843828791068 0.00530977770424111 0.00559987323870082 0.00550920491666665 0.00461513707050817 0.00506966155150232 0.00476635903008275 0.00407206752456019 0.00358664545100556 0.00346468550531132 0.00435012869080299 0.00396398271393102 0.00339545139145253 0.00312720632214786 0.00248689683403313 0.0024078162864684 0.00297110633986715 0.00189913826750194 0.00203630815876128 0.00292664544497869 0.00220200235656361 0.00184348571714171 0.000923085175653118 0.000725407231347374 0.000453586003296919 0.00140874202441658 0.00117244396146631 0.00134109146635627 0.00027269648937941 0.000283330359233432 0.000555490550644695 0.000369010032872316 0.000879108502514224 0.00079399002704791 0.00223015768858029 0.00169034394067201 0.00293678769880488 0.00290313640666119 0.00172658192136487 0.0021089028062593 0.00226476411146405 0.00111103386724186 0.00116335062188052 0.000617489467819513 0.000564782550470163 0.000249269074393444 0.000316080339402359 0.000753880436043365 0.00140761257159071 0.00151592888852798 0.000721373140233139 0.000785725402172776 0.000348406112508612 0.00153983637875604 0.00140192910896725 0.00178171117230637 0.00250576997591352 0.00275976825291488 0.00184510620460286 0.00277294191023431 0.00235625084071505 0.002510045403394 0.00315952162224251 0.00352522834460416 0.00415388847597188 0.00431477994099202 0.00329569715992897 0.00380858714309969 0.00342099474627739 0.00360532966758193 0.004419915187013 0.00421882373323916 0.00387474821120197 0.00481483202330254 0.00530258000559538 0.00551668471867747 0.00560265704903801 0.00524244283454114 0.00522265664963849 0.00561908793531581 0.00460009345637872 0.0047756047837474 0.00512556720412951 0.00449264259040267 0.00547515983323607 0.00524851241386939 0.0056839628813343 0.00530607092487884 0.00481176738445532 0.00480001672028178 0.00433432303222069 0.00325400563905551 0.0037094355046542 0.00372842957710909 0.00331432996363983 0.00311028816301677 0.00434049707514707 0.00408496557102192 0.00290717756583822 0.0018537330260955 0.00214069851767968 0.00176485357245372 0.00241857746207351 0.0027277123749251 0.00241438622050819 0.00230123059800662 0.00168311393755959 0.00178354443665371 0.00123085589796576 0.000277777533333687 0.000650996603136828 0.000374032098805007 0.000896117822969227 0.00128648262763027 0.000707086656928477 0.000430138184867444 0.000468075304662634 0.000798550613898861 0.00148260636066823 0.00033202378782384 0.000836591774195299 0.000829610877739342 0.00151321275296926 0.00225747727796607 0.00211493220086462 0.00265971114437126 0.00259775279875161 0.00299881012566937 0.0022040189745159 0.00202123997649571 0.00118698594331786 0.000274109948306896 0.000695721021745359 0.000767177503718385 0.000831617082939399 0.000339175647240441 0.000339209041065528 0.00166504401424428 0.0029724143376262 0.0027211998586542 0.00306796163741123 0.00210922763091298 0.00166043700541125 0.00170450855037533 0.00285159915098404 0.00204496537645823 0.00425236224620505 0.00376984897308399 0.00312042942879658 0.003983151979852 0.0036791244336895 0.00317823349818872 0.00378645021021196 0.00415923838678705 0.00467318990079164 0.00548329404927219 0.00552408528295789 0.00497960238334707 0.00484473443075103 0.00469909157531707 0.00531135263766162 0.00420520252331361 0.00407147660815394 0.00445851533245906 0.00332369436151048 0.00366349939535536 0.0031749151500922 0.00333848471101275 0.00350546106615974 0.00407974685172518 0.00471901394692275 0.00464473830763579 0.00500484683619563 0.00566709169580559 0.00521364370420795 0.00505544972719589 0.00542662458027963 0.00620887669248385 0.0059228160865784 0.00654288155270186 0.00646709861102703 0.00671342670569318 0.00600530526470584 0.00623730591249164 0.0057952857818718 0.00656890482014039 0.00697300813521952 0.0070142611701802 0.00729933406987761 0.00729285283069339 0.0072878728177 0.00709741763364751 0.00703635337456283 0.00662257903808333 0.00622011410483931 0.00585127781360117 0.00632816726853602 0.00592785417804728 0.00642218985918025 0.00678401340535116 0.00694399230395842 0.00723172830898184 0.00743333341056491 0.00671860902294681 0.00681812238094168 0.00714018525644799 0.00738468451341745 0.00742762327611988 0.00717135425947101 0.00690597779693772 0.00788922855178928 0.00757220150353971 0.00777549027056755 0.00785110164465174 0.00770789072973174 0.00773255393569442 0.00801274148194846 0.00804291273802447 0.00808083726612331 0.00799594691150236 0.00803964424157029 0.00807911932916522 0.00808003789000263 0.00805471300588571 0.00800261180286721 0.00780974361063533 0.00786141679499356 0.00772691776964802 0.00751762883943761 0.00755254069910565 0.00752564896895293 0.00789341786219347 0.0077453362469584 0.00788658055871125 0.00798427159126561 0.00806399343386941 0.0080518718201975 0.00807665714339334 0.00806245572302487 0.00800307384608448 0.00795471062848147 0.00798075374259804 0.00807459736923349 0.00804278958886257 0.0080453644387372 0.00807625152602684 0.00807827968074513 0