<?xml version="1.0"?>
<VTKFile type="UnstructuredGrid" version="0.1" byte_order="LittleEndian">
<UnstructuredGrid>
<Piece NumberOfPoints="568" NumberOfCells="1054">
<Points>
<DataArray type="Float64" NumberOfComponents="3" format="ascii">
0 0 0 0.0499999999998997 0 0 0.0323698570487533 0.032369857048862 0 0.0584335251122665 0.0584335251122145 0 0 0.050000000000208 0 0 0.100000000000416 0 0.0400584584693195 0.0944578555791577 0 0.0980768456829153 0.0991724147309935 0 0.0944578555792846 0.0400584584694184 0 0.0999999999998147 0 0 0.0564522287083799 0.234565808376616 0 0 0.200000000000832 0 0.0388399996009313 0.179498259931901 0 0 0.150000000000624 0 0.0548726927265955 0.134106856398452 0 0.0896897021915411 0.138513804586622 0 0.122947659685672 0.148251464161954 0 0.0828750765696809 0.178818634882983 0 0.0996947712122641 0.22074048840547 0 0.158996951633215 0.227836749122277 0 0.125875177082847 0.188968332266695 0 0.169013160068682 0.168002193866631 0 0.189220110521158 0.126442066536112 0 0.22626394058332 0.154659468198381 0 0.205967211350529 0.199725178953962 0 0.211554843187388 0.241744476774187 0 0.180351590178421 0.0391903365350905 0 0.149999999999704 0 0 0.138357444660799 0.0589959339188492 0 0.148476056588621 0.112220907400452 0 0.181725902897582 0.0816119740612928 0 0.217206150464847 0.104439454835129 0 0.231674603334463 0.0553437746953104 0 0.199999999999558 0 0 0.249999999999412 0 0 0.283208049853001 0.0508433390825056 0 0.299999999999266 0 0 0.323619558532886 0.0327999278256247 0 0.362462430895343 0.0442183666074772 0 0.349999999999121 0 0 0.355822585194142 0.0854187642572584 0 0.322427311917699 0.0689379334381408 0 0.330767006442793 0.119592255048115 0 0.295063395037039 0.101138089243444 0 0.257146194987713 0.10413999068455 0 0.263189497696013 0.146101733972573 0 0.299142716792971 0.156496209701207 0 0.260171965190135 0.20370391303005 0 0.301079690692898 0.202800200091412 0 0.288402851022681 0.249609553207088 0 0.331796839804983 0.222301993972031 0 0.330801675951106 0.181791113002693 0 0.360307484821635 0.154014700871105 0 0.397289240071895 0.165639932095022 0 0.432407360090089 0.182056809654028 0 0.41732862935313 0.129866986343623 0 0.381034256806799 0.204783951629704 0 0.42421838472614 0.222465020057878 0 0.462293308810443 0.198909164566548 0 0.499999999999971 0.219686411149829 0 0.459520018388269 0.156664873305243 0 0.46567857652706 0.114368061527523 0 0.475746624217828 0.077626823840591 0 0.484924330582892 0.0373213982762724 0 0.499999999998694 0 0 0.449999999998829 0 0 0.446927950142653 0.0518018776450602 0 0.406855818272412 0.0411398773125117 0 0.399999999998975 0 0 0.390616286406845 0.0815251031619917 0 0.375161719606839 0.121918126660369 0 0.43122735573934 0.0881769991929174 0 0.429308231064016 0.40626685012723 0 0.392220576577811 0.380677966902274 0 0.394198866753185 0.419122252400708 0 0.377023860747173 0.458194175644768 0 0.410095980695696 0.490839357492854 0 0.423403423371937 0.447621318748554 0 0.461527143457989 0.473443594123526 0 0.461024257085337 0.432541991343326 0 0.465432111282168 0.387884235436819 0 0.49854341599768 0.370759147681271 0 0.472532117365031 0.340817108308049 0 0.483788712280009 0.297451778269774 0 0.455331360217251 0.252568731208715 0 0.430594867953342 0.303959734190635 0 0.391620987711813 0.295036992928546 0 0.401804626289837 0.256190339758575 0 0.43301393728221 0.359843205574921 0 0.391208871887456 0.334075776884043 0 0.348047572662274 0.35750068079406 0 0.323103257015693 0.32141443408924 0 0.357962884673884 0.256835227867104 0 0.354814354583093 0.30398436674999 0 0.323736926270502 0.27286413781594 0 0.297479491180417 0.296411157380844 0 0.260144435522079 0.292623904436535 0 0.25082138072345 0.257700107422368 0 0.284738052361283 0.343557681186738 0 0.255826059367993 0.395079699895134 0 0.296304338697064 0.429832022968145 0 0.305976555003817 0.393468168521193 0 0.354814223971285 0.403129814650693 0 0.333826635273302 0.441301250475035 0 0.334364244893045 0.478496031217408 0 0.299886550525317 0.467007278275931 0 0.262475847345986 0.447649432958947 0 0.262418491288269 0.490719222921541 0 0.192181271644967 0.465938389648695 0 0.232324767024371 0.466345253695677 0 0.219688017838559 0.433067836400238 0 0.197169318452384 0.387030152393625 0 0.178457744828726 0.430871172570494 0 0.148695787718589 0.404814523960821 0 0.144484766221814 0.453538915812712 0 0.160013142023585 0.497717270559093 0 0.220015181768822 0.28602682846308 0 0.19152147653881 0.327918797702154 0 0.236041954047958 0.321918283269407 0 0.222695530956879 0.358374234325388 0 0.154014700871176 0.360307484821747 0 0.143922094947914 0.306200702035457 0 0.168537671773945 0.272324831592801 0 0.110477540413226 0.263117535981694 0 0.0994921194810273 0.307463985332816 0 0.0732967881614181 0.342269570898506 0 0.116034002194931 0.33748134585014 0 0.0334576460409223 0.363648423312284 0 0 0.350000000001456 0 0.032220921767547 0.329014892144875 0 0.0537301716876466 0.288250771898286 0 0 0.300000000001248 0 0 0.25000000000104 0 0.0648933318035348 0.486697770604545 0 0.109199274598136 0.487580697080498 0 0.0971009795772073 0.435906739990532 0 0.10935320311386 0.378391909217271 0 0.060530514380151 0.395146264289728 0 0 0.400000000001664 0 0 0.450000000001872 0 0.0436128036610927 0.440061111828404 0 0.0294449071642091 0.475000000001966 0 0 0.500000000002059 0 0 0.550000000001734 0 0.0518018776450837 0.553072049857452 0 0.0373213982762153 0.515075669417473 0 0.0776268238405584 0.524253375782261 0 0.114368061527482 0.534321423472927 0 0.121918126660357 0.624838280393159 0 0.0881769991928987 0.568772644260674 0 0.0815251031619976 0.609383713593151 0 0.0411398773124836 0.59314418172763 0 0 0.600000000001387 0 0 0.65000000000104 0 0.0323578435067225 0.676600401985782 0 0.0442183666074753 0.637537569104702 0 0 0.700000000000693 0 0.0486329174879745 0.717891752740162 0 0.0910728127967196 0.741988048646878 0 0.0990187225489634 0.704756315583652 0 0.0854187642572582 0.644177414805869 0 0.0689379334381628 0.677572688082311 0 0.119592255048131 0.669232993557228 0 0.154014700871098 0.63969251517837 0 0.181791113002692 0.669198324048887 0 0.13725179499973 0.741546289628566 0 0.156496209701235 0.70085728320704 0 0.203703913030074 0.739828034809895 0 0.202800200091414 0.698920309307116 0 0.249609553207091 0.711597148977329 0 0.222301993972028 0.668203160195032 0 0.204783951629683 0.618965743193203 0 0.222487080058139 0.575775413711342 0 0.219686411149827 0.500000000000032 0 0.19896328510056 0.537691476689505 0 0.156664873305197 0.540479981611742 0 0.129866986343594 0.582671370646846 0 0.165639932094979 0.602710759928095 0 0.182056809653986 0.567592639909897 0 0.100000000000416 1 0 0.0944578555791882 0.959941541530687 0 0.050000000000208 1 0 0 1 0 0.0304524096104897 0.96954759038951 0 0 0.949999999999792 0 0.0584335251122541 0.941566474887746 0 0 0.899999999999584 0 0.0400584584693226 0.905542144420798 0 0.0979909576452082 0.900450397208809 0 0.122947659685717 0.851748535838097 0 0.0868130391934314 0.817095740868429 0 0.0870417061194161 0.853827995089262 0 0.0524690331668437 0.86696410734367 0 0 0.849999999999653 0 0.043889462445438 0.826759239819513 0 0 0.8 0 0 0.750000000000347 0 0.0529380014213358 0.776889771183312 0 0.112316928024456 0.78020430794084 0 0.16253691950235 0.782849122627686 0 0.243358441913473 0.786511897933875 0 0.203590747653644 0.794224894178719 0 0.228939290247373 0.839908789927278 0 0.171018735363 0.828981264636961 0 0.132261503269228 0.813060330014371 0 0.146882743185419 0.889622656308119 0 0.181725902897639 0.918388025938889 0 0.18958721034944 0.876602973603946 0 0.221311393310948 0.904144943719832 0 0.232226438176177 0.944207511169706 0 0.200000000000832 1 0 0.18045991219398 0.960710939969875 0 0.138347219894628 0.94095916274078 0 0.150000000000624 1 0 0.350000000001456 1 0 0.363638616126136 0.966544916821213 0 0.32894624184181 0.967797018267389 0 0.300000000001248 1 0 0.25000000000104 1 0 0.287907520382944 0.946359528487026 0 0.263054145574704 0.889490620931362 0 0.307381363266577 0.90051880305435 0 0.337480267781999 0.883965456331347 0 0.342269570898513 0.926703211838588 0 0.360307484821742 0.845985299128825 0 0.306195311694726 0.85607519768343 0 0.272549978320415 0.831201948690144 0 0.286026828463086 0.779984818231176 0 0.321918283269405 0.763958045952046 0 0.327918797702134 0.808478523461202 0 0.358374234325384 0.777304469043123 0 0.387030152393619 0.80283068154762 0 0.433067836400233 0.780311982161444 0 0.466346121879671 0.767675855240614 0 0.465938389648691 0.807818728355036 0 0.497717270559088 0.839986857976418 0 0.453538915812708 0.855515233778189 0 0.43087117257049 0.821542255171277 0 0.404814523960818 0.851304212281416 0 0.378391909217271 0.890646796886144 0 0.435906739990533 0.902899020422797 0 0.487580697080494 0.890800725401865 0 0.486697770604543 0.935106668196466 0 0.44006111182841 0.956387196338908 0 0.475000000001966 0.970555092835793 0 0.450000000001872 1 0 0.395146264289732 0.939469485619852 0 0.400000000001664 1 0 0.332314974080817 0.607792187328737 0 0.371046512961454 0.605451707483111 0 0.359843205574921 0.566986062717789 0 0.358156517437794 0.511134404479091 0 0.331306197573488 0.540525641468424 0 0.302927660481639 0.514843047212215 0 0.252871394412626 0.544583554344924 0 0.304297406799597 0.569139051464601 0 0.295036992928544 0.608379012288189 0 0.256190339758569 0.598195373710169 0 0.256845292557732 0.642035542479631 0 0.273496567448602 0.675817419964087 0 0.304216353843215 0.645149391934367 0 0.257700107422386 0.749178619276552 0 0.296411157380843 0.702520508819589 0 0.292551210545191 0.739979902911732 0 0.342702801024459 0.716724167620359 0 0.322598530820738 0.676700726098352 0 0.35944937237717 0.651647898084363 0 0.405647175079827 0.65626423320525 0 0.395079699895129 0.74417394063201 0 0.386423584673078 0.692862589235973 0 0.427155383338081 0.700777593753079 0 0.447649432958942 0.737524152654017 0 0.467368917376544 0.70015537930375 0 0.490731134405986 0.737590046187304 0 0.455174570318146 0.62
[...]
<CellData Scalars="pressure_p0," Vectors="velocity_p0," Tensors="">
<DataArray type="Float64" Name="pressure_p0" format="ascii">
0.00112621517342958 0.000443709112031355 0.00192145376521655 0.00124184674336494 0.000549029666907325 0.000549107806468824 0.0013460816930574 0.00267288363477815 0.00339958817562692 0.00262509547536378 0.00328888573660802 0.00493738387371836 0.00444499959219883 0.00461659848748707 0.00331051069084408 0.00275918435888367 0.000773013763975571 0.00242805313497175 0.0013032434098927 0.0024071158474362 0.000532742890419229 0.00128230150805967 0.00129815468176392 0.00308832063774618 0.00398576627825163 0.00418336464007404 0.00445347101307536 0.00324183493758418 0.00415327077182411 0.00493006076309563 0.0036044523364355 0.00699860500284094 0.00512618334945613 0.0059872450604538 0.0069402538838209 0.00554407606539115 0.0058226478582741 0.00662139166302197 0.00804866848948849 0.00751389412507621 0.00922155950981835 0.00867497080889034 0.00925111878405453 0.00770015960268306 0.0085216265858017 0.00898128652268134 0.00742430230773621 0.00654500687053297 0.00689358152023819 0.00510482742691262 0.00616496096929962 0.00616500461035292 0.00513183807312642 0.00677253456446726 0.00802503755585679 0.00756057957200637 0.00876494274168839 0.00881903207517445 0.00761871067736208 0.00782057719041472 0.00856742168010628 0.0100211639884569 0.00939484865849186 0.0108116191069702 0.0106352917589287 0.0111377825215377 0.0113844436861589 0.0115652450557367 0.0120178146532922 0.0120694740077336 0.0117266264261629 0.0120019374169549 0.0115974918873727 0.0113921312233321 0.0109597146448877 0.010588139464339 0.0100437730485979 0.00946415978823892 0.00986485921680469 0.00993001919154806 0.0108264081425309 0.0107825344218333 0.0102355374284006 0.00971959522253908 0.0101666238143856 0.0102578731401758 0.0107509713017529 0.0109255182272555 0.0110715532954036 0.0116146899108683 0.0117822566537794 0.0114778429616996 0.0110508941653771 0.0117910935340402 0.0117535520933659 0.0124008244546547 0.0121291205533242 0.0124858155850581 0.0121581842335489 0.0126294701208359 0.0128228992473597 0.0124731489545121 0.0121707292965233 0.0125893824545061 0.0127404772919237 0.0129043257799952 0.0128471185774933 0.0130782507773274 0.0130374084231007 0.0130712207585839 0.0129003898517021 0.0129313335719557 0.0130446029570906 0.0130789081635559 0.0130449925056919 0.0130669596949776 0.0128340186237226 0.0129655920053651 0.0129306898186654 0.01308029530322 0.0130246738908573 0.0130491559024762 0.0129824413913084 0.0127581929677096 0.0126575637572226 0.0128091174581064 0.0123032224524813 0.0122634334019786 0.0123710787349786 0.0126010688925129 0.0125637572307251 0.0126286855052873 0.0126544987105058 0.0121737486435061 0.0125102193130194 0.0120941878149053 0.0124176571222802 0.0124834163511871 0.0121888978318998 0.0127791744108776 0.0129132539072637 0.0128587168785016 0.0130314090541827 0.0130773120400499 0.0130474038223696 0.0130770683589338 0.0130494229121769 0.0128367845660693 0.0129353456781299 0.0128725972623612 0.0130776537192309 0.013079856407608 0.0130566581420678 0.0130737894365452 0.0128916012281633 0.0129884216186358 0.0129668114555154 0.0130607691113182 0.0129596729206421 0.0127581583526314 0.0125400730268559 0.0124997756798865 0.0121547211003198 0.0122210511141405 0.0126536520770746 0.012510094736639 0.0121196347838539 0.0108801864201083 0.0110111774646017 0.0119192794512501 0.0115045189125775 0.0115731068970206 0.0119792287618975 0.010932479113834 0.0113441292386839 0.0114214189210286 0.0101400196398097 0.0106638582920378 0.0101082789261039 0.00972108598160781 0.0106300094454768 0.00954856827580174 0.00937425797693754 0.00985657196576905 0.0108675870956781 0.0102335961782466 0.0101334464683457 0.0113887598875447 0.0112924520577095 0.011753848435745 0.0119241906708654 0.0117758776975282 0.0116293100704265 0.0111088763390365 0.0103000681537708 0.010878066668804 0.0102461043486027 0.0108249665104298 0.00932549600348298 0.00995064854430774 0.00890307558763036 0.00737380176603692 0.00817348315016768 0.00758417042015515 0.00817384818136654 0.00890379664950082 0.00913361670543541 0.00850146713270915 0.00846896734603199 0.00763758563827826 0.00620310175476548 0.00682682264508727 0.00653910919584998 0.00547156554462847 0.00519941099412378 0.00549268935872722 0.00650221895978674 0.0067204024547761 0.0076924650818925 0.00906586371039819 0.00857622239869175 0.0089188744720999 0.00820728333678331 0.00746862014216358 0.00823491348154624 0.00918470019945786 0.00781664236740627 0.00704240144909211 0.00506268296742725 0.00549693918715081 0.00641733811546688 0.00658925199712644 0.005605458673948 0.0057897918094837 0.00299438921901425 0.0047377817829929 0.00356590585735057 0.00307598576086183 0.00481013383617528 0.00389825562009662 0.00402609593011963 0.00329661973463575 0.00189838740037586 0.0022806793193642 0.000458725666068758 0.000899584036694989 0.000441737197982651 0.0021726352794719 0.00117591571891271 0.000735620486478435 0.00150476698251529 0.00279516359242159 0.00366640046601178 0.00340960885265278 0.00469986421704106 0.0047543945636762 0.00361042576013268 0.00273650796479581 0.00142319632680008 0.00128543927376766 0.00059739050415946 0.000999648038458691 0.00188333284737867 0.00179845742457069 0.00040353567289626 0.000914145045560022 0.00051152732597587 0.00121930180674448 0.0024494120298748 0.00227306940798001 0.0029560975136641 0.00378482236921929 0.00446395389416969 0.00405879725376074 0.00447409802237833 0.00403704057919374 0.00286445417469277 0.00227538134152987 0.00246623962495476 0.001271038216503 0.000563996691702044 0.00116808887656661 0.00104822547203505 0.000605858787837296 0.000443645456640952 0.00198685424752907 0.000666229780735054 0.00110843657652368 0.00204647236792315 0.00138858902703786 0.00262178996117666 0.00323573393559011 0.00294240406829973 0.00439654461913547 0.00287028671661967 0.00270188933781397 0.00370239725862084 0.00388034751222365 0.00389921121176055 0.00439412912253129 0.00526833973685003 0.00603547297247405 0.0060047663430704 0.00701652067622381 0.00650695905192659 0.00500764128549047 0.00522810577087901 0.00702640490584631 0.00727270369984715 0.00829707853172512 0.00849616828098638 0.00886280497835045 0.00778942852725894 0.00777027841191182 0.00920717410636124 0.00858982176592493 0.00893088625065968 0.00858440743562238 0.00779476483349149 0.00907205145987297 0.00848921696936134 0.00910411453415192 0.00845699725157708 0.00744742943073253 0.0077316438210761 0.00698545229922035 0.00672500306462143 0.00570660580071987 0.00511459117819696 0.00533485764677315 0.00616547810199603 0.0055389057856954 0.00583727682488433 0.00715525172020014 0.00682963328233157 0.00627261621053723 0.00461609711952341 0.00275884568215744 0.00331013136574636 0.00189523251933165 0.00041735927717614 0.00109994954894272 0.0012154627492456 0.00134583880520291 0.00054891666185703 0.000548979041946548 0.00259109769328796 0.00267127912044765 0.003397968075489 0.00444318331863459 0.00491495452959282 0.00414734865209675 0.0045858916846575 0.00400198596776659 0.00295729517586671 0.00321997678926937 0.00249800455862171 0.00131807032400768 0.00126512737831424 0.000601681338447856 0.00250104250680448 0.00132415809239459 0.000725128311323316 0.00346863996962355 0.0034127995055935 0.00444981559476487 0.00456790784635143 0.00657910543246199 0.00547090727073476 0.00613375044314581 0.00541012615648224 0.00697997464896107 0.00735188867909355 0.00824202643840717 0.00880043476842149 0.00850841509774831 0.00812564477451745 0.00772772253033435 0.00920255658895603 0.0075703293781689 0.0066298766942365 0.00564780008230167 0.00582620969164154 0.0051100074190088 0.00614534955485692 0.00675818657139785 0.00761068347055519 0.00889230814737454 0.00892411798719215 0.00807368654266814 0.00762494037916607 0.00782725308932604 0.0085732890050179 0.00689428796639473 0.00616554504784627 0.00654546819439418 0.00510414809440616 0.0116081081176088 0.01202331812487 0.0115575464591395 0.011953724406053 0.0110337384992074 0.0111787019909931 0.0107172998840517 0.0100661692211414 0.0094464247460424 0.0102393721921378 0.00957007090115742 0.0103943214055966 0.0109806613973232 0.0112398109189611 0.0108723622373424 0.0120324876207164 0.0117061126709001 0.0118154688115563 0.0118048347823952 0.0112871368481649 0.0113539512478554 0.00939301122368089 0.0100974980721177 0.0106347517729352 0.0108668756340127 0.0104700938758346 0.00973802041081855 0.0100501784997101 0.00960275736363873 0.0105906921158858 0.0114851167835794 0.0113893891050621 0.0117966926329733 0.0121686930036177 0.0125069411255587 0.0126411839194235 0.0127228765882138 0.0129149211301044 0.0130689943300439 0.0130742105821345 0.0130500522591032 0.0129527888266121 0.0128760869783856 0.0129243174587918 0.0130338899348543 0.0130535048192205 0.0127772173357385 0.0127661056867502 0.0125373248627156 0.012225237058562 0.0121817839261981 0.0124769062354368 0.0127087610924195 0.0125167837402125 0.012970458664136 0.0130807625897164 0.0130193177920959 0.0129432646752306 0.0130140171137128 0.0130779527389361 0.0130384209727988 0.0130794407489444 0.0129540607607842 0.0127705017146572 0.0125863822892434 0.012257287484957 0.0113018700984216 0.0117342051946795 0.0117384813491419 0.0120518685721513 0.0116543769137805 0.0112742463898029 0.0112941948370431 0.0108862943885567 0.0112963669622494 0.0102533542294913 0.00988797288868912 0.00984408243054138 0.0102155781259438 0.0108317727292507 0.0108326745504122 0.00979727312389865 0.0100334767482902 0.00927789910591787 0.0105858408571798 0.0105232072142081 0.0102175235069009 0.00971916095224085 0.0100618433645117 0.00989896721348222 0.0108259345314761 0.011021055576561 0.0110574073910414 0.0120841573180574 0.0119295301903132 0.0118925255937899 0.0115000380118402 0.0112990560532832 0.0112353289013455 0.0123110566495887 0.0122227054237142 0.012729701615539 0.0125258691513201 0.0128078327110657 0.0126901977024375 0.0124811605529328 0.0127028022485156 0.0130145461513246 0.013015286935175 0.0129020689539478 0.0128942652195875 0.0130745453164167 0.0129728482586252 0.012994271489631 0.0130701244294312 0.0130597363613729 0.013066083574434 0.0130401774196508 0.0130058341685888 0.0128273278955999 0.0126758398520551 0.0127715778682069 0.012142380167213 0.0121470466020549 0.012367675451989 0.0122985342663855 0.0122847249602804 0.012761434308345 0.012605813611262 0.0126773342148847 0.0129537100128494 0.0129572857902517 0.0130515645909759 0.0130285342637369 0.0130823774785361 0.0129028796270579 0.0128487564305086 0.0127236035359919 0.0126679728456619 0.0125690385298074 0.012489559038413 0.0121684207835718 0.012302707427502 0.0124177983758263 0.0126280244581697 0.0128623674723945 0.0129387348093484 0.013058702446559 0.013083134185659 0.0130709105188644 0.013087101116935 0.0130547094527507 0.0128629033359324 0.0129805350734412 0.0129865415598847 0.0130616951188323 0.0129703000515451 0.0129572675962684 0.0127532351070563 0.0125358040722062 0.0124969160427311 0.0121555701998254 0.0122207660025966 0.0126576846816449 0.0124975898211933 0.0120973320772102 0.0108888371325892 0.0110105937256432 0.0119199422435853 0.011504254690322 0.0115727538345755 0.0119792255880046 0.0113438301684213 0.0109319933081592 0.0114207930654318 0.0106632516625694 0.0101394484614386 0.0101084227420588 0.00972049345944626 0.0106298672356617 0.00954910295192211 0.00937548787605691 0.0102678829410281 0.0101442504799184 0.00988156020027064 0.00931574679749636 0.00996243525869088 0.0102842776266281 0.0102872350898344 0.0108680999095855 0.0110221807181902 0.0112745464425446 0.0117892821130847 0.0117251525629919 0.0120308735184954 0.0118432662080212 0.0113311281537102 0.0109796910690453 0.0111803441434979 0.012302480618781 0.0122627012302924 0.0127573606362471 0.0128082753675682 0.0126567587472927 0.0129815541699015 0.0130482349146553 0.0130237764160127 0.0130793646438743 0.0129647257103916 0.012929824782288 0.0130660595109986 0.0128331914974902 0.0126002675443016 0.012562955582561 0.0123703202134357 0.0121283172403084 0.0124000217472191 0.0121573355140391 0.012484979171602 0.0126286547588459 0.0128221017037632 0.0128995640371221 0.0130780264271501 0.0130441738616299 0.0130438690009444 0.0129305862949553 0.0128464013468683 0.0130776727940589 0.0130718931128042 0.013037171091104 0.012903603613141 0.0127392217194181 0.0125885589302663 0.0121700333974129 0.0124721681291001 0.0117814816355792 0.0116137797503594 0.0110705137777851 0.0109247962037833 0.0107500713965428 0.00971885914538016 0.0102563821451608 0.0101655962591096 0.0108251575356459 0.00988522178611528 0.0101939236194442 0.0107831384996544 0.0110498754832363 0.0114769516496379 0.0117901971033585 0.0117528109190353 0.0117260935131595 0.0120688113533618 0.0115969804000022 0.0120012808300304 0.0113919060726963 0.0109609851351547 0.00983144565149148 0.0100416903395681 0.00937574503088613 0.0105811532383393 0.0108006878238062 0.00929738908127298 0.0100088649433 0.0106239157640537 0.01113560720425 0.0113822166498798 0.0115631385113703 0.0120171164920446 0.0050378075216261 0.00596846210119096 0.00601387256524617 0.00681102289195992 0.0084752779826877 0.00745657043349611 0.00764627340610018 0.00797319280742355 0.00876486278301449 0.00911849214275135 0.00757574611136944 0.00627102460112513 0.00675596318505991 0.00656911412412305 0.00505393255520206 0.0052449533792341 0.00568898727857341 0.00538011837507041 0.00661525258919137 0.00795321467544335 0.0074096372709043 0.00911215022059236 0.00870909355770878 0.0076194787808597 0.00857782361270991 0.00853889071725782 0.00900022592306658 0.00745552314652125 0.00505948752894931 0.00703544029137951 0.00697320639753104 0.00599472215614342 0.0048947439982545 0.00405405621148292 0.00316506480374927 0.00354519030153599 0.000763912144275648 0.00240780935870243 0.00130033367290912 0.00245166713609823 0.00134499667914808 0.000538890337301998 0.00135492694124233 0.00339988332336042 0.00363596586028456 0.0042421232558609 0.00479368023008855 0.00439644990892212 0.00269298029331034 0.00341940238043913 0.00270106879339976 0.000549125177312922 0.000549063041121011 0.00134622421357673 0.00124189390912154 0.000443724068439864 0.00112621173126793 0.00192145849559217 0.00331028024648338 0.00275921565292623 0.00461594524135075 0.00620285334646135 0.00682657264367705 0.00653888703234038 0.00547135472058676 0.00519921570149778 0.00549255012084746 0.00650195971775983 0.00672008712697743 0.00758373862250476 0.00817013259381496 0.00737345278984869 0.00816972668867507 0.00889349858959769 0.00890001947506978 0.00913318857742309 0.00763728860632306 0.00846875945872426 0.00850147512657333 0.00918551499831007 0.00823480117110906 0.00781650330748481 0.00859571157490537 0.00906533256120218 0.0089185560046429 0.00747119743630694 0.00820700369113926 0.00771600087252698 0.0065920517378669 0.00580622594176483 0.00560879268221656 0.00704219327909247 0.00641708054412508 0.00549671562614526 0.00506246897274762 0.0040259056260249 0.00389788554978362 0.00480976532828661 0.00307441340521412 0.00329647203443016 0.00473778905345656 0.00356470313045555 0.00298431929644007 0.00149433262385558 0.00117432292262719 0.000734285955878014 0.00228053815181441 0.00189800734725562 0.00217102141320378 0.000441453814759318 0.000458668595988713 0.000899254213544442 0.000597371226196522 0.00142314297708773 0.00128534878418847 0.00361028583228344 0.00273641007019539 0.00475421234829205 0.0046997383341018 0.00279507462197497 0.00341399566252332 0.00366631061263611 0.0017985961752303 0.00188328867922291 0.000999621924023287 0.000914297766972038 0.00040352895266347 0.000511686509990522 0.0012204192036789 0.00227871317427472 0.00245406050315527 0.00116779553703567 0.00127197176084966 0.000564017407732332 0.00249276458357175 0.00226951418049766 0.0028843241480786 0.00405646702539376 0.00446765300599809 0.00298695010667002 0.00448897744547107 0.00381441636061002 0.0040633856395693 0.00511478943730738 0.00570681444982346 0.00672452071363917 0.00698498128381828 0.00533523939980524 0.00616553196049339 0.00553807993036461 0.0058364916213482 0.00715518260781894 0.00682964698785057 0.00627263801569243 0.00779449334365754 0.00858408517490206 0.00893069047338025 0.00906986306362828 0.00848672862261885 0.00845469578902367 0.00909645710116093 0.00744685853398471 0.0077309883885184 0.00829753591125059 0.00727292431241471 0.00886347577258997 0.00849656455495119 0.00920149387387218 0.00858973984042967 0.00778953647656127 0.00777051557399492 0.0070166244236984 0.00526775133705821 0.0060050252788883 0.0060357748556589 0.00536541035608904 0.00503509597928737 0.0070266219756346 0.00661295607114866 0.00470629124147044 0.00300091944129641 0.00346547465967149 0.00285703762746994 0.00391531670996581 0.00441576083592871 0.0039085335497977 0.00372535077444265 0.00272471142933619 0.00288729291680631 0.00199257301871201 0.000449680644353222 0.00105386680255178 0.000605502293350204 0.00145068259936272 0.00208262484944774 0.0011446686571975 0.000696330178343413 0.000757745013039645 0.00129273606667385 0.00240012187939945 0.000537497779917865 0.00135431960295507 0.00134301838925584 0.00244966949375264 0.00365452517070314 0.0034237651863203 0.00430568212229568 0.00420538017317192 0.00485463205386956 0.00356798215009251 0.00327209035674723 0.0019215568609737 0.000443743962470326 0.00112627072130003 0.00124194829311638 0.00134626650170866 0.000549075773720791 0.000549129795377879 0.00269546262527421 0.00481190367121337 0.00440522488979478 0.00496658138021001 0.00341453126997398 0.00268800473209634 0.00275935034977831 0.00461632255255017 0.00331050027918651 0.00688395349187528 0.00610283486655462 0.00505151945799244 0.00644814106620904 0.00595596468538167 0.00514509509982132 0.00612970909662418 0.00673319840267291 0.00756521090319757 0.00887665051624114 0.00894268646870038 0.00806124840438302 0.00784291747802375 0.00760714269314843 0.00859830431033901 0.00680760501481054 0.00659112046842725 0.00721767998099859 0.00538057127332772 0.00593066740137024 0.00513972082834011 0.00540451703927425 0.00567482780654894 0.00660451257444531 0.00763939112636513 0.00751915066070564 0.00810211433107768 0.00917418985332983 0.00844012353052545 0.00818402916995671 0.00878490585877085 0.0100512566604533 0.00958816764385067 0.010591961671236 0.0104692830053845 0.0108680506836786 0.00972170701104931 0.010097284765953 0.00938171868907492 0.0106340936554298 0.0112882779900832 0.0113550618264083 0.0118165536825525 0.0118060587202709 0.0117979953694087 0.0114896733037799 0.0113908214518127 0.0107209885119811 0.0100694565332274 0.00947236424411543 0.0102443777744063 0.00959632964808602 0.0103965857047414 0.010982325088115 0.0112413083680556 0.011707110846032 0.0120334806714271 0.0108764463018241 0.0110375443666459 0.0115589173131295 0.0119547258024801 0.0120242379223437 0.0116093756666772 0.0111797699112849 0.0127715096538609 0.0122582888480563 0.0125873837155542 0.0127097869391042 0.0124779487021422 0.0125178737387823 0.0129714566290539 0.0130203005647221 0.0130816951580858 0.0129442703515877 0.0130150104956578 0.013078915038575 0.0130804023537729 0.0130394050579538 0.0129550606282784 0.0126428280359803 0.0127264757104228 0.0125087432490438 0.0121699351320185 0.0122264561866242 0.0121829239475785 0.0127782884463423 0.0125385634864828 0.0127672184302289 0.012925365077452 0.0130544250958727 0.013034800380506 0.0130749225663777 0.0130519307832041 0.0129558002130081 0.0128775085392226 0.0129196653947402 0.0130715844664399 0.0130200911323907 0.0130242574418893 0.013074255523555 0.0130775412138575 0.0129150521372748 0.012900218474728 0.0127097452712206 0.0120960559581945 0.0124934709559006 0.0122616422624209 0.0122143636400172 0.0127219321244382 0.0125309578247346 0.0127926635399691 0.0126522858296547 0.0129781067798063 0.0130076024204748 0.01305555356922 0.0130641525304772 0.013056026625153 0.0130083210346707 0.0130603158365725 0.0130077954048816 0.0130035192260352 0.0128200179357194 0.0128274032860656 0.0127051562551765 0.0124086734332745 0.0121693434957611 0.012160847195755 0.01279992