<?xml version="1.0"?>
<VTKFile type="UnstructuredGrid" version="0.1" byte_order="LittleEndian">
<UnstructuredGrid>
<Piece NumberOfPoints="568" NumberOfCells="1054">
<Points>
<DataArray type="Float64" NumberOfComponents="3" format="ascii">
0 0 0 0.0499999999998997 0 0 0.0323698570487533 0.032369857048862 0 0.0584335251122665 0.0584335251122145 0 0 0.050000000000208 0 0 0.100000000000416 0 0.0400584584693195 0.0944578555791577 0 0.0980768456829153 0.0991724147309935 0 0.0944578555792846 0.0400584584694184 0 0.0999999999998147 0 0 0.0564522287083799 0.234565808376616 0 0 0.200000000000832 0 0.0388399996009313 0.179498259931901 0 0 0.150000000000624 0 0.0548726927265955 0.134106856398452 0 0.0896897021915411 0.138513804586622 0 0.122947659685672 0.148251464161954 0 0.0828750765696809 0.178818634882983 0 0.0996947712122641 0.22074048840547 0 0.158996951633215 0.227836749122277 0 0.125875177082847 0.188968332266695 0 0.169013160068682 0.168002193866631 0 0.189220110521158 0.126442066536112 0 0.22626394058332 0.154659468198381 0 0.205967211350529 0.199725178953962 0 0.211554843187388 0.241744476774187 0 0.180351590178421 0.0391903365350905 0 0.149999999999704 0 0 0.138357444660799 0.0589959339188492 0 0.148476056588621 0.112220907400452 0 0.181725902897582 0.0816119740612928 0 0.217206150464847 0.104439454835129 0 0.231674603334463 0.0553437746953104 0 0.199999999999558 0 0 0.249999999999412 0 0 0.283208049853001 0.0508433390825056 0 0.299999999999266 0 0 0.323619558532886 0.0327999278256247 0 0.362462430895343 0.0442183666074772 0 0.349999999999121 0 0 0.355822585194142 0.0854187642572584 0 0.322427311917699 0.0689379334381408 0 0.330767006442793 0.119592255048115 0 0.295063395037039 0.101138089243444 0 0.257146194987713 0.10413999068455 0 0.263189497696013 0.146101733972573 0 0.299142716792971 0.156496209701207 0 0.260171965190135 0.20370391303005 0 0.301079690692898 0.202800200091412 0 0.288402851022681 0.249609553207088 0 0.331796839804983 0.222301993972031 0 0.330801675951106 0.181791113002693 0 0.360307484821635 0.154014700871105 0 0.397289240071895 0.165639932095022 0 0.432407360090089 0.182056809654028 0 0.41732862935313 0.129866986343623 0 0.381034256806799 0.204783951629704 0 0.42421838472614 0.222465020057878 0 0.462293308810443 0.198909164566548 0 0.499999999999971 0.219686411149829 0 0.459520018388269 0.156664873305243 0 0.46567857652706 0.114368061527523 0 0.475746624217828 0.077626823840591 0 0.484924330582892 0.0373213982762724 0 0.499999999998694 0 0 0.449999999998829 0 0 0.446927950142653 0.0518018776450602 0 0.406855818272412 0.0411398773125117 0 0.399999999998975 0 0 0.390616286406845 0.0815251031619917 0 0.375161719606839 0.121918126660369 0 0.43122735573934 0.0881769991929174 0 0.429308231064016 0.40626685012723 0 0.392220576577811 0.380677966902274 0 0.394198866753185 0.419122252400708 0 0.377023860747173 0.458194175644768 0 0.410095980695696 0.490839357492854 0 0.423403423371937 0.447621318748554 0 0.461527143457989 0.473443594123526 0 0.461024257085337 0.432541991343326 0 0.465432111282168 0.387884235436819 0 0.49854341599768 0.370759147681271 0 0.472532117365031 0.340817108308049 0 0.483788712280009 0.297451778269774 0 0.455331360217251 0.252568731208715 0 0.430594867953342 0.303959734190635 0 0.391620987711813 0.295036992928546 0 0.401804626289837 0.256190339758575 0 0.43301393728221 0.359843205574921 0 0.391208871887456 0.334075776884043 0 0.348047572662274 0.35750068079406 0 0.323103257015693 0.32141443408924 0 0.357962884673884 0.256835227867104 0 0.354814354583093 0.30398436674999 0 0.323736926270502 0.27286413781594 0 0.297479491180417 0.296411157380844 0 0.260144435522079 0.292623904436535 0 0.25082138072345 0.257700107422368 0 0.284738052361283 0.343557681186738 0 0.255826059367993 0.395079699895134 0 0.296304338697064 0.429832022968145 0 0.305976555003817 0.393468168521193 0 0.354814223971285 0.403129814650693 0 0.333826635273302 0.441301250475035 0 0.334364244893045 0.478496031217408 0 0.299886550525317 0.467007278275931 0 0.262475847345986 0.447649432958947 0 0.262418491288269 0.490719222921541 0 0.192181271644967 0.465938389648695 0 0.232324767024371 0.466345253695677 0 0.219688017838559 0.433067836400238 0 0.197169318452384 0.387030152393625 0 0.178457744828726 0.430871172570494 0 0.148695787718589 0.404814523960821 0 0.144484766221814 0.453538915812712 0 0.160013142023585 0.497717270559093 0 0.220015181768822 0.28602682846308 0 0.19152147653881 0.327918797702154 0 0.236041954047958 0.321918283269407 0 0.222695530956879 0.358374234325388 0 0.154014700871176 0.360307484821747 0 0.143922094947914 0.306200702035457 0 0.168537671773945 0.272324831592801 0 0.110477540413226 0.263117535981694 0 0.0994921194810273 0.307463985332816 0 0.0732967881614181 0.342269570898506 0 0.116034002194931 0.33748134585014 0 0.0334576460409223 0.363648423312284 0 0 0.350000000001456 0 0.032220921767547 0.329014892144875 0 0.0537301716876466 0.288250771898286 0 0 0.300000000001248 0 0 0.25000000000104 0 0.0648933318035348 0.486697770604545 0 0.109199274598136 0.487580697080498 0 0.0971009795772073 0.435906739990532 0 0.10935320311386 0.378391909217271 0 0.060530514380151 0.395146264289728 0 0 0.400000000001664 0 0 0.450000000001872 0 0.0436128036610927 0.440061111828404 0 0.0294449071642091 0.475000000001966 0 0 0.500000000002059 0 0 0.550000000001734 0 0.0518018776450837 0.553072049857452 0 0.0373213982762153 0.515075669417473 0 0.0776268238405584 0.524253375782261 0 0.114368061527482 0.534321423472927 0 0.121918126660357 0.624838280393159 0 0.0881769991928987 0.568772644260674 0 0.0815251031619976 0.609383713593151 0 0.0411398773124836 0.59314418172763 0 0 0.600000000001387 0 0 0.65000000000104 0 0.0323578435067225 0.676600401985782 0 0.0442183666074753 0.637537569104702 0 0 0.700000000000693 0 0.0486329174879745 0.717891752740162 0 0.0910728127967196 0.741988048646878 0 0.0990187225489634 0.704756315583652 0 0.0854187642572582 0.644177414805869 0 0.0689379334381628 0.677572688082311 0 0.119592255048131 0.669232993557228 0 0.154014700871098 0.63969251517837 0 0.181791113002692 0.669198324048887 0 0.13725179499973 0.741546289628566 0 0.156496209701235 0.70085728320704 0 0.203703913030074 0.739828034809895 0 0.202800200091414 0.698920309307116 0 0.249609553207091 0.711597148977329 0 0.222301993972028 0.668203160195032 0 0.204783951629683 0.618965743193203 0 0.222487080058139 0.575775413711342 0 0.219686411149827 0.500000000000032 0 0.19896328510056 0.537691476689505 0 0.156664873305197 0.540479981611742 0 0.129866986343594 0.582671370646846 0 0.165639932094979 0.602710759928095 0 0.182056809653986 0.567592639909897 0 0.100000000000416 1 0 0.0944578555791882 0.959941541530687 0 0.050000000000208 1 0 0 1 0 0.0304524096104897 0.96954759038951 0 0 0.949999999999792 0 0.0584335251122541 0.941566474887746 0 0 0.899999999999584 0 0.0400584584693226 0.905542144420798 0 0.0979909576452082 0.900450397208809 0 0.122947659685717 0.851748535838097 0 0.0868130391934314 0.817095740868429 0 0.0870417061194161 0.853827995089262 0 0.0524690331668437 0.86696410734367 0 0 0.849999999999653 0 0.043889462445438 0.826759239819513 0 0 0.8 0 0 0.750000000000347 0 0.0529380014213358 0.776889771183312 0 0.112316928024456 0.78020430794084 0 0.16253691950235 0.782849122627686 0 0.243358441913473 0.786511897933875 0 0.203590747653644 0.794224894178719 0 0.228939290247373 0.839908789927278 0 0.171018735363 0.828981264636961 0 0.132261503269228 0.813060330014371 0 0.146882743185419 0.889622656308119 0 0.181725902897639 0.918388025938889 0 0.18958721034944 0.876602973603946 0 0.221311393310948 0.904144943719832 0 0.232226438176177 0.944207511169706 0 0.200000000000832 1 0 0.18045991219398 0.960710939969875 0 0.138347219894628 0.94095916274078 0 0.150000000000624 1 0 0.350000000001456 1 0 0.363638616126136 0.966544916821213 0 0.32894624184181 0.967797018267389 0 0.300000000001248 1 0 0.25000000000104 1 0 0.287907520382944 0.946359528487026 0 0.263054145574704 0.889490620931362 0 0.307381363266577 0.90051880305435 0 0.337480267781999 0.883965456331347 0 0.342269570898513 0.926703211838588 0 0.360307484821742 0.845985299128825 0 0.306195311694726 0.85607519768343 0 0.272549978320415 0.831201948690144 0 0.286026828463086 0.779984818231176 0 0.321918283269405 0.763958045952046 0 0.327918797702134 0.808478523461202 0 0.358374234325384 0.777304469043123 0 0.387030152393619 0.80283068154762 0 0.433067836400233 0.780311982161444 0 0.466346121879671 0.767675855240614 0 0.465938389648691 0.807818728355036 0 0.497717270559088 0.839986857976418 0 0.453538915812708 0.855515233778189 0 0.43087117257049 0.821542255171277 0 0.404814523960818 0.851304212281416 0 0.378391909217271 0.890646796886144 0 0.435906739990533 0.902899020422797 0 0.487580697080494 0.890800725401865 0 0.486697770604543 0.935106668196466 0 0.44006111182841 0.956387196338908 0 0.475000000001966 0.970555092835793 0 0.450000000001872 1 0 0.395146264289732 0.939469485619852 0 0.400000000001664 1 0 0.332314974080817 0.607792187328737 0 0.371046512961454 0.605451707483111 0 0.359843205574921 0.566986062717789 0 0.358156517437794 0.511134404479091 0 0.331306197573488 0.540525641468424 0 0.302927660481639 0.514843047212215 0 0.252871394412626 0.544583554344924 0 0.304297406799597 0.569139051464601 0 0.295036992928544 0.608379012288189 0 0.256190339758569 0.598195373710169 0 0.256845292557732 0.642035542479631 0 0.273496567448602 0.675817419964087 0 0.304216353843215 0.645149391934367 0 0.257700107422386 0.749178619276552 0 0.296411157380843 0.702520508819589 0 0.292551210545191 0.739979902911732 0 0.342702801024459 0.716724167620359 0 0.322598530820738 0.676700726098352 0 0.35944937237717 0.651647898084363 0 0.405647175079827 0.65626423320525 0 0.395079699895129 0.74417394063201 0 0.386423584673078 0.692862589235973 0 0.427155383338081 0.700777593753079 0 0.447649432958942 0.737524152654017 0 0.467368917376544 0.70015537930375 0 0.490731134405986 0.737590046187304 0 0.455174570318146 0.62
[...]
<CellData Scalars="pressure_p0," Vectors="velocity_p0," Tensors="">
<DataArray type="Float64" Name="pressure_p0" format="ascii">
0.0202911929701514 0.0079943783411031 0.0346191328973328 0.022374554155161 0.0098919810623757 0.00989338525864048 0.0242525820860324 0.0481577939418429 0.0612509411358066 0.0472967766302887 0.0592563801452795 0.0889576714296398 0.0800862858342383 0.0831779226343101 0.059645974265209 0.0497126574725826 0.0139275057676248 0.0437465984164186 0.023480731596964 0.0433693706745862 0.00959850762915784 0.0231034169131338 0.0233890590878178 0.0556427502008699 0.0718121810481056 0.0753723620368984 0.0802388813901227 0.0584086290872122 0.0748301143631669 0.0888256968933554 0.0649419755339921 0.12609498913368 0.092359232868053 0.107873092887727 0.125043572465806 0.0998884845286291 0.104907600730242 0.119298699131543 0.145014034754509 0.135378972769309 0.166146063912884 0.156298200033953 0.166678619751172 0.138734922888639 0.153535424842465 0.161817231106769 0.133764793131187 0.117922353357401 0.124202503071618 0.0919744175204912 0.111074947095921 0.111075948280524 0.0924612330276057 0.122021897988219 0.144588211893314 0.136220139968816 0.15791915344459 0.158893642707965 0.137267309273034 0.140904238449564 0.154360160217425 0.180552385265589 0.169268043291715 0.194794096488441 0.191617167934865 0.200670582694603 0.205114850304995 0.208372316829013 0.216526270734351 0.217457154483324 0.211279997648372 0.216240355350689 0.208953476224283 0.205253399357802 0.19746245370139 0.190767716262515 0.180959858827903 0.170516928811305 0.177736341527254 0.178910275027549 0.195060630762523 0.194270117746827 0.184414800731175 0.175119428485838 0.183173434506216 0.184817283268232 0.193701698800044 0.196846751912013 0.199477522030734 0.209263369579122 0.2122826485958 0.206797604746456 0.199105188972729 0.212441598336494 0.211765091742136 0.223427157546606 0.21853181992065 0.224958536325769 0.219055539255345 0.227546695727224 0.231031688038943 0.224730537019625 0.219281910147916 0.226824572881829 0.229547025725948 0.232498951902735 0.231468162065658 0.235632346424396 0.234896652544948 0.235505927630291 0.232427795250114 0.232985380783709 0.235026086632118 0.235644055067833 0.235033049991138 0.235428866812878 0.231232007665478 0.233602527806966 0.232973694465327 0.23566927429389 0.234667065377426 0.235108205825147 0.233906120502272 0.229865735780648 0.228052627008507 0.23078323067709 0.221668468759699 0.220951629856514 0.222891247731 0.227034976220067 0.22636260354295 0.227533898363284 0.2279986673778 0.219337117112915 0.225399327219139 0.21790383817766 0.223731947502628 0.224916987451875 0.219610793516936 0.230245753063892 0.232661243817173 0.231679162124643 0.23479069001579 0.235617463579374 0.235078296951259 0.235612491058843 0.235114170371193 0.231283223330169 0.23305881038324 0.231928115569628 0.235622637984762 0.235662043165765 0.235244207559116 0.235552620940594 0.232270256435461 0.23401454378516 0.233625427818874 0.235317768789879 0.233496439062901 0.229865725263914 0.22593659973122 0.22521068186662 0.218993839816957 0.220188738247196 0.227983161404652 0.225396820554867 0.218361899330467 0.196030633888319 0.198390619360891 0.214751963613379 0.20727917297268 0.208514769012881 0.215831912265512 0.196972563956087 0.204389345335102 0.205781551849133 0.182694545955623 0.192132608262788 0.182122832154437 0.175146458924378 0.191522995223541 0.172038441409473 0.168898026925896 0.177588213520689 0.195803904795509 0.184381056313439 0.182576517299584 0.205193805822706 0.203458744209344 0.211771936336841 0.214840700983797 0.212169241796954 0.209528289741339 0.200151543075518 0.185579231069812 0.195993187412655 0.184606641305676 0.195036138267179 0.168019921301844 0.179283468738402 0.160409176423915 0.132855915682705 0.147263901531062 0.136645967008343 0.147270361876761 0.160421953878553 0.164562554254461 0.153172826632997 0.152587348200796 0.137608233683626 0.111762898069714 0.123000522246537 0.117816656779286 0.0985824975452865 0.0936791811386593 0.0989634160228176 0.117152330477175 0.121083303182595 0.138596432133755 0.16334124179906 0.154519218013825 0.160693025721631 0.14787222508798 0.134563504248126 0.148370153591796 0.165482653889578 0.140834143612096 0.126884492354107 0.0912154983374896 0.0990394883522424 0.115622506595276 0.118719801031307 0.100994515117485 0.104315629638175 0.0539503645264715 0.0853614255568895 0.0642475141027599 0.0554206214062497 0.0866650954763312 0.0702356548006078 0.072539056972505 0.0593959786392501 0.034203672869545 0.0410915396833973 0.00826497762274173 0.0162080226161481 0.00795887892517698 0.0391448168187698 0.0211867109255028 0.0132538046498851 0.0271116140084549 0.0503612904670132 0.0660586417004598 0.0614320607433546 0.084678798833838 0.0856611433300335 0.065049971781137 0.0493044200756787 0.0256421153541097 0.0231600824209089 0.0107633583592542 0.018010971225369 0.0339326083344127 0.0324034197402771 0.00727063547540333 0.0164704688868273 0.0092163756873164 0.0219686229435789 0.0441319119174832 0.0409547233277387 0.0532611174419326 0.0681925239911999 0.0804287109305152 0.0731287450540947 0.0806115889279515 0.0727369267058863 0.0516100215933726 0.0409964929455313 0.0444352247970743 0.0229008191904044 0.0101617672611827 0.0210459536464996 0.018886341143934 0.0109160207398864 0.00799336279819238 0.0357980088147628 0.012003763762008 0.019971194529453 0.0368721929669337 0.0250188486624256 0.0472379933606607 0.0582996715227277 0.0530145960717666 0.0792145516814236 0.0517151519507406 0.0486810843325557 0.0667076721321069 0.0699139223259596 0.0702536903314517 0.0791708665038127 0.0949218651590585 0.108743742633027 0.108190403726201 0.126419462229423 0.117238871250402 0.0902249089890869 0.0941971760124693 0.126597810074612 0.131035582914826 0.149492201427952 0.153079148527437 0.15968524022026 0.140345296423144 0.140000401934516 0.165889626746448 0.154766288926412 0.160911275703172 0.154668472418765 0.140441091609415 0.163454328873958 0.152953038688265 0.164031489330229 0.152372336628868 0.134182605135542 0.139303641606171 0.125859215766882 0.121166514943755 0.102817810727916 0.0921512508658818 0.096120047337019 0.111085603800799 0.0997965926948377 0.105172506750126 0.128918779739528 0.123052106814318 0.113016017533775 0.0831706202346976 0.0497075734041871 0.0596403734052107 0.034147419128869 0.0075197848669867 0.019818385474003 0.0218996387814697 0.0242486780857822 0.0098901150012225 0.0098912378274519 0.0466851341461815 0.0481298118740889 0.0612229470555843 0.0800551123405023 0.0885552337030949 0.0747248744558387 0.0826262437022254 0.0721057629130727 0.053283058279104 0.0580159593346567 0.0450078158706271 0.0237483479339896 0.0227944487554466 0.010840792686839 0.0450625040912457 0.0238579996920237 0.013064979200547 0.0624961005789 0.0614900366782926 0.0801744591753447 0.0823021074886598 0.11853882914158 0.0985719035102931 0.110514758953141 0.0974768311494268 0.125761628322959 0.132462510394287 0.14850058991562 0.158561630986154 0.15330037271487 0.146404075869598 0.139234260995923 0.165807140323775 0.136398511257456 0.119453878954029 0.101759166088795 0.104973730908983 0.0920696314501396 0.110723979556652 0.121765811570064 0.137125813763403 0.160217541166173 0.160790882607761 0.145468142035083 0.137382787272352 0.141027991605349 0.15446983889122 0.124218131305344 0.111087859485345 0.117933169241071 0.0919640720813671 0.209149856218487 0.21663078263528 0.208238846475525 0.215376872405936 0.198801226683087 0.201413144235764 0.193099918433316 0.181368151924569 0.170201728087027 0.184488571797938 0.172429448471251 0.187280191943574 0.197844631403058 0.20251397570053 0.195893579698487 0.216795935989292 0.210915498648829 0.21288581300686 0.212693921388112 0.203366353168276 0.204570349685986 0.169238839300246 0.1819320011626 0.191611871573092 0.19579389379244 0.188644971527579 0.175454765503912 0.181078855121076 0.17301752904277 0.190817613995828 0.206932920762408 0.205208332637915 0.212547059347337 0.219249491592925 0.225343951923434 0.227762903598257 0.229234432619891 0.232694751350336 0.235470898020549 0.23556523725014 0.235129769035975 0.233377249969279 0.231995379207377 0.232864510901918 0.234838843364408 0.235192410525036 0.230214157974164 0.230013873654398 0.225891733221113 0.220268654835466 0.219485859954598 0.224803270415873 0.228980803096366 0.225521759511031 0.23369611210366 0.23568373812135 0.234576533277041 0.233206157184961 0.234480977814375 0.235633107230251 0.234920739164856 0.235659943798072 0.233400634094019 0.230093147565637 0.226775700235208 0.220846231540267 0.20362994008607 0.211419932890906 0.211496713270146 0.21714251388141 0.209980776496107 0.203131639659804 0.203490824781914 0.196141993769251 0.20353058526916 0.184738037087138 0.178154553783906 0.17736425187159 0.184057800991722 0.195160293458714 0.195176313259081 0.176521258849242 0.180777317819077 0.167163778367939 0.190729621136777 0.189601241042361 0.184093204035719 0.175114605564672 0.181288792686892 0.17835406881927 0.195055838320737 0.19857158225489 0.199226291758561 0.217725909398955 0.214940125603633 0.214272999390069 0.2072013012865 0.203579736569134 0.202431733776213 0.221813548434119 0.220221900196803 0.229356701114135 0.225684234768343 0.230764212116285 0.228644582478207 0.224878878026663 0.228872466173091 0.23448969626969 0.234502805676617 0.232462699967124 0.232321879268823 0.235570377891004 0.233737411728722 0.234123663097129 0.235490480846261 0.235302842563186 0.235416933047584 0.234949662869478 0.234331185482452 0.231115068158686 0.228385483284006 0.230110184723579 0.218773880071148 0.218858322075556 0.22283324564226 0.221586443343966 0.221338303631801 0.229926927379457 0.227123369872726 0.228411404241814 0.233391599373383 0.233455718090559 0.23515417545592 0.234739259672899 0.235709526400948 0.232475489731602 0.231500648060599 0.229245283015234 0.228242709588683 0.226460899478387 0.225028622353937 0.219242431453202 0.221661608770953 0.223736259786806 0.227524295976938 0.231746457364479 0.233122037445233 0.235283531873504 0.235723517124758 0.23550382983836 0.235796169300807 0.235212598986196 0.231756823977341 0.233875993827577 0.233983958063143 0.235339055206189 0.233692001108894 0.233457460951652 0.229781544326816 0.225863918122478 0.225162998715334 0.219012904622178 0.220187976947658 0.228059354639038 0.225174557116444 0.217963039212311 0.196189093337583 0.198383097412425 0.214767294911561 0.207277755420829 0.208512473206531 0.215835940729551 0.204387667566029 0.196967439253762 0.20577470779306 0.19212555002564 0.182687852979062 0.18212860204441 0.175139410791196 0.191523625850414 0.172050982283629 0.168922401368493 0.185000626485512 0.182773409774589 0.178039858429442 0.167844865447072 0.179496476137738 0.185294956569312 0.185348763616904 0.195814432209464 0.198590013446907 0.203137254719872 0.212411544852728 0.211256508780902 0.216765006559064 0.213385170364867 0.204157786392542 0.197825537554369 0.201440556385859 0.221661336275177 0.220944557819795 0.229856978902315 0.230774392461586 0.228044493471556 0.233896404415195 0.235097817744515 0.234657094966958 0.235658621236848 0.233593075978596 0.232964283411595 0.23541883248521 0.231223184435598 0.227026516670335 0.226354292062287 0.222883511553944 0.218523224029005 0.223418637867672 0.219045929854491 0.224949155959323 0.227537924862947 0.231023275816634 0.232418993847895 0.235634385731153 0.235024445273699 0.235018822543617 0.23297775555923 0.231460832708556 0.235627692511885 0.235523090964992 0.234897723956713 0.232491223268847 0.229529325372015 0.226815235432804 0.219274168673322 0.224717927199174 0.212273580289101 0.20925225500611 0.199463916409499 0.196838095744111 0.19369015509696 0.175110162447252 0.184795311316857 0.183159378399022 0.195043325654051 0.178107988751542 0.183670160968926 0.194286435323033 0.199092349347359 0.206787282000878 0.212431039312862 0.211757626862374 0.211276262533642 0.217451160461002 0.208949938901406 0.216234414967212 0.205255001106458 0.197490841257804 0.177139202495537 0.180927376537631 0.168928647171292 0.190647234092522 0.194602768405459 0.167516865451488 0.180336010692307 0.191417807342719 0.200637307051661 0.205080487948513 0.208340315471337 0.216519842072021 0.0907697229462077 0.107537738935726 0.108355992009786 0.122718653184215 0.152704355767208 0.134349773304991 0.137767755969214 0.143658012029715 0.157921978639997 0.164293486418376 0.13649696914339 0.112989084057357 0.121726455259946 0.11835999461895 0.091060087592208 0.0945017434061464 0.102502025835658 0.0969368906799366 0.119191116802147 0.143298017095721 0.133504012809885 0.164179100950535 0.156917098045852 0.137284759005771 0.15455174133182 0.153850127239602 0.162162161582895 0.134330448015632 0.0911597779524569 0.126761467863435 0.125640392813091 0.108010492457245 0.0881914378758582 0.0730443707666256 0.0570268421027773 0.0638757670753082 0.0137638672361634 0.0433829579813721 0.0234289133508067 0.0441732422040361 0.0242336824413518 0.00970953729861189 0.024412611648891 0.0612578542552452 0.0655115436102566 0.0764329586893126 0.0863708167709619 0.0792138741497818 0.0485212372685842 0.0616097279300455 0.0486669285992942 0.00989395347363478 0.0098928413900144 0.0242558407906903 0.0223760745531437 0.00799488951503215 0.0202917629343798 0.0346202876182465 0.059643741670221 0.0497147544547615 0.0831688895452918 0.111759130841243 0.12299709210499 0.11781393498628 0.0985797904550241 0.0936762161676933 0.0989609795260007 0.117147902354379 0.121078149305178 0.136638914485597 0.147204068596005 0.13284973097858 0.14719653889535 0.160236884263248 0.160354762922407 0.164556118473045 0.137603984018953 0.152585055415151 0.153174784394624 0.165499840792443 0.148370417814873 0.140833546316865 0.154873629848173 0.163334938280892 0.160690241189885 0.134612422512172 0.147869743446936 0.139023367051855 0.118772372571485 0.104614029052072 0.101056639840293 0.126882398660611 0.115619621827865 0.0990369824397826 0.0912128475266905 0.0725366294288997 0.0702301244664324 0.0866599658509716 0.0553932854803241 0.0593940056377311 0.08536326292694 0.0642272021853328 0.0537702050786177 0.0269242771988801 0.0211583906809159 0.0132300445642748 0.0410894838280039 0.0341972956447965 0.0391163843467368 0.0079538907072686 0.00826403244696076 0.0162022793652752 0.0107630587789154 0.0256413280907796 0.0231586792326193 0.0650479987107311 0.0493029454960274 0.0856585827847929 0.0846767694616133 0.0503598211122171 0.061510920136748 0.0660570970249892 0.0324058441949574 0.0339318337112119 0.0180105287920686 0.0164731655755607 0.00727050716350754 0.00921918716774067 0.0219885791972232 0.0410561283204336 0.0442154726017557 0.0210403708671321 0.0229173763501725 0.0101620096473803 0.0449126395416023 0.0408902196660154 0.0519673999337043 0.0730861201713431 0.0804944567728487 0.0538165404931248 0.080878841588315 0.0687252042319866 0.0732110721729899 0.0921545568561644 0.102821113479279 0.121157397876346 0.125850000308742 0.0961261684948768 0.111085667748117 0.0997804949975842 0.105156915191139 0.12891615376765 0.123050739299016 0.113015272474964 0.14043483632343 0.154660999339956 0.160905658456621 0.163413593177818 0.152907315222851 0.152330413296839 0.163893362349872 0.134172072929314 0.139290893596264 0.149497549684393 0.131036967583882 0.159694160486891 0.153083509663379 0.16578437298545 0.154762460065916 0.140344964581077 0.140002162576315 0.126419374573715 0.0949097694394753 0.108193223645656 0.108747180479569 0.0966690875148868 0.0907178483974833 0.126599333531421 0.119146212992491 0.0847936509531336 0.05406791352 0.0624377790448296 0.0514754683643866 0.0705428797952214 0.0795593894432814 0.0704205288332336 0.0671201620081432 0.0490915235398797 0.0520208073975367 0.0359004787125161 0.00810195857925883 0.0189876721457694 0.0109094296417411 0.0261370723483304 0.0375229329404159 0.0206236496920883 0.0125458592408265 0.0136523466788766 0.0232913001777201 0.0432431125863357 0.00968412636364645 0.024400822179598 0.0241972224314263 0.044135813417519 0.0658437719746889 0.0616861501724323 0.0775756949192336 0.0757685321558835 0.0874662367558956 0.0642845492177657 0.0589533935217543 0.0346207430215793 0.00799494533762606 0.0202920505777655 0.0223762118184374 0.0242557118608482 0.00989269564469569 0.00989367163933284 0.0485642499532997 0.0866963392747278 0.0793691470332156 0.0894831724783408 0.0615197208741359 0.0484298507107165 0.0497152962452034 0.0831725180044236 0.0596454183769669 0.124028733577472 0.109955194962946 0.0910135069257178 0.116176627526898 0.107309025831106 0.0926994719109894 0.110439399671144 0.121312530351462 0.136303022768744 0.159931365790942 0.161121180091302 0.145240233321184 0.141306559882758 0.137058567456262 0.154916488951795 0.122653144272473 0.118752759974178 0.130041558727725 0.0969421599218865 0.106853238970752 0.0926026709055955 0.0973735080535064 0.102243722266206 0.118993970744486 0.137639528261393 0.135473142571747 0.145976477994721 0.165292198777284 0.152066452797251 0.147452418400922 0.15827852515962 0.181094534008124 0.172750970487125 0.19083647429509 0.188626044543309 0.195810765973962 0.175156903417153 0.181923643881814 0.169031215639397 0.191595410695797 0.203381894434583 0.204585087218379 0.212899813213264 0.212710887501836 0.212565712200101 0.207010747485096 0.205229627455194 0.193161020862749 0.181422318653735 0.170664479416826 0.184573867453217 0.172897958714761 0.187316165567074 0.197869451552648 0.202535575436454 0.210927960382509 0.216808188501078 0.195961882903142 0.198864417235033 0.208258022050446 0.215389304779772 0.216641752611465 0.209167160297616 0.201426944655035 0.230105581578313 0.220858666995024 0.226788060598332 0.228993383452244 0.224816179997086 0.225535506967539 0.233707961797658 0.234588180736063 0.235694454333984 0.233218289686679 0.234493002720145 0.235644493858919 0.235671261341915 0.234932527254482 0.233412791126816 0.227787191744637 0.229294527667804 0.225371479541912 0.219267109048542 0.220285211961165 0.219500758877611 0.230227511694019 0.225908527229758 0.230028124827716 0.232877573130879 0.23520281258913 0.234849262416815 0.235572310555368 0.235158189109208 0.233426185185635 0.232015482595791 0.23277524574033 0.235512415474266 0.234584710884332 0.234659883322534 0.23556092235729 0.235619997509006 0.232692361393061 0.232425206949085 0.228993234297002 0.217936260661017 0.22509665248601 0.220920095135347 0.220068085580433 0.229213058269432 0.225772195333931 0.230487612713421 0.227958511586133 0.233828745377464 0.234360029736053 0.235224214490431 0.235379345023006 0.235233305500971 0.234373542795 0.235311199947918 0.234364563824493 0.234288170110297 0.23098191516572 0.231114373436109 0.228912100652737 0.223570295030863 0.219257979607381 0.219105443443574 0.230618802282701 0.228077225158898 0.221356866859598 0.214504179360203 0.214744961877611 0.204110907857729 0.211781658404279 0.212286552590123 0.196467176941103 0.204172405043092 0.203140791979417 0.184195322157154 0.177525575889864 0.195706214992206 0.195715763981031 0.184008892398428 0.177282360303515 0.176514060138983 0.180639653338918 0.184055096458597 0.190433175375111 0.189345777550469 0.167053140118721 0.181301625363656 0.178260272279859 0.175129540083808 0.195141163286033 0.199154256881033 0.198654286678351 0.21500899333319 0.2142968302852 0.20689391012215 0.203828343586034 0.202000758817436 
</DataArray>
<DataArray type="Float64" Name="velocity_p0" NumberOfComponents="3" format="ascii">