<?xml version="1.0"?>
<VTKFile type="UnstructuredGrid" version="0.1" byte_order="LittleEndian">
<UnstructuredGrid>
<Piece NumberOfPoints="568" NumberOfCells="1054">
<Points>
<DataArray type="Float64" NumberOfComponents="3" format="ascii">
0 0 0 0.0499999999998997 0 0 0.0323698570487533 0 0.032369857048862 0.0584335251122665 0 0.0584335251122145 0 0 0.050000000000208 0.0999999999998147 0 0 0.0944578555792846 0 0.0400584584694184 0.100180388484599 0 0.100180388484598 0.0400584584693195 0 0.0944578555791577 0 0 0.100000000000416 0 0 0.150000000000624 0.0372540436000893 0 0.175000000000728 0.0537753324385368 0 0.132500500443006 0.0898428037257154 0 0.138184120871427 0.122947659685672 0 0.148251464161954 0.0827908697357757 0 0.179012452750626 0.0955430374569856 0 0.221932619299632 0.0564522287083799 0 0.234565808376616 0 0 0.200000000000832 0.206511205763931 0 0.201999059545956 0.210579470972425 0 0.241746964894887 0.158053632507308 0 0.226801358162853 0.126538462979429 0 0.191587327531096 0.169681685166811 0 0.169007707698734 0.189514053672166 0 0.127889181471804 0.224783079246026 0 0.152915391050455 0.218515661667958 0 0.102945845538754 0.148129220795753 0 0.111676837264361 0.181725902897582 0 0.0816119740612928 0.134291107470439 0 0.0529263508909097 0.174999999999631 0 0.0372540436003339 0.149999999999704 0 0 0.234565808376335 0 0.0564522287085382 0.199999999999558 0 0 0.249999999999412 0 0 0.28250371532178 0 0.0483144399603462 0.299999999999266 0 0 0.349999999999121 0 0 0.362934108682713 0 0.0437430672928097 0.324076644128682 0 0.0314799042223748 0.32323905878353 0 0.0687975548746066 0.355435985827796 0 0.0829820156323059 0.370066139215042 0 0.112711478099945 0.332370486659624 0 0.113658128449525 0.296449059460973 0 0.0973839869435186 0.256015509872872 0 0.102726151761334 0.482933735686196 0 0.036430254038082 0.499999999998694 0 0 0.449999999998829 0 0 0.446807284450845 0 0.0521976235906551 0.406855818272412 0 0.0411398773125118 0.399999999998975 0 0 0.391603628895193 0 0.0799582037664994 0.431620875905919 0 0.0861159281096704 0.465320460451153 0 0.11204624114225 0.475250269534714 0 0.0771854076092873 0.49991194100589 0 0.160933639030225 0.457435186971747 0 0.157395356663377 0.432407360090088 0 0.182056809654028 0.413481429396996 0 0.130417648988163 0.396865073444171 0 0.166969430130097 0.380539743514862 0 0.204826435917647 0.425115862935563 0 0.221781893189434 0.461284420728544 0 0.202747939470428 0.499999999999971 0 0.219686411149829 0.303294794221966 0 0.157138773489018 0.263189497696013 0 0.146101733972573 0.360183427519293 0 0.1532358220307 0.333525318397743 0 0.185977348903938 0.331796839804983 0 0.222301993972031 0.293466873404081 0 0.2438490113662 0.302507736483923 0 0.202679241722634 0.260171965190135 0 0.20370391303005 0.25082138072345 0 0.257700107422368 0.257256883790806 0 0.292714150215995 0.292857142857117 0 0.292857142857164 0.32267250342477 0 0.271586241564922 0.355853377085554 0 0.256080223679255 0.354689053335556 0 0.303548508232254 0.32234854076139 0 0.317299409200743 0.348047572662274 0 0.35750068079406 0.289363634335678 0 0.340960017338183 0.484515229071252 0 0.297989876574045 0.453705345379894 0 0.252192411027838 0.431712919666742 0 0.304532149691815 0.403180559588812 0 0.256035021113984 0.391620987711813 0 0.295036992928546 0.391208871887456 0 0.334075776884043 0.43301393728221 0 0.359843205574921 0.499508526679881 0 0.371773848925684 0.472532117365031 0 0.340817108308049 0.464544361631721 0 0.388784993935 0.461024257085337 0 0.432541991343326 0.429224645442849 0 0.406303405311217 0.390192470571844 0 0.378596535290629 0.394962734081697 0 0.417765388787338 0.377023860747172 0 0.458194175644768 0.410749527734446 0 0.49037725997835 0.42316408760147 0 0.448010319542076 0.461750160254385 0 0.473470497775223 0.297960451166723 0 0.430159604944108 0.254496517406595 0 0.388081413464771 0.310194531583981 0 0.393298597389873 0.353852897913884 0 0.401592772894755 0.333826635273302 0 0.441301250475035 0.33651319436469 0 0.478344123936324 0.301341353129557 0 0.468795744513304 0.263640853143903 0 0.447835230599158 0.262260501478394 0 0.491100193217861 0.191981339151156 0 0.465860267956458 0.232918092237015 0 0.465697476923766 0.220807132193075 0 0.431630396214116 0.198701717250423 0 0.388614329545475 0.178214876716296 0 0.431200559870281 0.148219229256148 0 0.406253117897731 0.143725818414876 0 0.453076999838284 0.158636587251565 0 0.494899727783262 0.108962737982323 0 0.486955813111844 0.0652696782179796 0 0.484988222822282 0.0294449071642091 0 0.475000000001966 0.0439035813198221 0 0.439659589760324 0 0 0.450000000001872 0.0603559089619468 0 0.393693103819969 0 0 0.400000000001664 0.0970894652491675 0 0.436051775609807 0.11010057308181 0 0.381520439012282 0.0751181105850588 0 0.339671926372903 0.118558570079024 0 0.33658228590827 0 0 0.350000000001456 0.0339288497681721 0 0.363039674760657 0.0337982312426103 0 0.328047235696734 0 0 0.300000000001248 0.0535374231203114 0 0.287214659047084 0 0 0.25000000000104 0.100782157019327 0 0.304316158596513 0.110490343117189 0 0.262894191896946 0.149203671042653 0 0.305415470554338 0.166706396151242 0 0.266399149631259 0.20678054058387 0 0.285848384604081 0.19325512052992 0 0.333066639853417 0.240949412440173 0 0.324360086299987 0.222132304923478 0 0.358478489635738 0.154014700871176 0 0.360307484821747 1 0 0.199999999999558 1 0 0.249999999999412 0.943547771291459 0 0.234565808376336 0.898029231958049 0 0.218113670463348 0.875965964657724 0 0.188671534969819 0.918388025938709 0 0.181725902897578 0.89159184379671 0 0.144940729928161 0.947073649109094 0 0.134291107470436 0.962745956399668 0 0.174999999999631 1 0 0.149999999999704 1 0 0.0999999999998147 0.95994154153058 0 0.0944578555792777 1 0 0.0499999999998997 0.967630142951144 0 0.0323698570487739 0.941566474887782 0 0.0584335251122567 0.949999999999868 0 0 1 0 0 0.899999999999737 0 0 0.905542144420816 0 0.0400584584693472 0.899819611515404 0 0.100180388484597 0.851748535838072 0 0.122947659685686 0.820987547249418 0 0.082790869735818 0.861815879128586 0 0.0898428037257433 0.867499499556973 0 0.0537753324385871 0.824999999999539 0 0.0372540436001473 0.849999999999605 0 0 0.799999999999473 0 0 0.765434191623447 0 0.0564522287084209 0.7780673807004 0 0.0955430374570364 0.773191874618386 0 0.158041446818582 0.8084117701731 0 0.126536838220957 0.830992292301269 0 0.169681685166797 0.847463457920405 0 0.224922585262252 0.75825654232551 0 0.210577746625068 0.798050551354315 0 0.206528181807588 0.714151615395936 0 0.206780540583867 0.675639913700026 0 0.240949412440159 0.641519155209684 0 0.222073721915425 0.66693336014661 0 0.19325512052991 0.639692515178267 0 0.154014700871159 0.694577762226911 0 0.149191485353933 0.733589571670804 0 0.166686086670045 0.737034752306002 0 0.110362393385653 0.695641571397353 0 0.100785591047804 0.712582289902801 0 0.053690952490469 0.69999999999921 0 0 0.749999999999342 0 0 0.649999999999078 0 0 0.671923112404063 0 0.033820651404646 0.636941794370196 0 0.033931461840545 0.660308735431868 0 0.0751327324298776 0.663400901306853 0 0.118556309497793 0.618379570515033 0 0.110081182566408 0.563157639756722 0 0.0969177802293014 0.606216904754687 0 0.0603384574980944 0.599999999998947 0 0 0.524999999998754 0 0.0294449071644693 0.549999999998815 0 0 0.560265670190245 0 0.043887089595726 0.51521969278952 0 0.0653103891842502 0.51240296464009 0 0.109203413285136 0.546187429262561 0 0.143988711977319 0.59356619921281 0 0.148227209036974 0.568799440129754 0 0.178214876716346 0.611385670454583 0 0.198701717250421 0.56832385264224 0 0.220657752777859 0.53283923177677 0 0.231918011634459 0.533476437237596 0 0.192249179809595 0.529068381326852 0 0.296767349982275 0.506970500720068 0 0.261848576473603 0.551767140035207 0 0.262647936455119 0.611904455607634 0 0.254145019358249 0.606282366862954 0 0.309768611599626 0.569840395055894 0 0.297960451166727 0.593894738990312 0 0.350725370544676 0.558698749524967 0 0.333826635273306 0.515142495892173 0 0.331492304042335 0.547156354908806 0 0.378290160268621 0.548764996868246 0 0.422732786052302 0.501650326487665 0 0.409291525966516 0.507537582058111 0 0.450656287361328 0.547290971159573 0 0.466592622183862 0.622054152609805 0 0.471983703675299 0.584577441354514 0 0.479658227811018 0.59238418396128 0 0.440935424755556 0.60317301798433 0 0.3922886399308 0.66592422311596 0 0.391208871887463 0.640156794425081 0 0.433013937282217 0.663996179153263 0 0.467007775260291 0.700933926817415 0 0.485968262653744 0.746978743980493 0 0.456354736824991 0.69573605525801 0 0.431605534881039 0.704963007071456 0 0.39162098771182 0.743872884998055 0 0.403474936416048 0.74208521326296 0 0.361644603977183 0.72749610249007 0 0.324978965826624 0.696451491767748 0 0.354689053335561 0.642499319205942 0 0.34804757266228 0.682695090270057 0 0.322338668786372 0.658998728692795 0 0.289289594523035 0.707285849784001 0 0.257256883790818 0.742299892577623 0 0.250821380723454 0.707142857142839 0 0.292857142857124 0.7979239913336 0 0.302191591282119 0.756150988633799 0 0.293466873404077 0.796296086969941 0 0.260171965190114 0.85389826602741 0 0.263189497696004 0.843199238531482 0 0.303647347655126 0.818208886997305 0 0.330801675951114 0.846764177969299 0 0.360183427519295 0.777698006027966 0 0.331796839804975 0.795608442104084 0 0.382986983844802 0.779168834391626 0 0.425970687343404 0.797388206209471 0 0.462014871181098 0.780313588850174 0 0.499999999999976 0.839066360969777 0 0.499911941005896 0.843620179032071 0 0.457571210232621 0.869582351011839 0 0.413481429397001 0.817943190345974 0 0.432407360090094 0.833103049540192 0 0.397272946832499 0.920041796233501 0 0.391603628895199 0.913712762441372 0 0.432014430352552 0.887953758857752 0 0.465320460451158 0.922787458269957 0 0.475312605581821 1 0 0.499999999998694 0.963562456198133 0 0.482950482683927 0.947736768535276 0 0.446958007430409 1 0 0.449999999998829 0.958860122687489 0 0.406855818272416 1 0 0.399999999998975 1 0 0.349999999999121 0.9
[...]
<CellData Scalars="pressure_p0," Vectors="velocity_p0," Tensors="">
<DataArray type="Float64" Name="pressure_p0" format="ascii">
-0.0275489684467332 -0.0108203739844728 -0.0303203781284424 -0.0470458964878838 -0.0309229666565287 -0.013345133442214 -0.0328182902886968 -0.0642414719100368 -0.0842970117761805 -0.0661112529561261 -0.108993016185845 -0.12352516999195 -0.119868770376734 -0.0816461698049442 -0.0677252626312562 -0.10907356689399 -0.127598315430477 -0.152547682277768 -0.175026101472615 -0.162109219225405 -0.149800674041568 -0.154992394619246 -0.128730210490321 -0.17273344298145 -0.236997732157583 -0.211618087125621 -0.19726495644058 -0.239598927428014 -0.228115013674647 -0.203107040802195 -0.196040866416295 -0.215678933498732 -0.234349225034507 -0.223344908569478 -0.213177039192882 -0.244876690487934 -0.195524326373703 -0.199016148133654 -0.169365601192706 -0.1427553920335 -0.135959549280408 -0.149682790825994 -0.127709554005956 -0.174376640687231 -0.18599656059569 -0.167377166648548 -0.133759972915348 -0.119380412664531 -0.103983413207237 -0.0802429568323641 -0.0873179318347913 -0.106876287203467 -0.0819161802736003 -0.0880977822225371 -0.0571496466779743 -0.0123902617768005 -0.0299917262072766 -0.0175994082307696 -0.0583466126333602 -0.0311794505783893 -0.0187909984642798 -0.0161098401048431 -0.0349129130285298 -0.0496004646007056 -0.0266297467353786 -0.0105081211946476 -0.0251153241907131 -0.0146060808243544 -0.0480787031328176 -0.0933510699357603 -0.0885554715829077 -0.0652549748760637 -0.068966321469097 -0.0919444865118958 -0.103175289502456 -0.122739679920481 -0.115357419210658 -0.0691713646762783 -0.0828451757237678 -0.0715760536433254 -0.0596965676971003 -0.0121622412483444 -0.029592358172254 -0.0553346834623826 -0.0598799100765851 -0.0311624849935468 -0.0137413026679577 -0.0283407606664846 -0.055011025822128 -0.107746332222024 -0.0988872812108722 -0.109604075638969 -0.0691308107626209 -0.0918631381052574 -0.0719033323837136 -0.0995674130612405 -0.173742097426187 -0.127499308426393 -0.143556856371414 -0.133381270055415 -0.180765388447902 -0.159881143136625 -0.156694998651291 -0.132163173541851 -0.150260827099615 -0.175056971930384 -0.184665021057045 -0.227586051955667 -0.239046679507174 -0.243319594010734 -0.202917025399446 -0.202189413676782 -0.225533848738943 -0.224828278546036 -0.244513204109718 -0.194465738666675 -0.168853630385596 -0.133488541588154 -0.141356851539955 -0.126569842945111 -0.181398126051104 -0.181915744388306 -0.165461411450664 -0.203691550231328 -0.20443991959608 -0.227824592512106 -0.250060239984542 -0.245974368135503 -0.222983216192686 -0.216727787643633 -0.187768085472318 -0.235082437920246 -0.281166757585832 -0.2648542209753 -0.308875462241735 -0.269473982473316 -0.277091612279219 -0.284889990441832 -0.297453379273222 -0.293908535721128 -0.338527639811457 -0.32604396274241 -0.331635323902269 -0.363890833541263 -0.351195087680667 -0.374145470695867 -0.319416355051656 -0.317016787850319 -0.270622274870222 -0.284874461470533 -0.285187242591747 -0.27089805646019 -0.269077450473416 -0.310838433117064 -0.311172398087586 -0.357443407218378 -0.356659189950162 -0.332774171698474 -0.335026096386247 -0.314418740572713 -0.363075383450327 -0.367035363931989 -0.347947828036938 -0.323380523025205 -0.410081207870926 -0.430729722335536 -0.389832908810162 -0.384881173853204 -0.428825502480013 -0.409084442342095 -0.423910619585708 -0.381501003398204 -0.400803106332627 -0.399255431808134 -0.425771154249009 -0.441215070974011 -0.465429912816057 -0.486450423716048 -0.470536832331373 -0.451232960556653 -0.492901274979115 -0.496405885498493 -0.474948043635644 -0.452134669742588 -0.422058616974056 -0.403891276149139 -0.384100357059281 -0.379180176008629 -0.43362802426356 -0.421576279535956 -0.412038976194309 -0.462713623194403 -0.45918520901973 -0.482420796938041 -0.487198116766575 -0.491444546563949 -0.448880875410591 -0.446687838339563 -0.468162811290016 -0.469159489576784 -0.48554936523401 -0.486993104167575 -0.477204924699675 -0.45443267486798 -0.442948839850311 -0.448405169804418 -0.422571662319722 -0.417209155255145 -0.402846559740363 -0.37846763289394 -0.382721004138578 -0.385117006091979 -0.430216786621857 -0.408742554980913 -0.431815187401317 -0.450104531093404 -0.471363569694658 -0.478404843556142 -0.49888251210367 -0.469352370440907 -0.453568781749718 -0.458744636606445 -0.47499011355491 -0.497311618968242 -0.492316159169657 -0.466546130792435 -0.454909466160423 -0.429927411981107 -0.411129484029086 -0.385578675706337 -0.407938812035081 -0.423124937476972 -0.403739014851959 -0.352638353878544 -0.371642608866128 -0.315521389251551 -0.326934094391905 -0.347076903659785 -0.371016263833722 -0.365492694582402 -0.343643591914689 -0.318400715230874 -0.326105930014467 -0.305194601225958 -0.257239388101965 -0.279145821612022 -0.290906719153994 -0.310467183013371 -0.284812165902171 -0.26147230496098 -0.251908745099143 -0.278232615641387 -0.308241164178298 -0.285950389954213 -0.264673774605169 -0.278862526435602 -0.261810372908047 -0.301113637561136 -0.314591578790233 -0.357068944828495 -0.338786546902183 -0.360169272298603 -0.360765514369503 -0.359521992580162 -0.334196171379791 -0.33304849902358 -0.196964847709945 -0.203089690256385 -0.22804241474852 -0.236017657613689 -0.232831330212018 -0.196007867097014 -0.211276347264365 -0.171663192625729 -0.153589741394505 -0.126357067407083 -0.163657989407567 -0.175036463115188 -0.153175278413971 -0.128204201559586 -0.109659903608604 -0.0676940932136442 -0.0816288328672536 -0.0470231454869778 -0.0302973991188229 -0.0108127735348875 -0.0275375974590148 -0.0133244468146946 -0.0327815670087929 -0.0311500993596827 -0.0810154531148321 -0.0644407305098904 -0.0660398220100032 -0.0842412622707615 -0.109559778763078 -0.122508909763318 -0.10410663501516 -0.0983367976311725 -0.110604380441117 -0.0752530196506774 -0.0577670620872995 -0.012376064045285 -0.0302266797351905 -0.0178489167146126 -0.0187762726609558 -0.0311700850602866 -0.0587303829365638 -0.0874468969277572 -0.0782078652620705 -0.101535320174504 -0.121295254603618 -0.178383300749152 -0.177932289802677 -0.12663041095954 -0.151277223163949 -0.139552101183099 -0.14568404297186 -0.167610673977381 -0.200198822833871 -0.194244894556371 -0.210391573804317 -0.24789656808477 -0.23038078733854 -0.249304799330726 -0.22561735334229 -0.240432569411284 -0.191597563412359 -0.194654901751315 -0.222679916930336 -0.238260040827939 -0.234971015673463 -0.238985322500686 -0.218717552967436 -0.204609656297378 -0.213649227468353 -0.165473383408313 -0.181938051907895 -0.127516444258272 -0.140574670765773 -0.183084551808103 -0.17423494265706 -0.145022494754472 -0.142106240920529 -0.120136274805818 -0.0882907849049629 -0.0765195390169018 -0.0734970536655389 -0.036670873367571 -0.0291277554841584 -0.0178658106985464 -0.0113024092766155 -0.0225580444943884 -0.0112556446275707 -0.0541720169546731 -0.047582955286447 -0.0564253309875566 -0.0818103448854524 -0.122848278784757 -0.0981443477669265 -0.101223786207606 -0.11840644301739 -0.0670288597202543 -0.089088983602329 -0.0314072864878378 -0.0347307215525662 -0.014627639553332 -0.00981942050310215 -0.0219775389656475 -0.02444427885356 -0.0462205360538203 -0.0437551850311423 -0.0839675257073474 -0.0905251722321114 -0.0687105586613735 -0.116773984534359 -0.138137251135498 -0.165787354207449 -0.1715170702437 -0.12975069185505 -0.13740409819471 -0.166926829729746 -0.175007436180473 -0.156832879186689 -0.199126852274843 -0.224879800775214 -0.224415585857738 -0.245751666727539 -0.238346237483218 -0.237755251816888 -0.214587685565019 -0.190977230666381 -0.214902558999194 -0.19701511790763 -0.309418629047942 -0.285710976659248 -0.285468317079423 -0.308678756038001 -0.252064955664933 -0.273677745931208 -0.271532439887361 -0.287255087806824 -0.313770202662993 -0.331351226425413 -0.336129523176154 -0.363653497152165 -0.354171039726852 -0.373702497998078 -0.347747950107904 -0.32059117310351 -0.360408555073361 -0.386342230072882 -0.403368589456758 -0.427502785224169 -0.446670970631729 -0.49218281146121 -0.485182290486799 -0.472697011904738 -0.490149548011059 -0.498197410042837 -0.443496727123424 -0.462524080393486 -0.448829669952189 -0.464374898093311 -0.422212446021082 -0.418723309215244 -0.397749846631393 -0.405605985565993 -0.377212811030621 -0.418736172121137 -0.45753868123161 -0.444051921728522 -0.461724228367686 -0.485791625503715 -0.481126657075926 -0.483249726934279 -0.458139545348748 -0.430593049627773 -0.409002909147034 -0.379238363174656 -0.404909050944286 -0.385660585630178 -0.347151905610737 -0.339513893598208 -0.313390234714488 -0.334023123901794 -0.369385193728805 -0.364683295161676 -0.31567731954697 -0.319875968975855 -0.341704233448138 -0.301465776296307 -0.26140524610349 -0.284379067962554 -0.262446306136399 -0.279754033130582 -0.279025087969519 -0.266945703527685 -0.303771956460537 -0.2886687660022 -0.285277994678089 -0.309179985982291 -0.268111592960533 -0.275622349297278 -0.287711913661985 -0.312237151715199 -0.33155955860028 -0.33191357848425 -0.354028819834113 -0.357984280321577 -0.348539265380082 -0.321623919414879 -0.316776680579664 -0.358838700505384 -0.404185959941487 -0.382753234566082 -0.413777382091435 -0.42867106643257 -0.448141026117644 -0.44009775787097 -0.48726284496098 -0.48786157402054 -0.472822069769178 -0.492490228061184 -0.474187366373906 -0.473075733620938 -0.45058544806931 -0.445411056060286 -0.414337831091181 -0.434421424930886 -0.38012333057516 -0.404193367286842 -0.381205016993186 -0.390277406167538 -0.39169482899528 -0.410189467716854 -0.43693826179648 -0.412378413492448 -0.457573291554191 -0.451477101688959 -0.484339953160245 -0.47771305726849 -0.491205124973161 -0.468463066334524 -0.460021055156791 -0.418938338549514 -0.434628735447463 -0.428650050133273 -0.387219686788249 -0.389982930339595 -0.345719881676445 -0.371017023643337 -0.324666391224903 -0.336732349284198 -0.372338398024239 -0.347182859446236 -0.370060492379099 -0.352432788417807 -0.336758127094292 -0.317098327435252 -0.300588127332337 -0.310648548681663 -0.271775723435511 -0.278197584700099 -0.257512927927782 -0.255546192553779 -0.277422446000969 -0.302151887795627 -0.309819472954263 -0.694363532190036 -0.720112264179577 -0.741191655863264 -0.737268964471311 -0.708757409457911 -0.714537260255419 -0.689100821801188 -0.68432380438676 -0.672935890532093 -0.647273566176291 -0.62826007978321 -0.634428176108343 -0.681217768529276 -0.65625597514022 -0.673785567623579 -0.652851036761861 -0.62896139484207 -0.614373021086814 -0.588813811120408 -0.570046333111385 -0.545064467853346 -0.533500068556373 -0.507764035012068 -0.502696326902971 -0.525005930112907 -0.530260025219649 -0.50099089660833 -0.546222407458933 -0.540567536804351 -0.591713538089322 -0.576561944500142 -0.595937118272984 -0.617181453882772 -0.614818387991973 -0.569499465965242 -0.591202113692189 -0.567639417631313 -0.549461490492182 -0.526485903347761 -0.519454595410298 -0.513343045450815 -0.522121954712488 -0.511091889082287 -0.544889906269118 -0.556845558277324 -0.551131021101435 -0.577429617658045 -0.582793315256451 -0.621517420542284 -0.597146573354502 -0.642904729103948 -0.661170478781054 -0.685294385066107 -0.639809890672131 -0.639214713340503 -0.640419505122168 -0.665742720979967 -0.666892427450293 -0.691604525859399 -0.71366677036421 -0.746592451727424 -0.721209398419387 -0.734349700597425 -0.737034389102341 -0.720640264514512 -0.698679412318985 -0.690949105286021 -0.718390905940488 -0.734187340271118 -0.729554588437081 -0.747516879697816 -0.721500164254849 -0.714131378021794 -0.705552878817518 -0.702039709592959 -0.66143387164707 -0.673897494213934 -0.668328869896872 -0.635978787010169 -0.625706294130446 -0.648761083709726 -0.682881129690527 -0.680477665080553 -0.596010669633362 -0.577964497837482 -0.552509974286173 -0.550262793955995 -0.50731025216134 -0.530734196455076 -0.529316016700146 -0.530538127219801 -0.506279251815395 -0.539424866544713 -0.571006166682132 -0.587406535974989 -0.578393730076256 -0.587998900890774 -0.615891757909466 -0.616487728412456 -0.611314240070318 -0.564390628168779 -0.577006524471234 -0.583801405962624 -0.541212346181051 -0.525792749139734 -0.50242950106925 -0.525907948383049 -0.519285405244823 -0.535628497444799 -0.532657369058277 -0.577151468021113 -0.563666971145142 -0.606325612607608 -0.62381683952302 -0.607975009587718 -0.668234843210822 -0.666790341650131 -0.686572130288207 -0.667251312685193 -0.648878394157964 -0.638896148637903 -0.637318604002654 -0.666460101734769 -0.714482315136973 -0.688758909629775 -0.689036085438109 -0.72953685839919 -0.728176448863635 -0.726419576381774 -0.712551245791639 -0.788135168891729 -0.790120846142603 -0.770193339535321 -0.753241888073219 -0.770131242553837 -0.75449634741012 -0.768477005481159 -0.757902939700766 -0.787257279315144 -0.790791470582162 -0.786007617084388 -0.795352606023596 -0.793655696556632 -0.738674630475175 -0.779765415356781 -0.744426921362233 -0.796467346419319 -0.793843310096154 -0.71838213045106 -0.769644212144951 -0.55831606148444 -0.195580216442744 -0.481541233174989 0.0554052037475028 0.15429748410614 0.908358806174315 1.52403609889923 0.941249182203636 1.45775358252604 0.868556231669744 0.0677663960515423 0.168108832832751 -0.120746464069255 -0.525093896903225 -0.629548103770673 -0.608314437291632 -0.589451773288576 -0.492844712510706 -0.433584785539759 -0.476734414854156 -0.0713727119004118 -0.138288437304593 0.323671319045605 1.58374310813396 1.43145895842506 1.04917310777737 1.38276201773302 1.00462968080256 0.289063020037602 0.763615334385561 -0.318491580812538 -0.0712848474604449 -0.181341219262243 -0.697645769532858 -0.634119650675548 -0.788148112529791 -0.797164457131531 -0.729453813216101 -0.766890624844685 -0.72358989831729 -0.794939478399343 -0.794357145236602 -0.788361078951876 -0.786769628023253 -0.767565524210767 -0.751937097070347 -0.772789386240945 -0.761712946695273 -0.776551163612833 -0.793126565061374 -0.793634474229722 -0.777413314124577 -0.762294783336045 -0.771697971046809 -0.753086536259209 -0.788979817924892 -0.780018798561767 -0.787946660562 -0.793890917579218 -0.772587101799362 -0.762511275817597 -0.79032110011169 -0.746636446950813 -0.786774384401269 -0.796428579292729 -0.752599145834895 -0.669988039149737 -0.638165782847304 -0.377949282640802 -0.415963424323476 -0.00207244009763632 0.794028749855994 1.29519750257328 1.30775469160247 1.4151542796279 0.791767420034097 -0.00347722340755376 -0.332285824706752 -0.215710663200953 -0.659860732950742 -0.552421823522813 -0.587500125790611 -0.707576235783187 -0.630695976253962 -0.385893360925538 -0.0506658029953122 -0.020689729608721 0.840003299123453 0.817234392150045 1.46142595455497 1.57430177993207 0.993926427659714 0.878462903987366 0.371594348916191 -0.339426250034377 -0.115498508731904 -0.628217444342458 -0.726598321472485 -0.781764576841692 -0.793916377245785 -0.791648075576626 -0.781382105554937 -0.720608228064978 -0.795992992365312 -0.780458567346757 -0.78981251651871 -0.76036323078141 -0.758105653146485 -0.767891057708411 -0.785544005080127 -0.788205807415709 -0.668403099023685 -0.668038926067309 -0.645950644351479 -0.642007370019328 -0.651448090620887 -0.641152407345709 -0.683149528886982 -0.678325269612565 -0.71105606105876 -0.714398960981809 -0.690710284437634 -0.731119501513696 -0.72470160186215 -0.687669202678453 -0.712850550628545 -0.727458942978296 -0.742687145558506 -0.720406419727587 -0.699288720691801 -0.689224381702901 -0.722057516534391 -0.745392456801184 -0.689906847263196 -0.697497901162007 -0.674989878310974 -0.662968536226798 -0.628962319965371 -0.654003287412968 -0.68278493454174 -0.663187360792183 -0.62991686162142 -0.652774662929828 -0.627642104210025 -0.647539066749987 -0.608289270290653 -0.589925479950901 -0.563184625161631 -0.587737361728805 -0.610003826791942 -0.612763928254025 -0.571516892683711 -0.565410257013643 -0.581051500737009 -0.540033039687423 -0.53159714100071 -0.508881621377376 -0.522292315089309 -0.5425585517665 -0.548698246663911 -0.515468334379501 -0.522158421110605 -0.505606349612513 -0.523075313851114 -0.547274741441607 -0.552635433192707 -0.563621596146947 -0.585658984132675 -0.595802025549591 -0.619870287891322 -0.609714910905877 -0.618782257525981 -0.595754333873086 -0.617216286247567 -0.58618938208757 -0.571271093426436 -0.551634129271318 -0.559681011513299 -0.510842725803924 -0.526987501935677 -0.511495027529581 -0.516390671306787 -0.542613254692624 -0.522044114260749 -0.501283773951842 -0.536650789400949 -0.539467671302139 -0.559033289865104 -0.541609731912826 -0.581705030828943 -0.593642211809847 -0.621976677908996 -0.620695658125611 -0.595497491748338 -0.61431889422973 -0.569844175388441 -0.591442379445057 -0.562485147305089 -0.521668153118668 -0.539347924303849 -0.533636976401133 -0.554307413079409 -0.512449495830072 -0.511111948131782 -0.558670168704035 -0.583139303223672 -0.599283122148456 -0.609107074104053 -0.571929132588675 -0.592436309996083 -0.562659284908391 -0.600758238274054 -0.619263282484853 -0.574818136865334 -0.686240905781865 -0.643818431006893 -0.652659669443084 -0.676590130882958 -0.674111355477727 -0.649705199670986 -0.632523822324154 -0.625342607164576 -0.637526171102063 -0.666854999422835 -0.682918036924857 -0.712891499423254 -0.726973489654314 -0.711711102171558 -0.68865273888294 -0.724106427469048 -0.746413445859795 -0.710776832745964 -0.665965767023875 -0.68654314359638 -0.660464833155756 -0.652833785852532 -0.630616883683756 -0.635245901995174 -0.685404218079426 -0.680177951802213 -0.65830216755814 -0.737718176403733 -0.698494674278767 -0.716416045385077 -0.736694165240681 -0.719956785164203 -0.696079923019494 -0.720521033266159 -0.732265525278824 -0.759167770351979 -0.772532529328803 -0.791559997016622 -0.761985386577942 -0.758630756025238 -0.775557580250889 -0.785756914009362 -0.778766026665305 -0.793529192830404 -0.795766066790317 -0.721150186517457 -0.765136938121355 -0.766802225610956 -0.760964260168871 -0.793070814867822 -0.793959503782174 -0.792571839618169 -0.779623031979601 -0.759832186366227 -0.758890622445516 -0.779010438718358 -0.790125073684901 -0.788969032108589 -0.752077582100965 -0.770804375655946 -0.770629290169884 -0.791557514248455 -0.754342939726163 -0.72764158187128 -0.785594429532868 -0.794922555497327 -0.794596176058022 -0.756186938050354 -0.792392743168888 -0.4583744349726 -0.378856708714799 -0.670199842717971 -0.121744840753426 -0.0784360149651236 -0.673899352867159 -0.436889982897397 0.856717851111787 1.43737888753287 0.76854843558808 0.3855357754111 1.07777305885054 1.16409389084274 1.61411142735548 0.4525646788826 -0.424808633998974 -0.276492018062752 -0.181647842563525 -0.683005161728076 -0.548084931908589 -0.706402201912579 -0.56855515788365 -0.346597229493758 0.334997833863191 0.167325942251829 0.122876528177077 1.13389195245968 1.55497358373437 1.55272981887705 0.910926345400557 0.688000081309934 1.31199769322187 1.27211776519569 0.850175902282965 0.0742532002229651 0.877870690737847 1.3219442288272 1.50285771196444 0.0901907658914161 -0.346512417951385 -0.419508529422057 -0.603677817463186 -0.420262831350349 -0.292015433432581 -0.554284700905213 -0.68095193132491 -0.79291883366092 -0.794848523705514 -0.781419785082985 -0.709719268228245 -0.742863018179085 -0.76447679667937 -0.793939190748167 -0.788580461641778 -0.751310362580514 -0.790953890744828 -0.782834645460546 -0.763304608280641 -0.769663949176221 -0.767190077107792 -0.757229282934691 -0.791830347315581 -0.787432599454945 -0.790005793442977 -0.769885234659747 -0.761715112407574 -0.751794554081389 -0.78998022402882 -0.781931100824276 -0.794419787479951 -0.7880916827322 -0.795579722425754 -0.73510094793698 -0.715670036330896 -0.780045275850362 -0.778257713643655 -0.793737158757336 -0.724427269384974 -0.625538895486483 -0.116974073653079 -0.340468685198878 -0.683706205316606 -0.629452868039412 -0.0537024390893795 -0.388706785775922 -0.0173867273940135 0.819279640532695 1.46402042040668 0.85348753090366