<?xml version="1.0"?>
<VTKFile type="UnstructuredGrid" version="0.1" byte_order="LittleEndian">
<UnstructuredGrid>
<Piece NumberOfPoints="568" NumberOfCells="1054">
<Points>
<DataArray type="Float64" NumberOfComponents="3" format="ascii">
0.0000000000 0.0000000000 0.0000000000 0.0000000000 0.0000000000 1.0000000000 1.0000000000 0.0000000000 1.0000000000 1.0000000000 0.0000000000 0.0000000000 0.0500000000 0.0000000000 0.0000000000 0.1000000000 0.0000000000 0.0000000000 0.1500000000 0.0000000000 0.0000000000 0.2000000000 0.0000000000 0.0000000000 0.2500000000 0.0000000000 0.0000000000 0.3000000000 0.0000000000 0.0000000000 0.3500000000 0.0000000000 0.0000000000 0.4000000000 0.0000000000 0.0000000000 0.4500000000 0.0000000000 0.0000000000 0.5000000000 0.0000000000 0.0000000000 0.5500000000 0.0000000000 0.0000000000 0.6000000000 0.0000000000 0.0000000000 0.6500000000 0.0000000000 0.0000000000 0.7000000000 0.0000000000 0.0000000000 0.7500000000 0.0000000000 0.0000000000 0.8000000000 0.0000000000 0.0000000000 0.8500000000 0.0000000000 0.0000000000 0.9000000000 0.0000000000 0.0000000000 0.9500000000 0.0000000000 0.0000000000 1.0000000000 0.0000000000 0.0500000000 1.0000000000 0.0000000000 0.1000000000 1.0000000000 0.0000000000 0.1500000000 1.0000000000 0.0000000000 0.2000000000 1.0000000000 0.0000000000 0.2500000000 1.0000000000 0.0000000000 0.3000000000 1.0000000000 0.0000000000 0.3500000000 1.0000000000 0.0000000000 0.4000000000 1.0000000000 0.0000000000 0.4500000000 1.0000000000 0.0000000000 0.5000000000 1.0000000000 0.0000000000 0.5500000000 1.0000000000 0.0000000000 0.6000000000 1.0000000000 0.0000000000 0.6500000000 1.0000000000 0.0000000000 0.7000000000 1.0000000000 0.0000000000 0.7500000000 1.0000000000 0.0000000000 0.8000000000 1.0000000000 0.0000000000 0.8500000000 1.0000000000 0.0000000000 0.9000000000 1.0000000000 0.0000000000 0.9500000000 0.9500000000 0.0000000000 1.0000000000 0.9000000000 0.0000000000 1.0000000000 0.8500000000 0.0000000000 1.0000000000 0.8000000000 0.0000000000 1.0000000000 0.7500000000 0.0000000000 1.0000000000 0.7000000000 0.0000000000 1.0000000000 0.6500000000 0.0000000000 1.0000000000 0.6000000000 0.0000000000 1.0000000000 0.5500000000 0.0000000000 1.0000000000 0.5000000000 0.0000000000 1.0000000000 0.4500000000 0.0000000000 1.0000000000 0.4000000000 0.0000000000 1.0000000000 0.3500000000 0.0000000000 1.0000000000 0.3000000000 0.0000000000 1.0000000000 0.2500000000 0.0000000000 1.0000000000 0.2000000000 0.0000000000 1.0000000000 0.1500000000 0.0000000000 1.0000000000 0.1000000000 0.0000000000 1.0000000000 0.0500000000 0.0000000000 1.0000000000 0.0000000000 0.0000000000 0.9500000000 0.0000000000 0.0000000000 0.9000000000 0.0000000000 0.0000000000 0.8500000000 0.0000000000 0.0000000000 0.8000000000 0.0000000000 0.0000000000 0.7500000000 0.0000000000 0.0000000000 0.7000000000 0.0000000000 0.0000000000 0.6500000000 0.0000000000 0.0000000000 0.6000000000 0.0000000000 0.0000000000 0.5500000000 0.0000000000 0.0000000000 0.5000000000 0.0000000000 0.0000000000 0.4500000000 0.0000000000 0.0000000000 0.4000000000 0.0000000000 0.0000000000 0.3500000000 0.0000000000 0.0000000000 0.3000000000 0.0000000000 0.0000000000 0.2500000000 0.0000000000 0.0000000000 0.2000000000 0.0000000000 0.0000000000 0.1500000000 0.0000000000 0.0000000000 0.1000000000 0.0000000000 0.0000000000 0.0500000000 0.5022266537 0.0000000000 0.5007981053 0.7071428571 0.0000000000 0.7071428571 0.2928571429 0.0000000000 0.7071428571 0.7071428571 0.0000000000 0.2928571429 0.2928571429 0.0000000000 0.2928571429 0.5000000000 0.0000000000 0.7803135889 0.2196864111 0.0000000000 0.5000000000 0.7803135889 0.0000000000 0.5000000000 0.5000000000 0.0000000000 0.2196864111 0.8289812646 0.0000000000 0.8289812646 0.1710187354 0.0000000000 0.8289812646 0.8309922923 0.0000000000 0.1696816852 0.1696816852 0.0000000000 0.1690077077 0.5661054582 0.0000000000 0.6378553646 0.3598432056 0.0000000000 0.5669860627 0.6401567944 0.0000000000 0.4330139373 0.4330139373 0.0000000000 0.3598432056 0.6398165725 0.0000000000 0.8467641780 0.1532358220 0.0000000000 0.6398165725 0.8467641780 0.0000000000 0.3601834275 0.3601834275 0.0000000000 0.1532358220 0.8459852991 0.0000000000 0.6396925152 0.3603074848 0.0000000000 0.8459852991 0.6396925152 0.0000000000 0.1540147009 0.1540147009 0.0000000000 0.3603074848 0.4449107643 0.0000000000 0.6669581650 0.6661733647 0.0000000000 0.5586987495 0.3338266353 0.0000000000 0.4413012505 0.5586987495 0.0000000000 0.3338266353 0.5346795395 0.0000000000 0.8879537589 0.1120462411 0.0000000000 0.5346795395 0.8879537589 0.0000000000 0.4653204605 0.4653204605 0.0000000000 0.1120462411 0.7410476285 0.0000000000 0.9030346798 0.0969653202 0.0000000000 0.7410476285 0.8972738482 0.0000000000 0.2560155099 0.2560155099 0.0000000000 0.1027261518 0.8896078905 0.0000000000 0.7370939167 0.7370347523 0.0000000000 0.1103623934 0.2628350275 0.0000000000 0.8894799408 0.1104903431 0.0000000000 0.2628941919 0.5965250636 0.0000000000 0.7438728850 0.2562036657 0.0000000000 0.5964399596 0.7438728850 0.0000000000 0.4034749364 0.4031805596 0.0000000000 0.2560350211 0.7458549806 0.0000000000 0.6119044556 0.3880955444 0.0000000000 0.7458549806 0.6119044556 0.0000000000 0.2541450194 0.2544965174 0.0000000000 0.3880814135 0.8998196115 0.0000000000 0.8998196115 0.8998196115 0.0000000000 0.1001803885 0.1001803885 0.0000000000 0.8998196115 0.1001803885 0.0000000000 0.1001803885 0.4368423602 0.0000000000 0.9030822198 0.0970894652 0.0000000000 0.4360517756 0.9030822198 0.0000000000 0.5631576398 0.5631576398 0.0000000000 0.0969177802 0.7398280348 0.0000000000 0.7962960870 0.2037039130 0.0000000000 0.7398280348 0.7962960870 0.0000000000 0.2601719652 0.2601719652 0.0000000000 0.2037039130 0.7932194594 0.0000000000 0.7141516154 0.2853581139 0.0000000000 0.7933845684 0.7141516154 0.0000000000 0.2067805406 0.2067805406 0.0000000000 0.2858483846 0.4911353714 0.0000000000 0.5903226735 0.5705697289 0.0000000000 0.5497170020 0.4107495277 0.0000000000 0.4903772600 0.5487649969 0.0000000000 0.4227327861 0.6519524273 0.0000000000 0.6424993192 0.3575006808 0.0000000000 0.6519524273 0.6424993192 0.0000000000 0.3480475727 0.3480475727 0.0000000000 0.3575006808 0.8167343783 0.0000000000 0.9115919675 0.0884080325 0.0000000000 0.8167343783 0.9183880259 0.0000000000 0.1817259029 0.1817259029 0.0000000000 0.0816119741 0.9183880259 0.0000000000 0.8182740971 0.8209875472 0.0000000000 0.0827908697 0.1817259029 0.0000000000 0.9183880259 0.0827908697 0.0000000000 0.1790124528 0.5145980638 0.0000000000 0.6960521792 0.3041908182 0.0000000000 0.5148395259 0.7009339268 0.0000000000 0.4859682627 0.4845152291 0.0000000000 0.2979898766 0.6083963711 0.0000000000 0.9200417962 0.0799582038 0.0000000000 0.6083963711 0.9200417962 0.0000000000 0.3916036289 0.3916036289 0.0000000000 0.0799582038 0.9250098391 0.0000000000 0.6602570178 0.6603087354 0.0000000000 0.0751327324 0.3396719264 0.0000000000 0.9248818894 0.0751181106 0.0000000000 0.3396719264 0.4312005599 0.0000000000 0.8217851233 0.8217851233 0.0000000000 0.5687994401 0.1782148767 0.0000000000 0.4312005599 0.5687994401 0.0000000000 0.1782148767 0.4610242571 0.0000000000 0.4325419913 0.5675926399 0.0000000000 0.8179431903 0.1820568097 0.0000000000 0.5675926399 0.8179431903 0.0000000000 0.4324073601 0.4324073601 0.0000000000 0.1820568097 0.6682031602 0.0000000000 0.7776980060 0.2223019940 0.0000000000 0.6682031602 0.7776980060 0.0000000000 0.3317968398 0.3317968398 0.0000000000 0.2223019940 0.6770131390 0.0000000000 0.9310345848 0.0689654152 0.0000000000 0.6770131390 0.9310345848 0.0000000000 0.3229868610 0.3232390588 0.0000000000 0.0687975549 0.4331062299 0.0000000000 0.5538512234 0.5845774414 0.0000000000 0.4796582278 0.4995085267 0.0000000000 0.3717738489 0.4475550950 0.0000000000 0.7366816992 0.7363982022 0.0000000000 0.5521631993 0.2636408531 0.0000000000 0.4478352306 0.5517671400 0.0000000000 0.2626479365 0.3949627341 0.0000000000 0.4177653888 0.4847803072 0.0000000000 0.9346896108 0.0652696782 0.0000000000 0.4849882228 0.9346896108 0.0000000000 0.5152196928 0.5152196928 0.0000000000 0.0653103892 0.4068115942 0.0000000000 0.6153938410 0.5000880590 0.0000000000 0.8390663610 0.1586365873 0.0000000000 0.4948997278 0.8390663610 0.0000000000 0.4999119410 0.4999119410 0.0000000000 0.1609336390 0.6963526523 0.0000000000 0.8431992385 0.1568007615 0.0000000000 0.6963526523 0.8431992385 0.0000000000 0.3036473477 0.3032947942 0.0000000000 0.1571387735 0.8417389972 0.0000000000 0.7731619473 0.2268312854 0.0000000000 0.8417268115 0.7731918746 0.0000000000 0.1580414468 0.1580536325 0.0000000000 0.2268013582 0.7590505876 0.0000000000 0.6756399137 0.3243600863 0.0000000000 0.7590505876 0.6756399137 0.0000000000 0.2409494124 0.2409494124 0.0000000000 0.3243600863 0.6453109467 0.0000000000 0.6964514918 0.3032982946 0.0000000000 0.6452813100 0.6964514918 0.0000000000 0.3546890533 0.3546890533 0.0000000000 0.3035485082 0.6122708573 0.0000000000 0.6079537555 0.6031730180 0.0000000000 0.3922886399 0.9396773838 0.0000000000 0.6062111584 0.6062169048 0.0000000000 0.0603384575 0.3937809466 0.0000000000 0.9396631672 0.0603559090 0.0000000000 0.3936931038 0.6445516361 0.0000000000 0.5036930179 0.9415664749 0.0000000000 0.0584335251 0.0584335251 0.0000000000 0.0584335251 0.9415664749 0.0000000000 0.9415664749 0.0584335251 0.0000000000 0.9415664749 0.7729472654 0.0000000000 0.9451774942 0.0548225058 0.0000000000 0.7729472654 0.9435477713 0.0000000000 0.2345658084 0.2345658084 0.0000000000 0.0564522287 0.9435477713 0.0000000000 0.7654341916 0.7654341916 0.0000000000 0.0564522287 0.2345658084 0.0000000000 0.9435477713 0.0564522287 0.0000000000 0.2345658084 0.7795344149 0.0000000000 0.8396438946 0.1603561054 0.0000000000 0.7795344149 0.8474634579 0.0000000000 0.2249225853 0.2247830792 0.0000000000 0.1529153911 0.5531927155 0.0000000000 0.9478023764 0.0521976236 0.0000000000 0.5531927155 0.9477367685 0.0000000000 0.4469580074 0.4468072845 0.0000000000 0.0521976236 0.850805684
[...]
<PointData Scalars="pressure_p1," Vectors="" Tensors="">
<DataArray type="Float64" Name="pressure_p1" format="ascii">
-0.0159003579 1.7297621937 1.7126016885 -0.0159003577 -0.0180809039 -0.0171118022 -0.0166465733 -0.0172266708 -0.0192820200 -0.0147662262 -0.0139618535 -0.0156855956 -0.0179774037 -0.0122729376 -0.0136169007 -0.0190985042 -0.0126251498 -0.0161535977 -0.0202418761 -0.0172266708 -0.0167938072 -0.0172655374 -0.0180809039 -0.0547054058 -0.1050647676 -0.1517755780 -0.2015303101 -0.2531025505 -0.3012935929 -0.3476212560 -0.3946425944 -0.4481593220 -0.5010015263 -0.5456228774 -0.5940026506 -0.6304586299 -0.6418835827 -0.6048590995 -0.4551782319 -0.1548195035 0.3220359746 1.0494541635 1.6731063918 1.6874081877 1.6738294231 1.6711288253 1.6598612706 1.7347187811 1.7468692131 1.7155146946 1.6749800826 1.7772383096 1.7533401904 1.6556706081 1.7701439021 1.7081910150 1.6363152626 1.6882814311 1.6983589186 1.6898020700 1.6817098403 1.0569699630 0.3251681272 -0.1500831326 -0.4499135132 -0.6003341165 -0.6412862479 -0.6308694302 -0.5981677403 -0.5498651292 -0.4980997946 -0.4526222263 -0.3994179760 -0.3483938868 -0.3028713514 -0.2539004925 -0.2015303114 -0.1514616057 -0.1047458457 -0.0547054060 -0.5008115705 -0.6390510528 -0.6418419841 -0.2911637279 -0.2898690079 -0.5210328790 -0.4994013886 -0.4988856832 -0.2182426132 -0.2890548794 -0.2720443705 -0.1684849414 -0.1672789990 -0.6219745730 -0.5625430821 -0.4327447453 -0.3593448308 -0.1648921260 -0.6229921802 -0.3608736738 -0.1531550870 -0.6240440899 -0.1705646833 -0.1534253953 -0.3593617326 -0.6395016543 -0.5574533524 -0.4396982919 -0.3303439405 0.1860197815 -0.5326391901 -0.4650293078 -0.1164467908 0.4726105051 -0.6142716014 -0.2545062075 -0.1016354365 -0.6194108983 -0.1109847863 0.2634027057 -0.2634049042 -0.6084425119 -0.5886922632 -0.4061018266 -0.2558745978 -0.6025077971 -0.6047986425 -0.2547261871 -0.3887993909 0.4442120583 -0.0958829798 0.4045936552 -0.0985229292 0.4284044128 -0.4355090610 -0.5612858162 -0.0971260981 -0.4538023155 -0.6101933484 -0.2584065422 -0.2019710271 -0.6379373839 -0.4842837477 -0.2084754963 -0.2874309070 -0.5855045496 -0.5491813025 -0.4896255001 -0.4228833869 -0.6264019484 -0.6319565545 -0.3460010750 -0.3549098259 0.5096046627 -0.3739225541 -0.1822065363 -0.0816143876 -0.3672475790 -0.0830507539 0.6467744219 -0.1781074292 -0.6419978896 -0.5141029979 -0.4837474825 -0.2979919656 0.6380204816 -0.6017407607 -0.3907419210 -0.0815171608 -0.6336509253 -0.0739761958 0.7455633741 -0.3409573469 -0.3520229046 -0.5669500971 -0.4300343515 -0.1795880528 -0.4307700379 -0.3618816582 -0.5689859304 -0.4273760595 -0.1813293369 -0.5443804638 -0.6383783467 -0.3322102742 -0.2251114813 0.8166435937 -0.6409660529 -0.3244114551 -0.0692388017 -0.5509068423 -0.4803306479 -0.3706729775 -0.6194357285 -0.5507199630 -0.4467869657 -0.2615067030 -0.4181275001 0.8770599289 -0.4820178134 -0.5169491701 -0.0653693666 -0.6043552169 -0.2241808710 -0.4983979491 -0.4977469629 -0.1617815267 -0.1872344700 -0.6422613110 -0.3051958867 -0.1573902480 -0.5421834239 -0.1841689445 -0.1564694587 -0.2242922704 -0.6388386312 -0.5789127322 -0.2388152898 -0.3291424247 -0.6423606904 -0.6273448551 -0.3557447032 -0.3044545073 -0.6032611322 -0.3937543117 -0.5988935544 -0.0601427134 0.9638527734 -0.3934503466 -0.5077608749 -0.0553492367 -0.0553492368 1.0388216354 1.0426591433 1.0458411959 -0.5409084068 -0.2284236071 -0.0547671348 -0.5518484518 -0.0552891332 1.0458274004 -0.2294034392 -0.2226871673 -0.5249428785 -0.2239708815 -0.1516105653 1.1229053839 -0.5500453089 -0.4482382635 -0.0500913896 -0.6422388544 -0.1496332498 -0.1332554483 -0.3063307157 -0.6238439212 -0.5107776645 -0.6414601465 -0.5662782526 -0.4320992610 -0.3048760586 -0.6024072938 -0.5404902091 -0.4579112541 -0.2520929928 1.1425038229 0.0408345306 -0.1348021155 -0.0529273617 -0.0063887219 -0.0517645182 1.0831786272 -0.1332499909 -0.5992872631 -0.6422444905 -0.3112180402 -0.3933252390 0.0367886160 -0.5817129756 -0.4133355898 -0.1309178144 -0.6125208686 -0.6041489732 -0.2522948411 -0.2590643947 -0.4698039582 -0.6084801165 -0.3816090895 -0.2052014565 -0.6372287686 -0.0537606234 1.0710142876 -0.2879748560 0.1237208437 -0.1353396688 -0.1207414250 -0.1482685311 -0.5466569271 -0.4388914520 -0.6037844690 -0.3877185832 -0.1971199493 -0.4654720960 -0.4730309936 -0.2055112077 -0.2003004149 -0.6345912707 -0.6384115715 -0.2893255942 -0.3392750162 0.2695638706 -0.6096633564 -0.3799629440 -0.1094577744 -0.5875004284 -0.4506679324 -0.6366242870 -0.4302981206 -0.1944116276 -0.3353288188 -0.5152111673 -0.6368454153 -0.6008304404 -0.3915539632 -0.3335571757 -0.4128018142 0.1022456347 0.2301259838 -0.6382450757 -0.3334996210 -0.1127008112 1.2472105899 -0.4398197881 -0.5577232540 -0.0428353048 -0.1260997442 -0.1901639751 -0.5092229561 0.2714407235 -0.4872744701 -0.5109058935 -0.1092786385 -0.5292574944 -0.5655802922 -0.4314276566 -0.2200738129 1.1472266946 -0.6342998839 -0.2830661093 -0.0497773582 -0.6171174642 -0.1882762805 -0.1255464750 1.2309935360 -0.6213834620 -0.3638099657 -0.0436429017 -0.5560021956 -0.4565888068 -0.4428008176 -0.3754525661 -0.1372855968 0.2394817396 -0.1474804555 -0.1125849884 0.2367062254 -0.5361799828 -0.5860603380 -0.6415934414 -0.2936875425 -0.2427272232 1.1945852606 -0.3106544000 -0.1776894105 -0.0377354000 -0.3345342234 -0.0379527506 1.3293651918 -0.1772052538 -0.4048948371 -0.5329750796 -0.3417149493 -0.3342279114 -0.5473245918 -0.4470273191 -0.6186491388 -0.6437475854 -0.4901667624 -0.4677552877 -0.5281550071 -0.5077559364 -0.2609421974 1.4090855216 -0.3280755808 -0.6394937191 -0.0331111759 -0.4729419076 -0.3876788347 -0.5339436598 -0.5699793060 -0.4267599198 -0.2205732275 -0.6363974312 0.1627890719 -0.1181540453 -0.3374533832 -0.5907184501 -0.3516218575 -0.2175735097 -0.1037045799 -0.2036787175 -0.5393817999 -0.4558501562 -0.1575906836 1.2508521790 -0.5845984374 -0.4106804377 -0.0425708134 -0.1061423006 -0.4532112615 -0.5441407275 -0.1460160526 -0.1187780396 -0.5871685966 -0.4074366550 -0.1475891247 -0.3791157350 -0.5332984830 0.3682671763 -0.4659187826 -0.6110926251 -0.6221758227 -0.3634191220 -0.2576473438 -0.4668087579 -0.1016167837 -0.2202879372 0.2303466954 -0.6174456413 -0.3702027153 -0.1122874480 -0.4840435612 -0.0369617561 1.3441302077 -0.5150549763 -0.3861138882 -0.6377524803 -0.3335940417 -0.1871306501 -0.6434999380 -0.1011416780 0.3696048577 -0.3054764689 -0.0912744889 1.2736273785 -0.0412591603 0.4974045045 -0.0413545983 0.4968245413 -0.0910828146 1.2737056119 -0.6431856588 -0.6424790304 -0.3221253679 -0.3150727238 -0.4561374834 -0.5355981247 -0.4618207843 -0.2007038602 -0.6389671965 -0.5393630066 -0.6316367425 -0.4168818017 -0.4639844577 -0.5337993812 -0.1924671383 0.6022067038 -0.5648126925 -0.4326695950 -0.0839293611 -0.4082573633 1.4318404735 -0.6405786713 -0.3238977964 -0.0318634654 -0.2771508821 -0.5963798072 -0.3972593729 -0.1673259849 -0.6411857446 -0.6026585520 -0.3899197314 -0.2928130930 -0.5223769741 -0.0292729966 1.4762212351 -0.4765943187 -0.5394787799 -0.6254419519 -0.3584762577 -0.2218673589 -0.4653973249 -0.6438391900 -0.3032257406 -0.2026556448 0.0212796769 -0.4011353763 -0.5733481535 -0.4727428814 -0.5844837316 -0.4886965526 -0.2092376201 -0.2410507709 -0.2972299626 -0.6234111980 -0.1668960976 -0.2664127834 -0.2653858077 -0.6422140469 -0.5677811922 -0.4289701026 -0.2944869914 -0.0377484530 -0.6164013895 -0.2659126811 -0.1442717121 0.3798571187 -0.6424519711 -0.2948001580 -0.1020897500 -0.5139356619 -0.6016145525 -0.6223916530 -0.0338756422 1.3960740855 -0.3625550659 -0.0295506324 -0.0295506326 1.4713367597 1.4998282173 -0.5654480939 -0.5314979508 -0.4664024364 -0.2316481694 -0.6287981249 -0.6413138569 -0.3256050459 -0.2721870726 -0.6381363070 -0.4783473678 -0.5810169591 -0.4051933600 0.6046174266 -0.6273394429 -0.3556758987 -0.0834421719 -0.5837946797 0.5923608450 -0.1196151098 -0.0899018574 -0.1391535391 -0.6419552735 -0.6117729376 -0.2566323055 -0.2968209891 0.6991368566 -0.5236189198 -0.4753400908 -0.0770004839 
</DataArray>
</PointData>
<CellData Scalars="pressure_p0," Vectors="velocity_p0," Tensors="">
<DataArray type="Float64" Name="pressure_p0" format="ascii">
-0.6327016968 -0.5746783150 -0.4219873821 -0.2715842404 -0.6232590027 -0.6243436995 -0.4054840202 -0.3771735516 0.8519650209 -0.6146341167 -0.2576868551 -0.0691642709 -0.2031885759 -0.0312354233 1.4097129494 -0.4630847106 -0.4741605820 -0.0312354232 1.4385368525 -0.2031885769 -0.4347114327 -0.5102646166 -0.4870464284 -0.1944559748 1.6689300492 -0.5534137057 -0.2281885469 -0.0188174090 -0.5608648102 -0.0188174090 1.6590000209 -0.2281885497 -0.6169909644 -0.0367143926 1.3478464145 -0.2572600188 -0.3053157805 -0.0278315976 -0.5992013036 -0.5742684242 -0.4224775455 -0.2458168049 -0.2372093199 -0.1213156209 -0.5835338877 0.1220739389 0.6413453289 -0.6389057901 -0.2783144545 -0.0828081894 -0.0818507878 -0.6166814199 -0.3716207452 0.6172874215 -0.3233245718 -0.5222248595 -0.4729921905 -0.1736922987 -0.1338130537 -0.1003759451 -0.1458566850 -0.1429786642 -0.2134404016 -0.1267071022 -0.1677646397 -0.1361912372 0.7483425306 -0.2615580555 -0.6239675064 -0.0735018558 0.0671782657 -0.5167505890 -0.5844990392 -0.0347418478 1.3797823935 -0.4110922930 0.8161214937 -0.4534666508 -0.5447550761 -0.0687050835 -0.6382129050 -0.0178969837 1.6770421325 -0.2790712604 -0.1280970305 -0.0176421167 1.6754732664 0.0498909257 0.0438739429 -0.0179251104 1.6803657091 -0.1275001616 -0.5651286076 -0.1297112275 0.0316163939 -0.4317427600 -0.5870312268 -0.1184087187 0.1516459462 -0.4079172727 -0.6411284566 -0.5909507407 -0.2872909323 -0.4038275242 -0.6417550292 -0.5414457122 -0.4578664686 -0.2849044355 -0.1970972149 -0.0584394140 0.9135494600 -0.4385253711 -0.4466492997 -0.0588323789 0.9747107060 -0.1961927325 -0.6316709221 -0.5672954323 -0.4304310334 -0.2709196361 -0.6227128431 -0.6440741065 -0.3157008367 -0.3639144786 -0.6300311571 -0.6230704231 -0.2614611851 -0.3511301411 -0.6103227299 -0.4034185201 0.4974495420 -0.4691694973 -0.5293222969 -0.0904771902 -0.6012149565 -0.6138226316 -0.1012567375 -0.6295828709 -0.3525876945 0.3545949581 -0.4655245755 -0.3557866149 -0.1780837578 -0.1992693531 -0.1095829837 -0.0309949358 1.4391173241 0.2573730633 0.2510823762 -0.0312779296 1.4432059468 -0.1089861147 -0.6243715462 -0.3792607236 -0.1819904980 -0.3606576775 -0.5830696528 0.5342391774 -0.5785776314 0.5728519675 -0.5047706309 -0.4141542661 -0.3567918886 -0.5621027953 -0.4596077752 -0.2305408498 -0.2003774582 -0.1862061050 -0.1746407084 0.8581839227 -0.0843572539 -0.0662241223 0.5790255317 0.5818223596 -0.0662241223 -0.0843572539 0.8554147927 -0.5905968221 0.5165544861 -0.0891124699 -0.4037337310 -0.6401361588 -0.6221574074 -0.3646433048 -0.3317064687 -0.5674085482 -0.0146290293 1.7345141809 -0.4298396166 -0.0676304582 -0.0328306603 -0.0328306603 0.8296324256 1.4127013287 0.8282349724 -0.0676304583 1.4116864352 1.4423226621 -0.5631008826 -0.4345488612 -0.0311124987 -0.1514199823 -0.1957987780 -0.2766706361 -0.6356985312 -0.2756693476 -0.1689814615 0.0565296886 -0.5050596148 -0.4922265785 -0.1273944246 -0.2848079707 0.5317336550 -0.0882796426 -0.6416023007 -0.6450220188 -0.5157828208 -0.2136616565 -0.3144241162 -0.0825406632 -0.6395292547 -0.3319019109 -0.1413442331 -0.4461436697 -0.1695344005 -0.5294003284 -0.5056034865 -0.6452147782 -0.5762609976 -0.2349955454 -0.3009736478 0.8826498437 0.2532383665 -0.1096431135 0.2489011227 -0.0646713916 -0.0643883980 0.8842414639 -0.1090462444 -0.6269458116 -0.5874778982 -0.2390559740 -0.3569688727 -0.3977548655 -0.3864404010 -0.5681780492 -0.4194940089 -0.4866565290 -0.5106099241 -0.1909563911 0.0183849851 -0.6432458890 -0.2877615506 -0.1335414912 -0.6152710616 -0.6397166547 -0.2844007067 -0.3741055156 -0.6107681200 -0.1450299683 -0.1109355383 -0.2520314504 -0.5613923730 -0.5798973967 -0.5326409428 -0.5119186770 -0.6314441571 -0.6203903876 -0.2330171894 -0.1195291248 -0.4862725495 1.3895748512 -0.6094669801 -0.2556816952 -0.0349222217 -0.5734138045 -0.0670477731 0.8426796742 -0.4230954137 -0.2643688095 -0.6398169518 -0.3315422781 -0.1654506367 -0.5877607655 -0.3350620377 -0.3144453975 1.7350750669 -0.6173445567 -0.3710462107 -0.0145810217 -0.5905299570 -0.5737799764 -0.2405236177 -0.2343835966 -0.0469344594 -0.0302677931 -0.0302677931 -0.0469344595 1.1681493413 1.4555152623 1.4757595861 1.1869324178 0.0521379377 0.5303824719 -0.1923421630 -0.1536525728 0.6160907287 -0.0820717189 -0.1264707375 -0.0882611903 -0.5620522408 -0.3737606726 -0.4860527297 -0.6249823902 -0.3600483424 -0.2046768277 -0.4258098972 -0.4336432880 -0.0983100349 -0.5213170298 -0.4740832735 -0.1434584041 -0.6378877728 -0.6437779164 -0.3198907110 -0.3385844308 -0.4031916653 -0.6430271521 -0.2886698898 -0.1878406241 -0.3815711800 -0.2870049640 -0.6028013403 -0.2494279067 -0.1675736685 -0.6038049787 -0.6455068352 -0.6391696841 -0.3802391399 -0.1830756998 -0.1654870921 -0.2762885161 -0.3081093831 -0.3329278582 -0.5519354040 -0.5266256135 -0.2158166121 -0.2257592472 -0.6279672426 -0.4186210399 -0.4220448137 -0.6440804654 -0.6408358740 -0.6437159233 -0.6243761847 -0.2798009304 -0.3088428890 -0.2624984714 -0.3193435217 0.2317139000 -0.6338264153 -0.2718844456 -0.1154039525 -0.5845717845 -0.5585670841 -0.6087440847 -0.6259901627 -0.3826924181 -0.3588048391 -0.2389804830 -0.2277361687 -0.6210378251 -0.0564675487 1.0088919393 -0.3654622557 -0.6422073986 -0.6362588291 -0.3416893321 -0.3261147061 -0.5753481194 -0.6301068829 -0.2681532148 -0.2350842733 -0.5691323284 -0.0137132917 -0.4189172040 -0.5774108577 1.7499819488 -0.0814859492 -0.0133528192 1.7557958021 0.6259445787 0.6267344480 -0.0133528192 1.7555205032 -0.0814859492 -0.6235452474 -0.6373859025 -0.1420799816 -0.0846332156 -0.2782359912 -0.6327120239 -0.5159001833 -0.4828668210 -0.2706767389 -0.5379829029 -0.3542766853 -0.4704569769 -0.3607509200 -0.6266092991 -0.3579861572 -0.1813465197 1.4904627385 -0.6026497524 -0.3899915577 -0.0282943134 -0.6080684712 -0.3636820892 -0.6390795892 -0.5782663910 -0.4185784683 -0.3328150994 -0.0314233054 -0.6062802357 -0.3855661076 1.4358289815 -0.5969275218 -0.5110432112 -0.4875069882 -0.2445757086 -0.5485492495 -0.4027563575 -0.5919724512 -0.2245014462 -0.6150896965 -0.6379076929 -0.5837918010 -0.2382861902 -0.2787539536 -0.5739517520 -0.4926205310 -0.4757871895 -0.6319343006 -0.3485252295 -0.2043685671 -0.1944252464 -0.1499374202 -0.0072522879 -0.2077121104 -0.5508738576 -0.5612995098 -0.4453744872 -0.4344310042 -0.1332864080 -0.1566232615 -0.4976107682 -0.4896749669 0.1077537813 -0.6457161298 -0.3106582567 -0.1227269566 -0.5992922209 -0.3531597891 -0.1784350797 -0.2449824035 -0.2480424203 -0.1339144195 -0.2708831329 -0.4711121303 -0.5257126729 -0.1657238325 -0.6394267953 -0.5010206243 -0.4853104781 -0.5344754396 -0.4725113488 -0.5355957432 -0.3088854316 -0.4499581029 -0.5479911614 -0.1714842436 -0.2362315900 -0.2114684263 -0.0873747389 -0.0803366804 0.0054662350 -0.6095606809 -0.3812083635 -0.1321216419 -0.4918143348 -0.1696154906 -0.1397220550 -0.1578052898 -0.6024773387 -0.3902983670 -0.1502076241 0.1711644365 -0.0458964057 -0.6016930728 -0.5756712928 -0.0782620427 -0.2118369259 -0.5129477021 0.6735019741 -0.0874525502 -0.2397974607 -0.5885109189 0.5400518746 -0.6417178682 -0.3276115849 -0.1742193586 -0.2858873027 -0.6438569196 0.1344092682 -0.1201131516 -0.2908748256 -0.4622756376 -0.4438088581 -0.4614027639 -0.1958259314 -0.4307797126 -0.2105692290 -0.1279168012 -0.5738016789 -0.0812661729 -0.1236216653 -0.6255478018 -0.1275507252 0.0525644924 -0.3594652280 -0.1107584521 -0.1729504052 1.7118216408 -0.6358554663 -0.2774929264 -0.0161048127 1.4686215041 -0.5388712714 -0.4598500528 -0.0295426243 -0.3605136508 -0.3300086861 0.2966985877 -0.5185477447 -0.4101334721 -0.4285651074 1.4150343024 -0.1714418886 0.9934640553 -0.2568022525 -0.1621709752 -0.0579400805 1.4590042110 -0.1793166745 -0.1525001589 -0.0303431248 -0.1530970277 -0.0300601311 -0.1636723271 -0.0572641218 -0.6020227562 -0.5316148412 -0.4120390434 -0.3841201724 -0.4008700538 -0.3478664160 -0.6388831102 -0.1405874917 -0.0761006978 -0.3340996540 -0.5106340610 -0.4607415101 -0.5792215545 -0.4171166588 -0.1991914260 0.9245806072 -0.1614172010 0.7476311512 -0.2888505437 -0.6253860481 -0.4426266632 -0.1946814378 -0.2646646529 -0.4275178369 -0.4433523902 0.1942483254 -0.3235049545 -0.5520742075 -0.4237716488 -0.1917157720 -0.2235157508 0.9581024810 0.8137354013 -0.5688616164 -0.5856252964 -0.0598178064 -0.0690713326 -0.6310972603 -0.5383616051 -0.6400058546 -0.5214724701 0.6404269867 0.0658359417 -0.0754696667 -0.1498990180 0.7757535025 -0.6450018085 -0.3006378741 -0.0714986573 -0.5963607149 -0.5685741870 -0.4285560950 -0.2433363538 -0.5997750406 -0.6413734902 -0.5870216145 -0.4088771041 -0.2852010160 -0.6246966184 -0.6388347742 -0.2790481734 -0.2648019003 -0.5499831345 -0.5261963140 -0.4726254770 -0.2248755372 -0.6449559430 -0.5405046441 -0.6395464823 -0.5571644858 0.2793431056 -0.6014498136 -0.3916779296 -0.1076957708 -0.0462141267 -0.4664014652 -0.5324906414 1.1803156686 -0.3706831068 -0.5457535341 -0.4505736343 -0.1807333537 -0.5209271783 -0.5239183789 -0.6421223681 -0.2852764553 -0.2167440180 -0.3340843005 -0.2811566575 -0.4086657617 -0.5866713491 -0.6066858464 -0.3850471982 -0.1750479209 -0.1669811978 -0.6076675445 -0.3361783773 -0.6399428040 0.0907635164 0.1326773009 -0.1226895887 -0.1200362265 -0.4822982360 -0.6443869043 -0.0765364228 0.6942710388 -0.3103999649 -0.5837474142 -0.3314383652 -0.5381671881 -0.6385906227 -0.6292911757 -0.2669782888 -0.2810901394 -0.5751404562 -0.4215512511 -0.3138508893 -0.6447786436 -0.0291705339 1.4760813198 -0.3050865674 -0.4766752756 -0.5576087936 -0.5906628682 -0.5821350325 -0.4041246217 -0.4137597766 -0.2275477319 -0.2028883543 -0.3313306989 -0.6107661958 -0.3801385815 -0.1750105486 0.2533014492 -0.5609546309 -0.4123393383 -0.1095265997 0.3906697029 -0.5836849006 -0.4368779806 -0.0988305880 -0.2316317343 -0.5816936438 -0.4143579044 -0.1598146182 -0.6213259475 -0.5468949678 -0.2227265132 -0.2617649983 -0.5550338897 -0.4498591034 -0.1970405818 -0.4428269774 -0.6434207987 -0.0542147772 1.0450764019 -0.3183100172 -0.6455715233 -0.4870660688 0.3787846587 -0.5148460960 -0.4840965944 -0.0994783489 -0.5603059556 0.2344661866 -0.4517544077 0.3261300033 0.0131082807 -0.0985271082 -0.1551493393 -0.3899787760 -0.5906144220 -0.4042017541 -0.1846175414 -0.1717793786 -0.1070593279 -0.4747914956 -0.4521310330 -0.6446156636 -0.6457693799 -0.3133906529 -0.2939137815 -0.3575007530 0.5898678037 -0.4985140547 -0.5005663819 -0.0838997326 -0.6423664289 -0.6440836828 -0.5248665669 1.7325506310 -0.3282625510 -0.1749999872 -0.0124180143 -0.3298340700 -0.0124180143 1.7727959639 -0.1749999874 -0.6450312489 -0.6398840940 -0.3340003648 -0.2974775005 -0.0506088656 -0.4780995578 -0.5188229148 -0.1380419141 -0.6448570751 -0.6460363064 -0.3014945431 -0.3170377373 -0.6343568074 -0.0476282804 -0.3435834698 1.1536299382 -0.6413647060 -0.0112735502 1.7943148361 -0.3260141487 -0.3710059741 1.7934020391 -0.0113104869 -0.6171728042 0.3765545747 -0.2284656393 -0.1043236144 -0.1288719868 -0.6300577496 -0.6406833734 -0.6064907931 -0.6190168566 -0.3855689854 -0.3693119824 -0.2690505512 -0.2848882116 -0.0883967436 -0.2963717470 -0.5669096917 -0.2092920457 -0.1568102565 -0.4301288507 -0.3671190882 -0.3631430559 -0.0443772813 -0.6085836086 -0.3826832528 -0.1374410239 -0.5248816770 -0.6452653639 -0.6116041374 -0.3791642862 -0.3108862334 -0.5515503245 -0.6121972276 -0.3783826215 -0.2249734368 -0.4512505000 -0.3095172773 -0.4848322686 -0.6125386172 -0.5018807519 1.7788112756 -0.5215975623 -0.4774416636 -0.0121434174 -0.5435820286 -0.5205301327 -0.2149416135 -0.4542956403 -0.3206941114 -0.5604898411 -0.4960656671 -0.0274566186 -0.0107899521 -0.0274566184 -0.0107899522 1.8027973321 1.5067832143 1.8239795801 1.5267377420 -0.5567183330 -0.4653921099 -0.4412579409 1.0347138196 -0.6050084988 -0.3871947910 -0.0549470465 -0.6004138429 -0.6446568749 -0.3167464571 -0.2459123252 -0.4465830766 -0.3567201034 1.5247786549 -0.6444652172 1.1261536880 -0