<?xml version="1.0"?>
<VTKFile type="UnstructuredGrid" version="0.1" byte_order="LittleEndian">
<UnstructuredGrid>
<Piece NumberOfPoints="568" NumberOfCells="1054">
<Points>
<DataArray type="Float64" NumberOfComponents="3" format="ascii">
0 0 0 0.0499999999998997 0 0 0.0323698570487533 0 0.032369857048862 0.0584335251122665 0 0.0584335251122145 0 0 0.050000000000208 0.0999999999998147 0 0 0.0944578555792846 0 0.0400584584694184 0.100180388484599 0 0.100180388484598 0.0400584584693195 0 0.0944578555791577 0 0 0.100000000000416 0 0 0.150000000000624 0.0372540436000893 0 0.175000000000728 0.0537753324385368 0 0.132500500443006 0.0898428037257154 0 0.138184120871427 0.122947659685672 0 0.148251464161954 0.0827908697357757 0 0.179012452750626 0.0955430374569856 0 0.221932619299632 0.0564522287083799 0 0.234565808376616 0 0 0.200000000000832 0.206511205763931 0 0.201999059545956 0.210579470972425 0 0.241746964894887 0.158053632507308 0 0.226801358162853 0.126538462979429 0 0.191587327531096 0.169681685166811 0 0.169007707698734 0.189514053672166 0 0.127889181471804 0.224783079246026 0 0.152915391050455 0.218515661667958 0 0.102945845538754 0.148129220795753 0 0.111676837264361 0.181725902897582 0 0.0816119740612928 0.134291107470439 0 0.0529263508909097 0.174999999999631 0 0.0372540436003339 0.149999999999704 0 0 0.234565808376335 0 0.0564522287085382 0.199999999999558 0 0 0.249999999999412 0 0 0.28250371532178 0 0.0483144399603462 0.299999999999266 0 0 0.349999999999121 0 0 0.362934108682713 0 0.0437430672928097 0.324076644128682 0 0.0314799042223748 0.32323905878353 0 0.0687975548746066 0.355435985827796 0 0.0829820156323059 0.370066139215042 0 0.112711478099945 0.332370486659624 0 0.113658128449525 0.296449059460973 0 0.0973839869435186 0.256015509872872 0 0.102726151761334 0.482933735686196 0 0.036430254038082 0.499999999998694 0 0 0.449999999998829 0 0 0.446807284450845 0 0.0521976235906551 0.406855818272412 0 0.0411398773125118 0.399999999998975 0 0 0.391603628895193 0 0.0799582037664994 0.431620875905919 0 0.0861159281096704 0.465320460451153 0 0.11204624114225 0.475250269534714 0 0.0771854076092873 0.49991194100589 0 0.160933639030225 0.457435186971747 0 0.157395356663377 0.432407360090088 0 0.182056809654028 0.413481429396996 0 0.130417648988163 0.396865073444171 0 0.166969430130097 0.380539743514862 0 0.204826435917647 0.425115862935563 0 0.221781893189434 0.461284420728544 0 0.202747939470428 0.499999999999971 0 0.219686411149829 0.303294794221966 0 0.157138773489018 0.263189497696013 0 0.146101733972573 0.360183427519293 0 0.1532358220307 0.333525318397743 0 0.185977348903938 0.331796839804983 0 0.222301993972031 0.293466873404081 0 0.2438490113662 0.302507736483923 0 0.202679241722634 0.260171965190135 0 0.20370391303005 0.25082138072345 0 0.257700107422368 0.257256883790806 0 0.292714150215995 0.292857142857117 0 0.292857142857164 0.32267250342477 0 0.271586241564922 0.355853377085554 0 0.256080223679255 0.354689053335556 0 0.303548508232254 0.32234854076139 0 0.317299409200743 0.348047572662274 0 0.35750068079406 0.289363634335678 0 0.340960017338183 0.484515229071252 0 0.297989876574045 0.453705345379894 0 0.252192411027838 0.431712919666742 0 0.304532149691815 0.403180559588812 0 0.256035021113984 0.391620987711813 0 0.295036992928546 0.391208871887456 0 0.334075776884043 0.43301393728221 0 0.359843205574921 0.499508526679881 0 0.371773848925684 0.472532117365031 0 0.340817108308049 0.464544361631721 0 0.388784993935 0.461024257085337 0 0.432541991343326 0.429224645442849 0 0.406303405311217 0.390192470571844 0 0.378596535290629 0.394962734081697 0 0.417765388787338 0.377023860747172 0 0.458194175644768 0.410749527734446 0 0.49037725997835 0.42316408760147 0 0.448010319542076 0.461750160254385 0 0.473470497775223 0.297960451166723 0 0.430159604944108 0.254496517406595 0 0.388081413464771 0.310194531583981 0 0.393298597389873 0.353852897913884 0 0.401592772894755 0.333826635273302 0 0.441301250475035 0.33651319436469 0 0.478344123936324 0.301341353129557 0 0.468795744513304 0.263640853143903 0 0.447835230599158 0.262260501478394 0 0.491100193217861 0.191981339151156 0 0.465860267956458 0.232918092237015 0 0.465697476923766 0.220807132193075 0 0.431630396214116 0.198701717250423 0 0.388614329545475 0.178214876716296 0 0.431200559870281 0.148219229256148 0 0.406253117897731 0.143725818414876 0 0.453076999838284 0.158636587251565 0 0.494899727783262 0.108962737982323 0 0.486955813111844 0.0652696782179796 0 0.484988222822282 0.0294449071642091 0 0.475000000001966 0.0439035813198221 0 0.439659589760324 0 0 0.450000000001872 0.0603559089619468 0 0.393693103819969 0 0 0.400000000001664 0.0970894652491675 0 0.436051775609807 0.11010057308181 0 0.381520439012282 0.0751181105850588 0 0.339671926372903 0.118558570079024 0 0.33658228590827 0 0 0.350000000001456 0.0339288497681721 0 0.363039674760657 0.0337982312426103 0 0.328047235696734 0 0 0.300000000001248 0.0535374231203114 0 0.287214659047084 0 0 0.25000000000104 0.100782157019327 0 0.304316158596513 0.110490343117189 0 0.262894191896946 0.149203671042653 0 0.305415470554338 0.166706396151242 0 0.266399149631259 0.20678054058387 0 0.285848384604081 0.19325512052992 0 0.333066639853417 0.240949412440173 0 0.324360086299987 0.222132304923478 0 0.358478489635738 0.154014700871176 0 0.360307484821747 1 0 0.199999999999558 1 0 0.249999999999412 0.943547771291459 0 0.234565808376336 0.898029231958049 0 0.218113670463348 0.875965964657724 0 0.188671534969819 0.918388025938709 0 0.181725902897578 0.89159184379671 0 0.144940729928161 0.947073649109094 0 0.134291107470436 0.962745956399668 0 0.174999999999631 1 0 0.149999999999704 1 0 0.0999999999998147 0.95994154153058 0 0.0944578555792777 1 0 0.0499999999998997 0.967630142951144 0 0.0323698570487739 0.941566474887782 0 0.0584335251122567 0.949999999999868 0 0 1 0 0 0.899999999999737 0 0 0.905542144420816 0 0.0400584584693472 0.899819611515404 0 0.100180388484597 0.851748535838072 0 0.122947659685686 0.820987547249418 0 0.082790869735818 0.861815879128586 0 0.0898428037257433 0.867499499556973 0 0.0537753324385871 0.824999999999539 0 0.0372540436001473 0.849999999999605 0 0 0.799999999999473 0 0 0.765434191623447 0 0.0564522287084209 0.7780673807004 0 0.0955430374570364 0.773191874618386 0 0.158041446818582 0.8084117701731 0 0.126536838220957 0.830992292301269 0 0.169681685166797 0.847463457920405 0 0.224922585262252 0.75825654232551 0 0.210577746625068 0.798050551354315 0 0.206528181807588 0.714151615395936 0 0.206780540583867 0.675639913700026 0 0.240949412440159 0.641519155209684 0 0.222073721915425 0.66693336014661 0 0.19325512052991 0.639692515178267 0 0.154014700871159 0.694577762226911 0 0.149191485353933 0.733589571670804 0 0.166686086670045 0.737034752306002 0 0.110362393385653 0.695641571397353 0 0.100785591047804 0.712582289902801 0 0.053690952490469 0.69999999999921 0 0 0.749999999999342 0 0 0.649999999999078 0 0 0.671923112404063 0 0.033820651404646 0.636941794370196 0 0.033931461840545 0.660308735431868 0 0.0751327324298776 0.663400901306853 0 0.118556309497793 0.618379570515033 0 0.110081182566408 0.563157639756722 0 0.0969177802293014 0.606216904754687 0 0.0603384574980944 0.599999999998947 0 0 0.524999999998754 0 0.0294449071644693 0.549999999998815 0 0 0.560265670190245 0 0.043887089595726 0.51521969278952 0 0.0653103891842502 0.51240296464009 0 0.109203413285136 0.546187429262561 0 0.143988711977319 0.59356619921281 0 0.148227209036974 0.568799440129754 0 0.178214876716346 0.611385670454583 0 0.198701717250421 0.56832385264224 0 0.220657752777859 0.53283923177677 0 0.231918011634459 0.533476437237596 0 0.192249179809595 0.529068381326852 0 0.296767349982275 0.506970500720068 0 0.261848576473603 0.551767140035207 0 0.262647936455119 0.611904455607634 0 0.254145019358249 0.606282366862954 0 0.309768611599626 0.569840395055894 0 0.297960451166727 0.593894738990312 0 0.350725370544676 0.558698749524967 0 0.333826635273306 0.515142495892173 0 0.331492304042335 0.547156354908806 0 0.378290160268621 0.548764996868246 0 0.422732786052302 0.501650326487665 0 0.409291525966516 0.507537582058111 0 0.450656287361328 0.547290971159573 0 0.466592622183862 0.622054152609805 0 0.471983703675299 0.584577441354514 0 0.479658227811018 0.59238418396128 0 0.440935424755556 0.60317301798433 0 0.3922886399308 0.66592422311596 0 0.391208871887463 0.640156794425081 0 0.433013937282217 0.663996179153263 0 0.467007775260291 0.700933926817415 0 0.485968262653744 0.746978743980493 0 0.456354736824991 0.69573605525801 0 0.431605534881039 0.704963007071456 0 0.39162098771182 0.743872884998055 0 0.403474936416048 0.74208521326296 0 0.361644603977183 0.72749610249007 0 0.324978965826624 0.696451491767748 0 0.354689053335561 0.642499319205942 0 0.34804757266228 0.682695090270057 0 0.322338668786372 0.658998728692795 0 0.289289594523035 0.707285849784001 0 0.257256883790818 0.742299892577623 0 0.250821380723454 0.707142857142839 0 0.292857142857124 0.7979239913336 0 0.302191591282119 0.756150988633799 0 0.293466873404077 0.796296086969941 0 0.260171965190114 0.85389826602741 0 0.263189497696004 0.843199238531482 0 0.303647347655126 0.818208886997305 0 0.330801675951114 0.846764177969299 0 0.360183427519295 0.777698006027966 0 0.331796839804975 0.795608442104084 0 0.382986983844802 0.779168834391626 0 0.425970687343404 0.797388206209471 0 0.462014871181098 0.780313588850174 0 0.499999999999976 0.839066360969777 0 0.499911941005896 0.843620179032071 0 0.457571210232621 0.869582351011839 0 0.413481429397001 0.817943190345974 0 0.432407360090094 0.833103049540192 0 0.397272946832499 0.920041796233501 0 0.391603628895199 0.913712762441372 0 0.432014430352552 0.887953758857752 0 0.465320460451158 0.922787458269957 0 0.475312605581821 1 0 0.499999999998694 0.963562456198133 0 0.482950482683927 0.947736768535276 0 0.446958007430409 1 0 0.449999999998829 0.958860122687489 0 0.406855818272416 1 0 0.399999999998975 1 0 0.349999999999121 0.9
[...]
<CellData Scalars="pressure_p0," Vectors="velocity_p0," Tensors="">
<DataArray type="Float64" Name="pressure_p0" format="ascii">
-0.0274491804820861 -0.0107862398774351 -0.0302560722924503 -0.046919553706798 -0.0309714036708224 -0.0133445910988702 -0.0328132657493515 -0.0643412130513216 -0.0843141397155676 -0.0661833879772756 -0.108992527164058 -0.123554110476828 -0.119951563537425 -0.0814609779817941 -0.0676062130154078 -0.10894634186686 -0.12745620215831 -0.152447183149925 -0.174948364837562 -0.162105906800171 -0.14982704846408 -0.155064738282797 -0.128791079946523 -0.172860707087615 -0.237147017252386 -0.211769630901109 -0.197429486971673 -0.23974291676732 -0.228142905506529 -0.203134457398324 -0.196128594766452 -0.215761306585907 -0.234346766808627 -0.223451115982804 -0.213361232018613 -0.244931340004991 -0.195708966949556 -0.19918537637154 -0.169518445478983 -0.142882224701943 -0.136096044169576 -0.149846298932199 -0.127836059314238 -0.174554429990157 -0.18613944181445 -0.167514992102942 -0.133855045536524 -0.119463355034978 -0.104071453609323 -0.0802783689562714 -0.0873237848766854 -0.106975166263886 -0.0820030393552279 -0.0881927671509194 -0.0572137624390051 -0.0124071873556301 -0.0300330435806043 -0.0176272925342784 -0.0583921943799231 -0.0312106255579923 -0.0188050632016105 -0.0160998809938963 -0.0349057673730975 -0.0495264939703624 -0.0265945090984502 -0.0104934672629841 -0.0250780063016768 -0.0145846394390591 -0.0480105206859191 -0.0932737686563226 -0.0884827979827579 -0.0651816515991121 -0.0689087068899402 -0.0919004569633159 -0.103126897576686 -0.12271259345673 -0.115364985479442 -0.0691327691713541 -0.08278260900365 -0.0714874624123294 -0.0596587712765274 -0.0121475894501866 -0.029553304374184 -0.0552891421092222 -0.0598378067452807 -0.0311239166442874 -0.0137183204930889 -0.0283030956382847 -0.0549623497521638 -0.107717325275792 -0.0988550675594904 -0.109552855436538 -0.0690922218985738 -0.0918076797808868 -0.0718557446484322 -0.0995007432709169 -0.173703978978484 -0.127413390399608 -0.143478051446393 -0.133310897360991 -0.18074620875453 -0.159834345008462 -0.156643792017208 -0.132139129773087 -0.150225655706863 -0.175022165430653 -0.184630727841669 -0.227548997989772 -0.238979344923596 -0.243329458401423 -0.202896796070566 -0.202202191319514 -0.225570880357613 -0.22486811416625 -0.244557612597056 -0.194457413989305 -0.168941479216997 -0.133510952895989 -0.1413403391641 -0.126543728811338 -0.181351155462272 -0.18191603718655 -0.165445292123007 -0.203643246910427 -0.204368243742044 -0.227735884528655 -0.249985147842666 -0.245905070066521 -0.222930533556285 -0.216719653241957 -0.187811651267892 -0.235058605338315 -0.281084994751342 -0.26479157076945 -0.30884513694442 -0.269424896868975 -0.277065131270162 -0.284877823955926 -0.297470813858922 -0.29391030562281 -0.33857789821176 -0.326102780123356 -0.331687069673888 -0.363908082568718 -0.351143027522238 -0.374112043769043 -0.319350405899943 -0.3170373018091 -0.270650634379911 -0.284877770616937 -0.285182962088409 -0.270902549435054 -0.26904162660587 -0.310867398574725 -0.311189444423579 -0.35746752417207 -0.35669321456995 -0.332782665786909 -0.335025861539575 -0.314410567794887 -0.363106397280082 -0.367085732470904 -0.347989660626331 -0.323394859840035 -0.410172017592632 -0.430806497915885 -0.389916288170901 -0.384933646575731 -0.428907714121569 -0.409168718138411 -0.423979110727757 -0.381537779744414 -0.40084350896267 -0.399276594716672 -0.425804555757177 -0.441272164260827 -0.465467347941196 -0.486446221313024 -0.470563493817227 -0.451298771607842 -0.492857847153086 -0.496343494983175 -0.47494772301001 -0.452194068975016 -0.422014587203726 -0.403836505405461 -0.384105385999598 -0.379197040302951 -0.433650607740817 -0.421558321370978 -0.412032907198232 -0.462758480913988 -0.459222840968588 -0.482441187193073 -0.487244672699628 -0.491492860662339 -0.448897605447789 -0.446712367142789 -0.468176171522812 -0.469197353560535 -0.485546225888253 -0.486881225071559 -0.477156476434691 -0.454390265786515 -0.442904922249979 -0.448377305881458 -0.422515910728105 -0.417166536639423 -0.402790587906527 -0.378410687263759 -0.382718450016764 -0.38508432389621 -0.4301959984949 -0.408713128093165 -0.431811119926817 -0.450053930461583 -0.471268543274435 -0.478291038470275 -0.498822519749164 -0.469318957084739 -0.453564387504957 -0.458695769746342 -0.474970039357975 -0.497292972444473 -0.492305174116726 -0.466533268577496 -0.454879070254953 -0.429891955928207 -0.411129858248632 -0.385592481761432 -0.407963672793012 -0.423147018794138 -0.403773708378222 -0.352606931248993 -0.371645880038907 -0.315437570475647 -0.326861549541041 -0.347039794707563 -0.371027268084291 -0.36548304143446 -0.343596191724779 -0.318311306934468 -0.326020077113196 -0.305082380360197 -0.257227267548656 -0.279052673913429 -0.290857429729438 -0.310396124015531 -0.284786524156204 -0.261521244197433 -0.251981499289763 -0.278209129846423 -0.30811112194036 -0.285871286875015 -0.264634607945591 -0.278744444951785 -0.261740604494377 -0.300975357795406 -0.314432221056286 -0.356988893760616 -0.338651507789401 -0.360075150684202 -0.360685675169208 -0.359490209059952 -0.33411326471055 -0.332942870415923 -0.197017526092501 -0.203113529145168 -0.228112864738619 -0.236150732190654 -0.23293450271779 -0.196081365761875 -0.211384067339342 -0.171691311135853 -0.153574317919293 -0.126398416549202 -0.163599064674279 -0.174933588641705 -0.153034434791 -0.128045117158527 -0.109536321201482 -0.067600249240172 -0.0814539594004494 -0.0469145122798914 -0.030252727095155 -0.0107849062483368 -0.027445920959822 -0.0133433810985754 -0.0328103958085897 -0.031252833088138 -0.0812042680130767 -0.0646229710130617 -0.0661802643812366 -0.0843097173292824 -0.109585267411762 -0.122609765285269 -0.104249184933423 -0.0984547707387901 -0.110683579707979 -0.0754096251762509 -0.0578922998836266 -0.0124075748739201 -0.0303164973376467 -0.0179097220060972 -0.0188054784086868 -0.0312125590022017 -0.0587892388455788 -0.087408467121425 -0.0782121477367747 -0.101558863232044 -0.12126044444503 -0.17837736548829 -0.178006707090201 -0.126640690249048 -0.151342367461584 -0.139638320011969 -0.145769124984704 -0.167674313915953 -0.200294912360118 -0.194336177335537 -0.210480936437763 -0.247966658711654 -0.23047015741743 -0.249359671437013 -0.225697605648013 -0.240473389792915 -0.191649937339164 -0.194632133233915 -0.222680325740442 -0.238248853677435 -0.234961571171774 -0.239026931688587 -0.218728233278457 -0.204647965822708 -0.213627240122454 -0.165457455312654 -0.181964132710415 -0.127532117291279 -0.140561344295899 -0.183039616818211 -0.17417720341452 -0.144977090832191 -0.142037718505425 -0.120078709647364 -0.0882500639925023 -0.0765156468761666 -0.0734700586836099 -0.036696711653581 -0.0291614045503182 -0.0178897161384182 -0.0113090937462266 -0.0225797232339459 -0.0112706200691236 -0.0542007236825555 -0.047618922264986 -0.056459631587171 -0.0818411462835927 -0.122816270001005 -0.0981369826688255 -0.101240441781159 -0.118403077868903 -0.0670498878283322 -0.0891089998936626 -0.0314206612258255 -0.0347419234598737 -0.0146301018421801 -0.00981717657279847 -0.0219647831614824 -0.0244477063349469 -0.0462225294799785 -0.0437398135740584 -0.0839184779733144 -0.0904899934717369 -0.0687134040420894 -0.116712020101086 -0.138052967098041 -0.165725947325462 -0.171478773909559 -0.129710391623206 -0.137426093071995 -0.16696159894559 -0.175031626175272 -0.156803438758486 -0.199171243643454 -0.224945134364513 -0.224474760156705 -0.245788394250285 -0.23838227518848 -0.237797264776697 -0.214604184168835 -0.190953844823201 -0.214923708692588 -0.197025826837514 -0.309486265960287 -0.285758580053007 -0.285502030629428 -0.308713366985516 -0.252110938501124 -0.273722577620635 -0.271553778155751 -0.287264228547704 -0.313826253880226 -0.331422546044531 -0.33617480310557 -0.363696811802033 -0.35426566020642 -0.373769722756296 -0.34784289916915 -0.320661651275687 -0.36048901994257 -0.386427759479024 -0.403429168015203 -0.42755311062104 -0.446669102730777 -0.492101379008845 -0.485087105066706 -0.47267649776262 -0.48998563368459 -0.497988543440483 -0.443449171427241 -0.462435605600119 -0.448707077799801 -0.464247309965071 -0.422127522084479 -0.418681773207979 -0.397778576575645 -0.405550323998703 -0.377208922959811 -0.418668453356338 -0.457405096413148 -0.443944626707379 -0.461589419664052 -0.485605907144525 -0.480955264079797 -0.483120012666912 -0.458027285519868 -0.430525069386712 -0.408947360115783 -0.379208845884811 -0.404862756439518 -0.385612117003096 -0.347116913504875 -0.339476106723713 -0.31338659448039 -0.334009109848283 -0.369345039766654 -0.364673695909707 -0.315692370575714 -0.31988895325527 -0.34170284478922 -0.301484212269791 -0.261435082812394 -0.284378360593449 -0.262472636753735 -0.279780326873806 -0.279022130841403 -0.26695014022938 -0.30375470674758 -0.288627648464187 -0.285241115608526 -0.309130660581666 -0.268114462238073 -0.275614920935132 -0.287706133218456 -0.312181589449067 -0.331517657751057 -0.331872338111443 -0.353994277004839 -0.357980172648163 -0.348521264521862 -0.321576009274611 -0.316736777485375 -0.358815155792424 -0.40416565668373 -0.382721983990634 -0.41379898376923 -0.428632685814974 -0.448132927150423 -0.440139783492179 -0.487274901247791 -0.487770539108218 -0.472794571314896 -0.492478514228638 -0.474233803246618 -0.473142602202804 -0.450659346837109 -0.445440717924272 -0.41438265880742 -0.43447895205839 -0.380143105550718 -0.404225179815109 -0.381204038560472 -0.390303024851879 -0.391677458051879 -0.410145489463446 -0.436923838121257 -0.412353918081356 -0.4575257907165 -0.451409796319396 -0.484294153902282 -0.47761263751638 -0.491101180507791 -0.468378633993979 -0.459948733813814 -0.418940928589387 -0.434592664951736 -0.428597462403123 -0.387189824963955 -0.389989452719869 -0.345710864158185 -0.371031433031032 -0.324647155532489 -0.336702438568202 -0.372300010233839 -0.347140056120815 -0.370021681059212 -0.352385908953839 -0.336709691435391 -0.317060849637975 -0.30058422531215 -0.310613933723661 -0.271818002877344 -0.278249834505887 -0.257613692370291 -0.255610189888965 -0.277429056662893 -0.302129652331304 -0.3097953982597 -0.673650409439319 -0.682310424915589 -0.678534612574339 -0.681298376701895 -0.680366503684754 -0.681780232095521 -0.670692515377549 -0.668565266689188 -0.661204520769798 -0.64116533595847 -0.624509756459076 -0.630004237434736 -0.666249296432294 -0.648435732942175 -0.66127794903252 -0.64576950264819 -0.625120374350699 -0.61189399649928 -0.587607113348222 -0.56939457074212 -0.54475847960353 -0.533266065100253 -0.50762063292439 -0.50256505894514 -0.524819349798787 -0.530041415834769 -0.500890190465332 -0.545854439154805 -0.540281117474205 -0.590363349131308 -0.575701492985294 -0.594352709920203 -0.614552442345231 -0.612341530129668 -0.568839460834951 -0.589955902167157 -0.566977199250665 -0.549131949169583 -0.526347589301419 -0.519349856065641 -0.51321597551172 -0.521995460882431 -0.511034529685969 -0.544622161574919 -0.556434393697818 -0.550793505651573 -0.576647584237782 -0.581873925985765 -0.618658547127676 -0.595718349403136 -0.63750150553582 -0.652647062281623 -0.669254940372178 -0.634891673613154 -0.634213280279865 -0.635451453622105 -0.655789764012054 -0.656494079453501 -0.672608518262525 -0.681358487380538 -0.677479679642897 -0.682239376665273 -0.68132746811534 -0.679778831774777 -0.682669350096303 -0.676165802744278 -0.671468967436701 -0.682196072171677 -0.680653879210325 -0.683067420423332 -0.676392585784498 -0.682649488401756 -0.681312601318637 -0.679385041693854 -0.677899540402807 -0.65287899191366 -0.66174611267228 -0.657726504766859 -0.631567370908427 -0.622384720051923 -0.642102559345626 -0.667903848880415 -0.666049637210995 -0.594595124514729 -0.577124546758794 -0.552024390139109 -0.549845066165817 -0.507115378545663 -0.530519593923122 -0.529065701456342 -0.530179940904091 -0.506043553866221 -0.538968313846033 -0.570187249603155 -0.586120396212108 -0.577517885143854 -0.586791001635675 -0.613386147204758 -0.613890772258084 -0.609046116808565 -0.56373629742647 -0.576147943443789 -0.582665717591253 -0.5408130562828 -0.525543928354994 -0.502274194475941 -0.525576501505413 -0.519108448636236 -0.535340883583467 -0.53240564455899 -0.576322355628978 -0.563089063345591 -0.604438618454004 -0.620732757076049 -0.606038289370321 -0.657766879038123 -0.656656180422233 -0.669958950547593 -0.656973865493726 -0.642862166338352 -0.633956513868358 -0.632591860277567 -0.656251504196091 -0.68197434997809 -0.671318263683793 -0.671376753729785 -0.682269969212439 -0.682455808840525 -0.682147548679264 -0.680906309013144 -0.602244911794396 -0.568736875131296 -0.646495000799187 -0.671828436439538 -0.650868617280717 -0.672702025660829 -0.65191217188743 -0.665415825087822 -0.601248212434334 -0.409353755657006 -0.387489612824192 -0.537959376203737 -0.49041884287179 -0.194315585755419 -0.344692684829445 -0.206334433926443 -0.524005509722391 -0.48343797900493 -0.143261827263692 -0.290270218897269 0.175379513263801 0.588824129656171 0.278885050912785 0.803370677906551 0.881011764935533 1.38325094473332 1.74215485718639 1.40713132966039 1.70837609649271 1.35372814773904 0.801445250749973 0.886602084140581 0.642328415176918 0.190446000275971 0.0482377131507055 0.0754023518246759 0.125297930327974 0.260484390888689 0.329934422222633 0.278514102031757 0.701672381073113 0.639239675090803 1.01241550726366 1.77656230089258 1.69057447726106 1.47229763923609 1.66362414154983 1.446000532113 0.98816814357678 1.29219642182107 0.454687001207088 0.684843218344412 0.598888658818675 -0.0946326361631778 0.0268953092009674 -0.441350850317117 -0.523186154410312 -0.178821711536535 -0.27621089931806 -0.144059517901334 -0.513530988089564 -0.437322647230912 -0.602513909202363 -0.599633874391074 -0.651426621048604 -0.673722133666966 -0.646949220070232 -0.660411508354865 -0.630358572094915 -0.545589041964275 -0.554391596558702 -0.632224424362485 -0.659123232344283 -0.648466720294608 -0.67298710428346 -0.576504743243527 -0.626474772110745 -0.591170020224986 -0.468372260323043 -0.320348306538583 -0.281149251220045 -0.451174656035972 -0.220985461765448 -0.378399646711852 -0.511749091757856 -0.241834905557851 -0.0346177569833433 0.0276449244562787 0.381827744897013 0.340509193679097 0.751443546053977 1.31468475217236 1.61390077357722 1.62138935771442 1.68733380696288 1.31896931937802 0.76043706377749 0.45038598232514 0.566969180857225 -0.0117615098613851 0.171207111719195 0.120003017263243 -0.112729573027464 0.0441307856681221 0.390125087862884 0.692557683463938 0.718965460938052 1.34797583635244 1.32038526513549 1.71492747382366 1.77063951816572 1.4283235047409 1.36828909425321 1.03899379841624 0.44100216496936 0.660696764087314 0.0463314340737438 -0.156710603875357 -0.363067468818818 -0.489840734577241 -0.429645472037667 -0.37214980923655 -0.147739396645368 -0.490685418467831 -0.624452812440216 -0.588653490136932 -0.664933462714701 -0.667894175405158 -0.652971442946978 -0.596521859911563 -0.57648875047555 -0.657598388309829 -0.657200689383976 -0.640072747706405 -0.636737031446754 -0.644463514846912 -0.635976842134768 -0.667771955151485 -0.66471499021528 -0.680707485812948 -0.6819420141738 -0.672087193747683 -0.682180471393896 -0.682426802715423 -0.670163892341891 -0.68171729023818 -0.683414127685428 -0.678010726239855 -0.682984607959166 -0.676250368581079 -0.671484238204143 -0.681770747757914 -0.675579044424699 -0.671531014602477 -0.675034130710965 -0.662056442268836 -0.653629812362138 -0.625172912549754 -0.646693662218547 -0.667930643205472 -0.654234889650905 -0.62619080607797 -0.645855465224436 -0.62422330970504 -0.641607098438604 -0.60628986178706 -0.588794847289803 -0.562644237320332 -0.586665851272811 -0.607809694123416 -0.610481154320568 -0.570893561747 -0.564854973977375 -0.580053723049404 -0.539811612796228 -0.531461737243884 -0.508833117180063 -0.522197952232596 -0.542308406319646 -0.548412401684493 -0.515333273875952 -0.521894780856734 -0.505433990125715 -0.522800422381473 -0.546851610172605 -0.552181235107319 -0.562990256664992 -0.584549200635405 -0.59430597397443 -0.617041212891194 -0.607542571617375 -0.615885288624573 -0.594333190792593 -0.614619506507584 -0.58507440729864 -0.570613088962036 -0.55127279144974 -0.559146061609524 -0.510670492204641 -0.526832025536397 -0.511458609072405 -0.516371434598668 -0.542412590891997 -0.521974195252768 -0.501291138542224 -0.536415880102015 -0.539237948722938 -0.558608857527095 -0.541417613101243 -0.580795141978344 -0.592301627976113 -0.619018349663501 -0.617910971398302 -0.594144910698434 -0.612011568115384 -0.569242661251644 -0.59026693301707 -0.561948366815167 -0.521492763030997 -0.539061930615173 -0.533396481991878 -0.55386977512621 -0.51233304922062 -0.511018593529262 -0.558182076653863 -0.582161911247619 -0.597689476557733 -0.607017960953831 -0.571210214993475 -0.591135980354231 -0.56212045706667 -0.599171823615694 -0.616535052822997 -0.574048309366833 -0.670140582593089 -0.638506264577169 -0.646026009660255 -0.664262050744323 -0.662027635938478 -0.643369291252866 -0.628623581200122 -0.622125669249376 -0.632805899215579 -0.656804739471398 -0.667429054299581 -0.680872312863361 -0.682214280925886 -0.681866156489374 -0.671662023027296 -0.683782390655381 -0.67912995048657 -0.68141080000712 -0.656344434196276 -0.670200596907906 -0.651937547387147 -0.646026456761353 -0.626917622290861 -0.63088724328261 -0.668475723217661 -0.665732675854854 -0.650344237133415 -0.68095678882691 -0.676455834951615 -0.681641117573997 -0.681495791271041 -0.683899588839285 -0.674966729556697 -0.682726966780911 -0.68265917436677 -0.665200882921777 -0.645404478145353 -0.576473902614321 -0.661198654936188 -0.667567163830509 -0.638317170908797 -0.607082995755725 -0.624877236656017 -0.445240334026154 -0.528155228113089 -0.149085696591463 -0.2708534920448 -0.299626170669203 -0.276111823594348 -0.48632558147876 -0.527461703023892 -0.559059525463746 -0.630941852056577 -0.667350754433934 -0.667100319007327 -0.629983843716907 -0.581501940763328 -0.589257655858132 -0.672288856607867 -0.645260249261765 -0.647922308767178 -0.447893705789751 -0.240464301083642 -0.167098692586237 -0.389003653277696 -0.492569772040544 -0.472684225862692 -0.245990158595803 -0.44103935716173 0.301506391682145 0.398159277329949 -0.0349475766003847 0.646546151327843 0.675707568195308 -0.0500975926855855 0.322715369376449 1.3465907861263 1.69132497180074 1.28373610576097 1.05215528654902 1.4875128390929 1.53768325521855 1.79161873746935 1.09877796483025 0.337637540647465 0.509816475201641 0.573411281854926 -0.0688623230005023 0.187555901388418 -0.104178240778631 0.151327131163855 0.429272963298232 1.01939314927506 0.897130271481273 0.858260211231018 1.5224995896936 1.75926929716651 1.75959591270977 1.38983218270925 1.24483017010206 1.6233613679608 1.6021743789574 1.34812391353514 0.819119580369516 1.3703158585446 1.62747623698559 1.73469992468061 0.838743660409698 0.427496968866528 0.337526526954258 0.0913133501693894 0.345314246582819 0.486932667672963 0.157753657252896 -0.0778180329272636 -0.506435558297621 -0.508905997057392 -0.353424360740754 -0.133257269279024 -0.222423800567311 -0.289715546980706 -0.462254951708962 -0.587385063995939 -0.673800590703316 -0.566552688747332 -0.61839757121957 -0.661615281632612 -0.646151352480075 -0.652500427048501 -0.668135795196765 -0.561178598036646 -0.588895750308125 -0.571630845722309 -0.648262302500868 -0.662764170831329 -0.674444112078411 -0.583243581366713 -0.618508832256611 -0.45682339656227 -0.405935207685372 -0.485050671152182 -0.186598464257951 -0.13611242156763 -0.354467792391764 -0.346890701112498 -0.486849602550739 -0.14990573937402 0.053063138093571 0.659374420250452 0.440551121134172 -0.0708287614186697 0.0481547659521132 0.689577484591696 0.387113529896073 0.721383375844776 1.31944512412189 1.71486207536864 1.35336070720825 1.06077552459267 1.39221190252244 1.45121773379275 1.79551021285227 
</DataArray>