<?xml version="1.0"?>
<VTKFile type="UnstructuredGrid" version="0.1" byte_order="LittleEndian">
<UnstructuredGrid>
<Piece NumberOfPoints="568" NumberOfCells="1054">
<Points>
<DataArray type="Float64" NumberOfComponents="3" format="ascii">
0 0 0 0 0 1 1 0 1 1 0 0 0.0499999999998997 0 0 0.0999999999998147 0 0 0.149999999999704 0 0 0.199999999999558 0 0 0.249999999999412 0 0 0.299999999999266 0 0 0.349999999999121 0 0 0.399999999998975 0 0 0.449999999998829 0 0 0.499999999998694 0 0 0.549999999998815 0 0 0.599999999998947 0 0 0.649999999999078 0 0 0.69999999999921 0 0 0.749999999999342 0 0 0.799999999999473 0 0 0.849999999999605 0 0 0.899999999999737 0 0 0.949999999999868 0 0 1 0 0.0499999999998997 1 0 0.0999999999998147 1 0 0.149999999999704 1 0 0.199999999999558 1 0 0.249999999999412 1 0 0.299999999999266 1 0 0.349999999999121 1 0 0.399999999998975 1 0 0.449999999998829 1 0 0.499999999998694 1 0 0.549999999998815 1 0 0.599999999998947 1 0 0.649999999999078 1 0 0.69999999999921 1 0 0.749999999999342 1 0 0.799999999999473 1 0 0.849999999999605 1 0 0.899999999999737 1 0 0.949999999999868 0.949999999999792 0 1 0.899999999999584 0 1 0.849999999999653 0 1 0.8 0 1 0.750000000000347 0 1 0.700000000000693 0 1 0.65000000000104 0 1 0.600000000001387 0 1 0.550000000001734 0 1 0.500000000002059 0 1 0.450000000001872 0 1 0.400000000001664 0 1 0.350000000001456 0 1 0.300000000001248 0 1 0.25000000000104 0 1 0.200000000000832 0 1 0.150000000000624 0 1 0.100000000000416 0 1 0.050000000000208 0 1 0 0 0.949999999999792 0 0 0.899999999999584 0 0 0.849999999999653 0 0 0.8 0 0 0.750000000000347 0 0 0.700000000000693 0 0 0.65000000000104 0 0 0.600000000001387 0 0 0.550000000001734 0 0 0.500000000002059 0 0 0.450000000001872 0 0 0.400000000001664 0 0 0.350000000001456 0 0 0.300000000001248 0 0 0.25000000000104 0 0 0.200000000000832 0 0 0.150000000000624 0 0 0.100000000000416 0 0 0.050000000000208 0.502226653699592 0 0.500798105279793 0.707142857142875 0 0.70714285714284 0.292857142857163 0 0.707142857142883 0.707142857142839 0 0.292857142857124 0.292857142857117 0 0.292857142857164 0.500000000000027 0 0.780313588850176 0.219686411149827 0 0.500000000000032 0.780313588850174 0 0.499999999999976 0.499999999999971 0 0.219686411149829 0.828981264636981 0 0.828981264636988 0.171018735363 0 0.828981264636961 0.830992292301269 0 0.169681685166797 0.169681685166811 0 0.169007707698734 0.566105458215672 0 0.637855364617754 0.359843205574921 0 0.566986062717789 0.640156794425081 0 0.433013937282217 0.43301393728221 0 0.359843205574921 0.639816572480707 0 0.846764177969307 0.153235822030693 0 0.639816572480709 0.846764177969299 0 0.360183427519295 0.360183427519293 0 0.1532358220307 0.845985299128842 0 0.639692515178272 0.360307484821742 0 0.845985299128824 0.639692515178267 0 0.154014700871159 0.154014700871176 0 0.360307484821747 0.444910764274186 0 0.666958164990442 0.666173364726698 0 0.558698749524974 0.333826635273302 0 0.441301250475035 0.558698749524967 0 0.333826635273306 0.534679539548824 0 0.887953758857797 0.112046241142205 0 0.534679539548829 0.887953758857752 0 0.465320460451158 0.465320460451153 0 0.11204624114225 0.741047628542423 0 0.903034679802372 0.09696532019762 0 0.741047628542416 0.897273848238657 0 0.256015509872864 0.256015509872872 0 0.102726151761334 0.889607890535965 0 0.737093916685854 0.737034752306002 0 0.110362393385653 0.262835027517091 0 0.88947994080443 0.110490343117189 0 0.262894191896946 0.596525063583957 0 0.743872884998063 0.256203665723615 0 0.596439959595802 0.743872884998055 0 0.403474936416048 0.403180559588812 0 0.256035021113984 0.745854980641756 0 0.61190445560764 0.388095544392376 0 0.745854980641757 0.611904455607634 0 0.254145019358249 0.254496517406595 0 0.388081413464771 0.899819611515394 0 0.899819611515394 0.899819611515404 0 0.100180388484597 0.100180388484608 0 0.899819611515392 0.100180388484599 0 0.100180388484598 0.436842360243263 0 0.903082219770774 0.0970894652491675 0 0.436051775609807 0.903082219770702 0 0.563157639756723 0.563157639756722 0 0.0969177802293014 0.739828034809916 0 0.796296086969917 0.203703913030074 0 0.739828034809895 0.796296086969941 0 0.260171965190114 0.260171965190135 0 0.20370391303005 0.793219459416134 0 0.714151615395938 0.285358113923006 0 0.793384568367665 0.714151615395936 0 0.206780540583867 0.20678054058387 0 0.285848384604081 0.491135371445595 0 0.590322673454512 0.570569728882067 0 0.549717002008972 0.410749527734446 0 0.49037725997835 0.548764996868246 0 0.422732786052302 0.651952427337717 0 0.642499319205946 0.357500680794057 0 0.651952427337724 0.642499319205942 0 0.34804757266228 0.348047572662274 0 0.35750068079406 0.816734378290007 0 0.911591967499351 0.0884080325006478 0 0.816734378290005 0.918388025938709 0 0.181725902897578 0.181725902897582 0 0.0816119740612928 0.918388025938842 0 0.818274097102372 0.820987547249418 0 0.082790869735818 0.181725902897639 0 0.918388025938889 0.0827908697357757 0 0.179012452750626 0.514598063842741 0 0.696052179186911 0.304190818204937 0 0.514839525909669 0.700933926817415 0 0.485968262653744 0.484515229071252 0 0.297989876574045 0.60839637110479 0 0.920041796233482 0.079958203766519 0 0.608396371104796 0.920041796233501 0 0.391603628895199 0.391603628895193 0 0.0799582037664994 0.925009839146434 0 0.660257017830035 0.660308735431868 0 0.0751327324298776 0.339671926372919 0 0.924881889414948 0.0751181105850588 0 0.339671926372903 0.431200559870276 0 0.821785123283707 0.821785123283657 0 0.568799440129759 0.178214876716296 0 0.431200559870281 0.568799440129754 0 0.178214876716346 0.461024257085337 0 0.432541991343326 0.567592639909892 0 0.817943190346016 0.182056809653986 0 0.567592639909897 0.817943190345974 0 0.432407360090094 0.432407360090088 0 0.182056809654028 0.66820316019504 0 0.777698006027969 0.222301993972028 0 0.668203160195031 0.777698006027966 0 0.331796839804975 0.331796839804983 0 0.222301993972031 0.677013139048411 0 0.931034584783507 0.0689654152164879 0 0.677013139048407 0.931034584783525 0 0.322986860951598 0.32323905878353 0 0.0687975548746066 0.433106229890472 0 0.553851223366447 0.584577441354514 0 0.479658227811018 0.499508526679881 0 0.371773848925684 0.447555094957479 0 0.736681699151958 0.736398202194802 0 0.552163199297798 0.263640853143903 0 0.447835230599158 0.551767140035207 0 0.262647936455119 0.394962734081697 0 0.417765388787338 0.484780307210563 0 0.934689610815804 0.0652696782179796 0 0.484988222822282 0.934689610815751 0 0.515219692789521 0.51521969278952 0 0.0653103891842502 0.406811594230137 0 0.615393840960907 0.50008805899412 0 0.839066360969801 0.158636587251565 0 0.494899727783262 0.839066360969777 0 0.499911941005896 0.49991194100589 0 0.160933639030225 0.69635265234489 0 0.843199238531465 0.156800761468528 0 0.696352652344885 0.843199238531482 0 0.303647347655126 0.303294794221966 0 0.157138773489018 0.841738997190305 0 0.773161947347601 0.22683128543363 0 0.841726811501574 0.773191874618386 0 0.158041446818582 0.158053632507308 0 0.226801358162853 0.759050587559852 0 0.675639913700034 0.324360086299978 0 0.759050587559838 0.675639913700026 0 0.240949412440159 0.240949412440173 0 0.324360086299987 0.645310946664442 0 0.696451491767751 0.303298294648964 0 0.645281310016373 0.696451491767748 0 0.354689053335561 0.354689053335556 0 0.303548508232254 0.612270857309967 0 0.607953755545115 0.60317301798433 0 0.3922886399308 0.939677383788167 0 0.606211158354476 0.606216904754687 0 0.0603384574980944 0.393780946557029 0 0.939663167151385 0.0603559089619468 0 0.393693103819969 0.644551636118665 0 0.503693017945511 0.941566474887782 0 0.0584335251122567 0.0584335251122665 0 0.0584335251122145 0.941566474887756 0 0.941566474887743 0.0584335251122541 0 0.941566474887746 0.772947265360282 0 0.945177494177403 0.054822505822595 0 0.772947265360281 0.943547771291459 0 0.234565808376336 0.234565808376335 0 0.0564522287085382 0.943547771291585 0 0.765434191623444 0.765434191623447 0 0.0564522287084209 0.234565808376617 0 0.943547771291626 0.0564522287083799 0 0.234565808376616 0.779534414887006 0 0.839643894606365 0.160356105393624 0 0.779534414886989 0.847463457920405 0 0.224922585262252 0.224783079246026 0 0.152915391050455 0.553192715549249 0 0.947802376409323 0.0521976235906776 0 0.553192715549254 0.947736768535276 0 0.446958007430409 0.446807284450845 0 0.0521976235906551 0.850805684543366 0 0.694583396929753 0.694577762226911 0 0.149191485353933 0.304872872724606 0 0.850974332468232 0.149203671042653 0 0.305415470554338 0.511564395521248 0 0.640438403747068 0.358190746390247 0 0.511022455120299 0.569078044056663 0 0.695641310731086 0.304002436310119 0 0.569745890331047 0.69573605525801 0 0.431605534881039 0.431712919666742 0 0.304532149691815 0.543645263175014 0 0.7469787439805 0.253021256019503 0 0.543645263175019 0.746978743980493 0 0.456354736824991 0.453705345379894 0 0.252192411027838 0.867499499556976 0 0.946224667561405 0.0537753324385964 0 0.867499499556973 0.947073649109094 0 0.134291107470436 0.134291107470439 0 0.0529263508909097 0.947073649109184 0 0.865708892529388 0.867499499556973 0 0.0537753324385871 0.134291107470668 0 0.947073649109213 0.0537753324385368 0 0.132500500443006 0.690231388400378 0 0.606282366862961 0.387580733010998 0 0.693514283724458 0.606282366862954 0 0.309768611599626 0.310194531583981 0 0.393298597389873 0.586518570602945 0 0.869582351011867 0.130417648988135 0 0.586518570602952 0.869582351011839 0 0.413481429397001 0.413481429396996 0 0.130417648988163 0.749178619276549 0 0.742299892577605 0.257700107422386 0 0.749178619276552 0.742299892577623 0 0.250821380723454 0.25082138072345 0 0.257700107422368 0.617013016155199 0 0.795608442104109 0.204391557895898 0 0.617013016155195 0.795608442104084 0 0.382986983844802 0.380539743514862 0 0.204826435917647 0.946628764586275 0 0.712106669609725 0.712582289902801 0 0.053690952490469 0.287214659047097 0 0.946462576879691 0.0535374231203114 0 0.287214659047084 0.851748535838099 0 0.877052340314281 0.12
[...]
<CellData Scalars="pressure_p0," Vectors="velocity_p0," Tensors="">
<DataArray type="Float64" Name="pressure_p0" format="ascii">
-0.727631484425127 -0.577969349987113 -0.422025416336012 -0.271584468993365 -0.637244447759609 -0.63879243262234 -0.405503816366827 -0.377181694826848 -0.933528536549579 -0.743983675716924 -0.257687004909947 -0.0691642734767394 -0.203188602791841 -0.0312354241029574 -0.967066212589428 -0.799723500982896 -0.796811397207486 -0.0312354241028561 -0.968764575897177 -0.203188602792725 -0.805510905186671 -0.510769458452185 -0.487308937395657 -0.194455996550161 -0.981725831392468 -0.774315755120209 -0.228188602791768 -0.0188174095695127 -0.77181139720742 -0.0188174095694736 -0.981182590430542 -0.228188602792829 -0.742513620410837 -0.0367143937329633 -0.963336782723772 -0.257260155808247 -0.82971312999286 -0.864170786167862 -0.753934814027777 -0.577478504710805 -0.422515680092682 -0.245816902863742 -0.237209389786477 -0.12131562588709 -0.762981490240838 -0.878450565341946 -0.919341376175928 -0.720851567443184 -0.27831475527149 -0.0828081928883995 -0.0818507908314601 -0.628280453936811 -0.371628489735051 -0.918155226388668 -0.826274590015501 -0.522949723169597 -0.473166007473205 -0.173692311721343 -0.852516939705602 -0.856387190568202 -0.145856691593548 -0.14297866970835 -0.21344043499786 -0.126707107498859 -0.167764650021592 -0.136191242144966 -0.926496762991916 -0.261558219773548 -0.738211592639675 -0.0735018581948477 -0.873657025952828 -0.786830488404238 -0.588825396684917 -0.0347418490312735 -0.965258752690782 -0.411117564527319 -0.931294973835846 -0.453566529397471 -0.546214121415857 -0.0687050863364259 -0.720702223202759 -0.0178969841634897 -0.98215419229323 -0.279071553016458 -0.128097035823318 -0.0176421169636366 -0.982074889187135 -0.872499833185403 -0.871902964176243 -0.0179251108128624 -0.982357883036404 -0.127500166814682 -0.567636852933326 -0.129711233747865 -0.870288833110199 -0.431793964448607 -0.591698771721112 -0.118408723944228 -0.881591944635842 -0.407941777506607 -0.713242345949293 -0.596009072508834 -0.287291360708201 -0.403846538599584 -0.712890744632832 -0.542743559805245 -0.457976178119925 -0.284904812431233 -0.197097237091181 -0.0584394154567217 -0.937596868422545 -0.805301627079564 -0.802902762908452 -0.0588323806814621 -0.941560584543473 -0.196192753709323 -0.728830979903216 -0.569943704367289 -0.43047840270736 -0.270919860611212 -0.635926804920568 -0.685496591078893 -0.315701926261647 -0.363919765174039 -0.64884769933349 -0.738642876792031 -0.261461342107148 -0.351133839034314 -0.619255141352783 -0.403438157429146 -0.909522805767162 -0.469331937181311 -0.530260099062113 -0.090477194232896 -0.607959448255974 -0.623803678643722 -0.101256741498026 -0.64734136968591 -0.352591550431152 -0.898756833942639 -0.79962634252411 -0.821521662922457 -0.178083771264322 -0.199269375135847 -0.109582987683176 -0.0309949364534427 -0.96872206969736 -0.891013881325785 -0.890417012316637 -0.0312779303026448 -0.969005063546633 -0.108986118674193 -0.639337181926493 -0.817740198022463 -0.18199051288383 -0.360662818073546 -0.58718145872278 -0.911907968794016 -0.764610213975864 -0.914760398026342 -0.789839130558393 -0.810891932388007 -0.821786991610364 -0.771073120775239 -0.800790864050928 -0.230540910753318 -0.200377484078879 -0.18620612120882 -0.174640719431715 -0.933775875977938 -0.0843572563920438 -0.0662241240220669 -0.915642743607979 -0.915642743607975 -0.0662241240220771 -0.0843572563919902 -0.933775875977942 -0.59591399457904 -0.910888669840609 -0.089112473431268 -0.403755106147352 -0.668291678029885 -0.635252711877991 -0.364648499295101 -0.331708321970119 -0.570088343899696 -0.014629029865242 -0.985371030306987 -0.429886529921287 -0.067630460230478 -0.0328306611938776 -0.0328306611938679 -0.932369539769466 -0.967169338806139 -0.932369539769445 -0.0676304602305267 -0.967169338806144 -0.968887499698947 -0.565445632426206 -0.434604608567218 -0.0311125003010556 -0.151419990068779 -0.195798797797561 -0.832959278848541 -0.725217632743925 -0.275669603513748 -0.168981473497214 -0.872605568847503 -0.505511693481312 -0.492545122032383 -0.127394431152537 -0.284808336513514 -0.911727891213817 -0.0882796456413087 -0.714926517696873 -0.685574963080864 -0.78612405603883 -0.213661691184645 -0.314425036919162 -0.858786010959518 -0.668096034027956 -0.331903965972053 -0.141344241323081 -0.803594707720215 -0.848602466258537 -0.530283313793709 -0.506039818169966 -0.699025792959988 -0.765059424045563 -0.234995612271615 -0.300974207040021 -0.935328606869158 -0.890953751831055 -0.109643117178103 -0.890356882821857 -0.0646713931308437 -0.0643883992816422 -0.935611600718431 -0.109046248168921 -0.643021174839121 -0.760899067246443 -0.239056051237944 -0.356973329800165 -0.397770528750574 -0.386451845053607 -0.570763123382733 -0.809366301673577 -0.486919998579917 -0.511131089288 -0.19095640999655 -0.868399254210719 -0.713125267986981 -0.287761968270698 -0.133541498135037 -0.625728517054466 -0.716797442180238 -0.284401075160303 -0.374113342730942 -0.747950028426391 -0.14502997562476 -0.854837622735716 -0.252031566563686 -0.56355821368146 -0.5835908030987 -0.533620646563121 -0.512462658767089 -0.649711589220626 -0.632523481210781 -0.233017255199488 -0.119529129450181 -0.486531296914473 -0.965850309948788 -0.746967799536234 -0.25568183495213 -0.0349222228896282 -0.576544609937509 -0.0670477757743739 -0.932952825947707 -0.423134823063366 -0.836057434499359 -0.668455849624827 -0.331544150375178 -0.165450648141219 -0.592424796457377 -0.335064154524929 -0.314446378191303 -0.985415260227066 -0.628946275981231 -0.371053724018961 -0.0145810224309366 -0.759487808571545 -0.765567877162768 -0.240523697512879 -0.234383661782435 -0.0469344607203101 -0.0302677940536922 -0.0302677940536769 -0.0469344607204282 -0.953065539279613 -0.969732205946324 -0.970901422784248 -0.954234756117512 -0.872348572736773 -0.911775010618051 -0.845166734599099 -0.153652580098725 -0.91796448209255 -0.0820717207388545 -0.126470741961064 -0.0882611922132896 -0.564178551919986 -0.373768056914699 -0.795008976158766 -0.639946061936966 -0.360053153011543 -0.204676853231918 -0.425850779108954 -0.433696066338186 -0.856541587721422 -0.522040020494786 -0.474267870563225 -0.143458412278617 -0.661397712722934 -0.68022485224415 -0.319891945323896 -0.338586702444329 -0.812473105611661 -0.711329698624222 -0.288670301375786 -0.187840642747234 -0.381581048725589 -0.831774164206841 -0.752944886924627 -0.249428016049457 -0.167573679351026 -0.611199148955591 -0.691889457490771 -0.667069757418215 -0.816765304341628 -0.183075715489237 -0.165487102251667 -0.834298881262014 -0.308110165003945 -0.3329298650765 -0.774380573022306 -0.783713184832813 -0.215816645823631 -0.225759297874257 -0.643818582703639 -0.418652283579553 -0.422079333989525 -0.691142478539876 -0.720303011842189 -0.680641497392275 -0.737605588647841 -0.279801207056993 -0.308843770137114 -0.262498630251338 -0.319344751284721 -0.888344401301021 -0.728023593386158 -0.271884689009944 -0.115403957559142 -0.760522180121713 -0.771797220465015 -0.617265207604747 -0.641186274471157 -0.382702174746011 -0.358809475875653 -0.238980560236962 -0.227736217856311 -0.634464311263952 -0.0564675505895057 -0.943539583426647 -0.36546823498451 -0.673881967081252 -0.658310934858108 -0.341691764928071 -0.326116199409019 -0.76491565606044 -0.731846593560792 -0.268153406439215 -0.235084343939539 -0.571910590592557 -0.0137132924375039 -0.418951939423407 -0.581048060576917 -0.986286707562506 -0.081485951859664 -0.0133528194898061 -0.986647180510225 -0.918514048140058 -0.918514048140131 -0.0133528194897824 -0.986647180510229 -0.0814859518599272 -0.637525463545167 -0.721757178287108 -0.142079988469877 -0.857920129724602 -0.278236270694181 -0.727060782231271 -0.516528327434183 -0.483097833399602 -0.270676954691829 -0.539140698172522 -0.354280722028868 -0.47061935909855 -0.82019383569024 -0.642009304228263 -0.357990695771737 -0.181346535617428 -0.971701967789572 -0.609994336556761 -0.390005663443393 -0.0282943148684405 -0.616337789442401 -0.363687194379252 -0.666473632821599 -0.581752117109571 -0.418609448016906 -0.33281704405026 -0.0314233064462131 -0.614378638653589 -0.385577592860763 -0.968578953621664 -0.755147918785693 -0.511581818797637 -0.48777507918168 -0.244575799550424 -0.775473675226984 -0.402775379741454 -0.597219328429735 -0.224501496462176 -0.625339268086228 -0.721245785919178 -0.761768767951135 -0.238286268366046 -0.278754214080815 -0.57709343749664 -0.492932026908122 -0.797171778376461 -0.651471500133038 -0.348528499866964 -0.204368592931205 -0.194425268466289 -0.149937426740331 -0.86671358440211 -0.843376728231517 -0.552579634768016 -0.563550668221706 -0.445457700026927 -0.434486666573239 -0.13328641559793 -0.156623271768523 -0.497958718316962 -0.489947121605465 -0.877403289321899 -0.68934082338074 -0.310659176619276 -0.122726962960687 -0.7549546068447 -0.821496566343635 -0.178435093371232 -0.244982490896333 -0.248042530943706 -0.133914425594787 -0.834598868064432 -0.471278998526001 -0.526526899042196 -0.165723843605713 -0.666834526813686 -0.501402034988764 -0.485556351953182 -0.535501764496868 -0.472682338274994 -0.536690303730071 -0.828838455502401 -0.450045942555008 -0.549489398750151 -0.171484256167753 -0.236231662904182 -0.211468460579087 -0.0873747420028753 -0.0803366827695284 -0.867974571538958 -0.618781133009588 -0.381218866990399 -0.132121649706269 -0.492112882492074 -0.169615499797261 -0.13972206102448 -0.849816526173799 -0.609687398750383 -0.390312601249598 -0.15020763371632 -0.883309641082962 -0.862179379350959 -0.753451862548102 -0.766280791329626 -0.0782620453004251 -0.211836960142291 -0.787465631804958 -0.922026913650116 -0.0874525531837035 -0.239797539857731 -0.760405571666118 -0.912390885271963 -0.714109744523802 -0.825888338912347 -0.174219370869282 -0.285887668263226 -0.709085426803549 -0.879898476409997 -0.120113156595797 -0.290875273682599 -0.462395424916812 -0.443875749141183 -0.461527190931692 -0.845409926328436 -0.807061382704102 -0.210569263565139 -0.127916806020338 -0.576874198759739 -0.0812661748829758 -0.123621669933011 -0.640486535468655 -0.127550730978453 -0.872457970513931 -0.359470069914099 -0.110758455880821 -0.172950414814559 -0.984124478556321 -0.722652044416372 -0.277493232159774 -0.0161048133201154 -0.970457374123733 -0.540094027199898 -0.459969496704388 -0.0295426258762457 -0.36051877107888 -0.826144074147988 -0.893973039935171 -0.519195465587142 -0.410157959173389 -0.428609418685126 -0.967415270384095 -0.847907579048344 -0.942735877149335 -0.836327663210433 -0.16217098439812 -0.0579400819248508 -0.969939868503039 -0.846902964176177 -0.152500166814786 -0.0303431253462448 -0.153097035823257 -0.0300601314970812 -0.163672336789215 -0.0572641228508455 -0.609099688275467 -0.532587262138049 -0.412064206919888 -0.384130683692896 -0.400888443129728 -0.347869699861421 -0.665889939236599 -0.140587498574295 -0.859475873803451 -0.334101747094785 -0.511154036150258 -0.800783722774301 -0.582850989937108 -0.417148428543291 -0.199191448914875 -0.93840136834429 -0.849183577411547 -0.926857134990272 -0.832261870322557 -0.735284496194145 -0.805382485298999 -0.19468145795966 -0.264664833043409 -0.427560199793382 -0.443420277663907 -0.885416309185196 -0.827050460905486 -0.776001804958708 -0.808346831919533 -0.191715791750413 -0.223515794201232 -0.940182190329063 -0.930928663603783 -0.571572007123658 -0.589973225642172 -0.0598178096709458 -0.0690713363962272 -0.648895497032694 -0.539534066904984 -0.668294435222413 -0.522151887968944 -0.919667524319128 -0.873715702053876 -0.0754696686333828 -0.149899024688353 -0.928674677836306 -0.699506737611847 -0.300638538964401 -0.0714986605928238 -0.756334975891589 -0.571342108020972 -0.428600120194814 -0.243336441777085 -0.606253652962667 -0.714825734266869 -0.591521620738346 -0.408900486336303 -0.285201387911448 -0.735197912784748 -0.720951534338455 -0.279048465661552 -0.264802087215244 -0.774815032856903 -0.527017970249437 -0.472789869335355 -0.224875587216032 -0.686695404217086 -0.541726366372527 -0.667296466027367 -0.559108545308567 -0.892400444293683 -0.608307732550951 -0.391692267449034 -0.107695776951536 -0.0462141286481485 -0.466549270861524 -0.533494908163201 -0.953785931524186 -0.819233533140906 -0.547180693878476 -0.450664480501271 -0.180733368595944 -0.521623245971959 -0.783457022312439 -0.714723190041238 -0.28527680995877 -0.216744055372961 -0.824952132523456 -0.833018857805162 -0.408689335771162 -0.591250200121679 -0.614881225137849 -0.385058310754984 -0.17504793433458 -0.166981209052851 -0.615780659881683 -0.336180518268861 -0.666879655625616 -0.876129721998404 -0.879999972861013 -0.122689592699481 -0.120036229970305 -0.48252025156713 -0.689314218078266 -0.0765364253227169 -0.923528540750656 -0.310400914672167 -0.587847136654692 -0.331440205805869 -0.53930761866751 -0.718909533168146 -0.733021530876207 -0.266978469123799 -0.281090466831842 -0.578273837147946 -0.421586484269672 -0.313851899346553 -0.694653156764558 -0.029170534631705 -0.97088811521236 -0.305087298248355 -0.797234977048776 -0.772544875266125 -0.59579802568103 -0.586182252452396 -0.404144202534751 -0.413788343759433 -0.227547783407022 -0.202888379587036 -0.82515855653788 -0.619852213934465 -0.380147786065532 -0.175010562692815 -0.890473393920004 -0.56319241141529 -0.412366496214917 -0.109526606080028 -0.901169406378566 -0.587764688600613 -0.436938773400237 -0.0988305936214442 -0.840209530299369 -0.585612754560113 -0.414387245439865 -0.159814629590763 -0.738186386638108 -0.777339986424135 -0.222726555977463 -0.261765152307112 -0.556882875404955 -0.803257280258026 -0.197040603101267 -0.442897074680285 -0.681405496041499 -0.0542147787749976 -0.945848745017343 -0.318311273705574 -0.686328369068617 -0.487326464786432 -0.900521645987816 -0.515446501601197 -0.484345343557691 -0.0994783540122247 -0.562428784862956 -0.888902773214526 -0.803079531634418 -0.89661008190342 -0.86846538081425 -0.0985271110490825 -0.155149345928003 -0.81555156066345 -0.595777569744194 -0.404222430255798 -0.184617558567257 -0.171779389265186 -0.107059330932486 -0.474974963472115 -0.452222925493292 -0.705778016634324 -0.686620813971385 -0.31339159249004 -0.293914264540943 -0.357505172583198 -0.916100263307151 -0.498882729359015 -0.500978421003812 -0.0838997366928913 -0.674162731428925 -0.68301477100693 -0.525621451783873 -0.98534038119696 -0.825407745862686 -0.174999999999631 -0.0124180145334446 -0.824999999999539 -0.0124180145333824 -0.987581985466635 -0.175000000000728 -0.702214228175961 -0.666000298262548 -0.334002229316186 -0.297478052999306 -0.861958078569151 -0.47831084691113 -0.519500778302852 -0.138041921430893 -0.682945558701899 -0.698621662179203 -0.301495135388844 -0.317038856465363 -0.656344858707373 -0.0476282818916895 -0.343586278943431 -0.952385783961982 -0.673950933561009 -0.0112735504682153 -0.98873392291913 -0.326015745233146 -0.371013224921259 -0.988691231237869 -0.0113104872801817 -0.62897491920179 -0.900534200564739 -0.840770303072454 -0.104323617298675 -0.12887199117266 -0.730307035110829 -0.714499904034059 -0.614387206315745 -0.630667656455935 -0.385580176035017 -0.369318215008188 -0.269050745907262 -0.284888574946685 -0.857879408231075 -0.831132756354471 -0.569517453057671 -0.843189800947843 -0.156810265910213 -0.430176892535432 -0.367125317056245 -0.363148435939324 -0.862559637755192 -0.617210396861628 -0.382693680577253 -0.137441030824847 -0.525640926107557 -0.689112907318389 -0.620728240194813 -0.379172970978281 -0.310887092681614 -0.77498163230969 -0.621603093757305 -0.378391410881995 -0.224973486174698 -0.451340936220209 -0.309518145474103 -0.485066256669149 -0.621976177700237 -0.502268527051221 -0.987856581987292 -0.5223631220175 -0.477650160893817 -0.012143418012694 -0.544915915085864 -0.785366159093518 -0.214941648073971 -0.454396047031447 -0.320695429765972 -0.562625136680155 -0.496405642008603 -0.0274566190163567 -0.0107899523495913 -0.0274566190162245 -0.0107899523496207 -0.989210047650409 -0.972543380983699 -0.990379264488332 -0.973712597821596 -0.558676042490804 -0.465527251721732 -0.441323294658061 -0.945049233200733 -0.612793126924565 -0.387206873075467 -0.0549470494572736 -0.753781699050613 -0.683252268114002 -0.316747559678559 -0.245912415634384 -0.446660565199164 -0.356724330989577 -0.97365379329381 -0.697732317992434 -0.950665321554979 -0.690070031008339 -0.302183262278552 -0.0265981147275737 -0.309845549262662 -0.0495306330191092 -0.801867871655829 -0.899210764098599 -0.661364143018782 -0.780926411095519 -0.218759418295164 -0.338635071929714 -0.101623581804604 -0.197510799860451 -0.384977201607046 -0.883296698169475 -0.458694862853312 -0.540582677886461 -0.116703301830586 -0.711041177741724 -0.724584351063407 -0.491578487880278 -0.469243722776775 -0.507132312428153 -0.529197291309505 -0.911548378502911 -0.663254876754022 -0.336745123245988 -0.0884792329854793 -0.873578659994263 -0.64598123522803 -0.354018764771978 -0.126535142860057 -0.43082993489039 -0.684518756442188 -0.87722782607962 -0.12284446196651 -0.315437971686374 -0.864920082250197 -0.790679543833413 -0.749093107260336 -0.660522108269773 -0.339473469869594 -0.249989486405403 -0.652658503118097 -0.989529314737489 -0.675080273576756 -0.324690030118045 -0.0104933014074583 -0.34802775375869 -0.990185030945264 -0.475000000001965 -0.524999999998755 -0.00981496905482311 -0.196170369443582 -0.104149000357284 -0.323433096308143 -0.464192452080624 -0.448644355237691 -0.454886529921387 -0.975556061252251 -0.0244439989200651 -0.545088343899632 -0.688842846972834 -0.595549766966371 -0.404811798160107 -0.311214973168135 -0.593654056160259 -0.554297762707023 -0.777257661998456 -0.690848231836283 -0.309151768163724 -0.222943415686955 -0.379229996326482 -0.90668173807258 -0.682894318948581 -0.317105681051433 -0.0932798900892168 -0.908217474379629 -0.542587605261945 -0.0917825256204026 -0.399318232324241 -0.502650160893792 -0.0219583870675171 -0.507723391824068 -0.0437285167956005 -0.497363122017577 -0.978041612932556 -0.956271483204491 -0.492359196290985 -0.928167013563471 -0.548758663928754 -0.0718329864365376 -0.819777372287457 -0.687786461703887 -0.31221353829612 -0.18193178803853 -0.459279850018709 -0.761353740410586 -0.551143205899088 -0.44838770124568 -0.238407900289146 -0.974944574964555 -0.654026549556947 -0.345743754137885 -0.0250743238383948 -0.951956103225724 -0.663030929239403 -0.336739374455378 -0.0480068421299304 -0.451428347788261 -0.457549165461844 -0.600742632440002 -0.774094936138913 -0.551665004013458 -0.448113431783164 -0.225574081229233 -0.540982254128711 -0.897062578786976 -0.647586582386255 -0.352413417613756 -0.103117207393925 -0.57478228670951 -0.673076630075616 -0.0981582109918248 -0.901863678395192 -0.326856790292562 -0.931167837087375 -0.629955937667149 -0.370044062332872 -0.068894428897205 -0.934832099937383 -0.652828193648353 -0.347171806351671 -0.0651742125999074 -0.797749751594085 -0.559647462925084 -0.440130972871532 -0.202195547437963 -0.688745289661322 -0.711986467715161 -0.552332439497173 -0.446752199977482 -0.550153922754781 -0.44893019335219 -0.410206170414947 -0.3899501229424 -0.285791912534707 -0.308749843532885 -0.428951905398873 -0.424026371213544 -0.468407031898719 -0.0552710950793415 -0.491160927018423 -0.0596420169438732 -0.944728904920647 -0.531662077913626 -0.94035798305614 -0.508927247004636 -0.730263316088904 -0.696232167096619 -0.303767660695942 -0.269430798596095 -0.285535267676641 -0.762192257388921 -0.747648294156182 -0.530677419730119 -0.513289686630845 -0.485599223380553 -0.468210966913595 -0.252138174854394 -0.237817666419297 -0.4808948322937 -0.785714767947038 -0.477185914960085 -0.522126628676864 -0.214617867531294 -0.273754620970332 -0.722010935840263 -0.652881491543553 -0.347104207713123 -0.277071657825477 -0.457335138739269 -0.652925852763721 -0.022584037748397 -0.977425154156999 -0.347028970152949 -0.797943628119625 -0.678403297653935 -0.32159670234607 -0.203652861532868 -0.676630