<?xml version="1.0"?>
<VTKFile type="UnstructuredGrid" version="0.1" byte_order="LittleEndian">
<UnstructuredGrid>
<Piece NumberOfPoints="568" NumberOfCells="1054">
<Points>
<DataArray type="Float64" NumberOfComponents="3" format="ascii">
0 0 0 0 0 1 1 0 1 1 0 0 0.0499999999998997 0 0 0.0999999999998147 0 0 0.149999999999704 0 0 0.199999999999558 0 0 0.249999999999412 0 0 0.299999999999266 0 0 0.349999999999121 0 0 0.399999999998975 0 0 0.449999999998829 0 0 0.499999999998694 0 0 0.549999999998815 0 0 0.599999999998947 0 0 0.649999999999078 0 0 0.69999999999921 0 0 0.749999999999342 0 0 0.799999999999473 0 0 0.849999999999605 0 0 0.899999999999737 0 0 0.949999999999868 0 0 1 0 0.0499999999998997 1 0 0.0999999999998147 1 0 0.149999999999704 1 0 0.199999999999558 1 0 0.249999999999412 1 0 0.299999999999266 1 0 0.349999999999121 1 0 0.399999999998975 1 0 0.449999999998829 1 0 0.499999999998694 1 0 0.549999999998815 1 0 0.599999999998947 1 0 0.649999999999078 1 0 0.69999999999921 1 0 0.749999999999342 1 0 0.799999999999473 1 0 0.849999999999605 1 0 0.899999999999737 1 0 0.949999999999868 0.949999999999792 0 1 0.899999999999584 0 1 0.849999999999653 0 1 0.8 0 1 0.750000000000347 0 1 0.700000000000693 0 1 0.65000000000104 0 1 0.600000000001387 0 1 0.550000000001734 0 1 0.500000000002059 0 1 0.450000000001872 0 1 0.400000000001664 0 1 0.350000000001456 0 1 0.300000000001248 0 1 0.25000000000104 0 1 0.200000000000832 0 1 0.150000000000624 0 1 0.100000000000416 0 1 0.050000000000208 0 1 0 0 0.949999999999792 0 0 0.899999999999584 0 0 0.849999999999653 0 0 0.8 0 0 0.750000000000347 0 0 0.700000000000693 0 0 0.65000000000104 0 0 0.600000000001387 0 0 0.550000000001734 0 0 0.500000000002059 0 0 0.450000000001872 0 0 0.400000000001664 0 0 0.350000000001456 0 0 0.300000000001248 0 0 0.25000000000104 0 0 0.200000000000832 0 0 0.150000000000624 0 0 0.100000000000416 0 0 0.050000000000208 0.502226653699592 0 0.500798105279793 0.707142857142875 0 0.70714285714284 0.292857142857163 0 0.707142857142883 0.707142857142839 0 0.292857142857124 0.292857142857117 0 0.292857142857164 0.500000000000027 0 0.780313588850176 0.219686411149827 0 0.500000000000032 0.780313588850174 0 0.499999999999976 0.499999999999971 0 0.219686411149829 0.828981264636981 0 0.828981264636988 0.171018735363 0 0.828981264636961 0.830992292301269 0 0.169681685166797 0.169681685166811 0 0.169007707698734 0.566105458215672 0 0.637855364617754 0.359843205574921 0 0.566986062717789 0.640156794425081 0 0.433013937282217 0.43301393728221 0 0.359843205574921 0.639816572480707 0 0.846764177969307 0.153235822030693 0 0.639816572480709 0.846764177969299 0 0.360183427519295 0.360183427519293 0 0.1532358220307 0.845985299128842 0 0.639692515178272 0.360307484821742 0 0.845985299128824 0.639692515178267 0 0.154014700871159 0.154014700871176 0 0.360307484821747 0.444910764274186 0 0.666958164990442 0.666173364726698 0 0.558698749524974 0.333826635273302 0 0.441301250475035 0.558698749524967 0 0.333826635273306 0.534679539548824 0 0.887953758857797 0.112046241142205 0 0.534679539548829 0.887953758857752 0 0.465320460451158 0.465320460451153 0 0.11204624114225 0.741047628542423 0 0.903034679802372 0.09696532019762 0 0.741047628542416 0.897273848238657 0 0.256015509872864 0.256015509872872 0 0.102726151761334 0.889607890535965 0 0.737093916685854 0.737034752306002 0 0.110362393385653 0.262835027517091 0 0.88947994080443 0.110490343117189 0 0.262894191896946 0.596525063583957 0 0.743872884998063 0.256203665723615 0 0.596439959595802 0.743872884998055 0 0.403474936416048 0.403180559588812 0 0.256035021113984 0.745854980641756 0 0.61190445560764 0.388095544392376 0 0.745854980641757 0.611904455607634 0 0.254145019358249 0.254496517406595 0 0.388081413464771 0.899819611515394 0 0.899819611515394 0.899819611515404 0 0.100180388484597 0.100180388484608 0 0.899819611515392 0.100180388484599 0 0.100180388484598 0.436842360243263 0 0.903082219770774 0.0970894652491675 0 0.436051775609807 0.903082219770702 0 0.563157639756723 0.563157639756722 0 0.0969177802293014 0.739828034809916 0 0.796296086969917 0.203703913030074 0 0.739828034809895 0.796296086969941 0 0.260171965190114 0.260171965190135 0 0.20370391303005 0.793219459416134 0 0.714151615395938 0.285358113923006 0 0.793384568367665 0.714151615395936 0 0.206780540583867 0.20678054058387 0 0.285848384604081 0.491135371445595 0 0.590322673454512 0.570569728882067 0 0.549717002008972 0.410749527734446 0 0.49037725997835 0.548764996868246 0 0.422732786052302 0.651952427337717 0 0.642499319205946 0.357500680794057 0 0.651952427337724 0.642499319205942 0 0.34804757266228 0.348047572662274 0 0.35750068079406 0.816734378290007 0 0.911591967499351 0.0884080325006478 0 0.816734378290005 0.918388025938709 0 0.181725902897578 0.181725902897582 0 0.0816119740612928 0.918388025938842 0 0.818274097102372 0.820987547249418 0 0.082790869735818 0.181725902897639 0 0.918388025938889 0.0827908697357757 0 0.179012452750626 0.514598063842741 0 0.696052179186911 0.304190818204937 0 0.514839525909669 0.700933926817415 0 0.485968262653744 0.484515229071252 0 0.297989876574045 0.60839637110479 0 0.920041796233482 0.079958203766519 0 0.608396371104796 0.920041796233501 0 0.391603628895199 0.391603628895193 0 0.0799582037664994 0.925009839146434 0 0.660257017830035 0.660308735431868 0 0.0751327324298776 0.339671926372919 0 0.924881889414948 0.0751181105850588 0 0.339671926372903 0.431200559870276 0 0.821785123283707 0.821785123283657 0 0.568799440129759 0.178214876716296 0 0.431200559870281 0.568799440129754 0 0.178214876716346 0.461024257085337 0 0.432541991343326 0.567592639909892 0 0.817943190346016 0.182056809653986 0 0.567592639909897 0.817943190345974 0 0.432407360090094 0.432407360090088 0 0.182056809654028 0.66820316019504 0 0.777698006027969 0.222301993972028 0 0.668203160195031 0.777698006027966 0 0.331796839804975 0.331796839804983 0 0.222301993972031 0.677013139048411 0 0.931034584783507 0.0689654152164879 0 0.677013139048407 0.931034584783525 0 0.322986860951598 0.32323905878353 0 0.0687975548746066 0.433106229890472 0 0.553851223366447 0.584577441354514 0 0.479658227811018 0.499508526679881 0 0.371773848925684 0.447555094957479 0 0.736681699151958 0.736398202194802 0 0.552163199297798 0.263640853143903 0 0.447835230599158 0.551767140035207 0 0.262647936455119 0.394962734081697 0 0.417765388787338 0.484780307210563 0 0.934689610815804 0.0652696782179796 0 0.484988222822282 0.934689610815751 0 0.515219692789521 0.51521969278952 0 0.0653103891842502 0.406811594230137 0 0.615393840960907 0.50008805899412 0 0.839066360969801 0.158636587251565 0 0.494899727783262 0.839066360969777 0 0.499911941005896 0.49991194100589 0 0.160933639030225 0.69635265234489 0 0.843199238531465 0.156800761468528 0 0.696352652344885 0.843199238531482 0 0.303647347655126 0.303294794221966 0 0.157138773489018 0.841738997190305 0 0.773161947347601 0.22683128543363 0 0.841726811501574 0.773191874618386 0 0.158041446818582 0.158053632507308 0 0.226801358162853 0.759050587559852 0 0.675639913700034 0.324360086299978 0 0.759050587559838 0.675639913700026 0 0.240949412440159 0.240949412440173 0 0.324360086299987 0.645310946664442 0 0.696451491767751 0.303298294648964 0 0.645281310016373 0.696451491767748 0 0.354689053335561 0.354689053335556 0 0.303548508232254 0.612270857309967 0 0.607953755545115 0.60317301798433 0 0.3922886399308 0.939677383788167 0 0.606211158354476 0.606216904754687 0 0.0603384574980944 0.393780946557029 0 0.939663167151385 0.0603559089619468 0 0.393693103819969 0.644551636118665 0 0.503693017945511 0.941566474887782 0 0.0584335251122567 0.0584335251122665 0 0.0584335251122145 0.941566474887756 0 0.941566474887743 0.0584335251122541 0 0.941566474887746 0.772947265360282 0 0.945177494177403 0.054822505822595 0 0.772947265360281 0.943547771291459 0 0.234565808376336 0.234565808376335 0 0.0564522287085382 0.943547771291585 0 0.765434191623444 0.765434191623447 0 0.0564522287084209 0.234565808376617 0 0.943547771291626 0.0564522287083799 0 0.234565808376616 0.779534414887006 0 0.839643894606365 0.160356105393624 0 0.779534414886989 0.847463457920405 0 0.224922585262252 0.224783079246026 0 0.152915391050455 0.553192715549249 0 0.947802376409323 0.0521976235906776 0 0.553192715549254 0.947736768535276 0 0.446958007430409 0.446807284450845 0 0.0521976235906551 0.850805684543366 0 0.694583396929753 0.694577762226911 0 0.149191485353933 0.304872872724606 0 0.850974332468232 0.149203671042653 0 0.305415470554338 0.511564395521248 0 0.640438403747068 0.358190746390247 0 0.511022455120299 0.569078044056663 0 0.695641310731086 0.304002436310119 0 0.569745890331047 0.69573605525801 0 0.431605534881039 0.431712919666742 0 0.304532149691815 0.543645263175014 0 0.7469787439805 0.253021256019503 0 0.543645263175019 0.746978743980493 0 0.456354736824991 0.453705345379894 0 0.252192411027838 0.867499499556976 0 0.946224667561405 0.0537753324385964 0 0.867499499556973 0.947073649109094 0 0.134291107470436 0.134291107470439 0 0.0529263508909097 0.947073649109184 0 0.865708892529388 0.867499499556973 0 0.0537753324385871 0.134291107470668 0 0.947073649109213 0.0537753324385368 0 0.132500500443006 0.690231388400378 0 0.606282366862961 0.387580733010998 0 0.693514283724458 0.606282366862954 0 0.309768611599626 0.310194531583981 0 0.393298597389873 0.586518570602945 0 0.869582351011867 0.130417648988135 0 0.586518570602952 0.869582351011839 0 0.413481429397001 0.413481429396996 0 0.130417648988163 0.749178619276549 0 0.742299892577605 0.257700107422386 0 0.749178619276552 0.742299892577623 0 0.250821380723454 0.25082138072345 0 0.257700107422368 0.617013016155199 0 0.795608442104109 0.204391557895898 0 0.617013016155195 0.795608442104084 0 0.382986983844802 0.380539743514862 0 0.204826435917647 0.946628764586275 0 0.712106669609725 0.712582289902801 0 0.053690952490469 0.287214659047097 0 0.946462576879691 0.0535374231203114 0 0.287214659047084 0.851748535838099 0 0.877052340314281 0.12
[...]
<CellData Scalars="pressure_p0," Vectors="velocity_p0," Tensors="">
<DataArray type="Float64" Name="pressure_p0" format="ascii">
-0.726973479584362 -0.577964495382763 -0.422058611872155 -0.271532437296774 -0.637318604591898 -0.638896148981211 -0.405605981883192 -0.377212807010591 -0.0712848533976382 -0.742687144926182 -0.257512924217349 -0.0691713641342119 -0.203089690013093 -0.0311794502288373 0.79402874850592 -0.787432599592222 -0.785544004562863 -0.0311700854072946 0.850175905439518 -0.203107040605154 -0.790120831452436 -0.510842716348156 -0.487262836985549 -0.19446573490623 1.29519750135604 -0.769885231903041 -0.228042414184353 -0.0187909983064009 -0.767891052724645 -0.0187762728503466 1.27211776874974 -0.22811501424311 -0.741191656485004 -0.0366708736334593 0.688000086097772 -0.257239389588153 -0.793890922460134 -0.742863018634802 -0.752077570062855 -0.577429618848676 -0.422571655029158 -0.245751663192355 -0.236997733316325 -0.121295254064491 -0.760363233654505 -0.680951925497443 -0.318491587432643 -0.720406424527501 -0.278197580711721 -0.0828451751053455 -0.0818103439717599 -0.628260076213925 -0.371642607454283 -0.346597228237177 -0.793843291028059 -0.523075306968062 -0.473075722524726 -0.173742092859046 -0.772587105406137 -0.764476799461614 -0.145684041315045 -0.142755390413458 -0.213177039567935 -0.126630409136489 -0.167610672261785 -0.135959547873211 -0.181647839286527 -0.261472306166378 -0.737268963485503 -0.0734970538102748 -0.709719263122673 -0.780018805705297 -0.588813812186807 -0.0347307212319311 0.768548440012547 -0.411129482144255 -0.121744838345675 -0.453568777907207 -0.546222405076928 -0.0687105576523193 -0.720112269118452 -0.0178658109032108 1.31199769712598 -0.279145824380801 -0.128204201155056 -0.017599408225655 1.30775469117889 -0.724427274988191 -0.726598322834815 -0.0178489173186122 1.32194422995945 -0.127598314464736 -0.567639416958998 -0.129750690240018 -0.727641579035555 -0.43181518015613 -0.591713535898877 -0.118406441826584 -0.673899351958506 -0.407938807918443 -0.712891489010938 -0.596010667621297 -0.287255085763324 -0.40389127421375 -0.712551237225799 -0.54261324811989 -0.45813953890138 -0.284874458712217 -0.19696484696158 -0.0583466121576301 -0.00207244315435834 -0.790005795086314 -0.788205809640249 -0.0587303836496605 0.0742532024995582 -0.196040865600175 -0.728176443429799 -0.569844171914752 -0.430593043838666 -0.270898054164269 -0.635978783498696 -0.685404214696748 -0.315677316099393 -0.363890832220263 -0.648761116055044 -0.737718172994089 -0.26140524547519 -0.351195087750822 -0.619263273509139 -0.403368582948789 -0.458374432352879 -0.469352363627634 -0.530260020897037 -0.0905251702403373 -0.607975004406123 -0.623816836529113 -0.101223785236246 -0.647273562226164 -0.352638354146751 -0.568555161978195 -0.787946668381113 -0.794848523434404 -0.177932288953724 -0.199016148011015 -0.10965990341964 -0.0309229666711265 0.840003295108539 -0.625538900599865 -0.62821744407239 -0.0311500999238742 0.853487529868368 -0.109073565588874 -0.639214715959605 -0.795766066997288 -0.181938049328741 -0.360765511895176 -0.587406535363787 -0.415963429650204 -0.761715105957669 -0.377949286111692 -0.781931098385988 -0.793634480280548 -0.796428583917918 -0.767190079070479 -0.788580463920678 -0.230380786226608 -0.200198821350669 -0.185996559524009 -0.174376639456911 -0.0506658072395785 -0.0842412620986218 -0.0660398223063979 -0.38870678872464 -0.385893362434649 -0.0661112526021893 -0.084297011090071 -0.0537024394151679 -0.595937114246932 -0.436889980444212 -0.0890889828997864 -0.403739010343291 -0.668328869353538 -0.635245900422617 -0.36468329126481 -0.33163532200404 -0.570046335332985 -0.0146276394013912 1.43737889061112 -0.429927412083406 -0.0676940937875969 -0.0328182903862275 -0.0327815674176173 -0.115498509870621 0.817234391710721 -0.116974074613362 -0.0677252621469632 0.819279642882979 0.868556234487181 -0.565410260509101 -0.434628728379062 -0.0311624838102305 -0.151277220704228 -0.195524325522806 -0.788148123308018 -0.724701609977684 -0.275622348116739 -0.168853629104939 -0.718382115604183 -0.505606340757529 -0.492490221234442 -0.127499304496135 -0.284812167545205 -0.424808636813926 -0.0882907853017382 -0.714537262758027 -0.685294396634981 -0.77876601777749 -0.213649226046626 -0.314591578237609 -0.766890642555123 -0.668038952397357 -0.331913579125217 -0.141356853350106 -0.788979824578314 -0.781419783733263 -0.530538120636628 -0.506279242945274 -0.698679428699346 -0.761985381954573 -0.234971014422051 -0.301113637256773 -0.0206897376770256 -0.629452874391234 -0.109559778329336 -0.630695973504665 -0.0644407311841348 -0.0642414717432344 -0.0173867263926411 -0.108993014994302 -0.642904749125524 -0.758630747780622 -0.238985322206864 -0.357068942915315 -0.397749839855097 -0.386342223555554 -0.57100616312406 -0.792571824341368 -0.486993091819371 -0.511091883548686 -0.190977227140587 -0.729453821510261 -0.712850561809287 -0.28771191096937 -0.13348854085641 -0.625706300182678 -0.71641604233428 -0.284379065637385 -0.374145470506073 -0.746592462221509 -0.145022494983806 -0.766802228296547 -0.251908746867458 -0.563666969612576 -0.583801407776564 -0.533636971387837 -0.512449489269136 -0.649705187981393 -0.632523813651033 -0.232831327281978 -0.11938041129444 -0.486450416996575 0.763615331273845 -0.745392455721294 -0.25554619023982 -0.0349129128911341 -0.576561941966823 -0.0670288591667875 -0.0784360119546389 -0.423124933006005 -0.794357166280127 -0.668403125596786 -0.33155956065684 -0.165461413747098 -0.592436304800975 -0.335026093636094 -0.314418737709718 1.4314589576506 -0.628962323243645 -0.371017019923923 -0.01460608050307 -0.757229289683404 -0.7622947923658 -0.240432568743848 -0.234349225890671 -0.0470231462042213 -0.0303203784201112 -0.0302973995265486 -0.0470458966381563 0.371594349867755 0.87846290560326 0.924540133277809 0.404363529825847 -0.720608225492756 -0.419508530426999 -0.781382105072553 -0.153589740756133 -0.346512418093797 -0.0819161799576423 -0.126357067894128 -0.0880977820535984 -0.564390631325645 -0.37370249326926 -0.785756910568328 -0.639809898067069 -0.360169269682321 -0.204609654433273 -0.425771149081507 -0.43362801801635 -0.769644197979576 -0.522158417199476 -0.474187358423717 -0.143556852289695 -0.661433876839546 -0.680177951542315 -0.319875966979364 -0.338527639683037 -0.793126579706311 -0.711056077593788 -0.288668766102099 -0.187768085615716 -0.381500998979268 -0.790321107214445 -0.751310364221298 -0.249304797593841 -0.167377164265962 -0.611314242490635 -0.691604532333945 -0.666892428369734 -0.793959500989058 -0.183084550309077 -0.165473381665138 -0.79352919674441 -0.308241164628839 -0.333048498486685 -0.76966395208616 -0.777413323422346 -0.215678934619889 -0.225617353126079 -0.643818422658716 -0.418723303832194 -0.422212441507125 -0.690949134619498 -0.719956790231008 -0.680477704670176 -0.73669416596653 -0.279754033997962 -0.308875463394852 -0.262446306256457 -0.319416355568442 -0.634119656690344 -0.72745894609397 -0.271775718259669 -0.115357417595388 -0.757902943476996 -0.767565533262978 -0.617216301076068 -0.641152423798573 -0.382753230414085 -0.358838696725335 -0.239046679003922 -0.227824592186987 -0.634428175211334 -0.0564253303334281 0.122876533245515 -0.36549269364573 -0.673897491245541 -0.658302168637827 -0.341704230608111 -0.326043961321821 -0.761712955808836 -0.73111951497427 -0.268111592601173 -0.235082438199151 -0.571929127140994 -0.013741302167018 -0.418938332304017 -0.581051504611164 1.45775358363351 -0.081628833464945 -0.0133451335011903 1.46142595473787 -0.340468689330102 -0.339426252076105 -0.0133244471005625 1.4640204214769 -0.0816461689139224 -0.637526168290061 -0.721209409103476 -0.142106240919653 -0.760964268325184 -0.278232618876371 -0.726419566013568 -0.516390663348973 -0.483249718854528 -0.270622271605338 -0.539424860854062 -0.354171036351964 -0.470536826820024 -0.794939493601726 -0.642007397917821 -0.357984278964986 -0.181398126982342 0.941249179745319 -0.610003831634632 -0.38998292595515 -0.0283407600759138 -0.616487725613068 -0.363653492955413 -0.66646009924189 -0.58170502362822 -0.418736169588112 -0.332774169546538 -0.0314072860759787 -0.614373023397834 -0.385578674686999 0.856717857369744 -0.753241874145496 -0.511495016250989 -0.487861565157233 -0.244513200587985 -0.770804366173046 -0.402846554978213 -0.597146579024607 -0.224415582829047 -0.625342604113698 -0.720640276895284 -0.759167770778007 -0.23826004050609 -0.278862526413176 -0.577151463827744 -0.492901269908719 -0.786769641500761 -0.65144810989318 -0.348539261888383 -0.20443991968314 -0.194244892908423 -0.14968278956864 -0.744426907198303 -0.786007594641261 -0.552635437967133 -0.563621603249278 -0.445411045958023 -0.43442140950976 -0.133381265503599 -0.156694992645131 -0.498197408017916 -0.490149547976694 -0.697645781646992 -0.689224402359355 -0.310648547205395 -0.122739680567355 -0.75308654951895 -0.79291883398514 -0.178383301460219 -0.244876691977844 -0.247896563677892 -0.133759970630425 -0.792392731339276 -0.471363552943284 -0.526485899506264 -0.165787351227412 -0.666790335688862 -0.501283767160645 -0.485791618469065 -0.53562849624588 -0.47269700957027 -0.536650783864165 -0.794596167931839 -0.450104517187161 -0.549461490240222 -0.171517068296881 -0.236017654589342 -0.21127634567836 -0.0873179311225481 -0.0802429563507795 -0.738674641734648 -0.618782299599141 -0.381205015447683 -0.132163173938268 -0.492182808869421 -0.169365599453017 -0.139552098661438 -0.779765418749189 -0.609714955105233 -0.390277402114066 -0.150260825704215 -0.669988045357968 -0.752599153062735 -0.75179454932726 -0.763304608172167 -0.0782078649133878 -0.211618087136237 -0.780458570031968 -0.29201542849368 -0.0874468968778341 -0.23959892833881 -0.758105649766221 -0.420262823707259 -0.713666780917773 -0.793070818059555 -0.174234941732578 -0.285950391923269 -0.708757416558312 -0.683005169718494 -0.120136274919475 -0.290906722134554 -0.46252407988606 -0.444051918146953 -0.46172422407144 -0.786774389688757 -0.790953896359176 -0.210391572411347 -0.127709553232923 -0.577006527289707 -0.0810154542174917 -0.123525169573265 -0.640419501708415 -0.127516443948106 -0.721150195680705 -0.359521993097635 -0.110604379608022 -0.172733442281806 1.38276201788149 -0.722057520240016 -0.27742244416934 -0.0161098402117415 0.908358813724615 -0.540033039172507 -0.460021049183647 -0.0295923569626758 -0.360408550004137 -0.795992996955561 -0.603677818149908 -0.519285402910614 -0.410189462039918 -0.428650041107046 0.791767418477676 -0.780045282403916 0.090190766622409 -0.791648078811869 -0.16210921877383 -0.0577670637824122 0.877870692701653 -0.781764582478782 -0.152547682508925 -0.0302266811324296 -0.153175277881245 -0.0299917262717094 -0.16365798855027 -0.0571496465389749 -0.609107066402391 -0.532657365740886 -0.412038972898442 -0.384100353803514 -0.400803102779436 -0.347747946659102 -0.665742721447156 -0.140574670521992 -0.765136947935697 -0.334196172374169 -0.511111940475464 -0.788969026146079 -0.58279331721471 -0.417209149269024 -0.199126849768086 -0.00347722995459939 -0.778257724435598 -0.215710666958485 -0.794419795884895 -0.734349713723438 -0.791559999050985 -0.194654901789837 -0.264673775193449 -0.427502781874531 -0.443496725720952 -0.659860733147838 -0.795579729226727 -0.771697982564166 -0.791830346041747 -0.191597563736463 -0.223344910271664 0.0677664029918611 -0.12074646593999 -0.571516896433225 -0.589925489687392 -0.0598799075683329 -0.0691308089825172 -0.648878388244613 -0.539467666168531 -0.668234837823696 -0.522044106607019 -0.332285833787429 -0.715670049726441 -0.0752530207883634 -0.149800673516296 -0.181341229256382 -0.699288730747376 -0.300588124760867 -0.0715760538592679 -0.754496338574268 -0.571271096065048 -0.42867105952102 -0.243319592234227 -0.606325614383533 -0.714482316301154 -0.59144237500372 -0.409002905717637 -0.285187240501991 -0.734187351148759 -0.720521044948422 -0.279025087421332 -0.264854221387865 -0.770193324926025 -0.526987493015093 -0.472822059759747 -0.224828274794875 -0.68657212432406 -0.541609724703353 -0.667251305758871 -0.559033284733446 -0.608314447290115 -0.608289296465425 -0.391694825529439 -0.10774633167227 -0.0462205354677045 -0.466546130290938 -0.533500067361492 0.38553577653584 -0.796467315083671 -0.547274736531045 -0.450585428930131 -0.180765381418325 -0.521668149577428 -0.776551175150325 -0.714398980448708 -0.285277994883074 -0.216727787567887 -0.794922551911132 -0.791557515171879 -0.408742550194518 -0.591202116293771 -0.614818390029918 -0.385117003845031 -0.175007434106179 -0.166926827709687 -0.615891749431916 -0.336129519310952 -0.666854990675059 -0.707576240013774 -0.68370621332193 -0.122508910132395 -0.119868769975876 -0.482420790018434 -0.689100822574794 -0.0765195391133352 -0.276492021447132 -0.310467183976275 -0.587998894464716 -0.331351225597857 -0.539347918726831 -0.718390923291116 -0.732265531820497 -0.266945703241681 -0.281166758646337 -0.578393724402941 -0.421576278040204 -0.313770202919937 -0.694363537190527 -0.0291277556224744 0.910926348531799 -0.305194602759681 -0.787257268652002 -0.768477002550005 -0.595754348252173 -0.586189394136678 -0.404185954596569 -0.413777373939056 -0.22758605103422 -0.202917022211103 -0.79365569814665 -0.619870324790494 -0.38012332604439 -0.175056970775099 -0.629548088163889 -0.563184630059872 -0.412378407506433 -0.109604071798586 -0.525093894843002 -0.587737377167855 -0.436938251704201 -0.0988872793755885 -0.790791459466806 -0.585659005468029 -0.414337821215207 -0.15988113870042 -0.737034400975105 -0.772532530906955 -0.222679916830028 -0.261810372809772 -0.556845558069475 -0.790125064594312 -0.197015115547654 -0.442948829093062 -0.681217769695684 -0.0541720168659362 0.16732594400434 -0.318400715260711 -0.686240898422967 -0.487198111155795 -0.558316044819662 -0.515468323681848 -0.48433994294021 -0.0995674084603621 -0.562485142112675 -0.638165785895979 -0.789980226776191 -0.587500131510613 -0.735100961378174 -0.0983367980680859 -0.154992394431675 -0.795352595743222 -0.595802046223913 -0.404193359025642 -0.184665017392008 -0.171663191377455 -0.106876286527386 -0.474948041065842 -0.452134665712913 -0.705552887102892 -0.686543154548413 -0.313390234362481 -0.293908533940735 -0.357443404621841 -0.378856701099342 -0.498882503536747 -0.500990888387542 -0.0839675227319568 -0.674111342180583 -0.68291802137254 -0.525792748982803 1.41515428035534 -0.793737162358066 -0.175036463064516 -0.0123902617933243 -0.793916384136787 -0.012376064476644 1.5028577146563 -0.175026102533582 -0.702039712882596 -0.665965774825335 -0.334023122837414 -0.297453377317777 -0.756186927387274 -0.478404828418118 -0.519454590831125 -0.138137247601839 -0.682881148683087 -0.698494679648222 -0.301465776560959 -0.317016787988466 -0.656255975337035 -0.0475829548289666 -0.343643591496016 0.334997841771677 -0.673785571565741 -0.0112556445930469 1.55272982419777 -0.32610593141559 -0.371016262458731 1.55497358960181 -0.0113024091134397 -0.628961399620471 -0.552421823111581 -0.788091692392282 -0.104106635754143 -0.128730210533871 -0.729536863824778 -0.714131384506114 -0.6143188987543 -0.630616885596383 -0.385660583708072 -0.369385192053859 -0.269077449304027 -0.284889989104699 -0.762511280241428 -0.793939196853805 -0.569499467076793 -0.785594424799496 -0.156832877451918 -0.430216778032774 -0.367035361276355 -0.363075380377079 -0.75434294543331 -0.617181451974277 -0.382721003584006 -0.137404097081437 -0.525907944566895 -0.689036090559231 -0.620695654825807 -0.379238360333215 -0.310838431499355 -0.770629282771191 -0.621517432268831 -0.378467629754117 -0.224879798614306 -0.451232955187726 -0.309418629269998 -0.485182289578001 -0.621976675616546 -0.50242950076391 1.52403610256728 -0.52229231504704 -0.477713052171706 -0.0121622408989118 -0.544889905642026 -0.779010426064932 -0.214902555974974 -0.454432662216512 -0.32059117202846 -0.56265927756963 -0.496405883035157 -0.0275489686039834 -0.0108127736884246 -0.0275375979386206 -0.0108203741195443 1.57430178228056 0.993926429676639 1.6229759275996 1.03226816035799 -0.558670164404778 -0.465429907407656 -0.441215066932062 0.168108823063009 -0.61276393720168 -0.387219682120817 -0.0550110248925323 -0.751937103901168 -0.683149545547385 -0.31677667935186 -0.245974367614758 -0.446670968912416 -0.356659187190666 1.0046296783623 -0.697497904364641 0.289063008877527 -0.689906853076576 -0.302151884503387 -0.0266297468754867 -0.309819469561218 -0.0496004646914356 -0.789812523965513 -0.554284697761136 -0.661170492675346 -0.775557572579761 -0.218717552422317 -0.338786545353068 -0.101535318981184 -0.197264956434514 -0.384881169161044 -0.670199839014135 -0.458744626509942 -0.540567534302865 -0.116773982188601 -0.710776823867782 -0.724106415781926 -0.491444539716106 -0.469159481757867 -0.507310243994252 -0.529316010504552 -0.433584804349427 -0.663187384832836 -0.336758125484183 -0.0885554725472809 -0.723589919079048 -0.645950679011688 -0.354028820141698 -0.126569845148733 -0.430729719979109 -0.684323807168221 -0.706402211566763 -0.122848278332948 -0.315521391828012 -0.746636453094561 -0.782834649087574 -0.747516888486323 -0.66046484731063 -0.339513891761853 -0.25006023950076 -0.652659659442586 1.58374311021112 -0.674989878447354 -0.324666387076433 -0.0105081209709681 -0.347947825241923 1.61411142975222 -0.474990118053505 -0.525005926916036 -0.00981942036518045 -0.196007866410912 -0.103983412756292 -0.323380520254591 -0.464374897362428 -0.448829666535295 -0.45490946957209 1.0777730610127 -0.0244442785779543 -0.5450644696992 -0.688758912782007 -0.595497483829342 -0.4049090479867 -0.31117239591768 -0.593642206665695 -0.554307408621778 -0.772789396293328 -0.690710303793998 -0.309179984354694 -0.222983215803291 -0.379180171993743 -0.492844727620321 -0.682784954054075 -0.317098325733365 -0.093351070797239 -0.481541207901359 -0.542558543891307 -0.0918631325852011 -0.399255427193048 -0.502696320132505 -0.0219775385801341 -0.507764028439792 -0.0437551841934185 -0.497311620396322 1.16409389375004 0.452564682170829 -0.492316157954519 -0.195580193508161 -0.548698241137359 -0.0719033279224699 -0.797164474310598 -0.687669222845565 -0.312237151699396 -0.181915745587754 -0.459185202490079 -0.758890608918471 -0.551131020442725 -0.448405159447033 -0.238346233978974 1.04917310451642 -0.654003289749423 -0.345719876921774 -0.025115323537651 0.323671304180073 -0.662968543163757 -0.336732344989086 -0.0480787028170908 -0.451477089718451 -0.457573278504782 -0.600758228058231 -0.770131225112306 -0.551634124547516 -0.44814101523854 -0.225533844397511 -0.541212346805369 -0.589451795779417 -0.647539097565337 -0.352432787266171 -0.103175290984224 -0.57481812760507 -0.672935889030151 -0.098144347102576 -0.548084939549273 -0.326934096193764 -0.138288459336141 -0.629916875520367 -0.370060488114408 -0.0689663211055181 -0.0713727303177344 -0.652774676969512 -0.347182856047078 -0.0652549749308064 -0.788135144782849 -0.559681009177904 -0.44009774318133 -0.202189407660877 -0.688652726209008 -0.711711089683576 -0.552509968854753 -0.446687835202504 -0.550262788847356 -0.448880869913493 -0.410081205237998 -0.389832905228825 -0.285710975639366 -0.308678753729094 -0.428825498420461 -0.423910616266714 -0.468463057364449 -0.0553346807299102 -0.491205117049135 -0.0596965656849341 0.154297500136828 -0.531597136145274 0.0554052129646502 -0.508881616586761 -0.729554592919077 -0.69607993797676 -0.303771956067577 -0.269473981667873 -0.285468313710322 -0.759832169021118 -0.746413430627334 -0.530734191904804 -0.513343039563708 -0.485549349988968 -0.468162799483137 -0.252064951963379 -0.23775524798775 -0.481126652267275 -0.779623016163967 -0.477204909287104 -0.522121950953021 -0.214587682089303 -0.273677742819874 -0.721500171552254 -0.652833794066007 -0.347151904391283 -0.277091610925259 -0.457538676805276 -0.652851040082509 -0.0225580442091953 1.13389196240492 -0.347076904038809 -0.788361090550122 -0.678325286479777 -0.321623916394388 -0.203691550162033 -0.676590121668934 -0.462713619238285 -0.409084439107727 -0.583139299538595 -0.4767344385931