<?xml version="1.0"?>
<VTKFile type="UnstructuredGrid" version="0.1" byte_order="LittleEndian">
<UnstructuredGrid>
<Piece NumberOfPoints="568" NumberOfCells="1054">
<Points>
<DataArray type="Float64" NumberOfComponents="3" format="ascii">
0 0 0.450000000001872 0.0288622065350029 0 0.971137793464997 0 0 0.050000000000208 0 0 0.100000000000416 0 0 0.150000000000624 0 0 0.200000000000832 0 0 0.25000000000104 0 0 0.300000000001248 0 0 0.350000000001456 0.0294449071642091 0 0.475000000001966 0 0 0.400000000001664 0 0 1 0 0 0.500000000002059 0 0 0.550000000001734 0 0 0.600000000001387 0 0 0.65000000000104 0 0 0.700000000000693 0 0 0.750000000000347 0 0 0.8 0 0 0.949999999999792 0 0 0.899999999999584 0 0 0.849999999999653 0 0 0 0.0300976878160604 0 0.675240820728535 0.0537753324385368 0 0.132500500443006 0.0521976235906776 0 0.553192715549254 0.050000000000208 0 1 0.0411398773124838 0 0.59314418172763 0.0400584584693223 0 0.905542144420799 0.0337982312426103 0 0.328047235696734 0.0535374231203114 0 0.287214659047084 0.0537753324385964 0 0.867499499556973 0.0372540436000893 0 0.175000000000728 0.043978856409119 0 0.826223237588406 0.0400584584693195 0 0.0944578555791577 0.0499999999998997 0 0 0.0364257305974331 0 0.517089366048707 0.0564522287083799 0 0.234565808376616 0.0437542193187992 0 0.636838827941267 0.047626564331035 0 0.717956133248075 0.054822505822595 0 0.772947265360281 0.0339288497681721 0 0.363039674760657 0.0323698570487533 0 0.032369857048862 0.0584335251122541 0 0.941566474887746 0.0439035813198221 0 0.439659589760324 0.0603559089619468 0 0.393693103819969 0.0584335251122665 0 0.0584335251122145 0.0861159281096524 0 0.56837912409409 0.0884080325006478 0 0.816734378290005 0.0898428037257154 0 0.138184120871427 0.0827908697357757 0 0.179012452750626 0.079958203766519 0 0.608396371104796 0.0751181105850588 0 0.339671926372903 0.0689654152164879 0 0.677013139048407 0.0652696782179796 0 0.484988222822282 0.0870417061194167 0 0.853827995089261 0.0771536398637403 0 0.524704152142917 0.0829988513043758 0 0.644632613955384 0.118558570079024 0 0.33658228590827 0.0944578555791881 0 0.959941541530687 0.112046241142205 0 0.534679539548829 0.0944578555792846 0 0.0400584584694184 0.09696532019762 0 0.741047628542416 0.100782157019327 0 0.304316158596513 0.0999999999998147 0 0 0.11010057308181 0 0.381520439012282 0.113605383622211 0 0.668118877258276 0.122947659685672 0 0.148251464161954 0.108962737982323 0 0.486955813111844 0.0973839869435436 0 0.70355094053906 0.122947659685717 0 0.851748535838097 0.112488267597722 0 0.779835748024894 0.100000000000416 0 1 0.0970894652491675 0 0.436051775609807 0.100180388484599 0 0.100180388484598 0.100180388484608 0 0.899819611515392 0.0955430374569856 0 0.221932619299632 0.112706690212573 0 0.630008255945105 0.110490343117189 0 0.262894191896946 0.154014700871176 0 0.360307484821747 0.153235822030693 0 0.639816572480709 0.134291107470668 0 0.947073649109213 0.134291107470439 0 0.0529263508909097 0.149203671042653 0 0.305415470554338 0.126538462979429 0 0.191587327531096 0.148482685579385 0 0.888431771229548 0.148129220795753 0 0.111676837264361 0.130417648988135 0 0.586518570602952 0.153913009861652 0 0.536540794152269 0.143725818414876 0 0.453076999838284 0.148219229256148 0 0.406253117897731 0.149999999999704 0 0 0.140617488955747 0 0.739472211076997 0.150000000000624 0 1 0.132395380258035 0 0.812668468588356 0.160356105393624 0 0.779534414886989 0.166896950459779 0 0.60272705316749 0.181791113002692 0 0.669198324048887 0.181725902897582 0 0.0816119740612928 0.181725902897639 0 0.918388025938889 0.178214876716296 0 0.431200559870281 0.169681685166811 0 0.169007707698734 0.182056809653986 0 0.567592639909897 0.175000000000728 0 0.962745956399904 0.174999999999631 0 0.0372540436003339 0.166706396151242 0 0.266399149631259 0.158636587251565 0 0.494899727783262 0.156800761468528 0 0.696352652344885 0.158053632507308 0 0.226801358162853 0.171018735363 0 0.828981264636961 0.218515661667958 0 0.102945845538754 0.198701717250423 0 0.388614329545475 0.210579470972425 0 0.241746964894887 0.203263282116412 0 0.793856912628835 0.20678054058387 0 0.285848384604081 0.202356565815103 0 0.537408647573261 0.203703913030074 0 0.739828034809895 0.200000000000832 0 1 0.189514053672166 0 0.127889181471804 0.19325512052992 0 0.333066639853417 0.202076008666399 0 0.697808408717888 0.191981339151156 0 0.465860267956458 0.204391557895898 0 0.617013016155195 0.206511205763931 0 0.201999059545956 0.199999999999558 0 0 0.191358186528112 0 0.875099322637077 0.241820549903513 0 0.789456771628189 0.221311393310948 0 0.904144943719833 0.222301993972028 0 0.668203160195031 0.22683128543363 0 0.841726811501574 0.232918092237015 0 0.465697476923766 0.222132304923478 0 0.358478489635738 0.220807341974523 0 0.573941101292095 0.224783079246026 0 0.152915391050455 0.220807132193075 0 0.431630396214116 0.240949412440173 0 0.324360086299987 0.219686411149827 0 0.500000000000032 0.234565808376335 0 0.0564522287085382 0.243849011366201 0 0.70653312659593 0.249999999999412 0 0 0.234565808376617 0 0.943547771291626 0.272461586381219 0 0.675020517551044 0.263189497696013 0 0.146101733972573 0.257700107422386 0 0.749178619276552 0.256015509872872 0 0.102726151761334 0.262835027517091 0 0.88947994080443 0.25082138072345 0 0.257700107422368 0.256203665723615 0 0.596439959595802 0.257256883790806 0 0.292714150215995 0.25000000000104 0 1 0.254496517406595 0 0.388081413464771 0.266257535548617 0 0.833306115901144 0.263640853143903 0 0.447835230599158 0.260171965190135 0 0.20370391303005 0.262260501478394 0 0.491100193217861 0.253021256019503 0 0.543645263175019 0.257895490863524 0 0.638342647063243 0.292714150216003 0 0.742743116209187 0.310194531583981 0 0.393298597389873 0.301341353129557 0 0.468795744513304 0.296449059460973 0 0.0973839869435186 0.289363634335678 0 0.340960017338183 0.297960451166723 0 0.430159604944108 0.293466873404081 0 0.2438490113662 0.304228012616783 0 0.899241155957329 0.292857142857117 0 0.292857142857164 0.303298294648964 0 0.645281310016373 0.287214659047097 0 0.946462576879691 0.300000000001248 0 1 0.292857142857163 0 0.707142857142883 0.299999999999266 0 0 0.304190818204937 0 0.514839525909669 0.295036992928544 0 0.608379012288189 0.285358113923006 0 0.793384568367665 0.304002436310119 0 0.569745890331047 0.28250371532178 0 0.0483144399603462 0.304872872724606 0 0.850974332468232 0.303294794221966 0 0.157138773489018 0.302507736483923 0 0.202679241722634 0.331796839804983 0 0.222301993972031 0.330976354727247 0 0.540593682876865 0.332370486659624 0 0.113658128449525 0.32323905878353 0 0.0687975548746066 0.32267250342477 0 0.271586241564922 0.33651319436469 0 0.478344123936324 0.331823854634456 0 0.608524398279876 0.324076644128682 0 0.0314799042223748 0.333525318397743 0 0.185977348903938 0.333826635273302 0 0.441301250475035 0.324360086299978 0 0.759050587559838 0.336522953269796 0 0.881467989813298 0.317193619028349 0 0.677699067220227 0.340416804628537 0 0.711023062174498 0.328047235696741 0 0.96620176875739 0.339671926372919 0 0.924881889414948 0.32234854076139 0 0.317299409200743 0.333960390527399 0 0.805937012188985 0.371046512961454 0 0.605451707483111 0.354689053335556 0 0.303548508232254 0.362934108682713 0 0.0437430672928097 0.359843205574921 0 0.566986062717789 0.363051387125604 0 0.966073693713607 0.353852897913884 0 0.401592772894755 0.370066139215042 0 0.112711478099945 0.355853377085554 0 0.256080223679255 0.350000000001456 0 1 0.349999999999121 0 0 0.358190746390247 0 0.511022455120299 0.357500680794057 0 0.651952427337724 0.358629803235999 0 0.777791633537734 0.348047572662274 0 0.35750068079406 0.360307484821742 0 0.845985299128824 0.355435985827796 0 0.0829820156323059 0.360183427519293 0 0.1532358220307 0.381618042053447 0 0.88992062259967 0.393908439072697 0 0.532062393352124 0.38861432954547 0 0.801298282749579 0.399999999998975 0 0 0.393780946557029 0 0.939663167151385 0.391208871887456 0 0.334075776884043 0.387580733010998 0 0.693514283724458 0.380539743514862 0 0.204826435917647 0.396865073444171 0 0.166969430130097 0.403180559588812 0 0.256035021113984 0.388095544392376 0 0.745854980641757 0.400000000001664 0 1 0.377023860747172 0 0.458194175644768 0.390192470571844 0 0.378596535290629 0.394962734081697 0 0.417765388787338 0.391603628895193 0 0.0799582037664994 0.40104077914538 0 0.576979671402498 0.391620987711813 0 0.295036992928546 0.402871840508572 0 0.655172255814667 0.431620875905919 0 0.0861159281096704 0.431200559870276 0 0.821785123283707 0.425115862935563 0 0.221781893189434 0.410749527734446 0 0.49037725997835 0.406855818272412 0 0.0411398773125118 0.406433535517036 0 0.851772991537082 0.431712919666742 0 0.304532149691815 0.436842360243263 0 0.903082219770774 0.43160084013477 0 0.779267762289617 0.433106229890472 0 0.553851223366447 0.429224645442849 0 0.406303405311217 0.43301393728221 0 0.359843205574921 0.413481429396996 0 0.130417648988163 0.432407360090088 0 0.182056809654028 0.425611029595844 0 0.700357773481665 0.406811594230137 0 0.615393840960907 0.42316408760147 0 0.448010319542076 0.453705345379894 0 0.252192411027838 0.450000000001872 0 1 0.439734091066863 0 0.956113090920962 0.449999999998829 0 0 0.455184849784661 0 0.627004346856768 0.467801094712142 0 0.768111759790184 0.447555094957479 0 0.736681699151958 0.447756084606182 0 0.584900877008727 0.453812570737435 0 0.856011288022742 0.465320460451153 0 0.11204624114225 0.457435186971747 0 0.157395356663377 0.464544361631721 0 0.388784993935 0.446807284450845 0 0.0521976235906551 0.461750160254385 0 0.473470497775223 0.452936569991178 0 0.514948322970791 0.461284420728544 0 0.202747939470428 0.444910764274186 0 0.666958164990442 0.461024257085337 0 0.432541991343326 0.475250269534714 0 0.0771854076092873 0.482933735686196 0 0.036430254038082 0.475000000001966 0 0.970555092835793 0.469006474386685 0 0.698919930511859 0.49302949927993 0 0.738151423526402 0.476968436413189 0 0.549123309665291 0.4725
[...]
<CellData Scalars="pressure_p0," Vectors="velocity_p0," Tensors="">
<DataArray type="Float64" Name="pressure_p0" format="ascii">
0.0571393068473099 -0.347025746464178 -0.546691631372848 -0.454756952926742 1.18924802333552 -0.228146394153152 -0.174949751820099 -0.576759008722762 -0.474748893214286 -0.0469142938436643 -0.12745323966036 -0.321774691201719 -0.639156820028237 -0.279048423985862 -0.371008761736614 -0.0814533298946084 -0.521412360059579 -0.641146568968571 0.630981866595757 -0.326008676724167 -0.615907708088152 -0.152448796476603 -0.53859485633287 -0.496889971190475 -0.562637254128247 -0.305074033532022 -0.429828696462627 1.52832457463973 -0.0274451197308157 -0.631253289688888 -0.60164805480228 -0.631443954985319 1.82503957834416 -0.0107850666992349 -0.20313987444358 -0.491958649533565 0.262378038118532 -0.365465102040774 -0.466359980890002 -0.508300550319518 -0.108942846584032 -0.0676011926666173 0.832640043165189 -0.411090086857699 -0.530511345082638 -0.603603545569355 -0.635423651558011 -0.165048478954641 -0.343582719191731 -0.604021342825861 -0.162115179499807 -0.156255472717076 -0.56838984213255 -0.431665655850775 -0.31830170464679 -0.19613955012817 -0.030253813890617 -0.257227778771645 1.47765201921578 -0.38556889953824 -0.455793947304953 -0.641876136502097 -0.239753891342035 -0.283271420202811 0.858123622166076 -0.0843171080088416 -0.0661892465134006 -0.211784231454159 0.583046918720336 -0.631065312519678 -0.641573125242732 -0.149840582252409 -0.28478524362884 0.0707001906214723 -0.498412431188147 -0.0133454292202037 -0.584943221190575 -0.108997697893415 -0.541045656292801 -0.497979093775484 -0.57267473881395 -0.642203026624736 1.41389572400401 -0.636328467215556 -0.63440545299036 -0.261525088052206 -0.310388525550603 -0.609104383974872 -0.423089450558337 -0.616861532988922 -0.371624434959425 1.75633543335362 -0.12356630738476 -0.615409084551322 0.258453101116575 -0.453438018577735 -0.546940977719232 -0.469121413271499 -0.403735474651082 -0.0328138647320327 1.44407237683062 0.886810839699544 -0.0309764003005591 -0.326850144986972 0.0178348587263378 -0.29085474359603 -0.352589897866532 -0.446159474425941 -0.119975143456179 -0.64240818840217 -0.0643516295896446 -0.628345753996111 -0.197451016596304 -0.514690456905297 -0.17288564326442 -0.596470149680826 -0.60043409591584 -0.629224574607317 -0.128811169530204 -0.237162514113236 -0.223528599517668 -0.582991689658653 -0.407918681925698 -0.315427983473687 -0.458544404513484 -0.155085993915719 -0.560516959935327 -0.317752672738407 0.137276789470658 -0.424351922413215 -0.521113198070467 -0.63694242962712 -0.290325410720104 -0.504923463424511 1.45931353184895 -0.0820234001188243 -0.560826124020523 -0.0300407233974581 -0.359469584381256 -0.088211221862858 -0.608302632422154 -0.550506574298019 0.619619629571136 1.68074563332758 -0.0176310014108955 -0.569780893659942 -0.195736742840657 -0.431733033761241 -0.382689165676129 -0.627006226734375 -0.251992144566403 -0.478033791593807 -0.601422090594234 -0.638673886735792 -0.496978982485564 -0.169548407544543 -0.27821003222476 -0.0934337053575896 -0.334097854664319 0.534651631161597 -0.142912165141394 -0.213383694858277 -0.471058753614848 -0.545418125571539 -0.609518394256517 -0.580984258736879 -0.136126549147693 -0.63739107552364 -0.332925963957449 -0.408665970113238 0.994536864454629 -0.641655592385441 -0.308099364441801 -0.107001651443949 -0.630154940266993 -0.199211196136768 -0.430120886175637 -0.244942403889537 -0.0124102260173959 1.773376578075 0.299772833190943 -0.596100675188327 -0.36066126919648 -0.522013174836632 -0.0572285302626588 -0.285867090833742 -0.0212774296059874 -0.449933210185938 -0.45274957551817 -0.385052350178361 -0.589768237383727 -0.624727412908574 0.364369465643977 -0.638659035859869 -0.360050862529631 -0.314417258181371 -0.0802955732689848 -0.162602242027583 -0.12786143628443 -0.486567314350786 -0.104095721381108 -0.554704193982396 -0.544406045661866 0.675629897347776 -0.41711070329235 -0.264636258048471 -0.510102372948269 -0.581423840068176 1.43978947588363 -0.348234177094612 -0.149875646280585 -0.0584059921324155 -0.476920553451671 -0.454259041813968 -0.0312176023720429 0.976652975360919 -0.557191899948333 0.0727711483159115 -0.629806679609043 -0.17458176039006 -0.637840169964091 -0.223468373801889 -0.442805862892722 -0.640697959262765 -0.422457502901504 -0.568028852496094 -0.356967109000679 -0.402750661727895 0.542837067830609 -0.416720948187745 -0.510875195234844 -0.641583132988704 -0.23435192653213 0.128133681720295 -0.261739722766352 -0.215774795549865 -0.583517788363705 -0.485252784049221 -0.133871546419321 -0.642181856812548 -0.338631946017756 -0.525970683934657 -0.448269520111852 -0.186158423756524 -0.6074782474456 -0.0873376456176498 -0.58982371687412 -0.624120597596258 -0.549680101236754 -0.346299386809532 -0.167530951652724 -0.119482670198102 -0.300963113424249 -0.0188081114510253 -0.37838252170812 1.65930781987534 -0.624614001832119 -0.278737088475965 -0.634778152770465 -0.0161001591716193 -0.642276818653105 -0.605389216195139 0.751777022996831 -0.467993497036252 -0.0827862884208581 -0.0785415532454508 1.34907180055623 -0.469011492611648 -0.631360223808687 -0.515700937376397 -0.069139493535877 -0.624310346364243 -0.281076251703556 -0.421960905474526 -0.235059346215146 -0.319336150660128 -0.168949703782289 -0.115373300386607 -0.308833452688364 -0.351124783120722 -0.0349089008831723 -0.435918137949098 -0.577838987927902 -0.566742351166632 -0.104520112515845 -0.264785525671948 -0.633943343568477 1.67732658315327 -0.540536794590358 -0.570265759020161 -0.610358032051873 -0.403806620130119 -0.617572850463662 -0.0265932543548016 -0.222926925617693 -0.636094719734942 -0.122711143583687 -0.586253213961722 0.697043050688132 -0.0495235941399485 0.535097346990792 1.47624107022651 -0.187815112766233 -0.642702216205437 0.138967146019136 -0.372548693842617 -0.374093374305172 -0.216720495641201 -0.320803609681636 -0.541102866472269 -0.133515684005834 -0.448795698365273 -0.446622421149338 -0.637515128723611 -0.0714859527636456 -0.317027309160265 -0.269417519163361 -0.49115312663891 -0.589767687516046 -0.618902449264233 -0.326098574928194 -0.577569797338863 -0.421515927910256 -0.269344873830689 -0.633963314707097 -0.500873558534789 -0.245898947125038 0.394784909910312 -0.14133488496476 -0.0932696324697289 -0.508877295428176 -0.293902221218787 -0.620465961788475 -0.181914524297365 -0.0480050159898397 -0.412004222551459 -0.384093974105759 -0.338570196819665 -0.0706758736434969 -0.363897530185307 -0.486955040835781 1.04620165507767 -0.521251366519654 -0.540190929273398 -0.556731428080483 -0.203638971720564 -0.462616326027594 -0.0884753817213855 1.79457905151773 -0.165440156220261 1.15425269206761 -0.24997837182526 0.104865834826792 -0.642581443318411 -0.010492376365114 -0.297464701268808 -0.640699102372613 -0.528645548095189 -0.617111895495631 -0.126534015935298 -0.0651738919626601 -0.640675045551321 -0.204360855754159 1.7941329752285 -0.0688986791644434 -0.538058202876946 -0.479980189752147 -0.433592746109623 -0.535304461127249 0.621484384389354 -0.611185779571056 -0.277059308857596 1.59100169626609 -0.482193384271278 -0.0918887849747742 -0.181342397758793 -0.0145820933670817 -0.581299816518239 -0.58805687360963 -0.635385557649332 -0.379191473133697 0.0573261132201134 -0.28487436689157 -0.331686208076443 -0.459097943656641 -0.0250743892219601 0.35857905578984 -0.371913216101727 1.01079778793382 -0.227728341470715 -0.103117070547456 -0.637394185995595 -0.592869893237635 -0.510460099780792 -0.641192071653073 -0.545490460301765 -0.0282978067459341 -0.310867482557058 -0.269038176188134 -0.2275424207147 -0.400831868366238 -0.150212916973144 1.43783202832686 -0.175011349647507 -0.274187088294792 -0.35747124729093 -0.541949510009045 -0.107703894536246 -0.184619889703137 -0.0390719270329268 -0.613753793331988 -0.132126604670543 -0.35669361441056 0.521224995368186 -0.425762772000446 -0.23897284395332 -0.486157643638641 -0.311192616623173 -0.621792720521426 -0.637166263569579 -0.578853950169183 -0.55629477577018 -0.465315893436985 -0.4412030601358 -0.39926365570937 -0.0549530048768954 -0.618925081172632 -0.243326796893253 -0.285183876445984 -0.159821473965464 -0.601023304659148 -0.53238982580987 -0.511749748294071 -0.629514604146856 -0.593312736447786 -0.327847915151367 0.845721995235594 -0.586999285473194 -0.20427019690373 -0.109538509209866 -0.156631079472083 -0.270903884156502 -0.381537194751639 -0.470381449153715 -0.0311179540385051 0.0376966163694515 -0.639828798476173 -0.454659783148415 1.7354168119944 -0.332788624056368 -0.423943477299727 0.157653852128405 -0.627843892621866 -0.552169160403667 1.38237279715971 -0.0690806135382153 -0.0598272058006333 -0.20288792186779 -0.0988412106936898 -0.0137155685983085 -0.568639824791223 0.173885858800206 -0.180736661791154 1.18168220602426 -0.42886299748386 -0.384933023341269 -0.314420013407262 -0.335034365095563 -0.225567422595671 -0.631577069652496 -0.594255453401314 0.81964145200059 -0.58072143954739 1.56002641775421 -0.0718439407047279 -0.0917944298715938 -0.0295478857048289 -0.303343465568786 -0.0552799328611082 -0.515085996093717 -0.133296981208652 -0.202194775232364 -0.643233472398449 -0.639816826934462 -0.641504034273549 -0.492512439852924 -0.409150910251742 -0.560082602931236 -0.537910496991799 -0.363113221642981 -0.284883812582501 -0.451198949706884 -0.443942971744779 -0.580081060051848 -0.413605440691701 -0.323406358837103 -0.143466247298768 -0.367091890519569 -0.410151401451211 -0.012145483386785 -0.194452832225913 -0.224866925838468 -0.474731465814557 -0.24456107387734 -0.389912497944809 -0.270657353848606 -0.127402122793968 -0.452087577064632 1.22292029139967 1.60355363917992 0.592605633703592 -0.430753649907831 -0.609107819137096 -0.0994886225462317 -0.173695203724427 -0.520746525049603 -0.63983477842767 -0.0596500915108635 -0.632405575365358 -0.571299972152952 -0.2652043652508 -0.626244072011164 0.501524364725828 -0.515648743031232 -0.642782233883391 -0.495960898194175 -0.607264054133916 -0.559891894545975 -0.347999799022007 1.82168742188837 -0.044947560131573 -0.308725305757546 -0.518390702881676 0.381953029539803 -0.0904820845613524 -0.637753581046335 -0.600235645355658 -0.427501793307583 -0.531386771747575 -0.544061379425673 -0.573385426260666 -0.637123085720943 -0.165721074177517 -0.317364437865608 -0.36049482814082 -0.472466140993323 -0.0927929730670849 -0.252118899721016 -0.237802041809965 -0.214606013936005 -0.273732917878066 -0.138044719526643 -0.00981600534412906 -0.190950975503171 -0.428047461108894 -0.591646630658092 -0.0437339179886389 -0.0219615224151696 0.0624741347906224 -0.0839083123994092 -0.628201695907151 1.77937186677412 0.961315107080085 -0.285512437611614 -0.386423332255487 -0.598836392305491 -0.637505583721565 -0.320673276897096 -0.00195411591450656 -0.629310772736597 -0.484791720168288 -0.214927239233446 -0.446567307826404 -0.471448568634143 -0.309497756986248 -0.534252783744533 -0.197027652547026 -0.28577008560359 -0.171476781648193 1.46995505290434 -0.642161123892357 0.768557702376991 0.481242026527938 -0.637282236329918 -0.0244455378457778 -0.238389365653364 -0.0462178030587708 -0.549451940854055 -0.560965717232796 -0.0687079789270714 -0.403408550072943 -0.34785048279448 -0.365866780120358 1.03079733868895 -0.612544631681798 -0.491742580899416 -0.116704987548107 1.44383865933458 -0.226750372203034 -0.313835625049145 -0.27156379638326 -0.471107244432816 0.257313652114469 -0.331428555942779 -0.0347407331923526 -0.245796597812369 -0.175032936184466 0.394073127745352 -0.637535158194389 -0.156801644107543 -0.561616464459256 -0.2022203343515 -0.0670468374168603 1.7505604755046 -0.462268103914033 -0.397756854643839 -0.373762038952554 -0.501808783759596 -0.573255530787288 -0.524707578680289 -0.0146292393337605 -0.602741722280849 -0.354268553159072 -0.129706620722772 -0.118400888933688 -0.59146590307582 0.815396870503854 0.959054501398076 -0.443351273789784 -0.626977086396234 -0.636710552890398 -0.199174712397903 -0.418630672403815 -0.166963080607273 -0.224950889549266 -0.325763151161679 -0.57915871500606 -0.497549093004303 -0.489635819346449 -0.336175607534623 -0.224480998420255 -0.137425960347394 -0.524714270983024 -0.642444396064312 -0.552399943203746 -0.0314203362537581 -0.363688705768387 -0.622618987320743 -0.621568205925495 -0.448581897586047 -0.287273238968193 -0.539585293583501 -0.384450037740331 -0.0891069200548382 1.49090301897926 -0.642489290496278 0.283051991096772 1.03564193673781 -0.464063995907753 -0.579227039437044 -0.152925529322259 0.010443799707167 -0.625862202374149 -0.422064442916143 -0.636953621520807 -0.480674410360947 -0.127532252639902 0.870916057231926 0.814241610829659 0.334125040899457 0.480806914936521 1.54752104922347 -0.632902319684507 -0.0113090781789568 0.0640652987762222 -0.0225799664047794 -0.457246775508998 -0.405507310199236 -0.552761960950362 -0.0564596213041246 -0.63770534990209 -0.239032293629881 -0.582342889731038 -0.181966680315804 -0.537722234647572 -0.101240467896999 -0.261440231625147 -0.315694209878522 -0.354442943472079 -0.606922612150023 -0.567666414157343 -0.469681605354228 -0.204651976264036 1.73516645961742 -0.0818406308482716 -0.284384584429925 -0.37718924833466 0.528614566226683 -0.122817157594863 -0.635571038954939 -0.14056207960966 -0.641750477350563 -0.259245119782934 -0.319887148810631 -0.218732139601456 -0.165459053190714 -0.595304755860691 -0.262475688690051 -0.641133212518217 -0.639637645758965 -0.341694771294596 -0.418605209322276 -0.485280964208685 -0.011270868371331 -0.0476193284386302 -0.301483738237331 -0.461406827821973 -0.443830043839015 -0.621024308420662 -0.213630390896867 -0.076669930761164 0.463077307571517 -0.529198528565996 -0.364657684676464 1.14787743792552 -0.0981374528823628 -0.583043158174415 -0.505510800433169 -0.606536037980813 -0.471695906030649 -0.574556502870696 -0.602629519702571 -0.0542015537507077 1.80907979829152 -0.550384685427966 -0.0291622154386193 -0.548270504375961 0.112599695404499 -0.369325327599954 -0.457865670287725 -0.590080799908391 -0.626807505918501 -0.642024257935196 -0.174180428483208 -0.334001401487314 -0.379183870871246 -0.364451107762372 -0.088252434583602 -0.27978185620619 -0.18304201615079 1.5248453851211 1.12654378343903 -0.396276432655305 -0.54215832527604 -0.234964731806479 -0.404817731607447 0.0242522077351691 -0.506578155138341 -0.61378452138997 -0.120080753903138 0.777491899493377 -0.076516780880206 -0.408898289811089 -0.517980725107368 -0.31338290023629 -0.0734742570913563 -0.528122954226552 -0.385583925189186 -0.0178906690179578 -0.430444055693114 1.71206579340236 -0.238252105600899 -0.627964704317502 -0.482826100873883 -0.142041169322854 -0.569438232054883 -0.268520511063516 -0.279022875640177 -0.619660039912246 0.235064983613855 -0.640961900237924 -0.640881691247049 -0.222685302147543 -0.144983833936154 1.39068036007913 -0.339467071850958 -0.194637452842196 -0.303752050411935 -0.634677502704928 -0.347105188934161 -0.0366994623034231 0.854386494259534 -0.266951849276393 -0.574059571853052 0.643752485258419 -0.529555813192505 -0.641946772269966 0.174486064379824 0.537384686446112 -0.191660814798187 -0.625185859702658 -0.549219069928705 -0.268117831782945 -0.178385247629396 -0.0188081280583307 -0.472586916072762 -0.406661744682898 -0.0410535068240616 -0.358802189085855 -0.519440854459668 -0.316732330998139 -0.382698936963489 1.66923733645383 -0.428562589346329 -0.309128528696902 -0.0874159482939796 -0.616202756389348 -0.448022839976754 -0.567284157019316 -0.240479740313555 -0.121269344906336 -0.633662998937194 -0.591101665279378 -0.487446035525216 -0.404129667761255 -0.635354909192197 -0.57366199795433 -0.610894662907527 -0.279158051874766 -0.512611210243712 -0.620468205141183 -0.623380469936204 -0.578570596039703 -0.0180625098161558 0.237183472567033 -0.126653888066834 -0.225707347012147 -0.101573830008475 -0.545241303202503 1.41057326409829 -0.190352576311014 -0.510464798846438 -0.0312183590324046 -0.554637953481114 -0.288631171819103 -0.350473370744605 -0.348512845511406 -0.521236992388337 -0.285243155524321 -0.178021974706721 -0.440055401942173 0.576168179653403 -0.0588002594219924 -0.543282953917783 0.915242891238816 -0.151358677644394 -0.41375597196485 -0.0782233702877578 -0.642116392286756 -0.32157295140709 -0.486970114659299 0.748647503255563 -0.0124105513396976 -0.331514786033173 -0.472938247974171 -0.605504824273024 -0.380126874887824 0.197648128148543 -0.585906060351779 -0.458102854114886 -0.62264873391543 -0.450547622180632 -0.230482992091329 -0.200311974697529 -0.312181472648369 -0.275621923413119 -0.414342303165209 -0.642153585446423 -0.13965790694625 -0.404193964219456 -0.547648939630693 -0.083303553788685 -0.249371355975222 -0.0579057253399772 1.73279989671824 -0.525496904109189 -0.110702118364786 -0.63674007111674 0.378351424448518 -0.593506710929985 -0.566403853770734 -0.357970821046534 -0.637450112141752 -0.434406863728436 -0.126933023260047 -0.104267295213773 -0.0754259136681732 -0.167693938638901 -0.145789228715982 -0.0303243112892372 1.4149030724963 0.641795105130059 -0.43875722657771 -0.331870030612872 -0.247980181194484 -0.509759354053741 -0.492116148887801 -0.623896802001499 1.67561992738617 -0.0179140070891107 -0.564599611313353 -0.287712523192 -0.63268596830784 -0.51862887336928 0.924563830837916 -0.353987024602322 -0.210498691233281 -0.390281426225843 -0.474018132229981 0.328867091840555 -0.636607320822791 -0.298118465516979 -0.38118727564664 -0.445336349091362 -0.607429250987971 -0.194355368844875 -0.0984734677355261 -0.605009902668034 -0.352378930114107 -0.324315344320708 -0.412313337719139 -0.0812198015616893 -0.391654504652821 -0.0312591077672163 -0.310616209737581 -0.122627462149811 0.0954027012771027 1.43950287038371 -0.436843068518312 -0.627780626054105 -0.639499992268223 -0.0646342218073957 -0.232949953919872 -0.452982332885672 -0.539025887399724 -0.586209055024323 -0.576720431499374 -0.641876308352935 -0.196098016528698 0.884335457855153 -0.171707929064359 -0.271827709851957 -0.484003671040365 -0.639999656544656 -0.582541233801354 -0.347133600599151 -0.506711095974643 -0.257623899165272 -0.372286338834655 -0.500428471333598 -0.370008123626387 -0.529066561118204 -0.211397630421299 -0.278257784556008 -0.615273634591089 -0.236163964599548 -0.457382816064564 -0.618158139837451 -0.641206041951618 -0.54439615388895 -0.0133450986288968 -0.637385551533 1.41470187269689 -0.317061808742427 -0.0328127532374044 -0.30058810713297 -0.10959009170557 0.253975810101257 -0.589703292091268 0.585488380562818 -0.0661877944219222 -0.084314141345441 0.860451757205613 -0.572793251354278 -0.126409825356899 -0.153585590689746 -0.185677710189965 -0.451289177115655 1.75645995892487 0.058477772254017 -0.410106316635146 -0.336706421880775 -0.468187847749293 -0.490752557750939 -0.583741955897388 1.4571399866776 -0.251445917900486 -0.387167340349786 -0.0302523083250868 -0.16360572648345 -0.632432476165751 -0.640653938677719 -0.611217567807282 -0.309797105248156 -0.255618526772154 -0.0675976618903887 -0.532234241055742 -0.605142955311006 -0.507076702062174 -0.428532338282532 -0.43943580472807 -0.197027425368805 0.833741154602734 -0.336698350021048 -0.619573602439378 0.63139590116672 0.255675852688471 -0.277435130635514 -0.638896255266188 -0.641600826706465 1.17013265481684 -0.6308756654302 -0.554350849066632 -0.228121018204594 -0.371015757420606 -0.324927658994202 -0.459793962803888 -0.389963436282949 -0.17493467282451 -0.324645303474649 -0.109533364095104 -0.203120157057459 -0.466940014094987 -0.0469116483395735 -0.174174992046034 -0.128041833655479 0.0503443877281983 -0.0274434542802168 -0.633661338956281 -0.502089278350372 -0.0107844836193731 1.80382332649728 1.50842582762364 -0.43451217479923 -0.477359956917324 -0.153034711693766 -0.56689747526587 -0.543379584975046 -0.523964528953038 -0.418887071548046 -0.61579606904572 -0.302132300575011 -0.0814484584077487 -0.345703990407871 
</DataArray>