<?xml version="1.0"?>
<VTKFile type="UnstructuredGrid" version="0.1" byte_order="LittleEndian">
<UnstructuredGrid>
<Piece NumberOfPoints="568" NumberOfCells="1054">
<Points>
<DataArray type="Float64" NumberOfComponents="3" format="ascii">
0 0 0.450000000001872 0.0288622065350029 0 0.971137793464997 0 0 0.050000000000208 0 0 0.100000000000416 0 0 0.150000000000624 0 0 0.200000000000832 0 0 0.25000000000104 0 0 0.300000000001248 0 0 0.350000000001456 0.0294449071642091 0 0.475000000001966 0 0 0.400000000001664 0 0 1 0 0 0.500000000002059 0 0 0.550000000001734 0 0 0.600000000001387 0 0 0.65000000000104 0 0 0.700000000000693 0 0 0.750000000000347 0 0 0.8 0 0 0.949999999999792 0 0 0.899999999999584 0 0 0.849999999999653 0 0 0 0.0300976878160604 0 0.675240820728535 0.0537753324385368 0 0.132500500443006 0.0521976235906776 0 0.553192715549254 0.050000000000208 0 1 0.0411398773124838 0 0.59314418172763 0.0400584584693223 0 0.905542144420799 0.0337982312426103 0 0.328047235696734 0.0535374231203114 0 0.287214659047084 0.0537753324385964 0 0.867499499556973 0.0372540436000893 0 0.175000000000728 0.043978856409119 0 0.826223237588406 0.0400584584693195 0 0.0944578555791577 0.0499999999998997 0 0 0.0364257305974331 0 0.517089366048707 0.0564522287083799 0 0.234565808376616 0.0437542193187992 0 0.636838827941267 0.047626564331035 0 0.717956133248075 0.054822505822595 0 0.772947265360281 0.0339288497681721 0 0.363039674760657 0.0323698570487533 0 0.032369857048862 0.0584335251122541 0 0.941566474887746 0.0439035813198221 0 0.439659589760324 0.0603559089619468 0 0.393693103819969 0.0584335251122665 0 0.0584335251122145 0.0861159281096524 0 0.56837912409409 0.0884080325006478 0 0.816734378290005 0.0898428037257154 0 0.138184120871427 0.0827908697357757 0 0.179012452750626 0.079958203766519 0 0.608396371104796 0.0751181105850588 0 0.339671926372903 0.0689654152164879 0 0.677013139048407 0.0652696782179796 0 0.484988222822282 0.0870417061194167 0 0.853827995089261 0.0771536398637403 0 0.524704152142917 0.0829988513043758 0 0.644632613955384 0.118558570079024 0 0.33658228590827 0.0944578555791881 0 0.959941541530687 0.112046241142205 0 0.534679539548829 0.0944578555792846 0 0.0400584584694184 0.09696532019762 0 0.741047628542416 0.100782157019327 0 0.304316158596513 0.0999999999998147 0 0 0.11010057308181 0 0.381520439012282 0.113605383622211 0 0.668118877258276 0.122947659685672 0 0.148251464161954 0.108962737982323 0 0.486955813111844 0.0973839869435436 0 0.70355094053906 0.122947659685717 0 0.851748535838097 0.112488267597722 0 0.779835748024894 0.100000000000416 0 1 0.0970894652491675 0 0.436051775609807 0.100180388484599 0 0.100180388484598 0.100180388484608 0 0.899819611515392 0.0955430374569856 0 0.221932619299632 0.112706690212573 0 0.630008255945105 0.110490343117189 0 0.262894191896946 0.154014700871176 0 0.360307484821747 0.153235822030693 0 0.639816572480709 0.134291107470668 0 0.947073649109213 0.134291107470439 0 0.0529263508909097 0.149203671042653 0 0.305415470554338 0.126538462979429 0 0.191587327531096 0.148482685579385 0 0.888431771229548 0.148129220795753 0 0.111676837264361 0.130417648988135 0 0.586518570602952 0.153913009861652 0 0.536540794152269 0.143725818414876 0 0.453076999838284 0.148219229256148 0 0.406253117897731 0.149999999999704 0 0 0.140617488955747 0 0.739472211076997 0.150000000000624 0 1 0.132395380258035 0 0.812668468588356 0.160356105393624 0 0.779534414886989 0.166896950459779 0 0.60272705316749 0.181791113002692 0 0.669198324048887 0.181725902897582 0 0.0816119740612928 0.181725902897639 0 0.918388025938889 0.178214876716296 0 0.431200559870281 0.169681685166811 0 0.169007707698734 0.182056809653986 0 0.567592639909897 0.175000000000728 0 0.962745956399904 0.174999999999631 0 0.0372540436003339 0.166706396151242 0 0.266399149631259 0.158636587251565 0 0.494899727783262 0.156800761468528 0 0.696352652344885 0.158053632507308 0 0.226801358162853 0.171018735363 0 0.828981264636961 0.218515661667958 0 0.102945845538754 0.198701717250423 0 0.388614329545475 0.210579470972425 0 0.241746964894887 0.203263282116412 0 0.793856912628835 0.20678054058387 0 0.285848384604081 0.202356565815103 0 0.537408647573261 0.203703913030074 0 0.739828034809895 0.200000000000832 0 1 0.189514053672166 0 0.127889181471804 0.19325512052992 0 0.333066639853417 0.202076008666399 0 0.697808408717888 0.191981339151156 0 0.465860267956458 0.204391557895898 0 0.617013016155195 0.206511205763931 0 0.201999059545956 0.199999999999558 0 0 0.191358186528112 0 0.875099322637077 0.241820549903513 0 0.789456771628189 0.221311393310948 0 0.904144943719833 0.222301993972028 0 0.668203160195031 0.22683128543363 0 0.841726811501574 0.232918092237015 0 0.465697476923766 0.222132304923478 0 0.358478489635738 0.220807341974523 0 0.573941101292095 0.224783079246026 0 0.152915391050455 0.220807132193075 0 0.431630396214116 0.240949412440173 0 0.324360086299987 0.219686411149827 0 0.500000000000032 0.234565808376335 0 0.0564522287085382 0.243849011366201 0 0.70653312659593 0.249999999999412 0 0 0.234565808376617 0 0.943547771291626 0.272461586381219 0 0.675020517551044 0.263189497696013 0 0.146101733972573 0.257700107422386 0 0.749178619276552 0.256015509872872 0 0.102726151761334 0.262835027517091 0 0.88947994080443 0.25082138072345 0 0.257700107422368 0.256203665723615 0 0.596439959595802 0.257256883790806 0 0.292714150215995 0.25000000000104 0 1 0.254496517406595 0 0.388081413464771 0.266257535548617 0 0.833306115901144 0.263640853143903 0 0.447835230599158 0.260171965190135 0 0.20370391303005 0.262260501478394 0 0.491100193217861 0.253021256019503 0 0.543645263175019 0.257895490863524 0 0.638342647063243 0.292714150216003 0 0.742743116209187 0.310194531583981 0 0.393298597389873 0.301341353129557 0 0.468795744513304 0.296449059460973 0 0.0973839869435186 0.289363634335678 0 0.340960017338183 0.297960451166723 0 0.430159604944108 0.293466873404081 0 0.2438490113662 0.304228012616783 0 0.899241155957329 0.292857142857117 0 0.292857142857164 0.303298294648964 0 0.645281310016373 0.287214659047097 0 0.946462576879691 0.300000000001248 0 1 0.292857142857163 0 0.707142857142883 0.299999999999266 0 0 0.304190818204937 0 0.514839525909669 0.295036992928544 0 0.608379012288189 0.285358113923006 0 0.793384568367665 0.304002436310119 0 0.569745890331047 0.28250371532178 0 0.0483144399603462 0.304872872724606 0 0.850974332468232 0.303294794221966 0 0.157138773489018 0.302507736483923 0 0.202679241722634 0.331796839804983 0 0.222301993972031 0.330976354727247 0 0.540593682876865 0.332370486659624 0 0.113658128449525 0.32323905878353 0 0.0687975548746066 0.32267250342477 0 0.271586241564922 0.33651319436469 0 0.478344123936324 0.331823854634456 0 0.608524398279876 0.324076644128682 0 0.0314799042223748 0.333525318397743 0 0.185977348903938 0.333826635273302 0 0.441301250475035 0.324360086299978 0 0.759050587559838 0.336522953269796 0 0.881467989813298 0.317193619028349 0 0.677699067220227 0.340416804628537 0 0.711023062174498 0.328047235696741 0 0.96620176875739 0.339671926372919 0 0.924881889414948 0.32234854076139 0 0.317299409200743 0.333960390527399 0 0.805937012188985 0.371046512961454 0 0.605451707483111 0.354689053335556 0 0.303548508232254 0.362934108682713 0 0.0437430672928097 0.359843205574921 0 0.566986062717789 0.363051387125604 0 0.966073693713607 0.353852897913884 0 0.401592772894755 0.370066139215042 0 0.112711478099945 0.355853377085554 0 0.256080223679255 0.350000000001456 0 1 0.349999999999121 0 0 0.358190746390247 0 0.511022455120299 0.357500680794057 0 0.651952427337724 0.358629803235999 0 0.777791633537734 0.348047572662274 0 0.35750068079406 0.360307484821742 0 0.845985299128824 0.355435985827796 0 0.0829820156323059 0.360183427519293 0 0.1532358220307 0.381618042053447 0 0.88992062259967 0.393908439072697 0 0.532062393352124 0.38861432954547 0 0.801298282749579 0.399999999998975 0 0 0.393780946557029 0 0.939663167151385 0.391208871887456 0 0.334075776884043 0.387580733010998 0 0.693514283724458 0.380539743514862 0 0.204826435917647 0.396865073444171 0 0.166969430130097 0.403180559588812 0 0.256035021113984 0.388095544392376 0 0.745854980641757 0.400000000001664 0 1 0.377023860747172 0 0.458194175644768 0.390192470571844 0 0.378596535290629 0.394962734081697 0 0.417765388787338 0.391603628895193 0 0.0799582037664994 0.40104077914538 0 0.576979671402498 0.391620987711813 0 0.295036992928546 0.402871840508572 0 0.655172255814667 0.431620875905919 0 0.0861159281096704 0.431200559870276 0 0.821785123283707 0.425115862935563 0 0.221781893189434 0.410749527734446 0 0.49037725997835 0.406855818272412 0 0.0411398773125118 0.406433535517036 0 0.851772991537082 0.431712919666742 0 0.304532149691815 0.436842360243263 0 0.903082219770774 0.43160084013477 0 0.779267762289617 0.433106229890472 0 0.553851223366447 0.429224645442849 0 0.406303405311217 0.43301393728221 0 0.359843205574921 0.413481429396996 0 0.130417648988163 0.432407360090088 0 0.182056809654028 0.425611029595844 0 0.700357773481665 0.406811594230137 0 0.615393840960907 0.42316408760147 0 0.448010319542076 0.453705345379894 0 0.252192411027838 0.450000000001872 0 1 0.439734091066863 0 0.956113090920962 0.449999999998829 0 0 0.455184849784661 0 0.627004346856768 0.467801094712142 0 0.768111759790184 0.447555094957479 0 0.736681699151958 0.447756084606182 0 0.584900877008727 0.453812570737435 0 0.856011288022742 0.465320460451153 0 0.11204624114225 0.457435186971747 0 0.157395356663377 0.464544361631721 0 0.388784993935 0.446807284450845 0 0.0521976235906551 0.461750160254385 0 0.473470497775223 0.452936569991178 0 0.514948322970791 0.461284420728544 0 0.202747939470428 0.444910764274186 0 0.666958164990442 0.461024257085337 0 0.432541991343326 0.475250269534714 0 0.0771854076092873 0.482933735686196 0 0.036430254038082 0.475000000001966 0 0.970555092835793 0.469006474386685 0 0.698919930511859 0.49302949927993 0 0.738151423526402 0.476968436413189 0 0.549123309665291 0.4725
[...]
<CellData Scalars="pressure_p0," Vectors="velocity_p0," Tensors="">
<DataArray type="Float64" Name="pressure_p0" format="ascii">
-0.149905735691769 -0.34703979329329 -0.648262294434039 -0.454879073531161 1.06077552851305 -0.228142903684015 -0.174948362590002 -0.580053736721996 -0.474970044454862 -0.0469195525574578 -0.127456199237949 -0.486849595812469 -0.662056444085446 -0.279052672515394 -0.37102726763614 -0.0814609758083591 -0.522197961294813 -0.675034131284975 0.440551124828476 -0.326020075212231 -0.625172922361706 -0.152447180564756 -0.539811625025154 -0.497292979691765 -0.564854990384933 -0.305082378478631 -0.429891957464163 1.45121773695681 -0.027449179872884 -0.681770744238909 -0.607809706681111 -0.64669366983839 1.79551021502218 -0.0107862396761425 -0.203134454896315 -0.492305181662382 0.05306314122433 -0.365483040972651 -0.466533273264341 -0.508833126423856 -0.108946339104968 -0.0676062111853055 0.659374424178326 -0.411129859358873 -0.531461750209269 -0.675579038728184 -0.653629823671816 -0.35446778743859 -0.34359618980796 -0.61048117230608 -0.162105903837041 -0.346890696933624 -0.570893582730062 -0.571630837410656 -0.3183113047235 -0.196128591773885 -0.0302560716648284 -0.257227266215421 1.39221190624267 -0.385592482533514 -0.588895742493504 -0.671531020333307 -0.239742914823311 -0.456823390702047 0.68957748877418 -0.0843141374951532 -0.0661833861660949 -0.211769628217393 0.387113533362911 -0.64585548262773 -0.67625037716602 -0.149827045177469 -0.284786522327017 -0.136112421825964 -0.498822528056912 -0.0133445908847757 -0.588794870266169 -0.108992524091552 -0.542308424540998 -0.618508820466428 -0.662764160320222 -0.667930659044391 1.31944512818625 -0.654234912567633 -0.682984612977971 -0.261521242525982 -0.310396122742465 -0.678010723869483 -0.423147019613865 -0.626190826901049 -0.371645880417174 1.71486207640435 -0.123554107111448 -0.624223339244585 0.0481547677667915 -0.453564391303921 -0.54841242026759 -0.469318962260277 -0.403773708194215 -0.032813265080057 1.35336070742796 0.721383380709826 -0.0309714029158964 -0.326861549451096 -0.186598464481566 -0.290857427897901 -0.352606931654289 -0.583243570420151 -0.11995155977911 -0.67148425432245 -0.0643412111311118 -0.641607128302136 -0.197429483816194 -0.515333284264736 -0.172860702634824 -0.674444104100304 -0.60628990004225 -0.683414130135066 -0.128791076276374 -0.237147015282007 -0.405935202536678 -0.586665882427613 -0.407963672933493 -0.31543756918001 -0.458695772960837 -0.155064734550025 -0.562644263667662 -0.485050662861276 -0.0708287590336446 -0.566552679640075 -0.521894794843157 -0.657200714784304 -0.462254943451661 -0.505433999135462 1.37031586237089 -0.0820030364984693 -0.562990284941372 -0.0300330427102436 -0.3594902082012 -0.0881927641623365 -0.615885339579425 -0.552181260179992 0.427496974848955 1.62747623845057 -0.0176272920523124 -0.661615272422333 -0.195708962644714 -0.431811120612429 -0.382718449951383 -0.6400727825167 -0.251981496951083 -0.47829104257309 -0.607542628372116 -0.681717297524091 -0.618397561344996 -0.169518440207546 -0.27820912741349 -0.289715540345471 -0.334113262278755 0.337526532756962 -0.142882220050191 -0.213361229421085 -0.471268544280238 -0.546851627051253 -0.617041261813584 -0.584549238860903 -0.136096040120019 -0.65759841233413 -0.33294286722826 -0.408713127014798 0.83874366601283 -0.670163908522105 -0.308111118551983 -0.106975162929541 -0.682426804619349 -0.199185372738236 -0.430195997781795 -0.244931336591029 -0.012407187041373 1.73469992717325 0.0913133565158466 -0.673800584089515 -0.360685672079093 -0.522800433658288 -0.0572137607324593 -0.285871283279845 -0.222423793579432 -0.450053929631708 -0.587385054923629 -0.385084322825578 -0.594306009675913 -0.636737064322149 0.157753665282491 -0.680707494782345 -0.36007514706292 -0.314432217375359 -0.0802783669609524 -0.353424351091821 -0.127836056095045 -0.48688122705376 -0.1040714506404 -0.652500419163992 -0.646151343574982 0.48693267359789 -0.417166534807513 -0.264634603430001 -0.510670497615172 -0.585074429776271 1.34812391778092 -0.508905985822646 -0.149846295102206 -0.0583921928737813 -0.477156474101721 -0.454390262434592 -0.0312106247963274 0.819119585868806 -0.559146075438668 -0.133257258907303 -0.644463537990394 -0.174554426117943 -0.681942025504235 -0.223451112929408 -0.44290492086802 -0.664715008496385 -0.422515901288743 -0.570613093564426 -0.356988888160822 -0.402790582642079 0.345314252723958 -0.561178584041905 -0.511458603211641 -0.667771966235006 -0.23434676323929 -0.0778180229560656 -0.261740599927915 -0.215761303359137 -0.668135790270958 -0.485546218686094 -0.13385504210044 -0.672087210599554 -0.33865150368316 -0.52683202725416 -0.448377297158039 -0.186139437976123 -0.614619522192072 -0.0873237830955961 -0.594333207824831 -0.635976859915884 -0.551272797293544 -0.506435543403501 -0.167514987733291 -0.11946335218462 -0.300975354374007 -0.0188050628726603 -0.37841068215593 1.60217438285875 -0.682180475000194 -0.278744440896311 -0.651937557320174 -0.0160998808816369 -0.674966732016704 -0.612011568296336 0.573411286870062 -0.468176160187588 -0.0827826078018814 -0.276111812840593 1.24483017457315 -0.469197339359859 -0.646026453786779 -0.516371421592255 -0.0691327680238203 -0.682659168922264 -0.281084991110025 -0.422014575063921 -0.235058601791924 -0.319350402381326 -0.168941475641745 -0.115364983172424 -0.308845132727486 -0.351143022567658 -0.0349057669075885 -0.576473889118938 -0.665200873121704 -0.569242653417603 -0.299626158284759 -0.264791566997212 -0.682726967371917 1.62336136813917 -0.645404467849241 -0.661198641317425 -0.61791095463994 -0.40383649344148 -0.626917615584646 -0.0265945090378628 -0.22293053022324 -0.683899578926165 -0.122712592442596 -0.590266921105582 0.509816470257137 -0.0495264938974884 0.337637543522615 1.38983217729708 -0.187811648266616 -0.670200587271944 -0.0688623171726083 -0.527461688411949 -0.374112035477336 -0.216719649834864 -0.486325567299354 -0.54241257435547 -0.133510950576105 -0.448897589025152 -0.446712344717214 -0.656344420244028 -0.0714874621651961 -0.317037295500789 -0.269424892220655 -0.491492843039995 -0.594144888964275 -0.681495778927056 -0.326102770816154 -0.580795112505044 -0.421558301720786 -0.445240325354241 -0.650344216769306 -0.501291107618549 -0.245905066193172 0.187555894851677 -0.141340338875755 -0.0932737686020959 -0.62487721981497 -0.293910298868024 -0.63088722209143 -0.181916035098302 -0.0480105206146907 -0.412032884455325 -0.384105367065201 -0.338577889480621 -0.27085348754195 -0.363908070528189 -0.487244646927208 0.897130260212605 -0.521974163201591 -0.541417586279796 -0.558608827143239 -0.203643244269126 -0.462758452248956 -0.0884827983912824 1.75959591207497 -0.165445290602822 1.01939314054209 -0.249985143635652 -0.104178240577346 -0.676455822327076 -0.0104934671511161 -0.297470806344296 -0.665732657914925 -0.638317154923283 -0.680956773480287 -0.126543729421342 -0.0651816517505492 -0.668475703053391 -0.204368240456425 1.75926929671534 -0.0689087067108804 -0.539237913893707 -0.607082984223835 -0.433650577597683 -0.536415842499668 0.429272957980308 -0.61901832323756 -0.277065125061321 1.52249958692751 -0.482441151682361 -0.0919004567927855 -0.181351152695932 -0.0145846390350127 -0.667567147126833 -0.592301594736939 -0.681641100408842 -0.379197020416151 -0.149085695007853 -0.284877817317991 -0.331687059263222 -0.45922280695915 -0.0250780058772016 0.151327127232054 -0.528155219648165 0.858260204510637 -0.227735880981187 -0.103126898060271 -0.656804714954427 -0.597689449138788 -0.51101855658686 -0.667429027624278 -0.647922294883283 -0.0283030950776367 -0.310867390239207 -0.269041621249222 -0.227548994571807 -0.400843487035929 -0.150225653243591 1.34659078460705 -0.175022162550768 -0.447893700805533 -0.357467510186517 -0.645260236820404 -0.107717324236136 -0.184630724142089 -0.240464298816689 -0.622125645819965 -0.132139128834617 -0.35669320003261 0.322715366281842 -0.425804526781068 -0.238979341374201 -0.486446185757246 -0.311189435634009 -0.632805876397364 -0.68087229347141 -0.582161878138199 -0.558182042369721 -0.465467318354016 -0.441272136675815 -0.39927657031363 -0.0549623489475793 -0.628623556515431 -0.243329454097991 -0.285182955148061 -0.159834341317658 -0.607017937393951 -0.533396456016539 -0.512333020035176 -0.643369266257964 -0.672288841926054 -0.492569767209596 0.675707564148883 -0.591135954690535 -0.389003651715762 -0.109552853461079 -0.156643788588454 -0.270902543321785 -0.381537761402613 -0.470563468285619 -0.0311239160804688 -0.167098693653308 -0.662027611180492 -0.589257648268547 1.69132497061246 -0.332782655462702 -0.423979087412758 -0.0500975930912665 -0.682214264754407 -0.553869746366392 1.28373610490245 -0.069092220502776 -0.0598378057470968 -0.20289679274715 -0.0988550658157316 -0.0137183201667321 -0.571210189618754 -0.0349475821499115 -0.180746205708257 1.05215527374404 -0.428907693509824 -0.384933630209491 -0.314410559467844 -0.3350258518769 -0.225570876377583 -0.646025988815753 -0.599171802169662 0.6465461422279 -0.667100306485508 1.48751283242988 -0.0718557438105024 -0.0918076786480466 -0.0295533041384573 -0.472684223792583 -0.0552891417634776 -0.629983835449226 -0.133310894876961 -0.202202188143534 -0.671662001191269 -0.681866138055169 -0.664262030770536 -0.492857823205177 -0.409168701531823 -0.562120435022068 -0.539061909702353 -0.363106385573203 -0.284877763918687 -0.451298749635386 -0.581501934871677 -0.667350742872861 -0.559059521104593 -0.323394851538172 -0.143478049504317 -0.367085722188407 -0.410172004200369 -0.0121475893998955 -0.194457410584896 -0.224868110009756 -0.474947707459255 -0.244557607482878 -0.389916276315166 -0.27065062847282 -0.127413389025644 -0.452194051170255 1.09877795010063 1.53768324624096 0.398159263960133 -0.430806484333988 -0.616535034553475 -0.0995007424760227 -0.17370397638989 -0.521492745710074 -0.681410784816672 -0.0596587710872438 -0.683782375690346 -0.574048289439404 -0.441039357158906 -0.638506247286732 0.301506381171289 -0.630941843943154 -0.670140565550042 -0.496343477352345 -0.679129936791567 -0.561948352725506 -0.347989651866116 1.7916187343157 -0.245990163256915 -0.308713359703089 -0.519108436532986 0.17537950464048 -0.090489992414768 -0.657766869077659 -0.606038278141251 -0.427553098344168 -0.532405630321403 -0.646494995968893 -0.576322344962926 -0.656656167057436 -0.165725944641917 -0.483437978928431 -0.36048900951743 -0.472676485520309 -0.290270221623881 -0.252110932746297 -0.237797259254821 -0.214604179704726 -0.273722571536417 -0.138052965103711 -0.00981717650783113 -0.19095384122976 -0.568736872997527 -0.67182842804942 -0.0437398134664169 -0.0219647831470608 -0.143261832557847 -0.0839184773799743 -0.682147537954875 1.74215485458242 0.803370666911377 -0.285502023803192 -0.386427746638045 -0.604438615966722 -0.680906300680205 -0.32066164460476 -0.206334435336147 -0.642862157902059 -0.485087095299766 -0.21492370478528 -0.446669092055381 -0.602244909528651 -0.309486260640063 -0.535340874466276 -0.197025823626899 -0.285758574934396 -0.171478771378177 1.383250941895 -0.669958944722921 0.58882412428665 0.278885046561544 -0.656973861324836 -0.0244477060655267 -0.238382270285815 -0.0462225290887806 -0.650868612147536 -0.563089054928233 -0.0687134033204831 -0.403429155489583 -0.347842890853496 -0.524005508501698 0.881011760261827 -0.620732750192559 -0.492101367232444 -0.11671201847795 1.3537281422787 -0.409353753885877 -0.313826248174923 -0.271553772168252 -0.601248208926784 0.0482377121327989 -0.33142253982237 -0.0347419229937062 -0.245788388725543 -0.175031622298016 0.190445996890927 -0.681974351983682 -0.156803436180505 -0.563736295997158 -0.38748961173041 -0.0670498871895744 1.70837609423227 -0.462435596623133 -0.397778565489314 -0.373769714423138 -0.502274186236409 -0.576147939217343 -0.525543920791861 -0.0146301016496264 -0.609046120297156 -0.354265653222159 -0.129710389706521 -0.118403075771554 -0.672702018284914 0.642328405159855 0.801445241541719 -0.443449161718305 -0.682455804246918 -0.656251506199868 -0.199171239867327 -0.418681762013014 -0.166961594133589 -0.224945129047709 -0.490418841433891 -0.665415824658762 -0.497988535999473 -0.489985626883432 -0.336174794258111 -0.224474755325727 -0.13742608943783 -0.525576496246084 -0.671376765680891 -0.651912165799377 -0.0314206606109645 -0.363696803224292 -0.633956524462243 -0.632591866243632 -0.448707069593793 -0.287264221804752 -0.540813051361195 -0.537959372683756 -0.0891089986967931 1.40713132440165 -0.67131827067113 0.0754023465173801 0.886602073674582 -0.464247302637349 -0.582665721274634 -0.344692686194482 -0.194315588420762 -0.68226997391346 -0.422127512476263 -0.681312611377148 -0.480955253851326 -0.127532113642518 0.70167236719409 0.639239660755246 0.125297923736559 0.278514090512226 1.4722976267701 -0.682649501911733 -0.0113090935710826 -0.144059520324587 -0.0225797228859809 -0.457405086826651 -0.405550315166438 -0.651426624663341 -0.0564596303924801 -0.657726516685374 -0.239026925468575 -0.586120402877914 -0.181964126922406 -0.538968313448322 -0.101240438837733 -0.261435074761014 -0.315692360756518 -0.513530987004525 -0.613890782456599 -0.570187254752256 -0.599633876439222 -0.204647960629081 1.69057447272929 -0.0818411444061431 -0.284378351693844 -0.377208914241911 0.329934413849668 -0.122816265683856 -0.652879014339121 -0.140561339629198 -0.677899556984319 -0.437322644983586 -0.31988894428682 -0.218728227354931 -0.165457449506862 -0.673722145921202 -0.262472628545878 -0.679385064500673 -0.661746126749481 -0.341702835706588 -0.418668445044228 -0.485605897171049 -0.0112706199478136 -0.0476189214374467 -0.301484204098512 -0.461589410411458 -0.443944617380174 -0.631567385803381 -0.213627233790031 -0.276210897695913 0.260484385018167 -0.530179938806765 -0.364673686768386 1.0124154884773 -0.0981369796571605 -0.586791009000293 -0.506043545649795 -0.613386156802328 -0.602513913236221 -0.577517891899203 -0.676392596506096 -0.054200722761223 1.77656229838409 -0.552024392311006 -0.0291614042339729 -0.549845067265051 -0.0946326377439702 -0.369345031774874 -0.458027275904946 -0.594595136151269 -0.683067437879051 -0.667903883143716 -0.17417719730062 -0.334009101572959 -0.379208837684714 -0.52318615827929 -0.0882500618800298 -0.27978031863839 -0.183039610732141 1.44600052794198 0.988168130793547 -0.545589050648304 -0.646949229912549 -0.234961563919482 -0.404862748212308 -0.178821716939661 -0.50711537051723 -0.622384742399268 -0.12007870593677 0.598888650152799 -0.0765156451672696 -0.408947351689107 -0.630358584080559 -0.313386586361045 -0.0734700571387589 -0.529065697969802 -0.385612109627642 -0.0178897160553337 -0.430525060569478 1.66362414119886 -0.238248846658996 -0.642102606487635 -0.48312000392713 -0.142037713957506 -0.660411524352826 -0.441350860076209 -0.279022122547914 -0.680653901634779 0.0268953015833989 -0.666049691043197 -0.671469010545058 -0.222680319277126 -0.144977086718011 1.29219641782983 -0.339476099141505 -0.194632127499831 -0.303754699044958 -0.682196102167138 -0.347116905750243 -0.0366967112593181 0.684843210814733 -0.266950131987684 -0.577124554383488 0.454686993783982 -0.53051959224131 -0.676165834299075 -0.0346177675117164 0.34050918538426 -0.1916499316161 -0.637501538389171 -0.550793509007932 -0.268114453907415 -0.178377360515235 -0.01880547832051 -0.472794564028283 -0.554391607889117 -0.241834916130201 -0.35881514759863 -0.632224438154713 -0.316736769823341 -0.382721976467594 1.61390077077476 -0.428632678065291 -0.3091306526584 -0.0874084652537846 -0.679778852419956 -0.448132920431453 -0.659123248801857 -0.240473382068711 -0.121260440968723 -0.682669375158333 -0.59571836297423 -0.487770531722744 -0.404165649892696 -0.652647090424736 -0.576647593428965 -0.618658568316287 -0.451174667830514 -0.513215971714726 -0.681327486183247 -0.634891692338089 -0.581873933963571 -0.220985467622121 0.0276449216625354 -0.126640685437421 -0.225697598514189 -0.101558859390567 -0.648466731855712 1.31468474929386 -0.378399650869586 -0.511034526819404 -0.0312125588963088 -0.556434397606269 -0.288627638231025 -0.511749098763889 -0.348521256433998 -0.521995459242113 -0.28524110725595 -0.178006701217978 -0.440139779101498 0.381827740817119 -0.0587892386121622 -0.544622163991337 0.751443543434166 -0.151342361241513 -0.413798978984208 -0.0782121456696881 -0.669254966795188 -0.321576000270129 -0.487274896887787 0.566969179161848 -0.0124075751226635 -0.3315176479322 -0.473142598390371 -0.61234153851139 -0.380143099117335 -0.0117615095222752 -0.58995591006364 -0.591170028575147 -0.634213294010888 -0.450659342469241 -0.23047014930915 -0.200294905293896 -0.312181578933517 -0.275614909655213 -0.414382652594973 -0.67260853555631 -0.13963831394385 -0.404225174543578 -0.549131952249069 -0.28114925279761 -0.24935966155875 -0.0578923008692892 1.68733380642599 -0.526347588892819 -0.110683575771615 -0.656494089687408 0.171207112277507 -0.672987117315286 -0.568839465714045 -0.35798016504043 -0.681358502648082 -0.434478946165904 -0.320348308290101 -0.10424918233448 -0.0754096248730012 -0.167674307463945 -0.145769119399336 -0.0303164984575125 1.31896931841837 0.450385978442017 -0.576504748787603 -0.331872327175948 -0.247966648144345 -0.626474775975406 -0.492478512027632 -0.635451451923927 1.62138935505169 -0.0179097225494789 -0.566977202197249 -0.287706120635374 -0.6822393854256 -0.519349855695735 0.760437062133877 -0.353994266013264 -0.210480928735513 -0.390303018082728 -0.474233800192242 0.120003015712003 -0.655789767430607 -0.468372264065046 -0.38120403022092 -0.44544071238138 -0.61455244354912 -0.194336170350417 -0.0984547684220342 -0.677479687599036 -0.352385895985978 -0.490685422522482 -0.412353908547372 -0.0812042671702041 -0.391677448441459 -0.0312528334393871 -0.310613920771624 -0.122609761670249 -0.112729574242021 1.3479758265894 -0.43692383076596 -0.641165333088474 -0.6612045194129 -0.0646229706504581 -0.232934493657561 -0.588653493589269 -0.54028111800764 -0.590363350590278 -0.664933464504157 -0.668565270106075 -0.196081358085233 0.718965450321598 -0.171691304070634 -0.271817989956817 -0.484294148192954 -0.680366509766926 -0.667894172305569 -0.347140038616457 -0.624452812512668 -0.257613679429211 -0.372299997471017 -0.500890184555119 -0.370021665076502 -0.530041413784284 -0.21138405886657 -0.278249820174715 -0.624509754617436 -0.236150722149508 -0.457525782093087 -0.681298376140822 -0.670692516026601 -0.545854437857203 -0.0133433813059963 -0.681780234696142 1.32038526302723 -0.317060834875798 -0.0328103958023879 -0.300584209325728 -0.109585264814709 0.0441307819959132 -0.594352709196056 0.390125085059433 -0.06618026371069 -0.0843097157603239 0.692557677443416 -0.575701492368951 -0.126398412995618 -0.153574312270794 -0.372149812646828 -0.451409784892596 1.71492747137978 -0.147739397596735 -0.410145475537123 -0.336709676639229 -0.468378623495813 -0.491101172218445 -0.587607113763184 1.36828909490986 -0.429645479357823 -0.387189808562097 -0.0302527270539619 -0.163599058940492 -0.648435731022752 -0.666249295760675 -0.678534612852726 -0.309795379292184 -0.255610176584349 -0.0676002484921447 -0.533266062100328 -0.61189399732168 -0.507620624917548 -0.428597447467812 -0.576488752868619 -0.197017519129106 0.660696765874461 -0.336702418304486 -0.630004237074743 0.441002161787788 0.0463314263185348 -0.277429040540155 -0.661277945626277 -0.67365040903769 1.03899380628324 -0.645769500026341 -0.652971439276442 -0.228112855523638 -0.371031413393556 -0.489840744822855 -0.459948722216065 -0.389989434162373 -0.174933583005422 -0.324647135837554 -0.10953631925797 -0.20311352210145 -0.59652186147597 -0.0469145119089168 -0.363067482930505 -0.128045114626146 -0.156710619345957 -0.0274459206766719 -0.682310426109558 -0.502565049249001 -0.0107849062204282 1.77063952121436 1.42832351617596 -0.434592649602638 -0.477612627526535 -0.153034430111582 -0.56939457120591 -0.544758478189846 -0.524819343479518 -0.418940910896848 -0.625120374324676 -0.302129633973489 -0.0814539585137894 -0.3457108434034 
</DataArray>