<?xml version="1.0"?>
<VTKFile type="UnstructuredGrid" version="0.1" byte_order="LittleEndian">
<UnstructuredGrid>
<Piece NumberOfPoints="21" NumberOfCells="20">
<Points>
<DataArray type="Float64" NumberOfComponents="3" format="ascii">
0.0000000000 0.0000000000 0.0000000000 1.0000000000 0.0000000000 0.0000000000 0.0500000000 0.0000000000 0.0000000000 0.1000000000 0.0000000000 0.0000000000 0.1500000000 0.0000000000 0.0000000000 0.2000000000 0.0000000000 0.0000000000 0.2500000000 0.0000000000 0.0000000000 0.3000000000 0.0000000000 0.0000000000 0.3500000000 0.0000000000 0.0000000000 0.4000000000 0.0000000000 0.0000000000 0.4500000000 0.0000000000 0.0000000000 0.5000000000 0.0000000000 0.0000000000 0.5500000000 0.0000000000 0.0000000000 0.6000000000 0.0000000000 0.0000000000 0.6500000000 0.0000000000 0.0000000000 0.7000000000 0.0000000000 0.0000000000 0.7500000000 0.0000000000 0.0000000000 0.8000000000 0.0000000000 0.0000000000 0.8500000000 0.0000000000 0.0000000000 0.9000000000 0.0000000000 0.0000000000 0.9500000000 0.0000000000 0.0000000000 
</DataArray>
</Points>
<Cells>
<DataArray type="UInt32" Name="connectivity" format="ascii">
0 2 2 3 3 4 4 5 5 6 6 7 7 8 8 9 9 10 10 11 11 12 12 13 13 14 14 15 15 16 16 17 17 18 18 19 19 20 20 1 
</DataArray>
<DataArray type="UInt32" Name="offsets" format="ascii">
2 4 6 8 10 12 14 16 18 20 22 24 26 28 30 32 34 36 38 40 
</DataArray>
<DataArray type="UInt32" Name="types" format="ascii">
3 3 3 3 3 3 3 3 3 3 3 3 3 3 3 3 3 3 3 3 
</DataArray>
</Cells>
<PointData Scalars="pressure_p1," Vectors="" Tensors="">
<DataArray type="Float64" Name="pressure_p1" format="ascii">
0.0000000000 -10.0000000000 0.1611181264 0.3218215163 0.4813322459 0.6381200816 0.7894614954 0.9309213176 1.0557332539 1.1540601593 1.2121252731 1.2112260097 1.1266794857 0.9268149763 0.5722406143 0.0157973562 -0.7960849011 -1.9194307149 -3.4041984421 -5.2780323375 -7.5172584840 
</DataArray>
</PointData>
<CellData Scalars="pressure_p0," Vectors="velocity_p0," Tensors="">
<DataArray type="Float64" Name="pressure_p0" format="ascii">
0.0805827680 0.2415657871 0.4018214620 0.5602526212 0.7147982879 0.8619574902 0.9962234373 1.1094060633 1.1898279539 1.2213932562 1.1825569339 1.0452716013 0.7740752186 0.3256271590 -0.3507632816 -1.3106903061 -2.6087539468 -4.2867216354 -6.3517657197 -8.7384786732 
</DataArray>
<DataArray type="Float64" Name="velocity_p0" NumberOfComponents="3" format="ascii">
-0.3222801016 0.0000000000 0.0000000000 -0.3214908226 0.0000000000 0.0000000000 -0.3191887719 0.0000000000 0.0000000000 -0.3138750941 0.0000000000 0.0000000000 -0.3031718070 0.0000000000 0.0000000000 -0.2836668919 0.0000000000 0.0000000000 -0.2507115221 0.0000000000 0.0000000000 -0.1981784581 0.0000000000 0.0000000000 -0.1182017448 0.0000000000 0.0000000000 -0.0009377200 0.0000000000 0.0000000000 0.1655787446 0.0000000000 0.0000000000 0.3953526706 0.0000000000 0.0000000000 0.7039008648 0.0000000000 0.0000000000 1.1069105242 0.0000000000 0.0000000000 1.6174880394 0.0000000000 0.0000000000 2.2410421088 0.0000000000 0.0000000000 2.9662875168 0.0000000000 0.0000000000 3.7499957999 0.0000000000 0.0000000000 4.4917999205 0.0000000000 0.0000000000 4.9933467445 0.0000000000 0.0000000000 
</DataArray>
</CellData>
</Piece>
</UnstructuredGrid>
</VTKFile>
