<?xml version="1.0"?>
<VTKFile type="UnstructuredGrid" version="0.1" byte_order="LittleEndian">
<UnstructuredGrid>
<Piece NumberOfPoints="21" NumberOfCells="20">
<Points>
<DataArray type="Float64" NumberOfComponents="3" format="ascii">
0.0000000000 0.0000000000 0.0000000000 1.0000000000 0.0000000000 0.0000000000 0.0500000000 0.0000000000 0.0000000000 0.1000000000 0.0000000000 0.0000000000 0.1500000000 0.0000000000 0.0000000000 0.2000000000 0.0000000000 0.0000000000 0.2500000000 0.0000000000 0.0000000000 0.3000000000 0.0000000000 0.0000000000 0.3500000000 0.0000000000 0.0000000000 0.4000000000 0.0000000000 0.0000000000 0.4500000000 0.0000000000 0.0000000000 0.5000000000 0.0000000000 0.0000000000 0.5500000000 0.0000000000 0.0000000000 0.6000000000 0.0000000000 0.0000000000 0.6500000000 0.0000000000 0.0000000000 0.7000000000 0.0000000000 0.0000000000 0.7500000000 0.0000000000 0.0000000000 0.8000000000 0.0000000000 0.0000000000 0.8500000000 0.0000000000 0.0000000000 0.9000000000 0.0000000000 0.0000000000 0.9500000000 0.0000000000 0.0000000000 
</DataArray>
</Points>
<Cells>
<DataArray type="UInt32" Name="connectivity" format="ascii">
0 2 2 3 3 4 4 5 5 6 6 7 7 8 8 9 9 10 10 11 11 12 12 13 13 14 14 15 15 16 16 17 17 18 18 19 19 20 20 1 
</DataArray>
<DataArray type="UInt32" Name="offsets" format="ascii">
2 4 6 8 10 12 14 16 18 20 22 24 26 28 30 32 34 36 38 40 
</DataArray>
<DataArray type="UInt32" Name="types" format="ascii">
3 3 3 3 3 3 3 3 3 3 3 3 3 3 3 3 3 3 3 3 
</DataArray>
</Cells>
<PointData Scalars="pressure_p1," Vectors="" Tensors="">
<DataArray type="Float64" Name="pressure_p1" format="ascii">
0.0000000000 5.2502215915 0.0467497952 0.0954092274 0.1479351805 0.2063794536 0.2729374376 0.3499987664 0.4402015669 0.5464930208 0.6722006513 0.8211213486 0.9976390417 1.2068876376 1.4549841359 1.7493686764 2.0993050934 2.5166192274 3.0167854885 3.6205187391 4.3560939181 
</DataArray>
</PointData>
<CellData Scalars="pressure_p0," Vectors="velocity_p0," Tensors="">
<DataArray type="Float64" Name="pressure_p0" format="ascii">
0.0232429571 0.0706804141 0.1209960964 0.1761876754 0.2383718830 0.3098340053 0.3930800463 0.4908936602 0.6064013121 0.7431512331 0.9052149185 1.0973246346 1.3250672820 1.5951648685 1.9158859532 2.2976523596 2.7539334777 3.3025597615 3.9676420980 4.7823610879 
</DataArray>
<DataArray type="Float64" Name="velocity_p0" NumberOfComponents="3" format="ascii">
-0.0932877000 0.0000000000 0.0000000000 -0.0971017268 0.0000000000 0.0000000000 -0.1048242288 0.0000000000 0.0000000000 -0.1166449259 0.0000000000 0.0000000000 -0.1328507872 0.0000000000 0.0000000000 -0.1538299047 0.0000000000 0.0000000000 -0.1800785740 0.0000000000 0.0000000000 -0.2122137290 0.0000000000 0.0000000000 -0.2509941049 0.0000000000 0.0000000000 -0.2973552888 0.0000000000 0.0000000000 -0.3524663785 0.0000000000 0.0000000000 -0.4178196061 0.0000000000 0.0000000000 -0.4953693777 0.0000000000 0.0000000000 -0.5877442861 0.0000000000 0.0000000000 -0.6985655053 0.0000000000 0.0000000000 -0.8329186397 0.0000000000 0.0000000000 -0.9980450825 0.0000000000 0.0000000000 -1.2043454414 0.0000000000 0.0000000000 -1.4668248738 0.0000000000 0.0000000000 -1.8071630218 0.0000000000 0.0000000000 
</DataArray>
</CellData>
</Piece>
</UnstructuredGrid>
</VTKFile>
