<?xml version="1.0"?>
<VTKFile type="UnstructuredGrid" version="0.1" byte_order="LittleEndian">
<UnstructuredGrid>
<Piece NumberOfPoints="21" NumberOfCells="20">
<Points>
<DataArray type="Float64" NumberOfComponents="3" format="ascii">
0.0000000000 0.0000000000 0.0000000000 1.0000000000 0.0000000000 0.0000000000 0.0500000000 0.0000000000 0.0000000000 0.1000000000 0.0000000000 0.0000000000 0.1500000000 0.0000000000 0.0000000000 0.2000000000 0.0000000000 0.0000000000 0.2500000000 0.0000000000 0.0000000000 0.3000000000 0.0000000000 0.0000000000 0.3500000000 0.0000000000 0.0000000000 0.4000000000 0.0000000000 0.0000000000 0.4500000000 0.0000000000 0.0000000000 0.5000000000 0.0000000000 0.0000000000 0.5500000000 0.0000000000 0.0000000000 0.6000000000 0.0000000000 0.0000000000 0.6500000000 0.0000000000 0.0000000000 0.7000000000 0.0000000000 0.0000000000 0.7500000000 0.0000000000 0.0000000000 0.8000000000 0.0000000000 0.0000000000 0.8500000000 0.0000000000 0.0000000000 0.9000000000 0.0000000000 0.0000000000 0.9500000000 0.0000000000 0.0000000000 
</DataArray>
</Points>
<Cells>
<DataArray type="UInt32" Name="connectivity" format="ascii">
0 2 2 3 3 4 4 5 5 6 6 7 7 8 8 9 9 10 10 11 11 12 12 13 13 14 14 15 15 16 16 17 17 18 18 19 19 20 20 1 
</DataArray>
<DataArray type="UInt32" Name="offsets" format="ascii">
2 4 6 8 10 12 14 16 18 20 22 24 26 28 30 32 34 36 38 40 
</DataArray>
<DataArray type="UInt32" Name="types" format="ascii">
3 3 3 3 3 3 3 3 3 3 3 3 3 3 3 3 3 3 3 3 
</DataArray>
</Cells>
<PointData Scalars="pressure_p1," Vectors="" Tensors="">
<DataArray type="Float64" Name="pressure_p1" format="ascii">
0.0000000000 2.1249961154 0.0038716153 0.0081266229 0.0131832068 0.0195317694 0.0277777339 0.0386926578 0.0532768423 0.0728368482 0.0990814077 0.1342389279 0.1811987391 0.2436758349 0.3263940790 0.4352741112 0.5775969426 0.7620885241 0.9988282174 1.2988155962 1.6729207090 
</DataArray>
</PointData>
<CellData Scalars="pressure_p0," Vectors="velocity_p0," Tensors="">
<DataArray type="Float64" Name="pressure_p0" format="ascii">
0.0019096710 0.0059183303 0.0105121558 0.0161399499 0.0233431906 0.0328025655 0.0453943730 0.0622600995 0.0848926539 0.1152426762 0.1558477306 0.2099855816 0.2818493304 0.3767357111 0.5012262875 0.6633214921 0.8724544706 1.1392578849 1.4748704018 1.8894325212 
</DataArray>
<DataArray type="Float64" Name="velocity_p0" NumberOfComponents="3" format="ascii">
-0.0077008454 0.0000000000 0.0000000000 -0.0084637804 0.0000000000 0.0000000000 -0.0100589417 0.0000000000 0.0000000000 -0.0126301704 0.0000000000 0.0000000000 -0.0164065856 0.0000000000 0.0000000000 -0.0217191805 0.0000000000 0.0000000000 -0.0290237866 0.0000000000 0.0000000000 -0.0389308772 0.0000000000 0.0000000000 -0.0522423902 0.0000000000 0.0000000000 -0.0699950223 0.0000000000 0.0000000000 -0.0935079807 0.0000000000 0.0000000000 -0.1244304875 0.0000000000 0.0000000000 -0.1647796678 0.0000000000 0.0000000000 -0.2169516178 0.0000000000 0.0000000000 -0.2836756039 0.0000000000 0.0000000000 -0.3678606529 0.0000000000 0.0000000000 -0.4722508834 0.0000000000 0.0000000000 -0.5987541708 0.0000000000 0.0000000000 -0.7472280203 0.0000000000 0.0000000000 -0.9133815654 0.0000000000 0.0000000000 
</DataArray>
</CellData>
</Piece>
</UnstructuredGrid>
</VTKFile>
