<?xml version="1.0"?>
<VTKFile type="UnstructuredGrid" version="0.1" byte_order="LittleEndian">
<UnstructuredGrid>
<Piece NumberOfPoints="21" NumberOfCells="20">
<Points>
<DataArray type="Float64" NumberOfComponents="3" format="ascii">
0.94999999999987 0 0 0 0 0 0.0499999999999 0 0 0.099999999999815 0 0 0.1499999999997 0 0 0.19999999999956 0 0 0.24999999999941 0 0 0.29999999999927 0 0 0.34999999999912 0 0 0.39999999999897 0 0 0.44999999999883 0 0 0.49999999999869 0 0 0.54999999999882 0 0 0.59999999999895 0 0 0.64999999999908 0 0 0.69999999999921 0 0 0.74999999999934 0 0 0.79999999999947 0 0 0.84999999999961 0 0 0.89999999999974 0 0 1 0 0 
</DataArray>
</Points>
<Cells>
<DataArray type="UInt32" Name="connectivity" format="ascii">
1 2 2 3 3 4 4 5 5 6 6 7 7 8 8 9 9 10 10 11 11 12 12 13 13 14 14 15 15 16 16 17 17 18 18 19 19 0 0 20 
</DataArray>
<DataArray type="UInt32" Name="offsets" format="ascii">
2 4 6 8 10 12 14 16 18 20 22 24 26 28 30 32 34 36 38 40 
</DataArray>
<DataArray type="UInt32" Name="types" format="ascii">
3 3 3 3 3 3 3 3 3 3 3 3 3 3 3 3 3 3 3 3 
</DataArray>
</Cells>
<CellData Scalars="pressure_p0," Vectors="velocity_p0," Tensors="">
<DataArray type="Float64" Name="pressure_p0" format="ascii">
0.071798780834647 0.21722774283029 0.36817317873265 0.52838621750649 0.70172548223296 0.89219444737397 1.1039727259232 1.341438973676 1.6091827349203 1.9120022062098 2.2548846424252 2.6429660829126 3.0814673787263 3.5756043253741 4.1304712271942 4.7508995851956 5.4412968532743 6.2054741861789 7.0464763099129 7.9664301363804 
</DataArray>
<DataArray type="Float64" Name="velocity_p0" NumberOfComponents="3" format="ascii">
-0.28780434574461 0 0 -0.29513741326993 0 0 -0.30989238856707 0 0 -0.33224388052325 0 0 -0.36244591034727 0 0 -0.40082185729888 0 0 -0.44775012260576 0 0 -0.50364481009838 0 0 -0.568930690992 0 0 -0.64401182114609 0 0 -0.7292334694584 0 0 -0.82483756123092 0 0 -0.93091270341172 0 0 -1.0473410798764 0 0 -1.1737460678734 0 0 -1.309446207541 0 0 -1.4534228584225 0 0 -1.6043099646455 0 0 -1.7604140228015 0 0 -1.9197696453297 0 0 
</DataArray>
</CellData>
</Piece>
</UnstructuredGrid>
</VTKFile>
