<?xml version="1.0"?>
<VTKFile type="UnstructuredGrid" version="0.1" byte_order="LittleEndian">
<UnstructuredGrid>
<Piece NumberOfPoints="21" NumberOfCells="20">
<Points>
<DataArray type="Float64" NumberOfComponents="3" format="ascii">
0.0000000000 0.0000000000 0.0000000000 1.0000000000 0.0000000000 0.0000000000 0.0500000000 0.0000000000 0.0000000000 0.1000000000 0.0000000000 0.0000000000 0.1500000000 0.0000000000 0.0000000000 0.2000000000 0.0000000000 0.0000000000 0.2500000000 0.0000000000 0.0000000000 0.3000000000 0.0000000000 0.0000000000 0.3500000000 0.0000000000 0.0000000000 0.4000000000 0.0000000000 0.0000000000 0.4500000000 0.0000000000 0.0000000000 0.5000000000 0.0000000000 0.0000000000 0.5500000000 0.0000000000 0.0000000000 0.6000000000 0.0000000000 0.0000000000 0.6500000000 0.0000000000 0.0000000000 0.7000000000 0.0000000000 0.0000000000 0.7500000000 0.0000000000 0.0000000000 0.8000000000 0.0000000000 0.0000000000 0.8500000000 0.0000000000 0.0000000000 0.9000000000 0.0000000000 0.0000000000 0.9500000000 0.0000000000 0.0000000000 
</DataArray>
</Points>
<Cells>
<DataArray type="UInt32" Name="connectivity" format="ascii">
0 2 2 3 3 4 4 5 5 6 6 7 7 8 8 9 9 10 10 11 11 12 12 13 13 14 14 15 15 16 16 17 17 18 18 19 19 20 20 1 
</DataArray>
<DataArray type="UInt32" Name="offsets" format="ascii">
2 4 6 8 10 12 14 16 18 20 22 24 26 28 30 32 34 36 38 40 
</DataArray>
<DataArray type="UInt32" Name="types" format="ascii">
3 3 3 3 3 3 3 3 3 3 3 3 3 3 3 3 3 3 3 3 
</DataArray>
</Cells>
<PointData Scalars="pressure_p1," Vectors="" Tensors="">
<DataArray type="Float64" Name="pressure_p1" format="ascii">
0.0000000000 -10.0000000000 0.1321758289 0.2606657205 0.3813738651 0.4893792991 0.5785124296 0.6409261386 0.6666733969 0.6433169506 0.5556158776 0.3853596557 0.1114534154 -0.2896025788 -0.8426542215 -1.5720356540 -2.4986843006 -3.6360591778 -4.9848882862 -6.5272295838 -8.2212685671 
</DataArray>
</PointData>
<CellData Scalars="pressure_p0," Vectors="velocity_p0," Tensors="">
<DataArray type="Float64" Name="pressure_p0" format="ascii">
0.0663380520 0.1971995649 0.3224127802 0.4375275365 0.5370579307 0.6140552254 0.6596797470 0.6627898256 0.6095821022 0.4833399423 0.2643761173 -0.0697076203 -0.5432799596 -1.1812539880 -2.0067459846 -3.0376073351 -4.2817317825 -5.7313448037 -7.3571421359 -9.1044413750 
</DataArray>
<DataArray type="Float64" Name="velocity_p0" NumberOfComponents="3" format="ascii">
-0.2647586781 0.0000000000 0.0000000000 -0.2574323108 0.0000000000 0.0000000000 -0.2419604479 0.0000000000 0.0000000000 -0.2166937270 0.0000000000 0.0000000000 -0.1791355468 0.0000000000 0.0000000000 -0.1259302191 0.0000000000 0.0000000000 -0.0528744747 0.0000000000 0.0000000000 0.0450205164 0.0000000000 0.0000000000 0.1733782775 0.0000000000 0.0000000000 0.3381656732 0.0000000000 0.0000000000 0.5451949395 0.0000000000 0.0000000000 0.7993399443 0.0000000000 0.0000000000 1.1033817443 0.0000000000 0.0000000000 1.4564112849 0.0000000000 0.0000000000 1.8517692662 0.0000000000 0.0000000000 2.2746317327 0.0000000000 0.0000000000 2.6996185908 0.0000000000 0.0000000000 3.0893187163 0.0000000000 0.0000000000 3.3955686643 0.0000000000 0.0000000000 3.5669860541 0.0000000000 0.0000000000 
</DataArray>
</CellData>
</Piece>
</UnstructuredGrid>
</VTKFile>
