<?xml version="1.0"?>
<VTKFile type="UnstructuredGrid" version="0.1" byte_order="LittleEndian">
<UnstructuredGrid>
<Piece NumberOfPoints="236" NumberOfCells="706">
<Points>
<DataArray type="Float64" NumberOfComponents="3" format="ascii">
0 0 0 0 0 0.40000000000166441 0 0.32892434865109021 0.32892434865109021 0 0.40000000000166441 0 0.33416666666749117 0.33416666666791067 0 0.33416666666645822 0 0.33416666666687761 0.39999999999911567 0 0 0.62412558229828341 0.26500093006025072 0 0.97934782608699855 0.40787109375058261 0 0.7999999999979498 0 0 0.77789883252811276 0.39570480562063071 0.39543357482263919 0.62596376811530841 0 0.26340755208326921 0.57500000000061269 0 0.57499999999949769 0.849152677791018 0 0.76609408500333809 0.40787109375015718 0 0.97934782608792492 0 0 0.80000000000332872 0.26500093005959219 0 0.62412558229931248 0 0.26235908848024581 0.61665443494884975 0 0.40787109374995661 0.97934782608798243 0 0.57500000000018214 0.57500000000018214 0 0.85167501661028155 0.7670914684099619 0.59772980397989239 0.59772980397970443 0.74731771606769093 0.57500000000222118 0.57500000000110618 0 0.73668669749125271 0.86068862301695703 0 0.39531730444687918 0.80019605692788165 0.39654492749411491 0.26340755208406552 0.6259637681177177 0 0 0.62491530451403432 0.26235908848027167 0 0.80000000000332872 0 0 1.200000000002774 0 0.26500093005965231 1.375874417702696 0 0.40787109375061498 1.0206521739145791 0 0.37819010083105031 1.488109359197332 0.37639255045733749 0 1.3863248792278431 0.25937977430558068 0 1.0206521739139061 0.40787109375008618 0 1.0000000000000291 0.99999999999996969 0 1.263313302510646 0.86068862301506388 0 1.4250000000002421 0.57500000000014528 0 1.740620225694506 0.62193599033743363 0.41010551790091843 1.5854304871968741 0.7721068750782103 0 2 0.7999999999979498 0.40787109375045588 2 0.9793478260856453 0.26500093005947722 2 0.6241255822972791 0 2 0.39999999999911567 0 2 0 0 1.6000000000000001 0 0 1.685972222222293 0.31402777777767188 0.33416666666678929 1.6658333333334849 0 0.40000000000166441 2 0 0.3341666666668387 2 0.3341666666664192 0.62596376811713206 2 0.26340755208327649 0.62596376811718013 1.7365924479167429 0 0.80000000000332872 2 0 0.57499999999943696 2 0.57500000000055196 0.84920286521341182 2 0.76599646645041963 0.92204894738342102 1.545944433704725 0.55253256161165365 0.58179751944592217 1.199262271083781 0.58179751944619096 0.57499999999972717 1.4249999999995451 0 0.86206805663365538 1.262904615478279 0 1.2339059149979039 1.1508473222113209 0 1.0000000000013569 1.0000000000020031 0 1.425000000001621 1.425000000001621 0 1.0362039003897969 1.032400726930619 0.49025282767413908 1.367905405405516 1.367905405405516 0.63209459459450335 1.000000000000635 2 0.99999999999835598 1.2345896428056129 2 0.84641423559720264 1.425000000001911 2 0.5749999999984764 1.020652173914391 2 0.4078710937494115 1.200000000002774 2 0 1.0206521739143919 1.592128906250684 0 1.383345565053743 1.737640911520447 0 1.3863248792284211 2 0.25937977430496501 1.685972222223028 2 0.31402777777693691 1.6000000000000001 2 0 1.671075651349931 1.671075651349931 0 2 1.685972222223028 0.31402777777693691 2 1.6000000000000001 0 2 2 0 2 2 0.39999999999911567 1.740620225695106 2 0.62193599033678559 2 2 0.7999999999979498 2 1.740620225695106 0.62193599033678559 2 1.425000000001911 0.57499999999847629 2 1.000000000000635 0.99999999999835576 2 1.2345896428056129 0.84641423559720252 2 1.020652173914391 0.40787109374941138 2 1.3863248792284211 0.25937977430496489 1.737640911520401 1.3750846954886311 0 2 1.200000000002774 0 2 0.80000000000332872 0 1.592128906250452 0.97934782608882909 0 2 0.62596376811713206 0.26340755208327649 1.5919037892070651 0.60245787335453693 0.40912424902564543 1.7349990699406379 0.62412558229936677 0 2 0.40000000000166441 0 2 0.3341666666668387 0.3341666666664192 2 0 0.39999999999911567 2 0 0 1.5999999999989469 0 0 1.665833333333216 0 0.33416666666646572 1.665833333333407 0.33416666666669298 0 1.374036231883393 0.26340755208345812 0 1.3758744177011391 0 0.26500093005953979 1.1999999999978941 0 0 1.0206521739124059 0 0.40787109374997071 1.151058336609301 0.76640924832138713 0 1.424999999999718 0.57500000000001494 0 1.19811642196055 0.57789440443542173 0.58983547034755146 1 0.99999999999999978 0.99999999999999978 1.2335907516799069 0 0.84894166339084287 1.0000000000002141 0 0.99999999999992895 1.425000000000477 0 0.57500000000037066 1.7365924479167549 0 0.62596376811523924 2 0 0.7999999999979498 2 0.26500093005947722 0.62412558229727921 2 0.40787109375045588 0.9793478260856453 1.5137040598352169 0.53344955263790295 0.97801656337898046 2 0.57499999999943696 0.57500000000055196 1.5147705253128161 0.91852444755677043 0.69631892236242632 2 0.84920286521341182 0.76599646645041952 1.500000000000274 0.99883321436442229 1.16639307242336 2 0.57500000000210227 1.4249999999987459 2 0.73668669749101645 1.139311376982779 2 0.26340755208402722 1.3740362318826671 2 0 1.1999999999978941 1.592128906250083 0 1.020652173912294 1.734999069940508 0 1.3758744177011299 1.592055221591679 0.37998381655983821 1.346767458941071 1.4249999999997249 0 1.425000000000185 1.1393113769850489 0 1.263313302510394 1.2526822839324241 0.59772980398008735 1.402270196020621 1.425000000001911 0.57499999999847629 2 1.000000000001781 0.99999999999894518 2 1.1535857644027949 0.76541035719405237 2 1.200000000002774 0 2 1.3740362318847941 0 1.736592447916669 1.3780640096633039 0.25937977430496151 2 1.685972222223028 0.31402777777693702 2 1.6658333333334381 0 1.665833333333264 1.6000000000000001 0 2 2 0 2 2 0 1.5999999999989469 2 0.33416666666757772 1.665833333332104 2 0.39999999999911567 2 1.7406202256951491 0.61367512077163267 2 1.6049090527780649 0.68972037691419241 1.610520945894512 2 0.62412558229832538 1.734999069939664 2 0.97934782608697624 1.5921289062492749 1.5921289062508031 0.97934782608568471 2 2 0.7999999999979498 2 2 1.1999999999978941 2 1.737640911519909 1.3750846954862539 2 2 1.3750846954865119 1.737640911519603 2 1.1510583366092999 1.2335907516785649 1.532347752213032 1.4746298915713509 1.076108883276101 2 1.4249999999998371 1.4249999999998371 2 1.7376409115198661 1.3833455650514059 1.5950886193190319 1.5950886193190319 1.4995967914346211 2 1.592128906250589 1.0206521739114489 2 2 1.1999999999978941 1.5921289062505879 2 1.0206521739114489 1.7376409115198661 2 1.3833455650514059 2 2 1.5999999999989469 2 2 2 2 1.5999999999989469 2 2 1.671075651348906 1.671075651348906 1.671075651348906 1.671075651348906 2 1.5999999999989469 2 2 1.671075651348906 2 1.671075651348906 1.3750846954865119 2 1.737640911519603 1.3833455650517461 1.737640911519633 2 1.0206521739131471 1.5921289062494219 2 1.1999999999978941 2 2 1.4249999999998371 2 1.4249999999998371 1.1510583366092999 2 1.2335907516785649 1.1981164219601721 1.4101645296525169 1.4221055955645681 1.416074976583422 1.0640336752305579 1.5993145461844129 1.4249999999998371 1.4249999999998371 2 1.2340035335497621 1.1507971347859809 2 0.86068862301746607 1.2633133025089971 2 0.5750000000018145 1.424999999998573 2 0.59772980397967113 1.252682283932151 1.4022701960199091 0.86620738987133672 1.5000000000001401 1.0337672479303861 0.73668669749101645 2 1.139311376982779 0.57500000000210227 2 1.4249999999987459 0.97934782608697635 2 1.5921289062492749 0.7999999999979498 2 2 0.77911601688602494 1.603176022082401 1.607321515253783 0.62193599033808677 1.7406202256939109 2 0.62412558229832538 2 1.734999069939664 0.33416666666757772 2 1.665833333332104 0.39999999999911567 2 2 0.31402777777840701 1.6859722222215581 2 0 1.665833333333429 1.665833333333256 0 1.6000000000000001 2 0 2 2 0 2 1.5999999999989469 0.26340755208402722 2 1.3740362318826671 0 2 1.1999999999978941 0 1.592128906249999 1.0206521739122849 0.39539622647752048 1.604332214875325 1.222086277851258 0 1.73499906994049 1.375874417701122 0 1.4249999999997121 1.4250000000001719 0 1.1379319433661621 1.2629046154773571 0 1.374036231884781 1.736592447916667 0.4078710937509023 1.020652173913281 2 0.25937977430622478 1.3863248792272369 2 0 1.200000000002774 2 0 0.80000000000332872 2 0 0.97934782608799098 1.5921289062499051 0 0.62412558229928472 1.7349990699404849 0.26235908848041961 0.62491530451389399 2 0.57500000000013385 0.57500000000013385 2 0.76640924832151791 0.84894166339049981 2 0.98528458949676634 0.98528458949702458 1.516045488389935 0.63209459459459538 0.63209459459460771 1.3679054054053961 0.48528811404415773 0.99061345538166756 1.009386544617999 0 0.57499999999972706 1.4249999999995451 0 0.73703553820768952 1.137914212601322 0 0.26340755208329458 1.374036231884757 0.26340755208335531 0 1.374036231884725 0 0 1.200000000002774 0.73709538452274337 0 1.137931943365984 0.98528458949709452 0.48395451161029718 1.014715410503322 0.57499999999978968 0 1.424999999999482 0.62412558229932147 0 1.7349990699404549 0.97934782608803661 0 1.5921289062498969 0.80000000000332872 0 2 0.979347826088805 0.40787109374939401 2 0.61665443494899885 0.26235908848011791 2 0.40000000000166441 0 2 0.33416666666682932 0 1.665833333333445 0.32892434865106179 0.32892434865106179 2 0 0.40000000000166441 2 0 0.33416666666678929 1.6658333333334849 0 0 1.6000000000000001 0 0 2 
</DataArray>
</Points>
<Cells>
<DataArray type="UInt32" Name="connectivity" format="ascii">
[...]
<CellData Scalars="pressure_p0," Vectors="velocity_p0," Tensors="">
<DataArray type="Float64" Name="pressure_p0" format="ascii">
0.49862888324120386 0.65129885226841111 0.70911820311307316 0.43154550177631368 0.71124487117280988 0.65336415857079788 0.4315455309161661 0.89088824764616281 1.1218195184818081 1.0691238871664912 0.94355807186893337 1.0013773857916863 0.43416668775917477 0.71170783168840901 0.65644834995746049 0.94870786062857704 1.0039675033668765 0.74462449926206187 1.0368839517512027 1.0691245729428343 1.2488460028572519 1.1613459148769609 1.2039356511748061 1.2961950953350891 1.1717329474970575 1.6876568503709757 1.0691853109619442 1.259232660575091 1.56926514867856 1.3877352339013858 2.0085208029869097 1.9027536587046832 1.7446633225652013 1.4407017757055429 1.9935569605457149 1.9792514114247548 1.7050676212593303 1.5238107116331392 1.1158911239034681 1.1936094529441243 0.98883996365787097 0.74203507808545033 1.342280731515308 1.3199887342962773 1.2621692473247639 1.2745341737402478 1.3397524268146246 1.1574099166818659 1.4015854321454475 1.7059280600576052 1.5246906200381249 1.5759004840945403 1.3356711401782344 2.0147424392610258 1.90972240406838 1.4473370544881849 1.7505514139464813 1.9947510485193001 1.9804453228885182 2.4477302644109442 2.4481438352530249 2.4780047082736778 2.4661225595889213 2.4668696947728819 2.0904033126372759 2.109129570193967 1.9156826695582265 2.0957450592448792 2.1141375633780095 1.8293325554581592 2.0277873927216983 1.9106852802515848 2.0184260057425023 1.6177752392064766 1.4259082842955104 1.2448575538414792 1.4771181295451217 1.4419896438691033 1.7452039455489978 1.2649886028909969 1.1774884534511172 1.4404304842987496 1.074941103344216 0.7441614844746387 0.95137870198122965 1.009259537933805 1.0421761180275337 1.0717953693131608 1.2644640322436633 1.1769640062072251 1.3122763366159329 1.2142616980620105 1.4787758555288488 1.4244805359168697 1.8823181651628398 1.5216450251191307 1.8280228384955017 2.0085182964043553 1.9708920023587657 1.6851535962274335 1.6729492512272779 1.9065329350942921 1.906532896230041 1.8292300886838755 1.972099247026927 2.008518374558764 1.7394489304589871 1.9788456783594881 1.8835372587882055 2.1477283242762475 2.0570140754932811 2.3761063852663691 2.4349473877833812 2.6496867320909203 2.3432980711337223 2.3136254050839939 2.3432227518242761 2.4357449580447845 2.5655043221007467 2.9973642218815901 2.6815600204887931 2.6357449500323837 2.8919105604482027 2.999999977288188 2.9609970016916374 3.048496965569131 2.7623652319036966 2.7048314501813504 2.6129206564508296 2.357722377695981 2.580003873543856 2.267083341591162 2.5406768882589224 2.1670833638876861 1.7216450420622058 1.8114262372091123 1.9720993879922277 1.9000000177099481 2.1513120619747546 2.3183953955539343 2.2277564827161171 2.1513122232079449 2.3736550374159657 2.489426208227806 2.2670833562342296 2.4129819324021238 2.4500992830440711 2.737537930235205 2.7375991904088655 2.8256473151771679 2.612981925053468 2.4064437567333705 2.6287865009715805 2.8560969163524152 2.4989661240442382 2.8701127691999355 2.8009652652631596 2.9252443456703556 3.1221051901955708 3.3035620920552047 3.1383418537131109 3.2300151191778044 3.4147034647246146 3.4115146351612915 3.508924737257952 3.7227928623098472 3.2008354485500972 2.7952150494320636 2.5984294913590307 2.8877499776306594 2.7539404907921603 2.9458390361818294 2.8120296817176582 2.7355598417076168 2.1610162618057669 2.5168035369475046 2.3770892916601669 2.4065189057976553 1.9790885685794992 1.8784324939873509 2.4395703280504515 2.0703021602275493 2.2671467637133063 2.5357587374459793 2.8038602480274486 2.7935341881872762 2.8634377965549849 2.8602828812183896 2.8464919276545686 2.83301086845636 2.5222780096487862 2.9868219156109808 3.0140937841372688 3.529054159438437 3.2906859592838376 3.5614577589034822 3.4627411616181654 3.1971010834970781 3.617358893735922 3.5085341720629595 3.7329921053058821 3.88299880446651 3.4673521906136182 3.679182050581645 3.6253758334296546 4.1942178056934516 3.5363129633410924 3.6325132257491757 3.5236885631130144 3.3039353254942476 3.3488036714998382 3.0905728508402728 3.01032618477561 3.0457045200246475 3.0305501549007183 3.2887809280265867 3.1702610251078016 2.9879184902485201 3.3691871420483754 3.391672816376615 3.7534026067226218 3.5889404639280351 3.9326154145253636 3.7355378365753329 3.4272106354215324 3.6469640073189415 3.6775142250904214 3.5889404715313651 3.735537848947347 3.4251454041880658 3.6469640268392767 3.8355378392404238 4.1906390507663982 4.1000000031100923 4.2812781626070358 4.4812781116324789 3.9326154254607659 4.2646059361663733 4.4178011222197719 4.5970295352221306 4.5344733275890494 4.3552448257941681 4.2646057956289782 4.0440260174503511 3.9533870426197906 3.9533869593262878 4.023254454511104 3.9326154444514549 3.8829989330792953 4.1942177281021884 3.7189608514847383 3.7064542166362786 3.6654023411573147 3.7397324642217487 3.4815109119560681 3.6446308511031962 3.5635850604265582 3.6597852879359651 3.6105334888449119 3.753402623618836 3.3887149898553806 3.1243802092964272 3.1201580356510634 3.1681958628528113 3.3671219672679173 2.9755272647589734 3.389607576964087 3.3467384097606034 3.0781813956093007 3.000000000486629 2.6549932424609413 2.9223428770905913 2.9332752917085858 2.8732144469976264 3.0178451852514208 2.8277976479052129 2.6300788279263543 2.2406528942557982 2.6058648331962959 2.3835221128134227 2.6121240053379395 2.3568645377728434 2.2670833495685003 2.5792073332308325 2.8277364336306818 2.540236483902123 2.4893649887110385 2.4129207262474885 2.267083351729466 2.1670833630614141 1.7195798777036029 1.8102188963498564 1.9000000268737884 2.4637921977771051 2.2415105527049946 2.0610904379117723 2.0610903717300566 2.3179548543634105 2.0602327442030255 2.407736063469724 1.9704515212010363 2.1525520369612612 2.0619131430425588 1.8588113307506093 1.5195798277929509 1.4132966578777222 1.4767106739697375 1.7681724420480207 1.8476276488090029 1.7047584863873753 1.9176337431864234 1.8098932682956166 2.2152707321035709 2.369296399276565 2.3661422551909124 2.2217005550433022 2.1516944509590958 2.2731079974567203 2.6723330323887513 2.6691783611241746 2.3614150911963989 2.102803000187516 2.7635788631226479 2.6644511153660262 2.7810288260587845 2.8801567726354116 3.2050020461738788 2.7187420719626774 2.1368945387482889 2.4893751913132052 1.9692254513601979 1.8730370481428267 2.0454332074997996 2.4301207446782804 2.3683868649161965 2.4986254420221208 2.7200845972433898 2.4978029526413423 2.5001267418066973 2.8469313966201821 2.7906389223353747 2.9999999426467396 2.8597253483856724 2.6129206726050747 2.9169455204709434 2.916017797942061 3.1128787609077762 3.4758964643558765 3.2943969538230089 3.0933671243240588 3.0984637293409181 3.1942056775767838 3.1993021837240945 3.4550022608059576 3.6290917704462569 3.4424956223268515 3.641598452296086 3.9814683218095777 4.0553187440944924 4.0044626051673227 4.1243374084423605 4.0881561448085249 3.7749885345555367 3.691295027729379 3.4713000253480351 3.6455058070443425 3.4017981919297062 3.3858672657072164 3.7390624383052034 3.5858672337378876 3.3870793152928393 3.3167808805626668 3.516780847662814 3.1297015734081834 3.0606151975791849 3.1528366228969786 2.973115183440215 3.0859939430070402 2.9998206120738868 2.7960529786963026 3.1330291465017641 2.9560282946229073 2.8398453512244015 2.5307769281559347 2.2422776143772341 2.7691959743981358 2.6776844916766644 2.7911076095926144 2.4985700452331132 2.9404514516650031 3.2357693884075616 3.0558128861043792 3.3154709681843109 3.5354659710452765 3.6209862696854951 3.7256202045441462 3.3511306489480477 3.5113778281652781 3.6844287100132642 3.7890627088478936 3.6988190078060721 3.7692070989885469 4.2386743699824656 4.0989060815312373 4.1187616297904661 4.0958051659431121 3.8712586605713328 3.6397243804467831 3.3469932879958328 3.0805014583390822 3.3338228575731312 3.0673310417759323 3.3870181083590318 2.9461968542055699 3.5285202193621878 3.3298899600906005 3.5693362673125524 3.8856490095836289 3.8059889647784182 3.662618148841835 3.7153500726222095 3.4403366226576462 3.3496362343174058 3.152775381759545 3.4199347209228566 3.642277580085032 3.7329166533971829 3.5719791338443798 3.8329165924640165 3.5870793138136894 3.7329167403797983 3.5106351635194248 3.8059889001916702 4.2783550680616624 4.0648616631313255 4.1000000448224165 4.1885739895039924 4.1546425828913875 4.4783550695895276 4.3546425766052348 4.2077310400113399 4.0648619804912576 4.2089377366941374 4.0660686470328855 4.40893779026662 4.2818814613833007 4.4077307954718767 4.4620259163229044 4.7857384336696978 4.8639198445208978 4.9992320059251227 5.2563628361790027 4.6829806071879316 4.5837754996286959 4.6534065483710725 4.7486618226468398 4.6829804159377728 4.653406070215178 4.7190875892633191 4.4713868695878736 4.0530959243911511 4.1751933618459525 4.0327197463030897 4.0534913278806837 4.482629168535933 4.2903800976398632 4.3092328945774057 4.5009612857584056 4.5018772603783717 4.6859616243154596 5.0007278926627121 4.7537082371150801 4.7344601974580334 4.6667135312033157 5.0136886261869629 4.8866373188303278 4.8063906136160615 4.6074088366672692 4.6667134529299785 4.6859615465860465 5.0007278065567249 5.2604932410452783 5.0684744243647666 5.2960309249591795 5.3513222756184167 5.1237656586077076 5.5710756427243808 5.5066133457378612 5.0643439840655207 5.2919006647640323 5.5710756504498784 5.3492569914824672 4.9986626249633783 5.1217002741137394 5.1790567440170348 5.0007279358388796 4.9986627195548161 5.5710756473293417 5.1237656342377464 5.3513222126073678 5.2939657868165471 5.0664092710766422 4.9986625154070872 4.6707212599811587 5.2584280006917057 4.6535386325540085 4.7384679714725984 4.6727866305024337 4.7192199796760477 4.8742459372953508 5.0116233194445492 4.5818426400965198 4.6411471904031982 4.2440313479630722 4.4591279975902127 4.2903800416434965 4.4826291073858968 3.9664067937325926 3.9871782322884917 3.9745239451945404 4.3370303478192067 4.4133115768971045 4.2206671593908807 3.6283614852788579 3.4792437150912772 3.6946743451222792 3.9645302603456258 3.8154123775323043 3.5455566417723756 3.8991059392095999 3.9102509811242534 4.4123954025861609 4.4714253686669156 4.3361525184530532 4.2879927117414489 4.4694921451758622 4.1347974460725645 4.1236525901981258 3.8064922833923442 4.1891961171479597 4.1815994823238727 3.8415748565355448 3.7220006135391355 3.6051398974361297 3.7013021973026081 3.7132282045931833 3.9076543202818566 3.6196625518455225 3.0344861515934509 3.2848178368111465 3.0561464183346336 2.9686798483985322 3.0899398853257245 3.4660212080198081 3.6681641841536679 3.5424144223597804 3.6898242669505774 3.9511557908943375 3.6218501200021977 3.3163572630661244 3.9151553149618259 3.6212578928625834 3.802857051498139 3.7718565256263941 3.912558732652867 4.2054343333190278 4.1092720579068942 4.430053880256053 4.7960645265215298 4.4934681169870645 4.4412379336720225 4.3010647279756355 4.2412380387061344 4.0880428006879503 4.1778236797581663 4.4804202583350756 4.0880425866128842 4.3778237398764706 4.0871846014371327 4.2300538001451891 4.1906391130653615 4.2804202519412442 4.1000000135244337 3.7417464626064585 3.5194034470211801 3.9088299909047084 3.6357738017157883 3.8303200261637986 3.4134311039668548 3.128527546713197 3.4220000306406102 3.6443429363042057 3.7329166980760675 3.8329165868076283 3.7329166867929438 3.5870793086799342 3.5106351310705119 3.4925329435169026 3.4160887384742571 3.3870793343329755 3.2925330564533954 3.7148145586657768 3.5616193463546342 3.3131684146152254 3.3616193752607431 3.1054536145157643 3.0363673268148559 2.9488673052675671 3.1285886980343802 2.9313335074602502 3.1087815771086866 3.3936851446358238 2.7713580957659412 2.589858536894567 2.2525315730081386 2.5579852443437949 2.8401554290034126 2.6775709361235434 2.7687489482747254 2.9461969861526027 3.499657552869726 3.0908277737386451 3.3593848497559682 3.5817278873167431 3.3890833667978941 3.0776572167701186 3.3462142422704471 3.0000000361607135 2.9218186523648808 2.9711940362012617 2.6544689756322359 2.4696234318441737 2.2478047909731877 2.612492596933452 2.3906739938509194 2.6115997937646647 2.8318044686530528 3.0244731571262591 2.8798422910870292 3.2064923284576006 3.196166134384919 3.6020455201209476 3.7552408880915422 3.1896520908212422 3.2803195041643143 3.2466853114135317 3.2321627638004591 2.9641702450892979 2.9006661321310614 2.9009995948062683 2.6503343464486524 2.9638367621922748 2.3860285679567763 2.3909522740379781 2.1902685587873387 2.3331377743805732 2.7353854598370062 2.2696302690916221 1.9735657851180777 2.2337773698149963 1.9592600789156061 1.7609939943362809 1.837327354919621 1.8235502438915194 1.914189242768376 2.0673844819449969 1.9141893219324548 1.9767454657606758 2.0673845159757955 1.518721902278602 1.4655266361402208 1.4029703567610645 1.9735852374933738 2.3906382104015669 1.9592795062557786 2.2334633750191601 2.1904013709354899 2.3332706964623706 2.7350519472931532 2.2696496271628508 2.2478046905079063 2.3906738161174967 2.9608676132536593 2.4675580809171631 2.737478473263061 2.7794550645069704 2.8563393501089744 2.989673887800306 2.8297392003128361 2.8143628281109789 3.0120817257747423 2.6095345738070788 2.4095345570533278 2.4842155980092495 2.2644621998811445 2.3224857982231089 2.5443044851694814 2.5422391544673277 2.4115997946736232 2.4862808295584142 2.2644622006575488 2.0673845225490597 1.8093609390841983 1.9000000019259513 1.7187218828934863 2.1644621899579644 
</DataArray>
<DataArray type="Float64" Name="velocity_p0" NumberOfComponents="3" format="ascii">