<?xml version="1.0"?>
<VTKFile type="UnstructuredGrid" version="0.1" byte_order="LittleEndian">
<UnstructuredGrid>
<Piece NumberOfPoints="750" NumberOfCells="250">
<Points>
<DataArray type="Float64" NumberOfComponents="3" format="ascii">
0.2000000000 0.2000000000 0.0000000000 0.2000000000 0.1800000000 0.0000000000 0.1800243787 0.1800243787 0.0000000000 0.2000000000 0.0000000000 0.0000000000 0.1800000000 0.0000000000 0.0000000000 0.1800243787 0.0199756213 0.0000000000 0.0000000000 0.2000000000 0.0000000000 0.0200000000 0.2000000000 0.0000000000 0.0199756213 0.1800243787 0.0000000000 0.0000000000 0.0200000000 0.0000000000 0.0199756213 0.0199756213 0.0000000000 0.0000000000 0.0000000000 0.0000000000 0.2000000000 0.2000000000 0.0000000000 0.1800243787 0.1800243787 0.0000000000 0.1800000000 0.2000000000 0.0000000000 0.2000000000 0.0000000000 0.0000000000 0.1800243787 0.0199756213 0.0000000000 0.2000000000 0.0200000000 0.0000000000 0.0000000000 0.2000000000 0.0000000000 0.0199756213 0.1800243787 0.0000000000 0.0000000000 0.1800000000 0.0000000000 0.0000000000 0.0000000000 0.0000000000 0.0199756213 0.0199756213 0.0000000000 0.0200000000 0.0000000000 0.0000000000 0.0866027875 0.0719686411 0.0000000000 0.0821579650 0.0967855079 0.0000000000 0.0995126975 0.0817268679 0.0000000000 0.1133972125 0.1280313589 0.0000000000 0.1153975230 0.1092507271 0.0000000000 0.0900331758 0.1151701383 0.0000000000 0.0866027875 0.0719686411 0.0000000000 0.0656937592 0.0871752682 0.0000000000 0.0821579650 0.0967855079 0.0000000000 0.0882602501 0.1332346729 0.0000000000 0.1133972125 0.1280313589 0.0000000000 0.0900331758 0.1151701383 0.0000000000 0.1332346729 0.1117397499 0.0000000000 0.1280313589 0.0866027875 0.0000000000 0.1153975230 0.1092507271 0.0000000000 0.1280313589 0.0866027875 0.0000000000 0.1117880445 0.0899810451 0.0000000000 0.1153975230 0.1092507271 0.0000000000 0.0439372822 0.1000000000 0.0000000000 0.0656937592 0.0871752682 0.0000000000 0.0498957980 0.0769409783 0.0000000000 0.0882602501 0.1332346729 0.0000000000 0.0769409783 0.1501042020 0.0000000000 0.1000000000 0.1560627178 0.0000000000 0.1117397499 0.0667653271 0.0000000000 0.1230590217 0.0498957980 0.0000000000 0.1000000000 0.0439372822 0.0000000000 0.1560627178 0.1000000000 0.0000000000 0.1332346729 0.1117397499 0.0000000000 0.1501042020 0.1230590217 0.0000000000 0.1117397499 0.0667653271 0.0000000000 0.1117880445 0.0899810451 0.0000000000 0.1280313589 0.0866027875 0.0000000000 0.0000000000 0.1000000000 0.0000000000 0.0000000000 0.1200000000 0.0000000000 0.0220020016 0.1077755918 0.0000000000 0.1000000000 0.2000000000 0.0000000000 0.1200000000 0.2000000000 0.0000000000 0.1078447255 0.1780724198 0.0000000000 0.1000000000 0.0000000000 0.0000000000 0.0800000000 0.0000000000 0.0000000000 0.0922244082 0.0220020016 0.0000000000 0.2000000000 0.1000000000 0.0000000000 0.2000000000 0.0800000000 0.0000000000 0.1779979984 0.0922244082 0.0000000000 0.0000000000 0.1200000000 0.0000000000 0.0140878623 0.1291911885 0.0000000000 0.0220020016 0.1077755918 0.0000000000 0.1200000000 0.2000000000 0.0000000000 0.1292004063 0.1859220606 0.0000000000 0.1078447255 0.1780724198 0.0000000000 0.0800000000 0.0000000000 0.0000000000 0.0708088115 0.0140878623 0.0000000000 0.0922244082 0.0220020016 0.0000000000 0.2000000000 0.0800000000 0.0000000000 0.1859121377 0.0708088115 0.0000000000 0.1779979984 0.0922244082 0.0000000000 0.0882602501 0.1332346729 0.0000000000 0.1028063475 0.1401867854 0.0000000000 0.1133972125 0.1280313589 0.0000000000 0.1332346729 0.1117397499 0.0000000000 0.1401867854 0.0971936525 0.0000000000 0.1280313589 0.0866027875 0.0000000000 0.0439372822 0.1000000000 0.0000000000 0.0598132146 0.1028063475 0.0000000000 0.0656937592 0.0871752682 0.0000000000 0.0882602501 0.1332346729 0.0000000000 0.1000000000 0.1560627178 0.0000000000 0.1028063475 0.1401867854 0.0000000000 0.1117397499 0.0667653271 0.0000000000 0.1000000000 0.0439372822 0.0000000000 0.0963033959 0.0620110877 0.0000000000 0.1560627178 0.1000000000 0.0000000000 0.1401867854 0.0971936525 0.0000000000 0.1332346729 0.1117397499 0.0000000000 0.0866027875 0.0719686411 0.0000000000 0.0687633044 0.0698536222 0.0000000000 0.0656937592 0.0871752682 0.0000000000 0.1117397499 0.0667653271 0.0000000000 0.1280313589 0.0866027875 0.0000000000 0.1301463778 0.0687633044 0.0000000000 0.1117397499 0.0667653271 0.0000000000 0.0995126975 0.0817268679 0.0000000000 0.1117880445 0.0899810451 0.0000000000 0.1000000000 0.1000000000 0.0000000000 0.0900331758 0.1151701383 0.0000000000 0.1153975230 0.1092507271 0.0000000000 0.1000000000 0.1000000000 0.0000000000 0.0995126975 0.0817268679 0.0000000000 0.0821579650 0.0967855079 0.0000000000 0.0220020016 0.1077755918 0.0000000000 0.0140878623 0.1291911885 0.0000000000 0.0302267862 0.1281420225 0.0000000000 0.1078447255 0.1780724198 0.0000000000 0.1292004063 0.1859220606 0.0000000000 0.1281420225 0.1697732138 0.0000000000 0.0922244082 0.0220020016 0.0000000000 0.0708088115 0.0140878623 0.0000000000 0.0718579775 0.0302267862 0.0000000000 0.1697732138 0.0718579775 0.0000000000 0.1779979984 0.0922244082 0.0000000000 0.1859121377 0.0708088115 0.0000000000 0.1600000000 0.0000000000 0.0000000000 0.1400000000 0.0000000000 0.0000000000 0.1478404931 0.0196079395 0.0000000000 0.2000000000 0.1600000000 0.0000000000 0.2000000000 0.1400000000 0.0000000000 0.1803920605 0.1478404931 0.0000000000 0.0400000000 0.2000000000 0.0000000000 0.0600000000 0.2000000000 0.0000000000 0.0521595069 0.1803920605 0.0000000000 0.0000000000 0.0600000000 0.0000000000 0.0196079395 0.0521595069 0.0000000000 0.0000000000 0.0400000000 0.0000000000 0.0000000000 0.1400000000 0.0000000000 0.0000000000 0.1600000000 0.0000000000 0.0196393439 0.1480162992 0.0000000000 0.1400000000 0.2000000000 0.0000000000 0.1600000000 0.2000000000 0.0000000000 0.1480162992 0.1803606561 0.0000000000 0.0600000000 0.0000000000 0.0000000000 0.0400000000 0.0000000000 0.0000000000 0.0519837008 0.0196393439 0.0000000000 0.2000000000 0.0600000000 0.0000000000 0.2000000000 0.0400000000 0.0000000000 0.1803606561 0.0519837008 0.0000000000 0.0302267862 0.0718579775 0.0000000000 0.0498957980 0.0769409783 0.0000000000 0.0397469407 0.0544412351 0.0000000000 0.0718579775 0.1697732138 0.0000000000 0.0769409783 0.1501042020 0.0000000000 0.0544412351 0.1602530593 0.0000000000 0.1281420225 0.0302267862 0.0000000000 0.1230590217 0.0498957980 0.0000000000 0.1455587649 0.0397469407 0.0000000000 0.1697732138 0.1281420225 0.0000000000 0.1501042020 0.1230590217 0.0000000000 0.1602530593 0.1455587649 0.0000000000 0.0592612094 0.0570385509 0.0000000000 0.0397469407 0.0544412351 0.0000000000 0.0498957980 0.0769409783 0.0000000000 0.0570385509 0.1407387906 0.0000000000 0.0544412351 0.1602530593 0.0000000000 0.0769409783 0.1501042020 0.0000000000 0.1429614491 0.0592612094 0.0000000000 0.1455587649 0.0397469407 0.0000000000 0.1230590217 0.0498957980 0.0000000000 0.1407387906 0.1429614491 0.0000000000 0.1602530593 0.1455587649 0.0000000000 0.1501042020 0.1230590217 0.0000000000 0.0000000000 0.1000000000 0.0000000000 0.0220020016 0.1077755918 0.0000000000 0.0170737305 0.0866871573 0.0000000000 0.1000000000 0.2000000000 0.0000000000 0.1078447255 0.1780724198 0.0000000000 0.0866790215 0.1829350328 0.0000000000 0.1000000000 0.0000000000 0.0000000000 0.0922244082 0.0220020016 0.0000000000 0.1133128427 0.0170737305 0.0000000000 0.2000000000 0.1000000000 0.0000000000 0.1779979984 0.0922244082 0.0000000000 0.1828275351 0.1134208383 0.0000000000 0.0302267862 0.1281420225 0.0000000000 0.0196393439 0.1480162992 0.0000000000 0.0400766867 0.1474047290 0.0000000000 0.0718579775 0.0302267862 0.0000000000 0.0519837008 0.0196393439 0.0000000000 0.0525952710 0.0400766867 0.0000000000 0.1281420225 0.1697732138 0.0000000000 0.1480162992 0.1803606561 0.0000000000 0.1474047290 0.1599233133 0.0000000000 0.1697732138 0.0718579775 0.0000000000 0.1803606561 0.0519837008 0.0000000000 0.1599233133 0.0525952710 0.0000000000 0.0220020016 0.1077755918 0.0000000000 0.0439372822 0.1000000000 0.0000000000 0.0332980393 0.0883115495 0.0000000000 0.1000000000 0.1560627178 0.0000000000 0.0881691940 0.1667064087 0.0000000000 0.1078447255 0.1780724198 0.0000000000 0.1000000000 0.0439372822 0.0000000000 0.1116884505 0.0332980393 0.0000000000 0.0922244082 0.0220020016 0.0000000000 0.1560627178 0.1000000000 0.0000000000 0.1668398726 0.1117996421 0.0000000000 0.1779979984 0.0922244082 0.0000000000 0.0866027875 0.0719686411 0.0000000000 0.0801027402 0.0536111366 0.0000000000 0.0687633044 0.0698536222 0.0000000000 0.0719686411 0.1133972125 0.0000000000 0.0535586262 0.1197318820 0.0000000000 0.0715001362 0.1303904855 0.0000000000 0.1280313589 0.0866027875 0.0000000000 0.1465981847 0.0801875266 0.0000000000 0.1301463778 0.0687633044 0.0000000000 0.1133972125 0.1280313589 0.0000000000 0.1197318820 0.1464413738 0.0000000000 0.1303904855 0.1284998638 0.0000000000 0.0341005291 0.1658994709 0.0000000000 0.0521595069 0.1803920605 0.0000000000 0.0544412351 0.1602530593 0.0000000000 0.0341005291 0.0341005291 0.0000000000 0.0196079395 0.0521595069 0.0000000000 0.0397469407 0.0544412351 0.0000000000 0.1658994709 0.1658994709 0.0000000000 0.1803920605 0.1478404931 0.0000000000 0.1602530593 0.1455587649 0.0000000000 0.1658994709 0.0341005291 0.0000000000 0.1478404931 0.0196079395 0.0000000000 0.1455587649 0.0397469407 0.0000000000 0.0570385509 0.1407387906 0.0000000000 0.0715001362 0.1303904855 0.0000000000 0.0535586262 0.1197318820 0.0000000000 0.0592612094 0.0570385509 0.0000000000 0.0687633044 0.0698536222 0.0000000000 0.0801027402 0.0536111366 0.0000000000 0.1407387906 0.1429614491 0.0000000000 0.1303904855 0.1284998638 0.0000000000 0.1197318820 0.1464413738 0.0000000000 0.1429614491 0.0592612094 0.0000000000 0.1301463778 0.0687633044 0.0000000000 0.1465981847 0.0801875266 0.0000000000 0.0719686411 0.1133972125 0.0000000000 0.0715001362 0.1303904855 0.0000000000 0.0900331758 0.1151701383 0.0000000000 0.0882602501 0.1332346729 0.0000000000 0.0900331758
[...]
<PointData Scalars="temperature,region_id," Vectors="" Tensors="">
<DataArray type="Float64" Name="temperature" format="ascii">
287.9999997704 287.9999997468 288.0000000000 288.0000000000 287.9999982155 287.9999981905 287.9999982866 287.9999982053 287.9999983110 287.9999984093 287.9999982528 287.9999979714 287.9999979440 287.9999998602 287.9999999444 287.9999999916 287.9999999991 288.0000000010 288.0000000007 288.0000000002 288.0000000001 288.0000000000 288.0000000000 288.0000000000 288.0000000000 288.0000000000 288.0000000000 288.0000000000 288.0000000000 288.0000000000 288.0000000000 288.0000000000 288.0000000000 288.0000000001 288.0000000004 288.0000000004 287.9999999972 287.9999999909 287.9999999494 287.9999998733 287.9999999943 287.9999998503 287.9999998927 287.9999999999 288.0000000004 287.9999997128 287.9999999946 287.9999999954 288.0000000000 287.9999993648 287.9999994572 287.9999999999 288.0000000002 287.9999993534 287.9999999285 287.9999999998 287.9999999999 287.9999993843 287.9999999433 287.9999999995 288.0000000000 287.9999999519 287.9999999838 287.9999999993 288.0000000000 287.9999999179 287.9999999816 287.9999999987 287.9999999999 287.9999988554 287.9999999861 287.9999999958 288.0000000000 287.9999997471 287.9999986451 288.0000000000 288.0000000001 287.9999985188 287.9999997817 287.9999999998 288.0000000000 287.9999998395 287.9999999771 287.9999999996 288.0000000005 287.9999999633 287.9999997804 288.0000000000 288.0000000001 288.0000000000 287.9999983348 288.0000000000 287.9999985581 287.9999983719 287.9999999747 287.9999999981 288.0000000000 287.9999996023 287.9999998154 288.0000000000 288.0000000000 287.9999998057 287.9999996522 288.0000000000 288.0000000001 287.9999999885 287.9999999767 287.9999999993 287.9999999932 287.9999999426 287.9999999336 287.9999999997 288.0000000003 287.9999999267 287.9999981352 287.9999999998 288.0000000000 287.9999982777 287.9999999995 287.9999999405 288.0000000000 287.9999994231 287.9999982152 288.0000000000 288.0000000000 287.9999999999 287.9999979550 288.0000000000 287.9999995034 287.9999998836 287.9999999935 287.9999999928 288.0000000000 287.9999994390 287.9999999782 287.9999999985 288.0000000000 287.9999995610 287.9999999974 287.9999999824 288.0000000000 287.9999999979 287.9999996812 287.9999999245 288.0000000000 288.0000000002 
</DataArray>
<DataArray type="Int32" Name="region_id" format="ascii">
1 1 1 1 1 1 1 1 1 1 1 1 1 1 1 1 1 1 1 1 1 1 1 1 1 1 1 1 1 1 1 1 1 1 1 1 1 1 1 1 1 1 1 1 1 1 1 1 1 1 1 1 1 1 1 1 1 1 1 1 1 1 1 1 1 1 1 1 1 1 1 1 1 1 1 1 1 1 1 1 1 1 1 1 1 1 1 1 1 1 1 1 1 1 1 1 1 1 1 1 1 1 1 1 1 1 1 1 1 1 1 1 1 1 1 1 1 1 1 1 1 1 1 1 1 1 1 1 1 1 1 1 1 1 1 1 1 1 1 1 1 1 1 1 1 1 1 1 1 1 1 1 1 1 1 1 1 1 1 1 1 1 1 1 1 1 1 1 1 1 1 1 1 1 1 1 1 1 1 1 1 1 1 1 1 1 1 1 1 1 1 1 1 1 1 1 1 1 1 1 1 1 1 1 1 1 1 1 1 1 1 1 1 1 1 1 1 1 1 1 1 1 1 1 1 1 1 1 1 1 1 1 1 1 1 1 1 1 1 1 1 1 1 1 1 1 1 1 1 1 1 1 1 1 1 1 1 1 1 1 1 1 1 1 1 1 1 1 1 1 1 1 1 1 1 1 1 1 1 1 1 1 1 1 1 1 1 1 1 1 1 1 1 1 1 1 1 1 1 1 1 1 1 1 1 1 1 1 1 1 1 1 1 1 1 1 1 1 1 1 1 1 1 1 1 1 1 1 1 1 1 1 1 1 1 1 1 1 1 1 1 1 1 1 1 1 1 1 1 1 1 1 1 1 1 1 1 1 1 1 1 1 1 1 1 1 1 1 1 1 1 1 1 1 1 1 1 1 1 1 1 1 1 1 1 1 1 1 1 1 1 1 1 1 1 1 1 1 1 1 1 1 1 1 1 1 1 1 1 1 1 1 1 1 1 1 1 1 1 1 1 1 1 1 1 1 1 1 1 1 1 1 1 1 1 1 1 1 1 1 1 1 1 1 1 1 1 1 1 1 1 1 1 1 1 1 1 1 1 1 1 1 1 1 1 1 1 1 1 1 1 1 1 1 1 1 1 1 1 1 1 1 1 1 1 1 1 1 1 1 1 1 1 1 1 1 1 1 1 1 1 1 1 1 1 1 1 1 1 1 1 1 1 1 1 1 1 1 1 1 1 1 1 1 1 1 1 1 1 1 1 1 1 1 1 1 1 1 1 1 1 1 1 1 1 1 1 1 1 1 1 1 1 1 1 1 1 1 1 1 1 1 1 1 1 1 1 1 1 1 1 1 1 1 1 1 1 1 1 1 1 1 1 1 1 1 1 1 1 1 1 1 1 1 1 1 1 1 1 1 1 1 1 1 1 1 1 1 1 1 1 1 1 1 1 1 1 1 1 1 1 1 1 1 1 1 1 1 1 1 1 1 1 1 1 1 1 1 1 1 1 1 1 1 1 1 1 1 1 1 1 1 1 1 1 1 1 1 1 1 1 1 1 1 1 1 1 1 1 1 1 1 1 1 1 1 1 1 1 1 1 1 1 1 1 1 1 1 1 1 1 1 1 1 1 1 1 1 1 1 1 1 1 1 1 1 1 1 1 1 1 1 1 1 1 1 1 1 1 1 1 1 1 1 1 1 1 1 1 1 1 1 1 1 1 1 1 1 1 1 1 1 1 1 1 1 1 1 1 1 
</DataArray>
</PointData>
</Piece>
</UnstructuredGrid>
</VTKFile>
