<?xml version="1.0"?>
<VTKFile type="UnstructuredGrid" version="0.1" byte_order="LittleEndian">
<UnstructuredGrid>
<Piece NumberOfPoints="669" NumberOfCells="1271">
<Points>
<DataArray type="Float64" NumberOfComponents="3" format="ascii">
0.000000000000000e+00 0.000000000000000e+00 0.000000000000000e+00 1.000000000000000e-01 0.000000000000000e+00 0.000000000000000e+00 1.000000000000000e-01 1.000000000000000e+00 0.000000000000000e+00 0.000000000000000e+00 1.000000000000000e+00 0.000000000000000e+00 2.000000000000000e-01 0.000000000000000e+00 0.000000000000000e+00 2.000000000000000e-01 1.000000000000000e+00 0.000000000000000e+00 2.499999999994164e-02 0.000000000000000e+00 0.000000000000000e+00 4.999999999986850e-02 0.000000000000000e+00 0.000000000000000e+00 7.499999999993355e-02 0.000000000000000e+00 0.000000000000000e+00 1.000000000000000e-01 2.040816326526773e-02 0.000000000000000e+00 1.000000000000000e-01 4.081632653053230e-02 0.000000000000000e+00 1.000000000000000e-01 6.122448979579424e-02 0.000000000000000e+00 1.000000000000000e-01 8.163265306106718e-02 0.000000000000000e+00 1.000000000000000e-01 1.020408163263421e-01 0.000000000000000e+00 1.000000000000000e-01 1.224489795916153e-01 0.000000000000000e+00 1.000000000000000e-01 1.428571428568673e-01 0.000000000000000e+00 1.000000000000000e-01 1.632653061221139e-01 0.000000000000000e+00 1.000000000000000e-01 1.836734693873606e-01 0.000000000000000e+00 1.000000000000000e-01 2.040816326526072e-01 0.000000000000000e+00 1.000000000000000e-01 2.244897959178539e-01 0.000000000000000e+00 1.000000000000000e-01 2.448979591831005e-01 0.000000000000000e+00 1.000000000000000e-01 2.653061224483471e-01 0.000000000000000e+00 1.000000000000000e-01 2.857142857135938e-01 0.000000000000000e+00 1.000000000000000e-01 3.061224489788404e-01 0.000000000000000e+00 1.000000000000000e-01 3.265306122440871e-01 0.000000000000000e+00 1.000000000000000e-01 3.469387755093337e-01 0.000000000000000e+00 1.000000000000000e-01 3.673469387745804e-01 0.000000000000000e+00 1.000000000000000e-01 3.877551020398269e-01 0.000000000000000e+00 1.000000000000000e-01 4.081632653050736e-01 0.000000000000000e+00 1.000000000000000e-01 4.285714285703202e-01 0.000000000000000e+00 1.000000000000000e-01 4.489795918355669e-01 0.000000000000000e+00 1.000000000000000e-01 4.693877551008135e-01 0.000000000000000e+00 1.000000000000000e-01 4.897959183660601e-01 0.000000000000000e+00 1.000000000000000e-01 5.102040816313634e-01 0.000000000000000e+00 1.000000000000000e-01 5.306122448967233e-01 0.000000000000000e+00 1.000000000000000e-01 5.510204081620832e-01 0.000000000000000e+00 1.000000000000000e-01 5.714285714274430e-01 0.000000000000000e+00 1.000000000000000e-01 5.918367346928030e-01 0.000000000000000e+00 1.000000000000000e-01 6.122448979581627e-01 0.000000000000000e+00 1.000000000000000e-01 6.326530612235226e-01 0.000000000000000e+00 1.000000000000000e-01 6.530612244888825e-01 0.000000000000000e+00 1.000000000000000e-01 6.734693877542424e-01 0.000000000000000e+00 1.000000000000000e-01 6.938775510196021e-01 0.000000000000000e+00 1.000000000000000e-01 7.142857142849620e-01 0.000000000000000e+00 1.000000000000000e-01 7.346938775503219e-01 0.000000000000000e+00 1.000000000000000e-01 7.551020408156818e-01 0.000000000000000e+00 1.000000000000000e-01 7.755102040810415e-01 0.000000000000000e+00 1.000000000000000e-01 7.959183673464014e-01 0.000000000000000e+00 1.000000000000000e-01 8.163265306117613e-01 0.000000000000000e+00 1.000000000000000e-01 8.367346938771211e-01 0.000000000000000e+00 1.000000000000000e-01 8.571428571424810e-01 0.000000000000000e+00 1.000000000000000e-01 8.775510204078409e-01 0.000000000000000e+00 1.000000000000000e-01 8.979591836732008e-01 0.000000000000000e+00 1.000000000000000e-01 9.183673469385606e-01 0.000000000000000e+00 1.000000000000000e-01 9.387755102039205e-01 0.000000000000000e+00 1.000000000000000e-01 9.591836734692804e-01 0.000000000000000e+00 1.000000000000000e-01 9.795918367346401e-01 0.000000000000000e+00 7.500000000006912e-02 1.000000000000000e+00 0.000000000000000e+00 5.000000000013687e-02 1.000000000000000e+00 0.000000000000000e+00 2.500000000006912e-02 1.000000000000000e+00 0.000000000000000e+00 0.000000000000000e+00 9.795918367346089e-01 0.000000000000000e+00 0.000000000000000e+00 9.591836734692177e-01 0.000000000000000e+00 0.000000000000000e+00 9.387755102038267e-01 0.000000000000000e+00 0.000000000000000e+00 9.183673469384355e-01 0.000000000000000e+00 0.000000000000000e+00 8.979591836730444e-01 0.000000000000000e+00 0.000000000000000e+00 8.775510204076679e-01 0.000000000000000e+00 0.000000000000000e+00 8.571428571424604e-01 0.000000000000000e+00 0.000000000000000e+00 8.367346938772958e-01 0.000000000000000e+00 0.000000000000000e+00 8.163265306121313e-01 0.000000000000000e+00 0.000000000000000e+00 7.959183673469667e-01 0.000000000000000e+00 0.000000000000000e+00 7.755102040818023e-01 0.000000000000000e+00 0.000000000000000e+00 7.551020408166378e-01 0.000000000000000e+00 0.000000000000000e+00 7.346938775514733e-01 0.000000000000000e+00 0.000000000000000e+00 7.142857142863088e-01 0.000000000000000e+00 0.000000000000000e+00 6.938775510211443e-01 0.000000000000000e+00 0.000000000000000e+00 6.734693877559796e-01 0.000000000000000e+00 0.000000000000000e+00 6.530612244908152e-01 0.000000000000000e+00 0.000000000000000e+00 6.326530612256505e-01 0.000000000000000e+00 0.000000000000000e+00 6.122448979604860e-01 0.000000000000000e+00 0.000000000000000e+00 5.918367346953213e-01 0.000000000000000e+00 0.000000000000000e+00 5.714285714301567e-01 0.000000000000000e+00 0.000000000000000e+00 5.510204081649921e-01 0.000000000000000e+00 0.000000000000000e+00 5.306122448998274e-01 0.000000000000000e+00 0.000000000000000e+00 5.102040816346629e-01 0.000000000000000e+00 0.000000000000000e+00 4.897959183693851e-01 0.000000000000000e+00 0.000000000000000e+00 4.693877551039940e-01 0.000000000000000e+00 0.000000000000000e+00 4.489795918386030e-01 0.000000000000000e+00 0.000000000000000e+00 4.285714285732120e-01 0.000000000000000e+00 0.000000000000000e+00 4.081632653078209e-01 0.000000000000000e+00 0.000000000000000e+00 3.877551020424299e-01 0.000000000000000e+00 0.000000000000000e+00 3.673469387770387e-01 0.000000000000000e+00 0.000000000000000e+00 3.469387755116478e-01 0.000000000000000e+00 0.000000000000000e+00 3.265306122462567e-01 0.000000000000000e+00 0.000000000000000e+00 3.061224489808657e-01 0.000000000000000e+00 0.000000000000000e+00 2.857142857154745e-01 0.000000000000000e+00 0.000000000000000e+00 2.653061224500836e-01 0.000000000000000e+00 0.000000000000000e+00 2.448979591846925e-01 0.000000000000000e+00 0.000000000000000e+00 2.244897959193015e-01 0.000000000000000e+00 0.000000000000000e+00 2.040816326539104e-01 0.000000000000000e+00 0.000000000000000e+00 1.836734693885194e-01 0.000000000000000e+00 0.000000000000000e+00 1.632653061231283e-01 0.000000000000000e+00 0.000000000000000e+00 1.428571428577373e-01 0.000000000000000e+00 0.000000000000000e+00 1.224489795923462e-01 0.000000000000000e+00 0.000000000000000e+00 1.020408163269553e-01 0.000000000000000e+00 0.000000000000000e+00 8.163265306156420e-02 0.000000000000000e+00 0.000000000000000e+00 6.122448979617301e-02 0.000000000000000e+00 0.000000000000000e+00 4.081632653078204e-02 0.000000000000000e+00 0.000000000000000e+00 2.040816326539097e-02 0.000000000000000e+00 1.249999999999323e-01 0.000000000000000e+00 0.000000000000000e+00 1.499999999998645e-01 0.000000000000000e+00 0.000000000000000e+00 1.749999999999269e-01 0.000000000000000e+00 0.000000000000000e+00 2.000000000000000e-01 2.040816326526773e-02 0.000000000000000e+00 2.000000000000000e-01 4.081632653053230e-02 0.000000000000000e+00 2.000000000000000e-01 6.122448979579424e-02 0.000000000000000e+00 2.000000000000000e-01 8.163265306106718e-02 0.000000000000000e+00 2.000000000000000e-01 1.020408163263421e-01 0.000000000000000e+00 2.000000000000000e-01 1.224489795916153e-01 0.000000000000000e+00 2.000000000000000e-01 1.428571428568673e-01 0.000000000000000e+00 2.000000000000000e-01 1.632653061221139e-01 0.000000000000000e+00 2.000000000000000e-01 1.836734693873606e-01 0.000000000000000e+00 2.000000000000000e-01 2.040816326526072e-01 0.000000000000000e+00 2.000000000000000e-01 2.244897959178539e-01 0.000000000000000e+00 2.000000000000000e-01 2.448979591831005e-01 0.000000000000000e+00 2.000000000000000e-01 2.653061224483471e-01 0.000000000000000e+00 2.000000000000000e-01 2.857142857135938e-01 0.000000000000000e+00 2.000000000000000e-01 3.061224489788404e-01 0.000000000000000e+00 2.000000000000000e-01 3.265306122440871e-01 0.000000000000000e+00 2.000000000000000e-01 3.469387755093337e-01 0.000000000000000e+00 2.000000000000000e-01 3.673469387745804e-01 0.000000000000000e+00 2.000000000000000e-01 3.877551020398269e-01 0.000000000000000e+00 2.000000000000000e-01 4.081632653050736e-01 0.000000000000000e+00 2.000000000000000e-01 4.285714285703202e-01 0.000000000000000e+00 2.000000000000000e-01 4.489795918355669e-01 0.000000000000000e+00 2.000000000000000e-01 4.693877551008135e-01 0.000000000000000e+00 2.000000000000000e-01 4.897959183660601e-01 0.000000000000000e+00 2.000000000000000e-01 5.102040816313634e-01 0.000000000000000e+00 2.000000000000000e-01 5.306122448967233e-01 0.000000000000000e+00 2.000000000000000e-01 5.510204081620832e-01 0.000000000000000e+00 2.000000000000000e-01 5.714285714274430e-01 0.000000000000000e+00 2.000000000000000e-01 5.918367346928030e-01 0.000000000000000e+00 2.000000000000000e-01 6.122448979581627e-01 0.000000000000000e+00 2.000000000000000e-01 6.326530612235226e-01 0.000000000000000e+00 2.000000000000000e-01 6.530612244888825e-01 0.000000000000000e+00 2.000000000000000e-01 6.734693877542424e-01 0.000000000000000e+00 2.000000000000000e-01 6.938775510196021e-01 0.000000000000000e+00 2.000000000000000e-01 7.142857142849620e-01 0.000000000000000e+00 2.000000000000000e-01 7.346938775503219e-01 0.000000000000000e+00 2.000000000000000e-01 7.551020408156818e-01 0.0000000000000
[...]
<CellData Scalars="A_conc," Vectors="" Tensors="">
<DataArray type="Float64" Name="A_conc" format="ascii">
9.999999729406505e-01 9.999999725486224e-01 1.000000033785780e+00 1.000000033921458e+00 1.000000036331212e+00 1.000000035867415e+00 1.000000035782656e+00 1.000000031307205e+00 1.000000052516652e+00 1.000000052492643e+00 1.000000033864196e+00 1.000000033254798e+00 1.000000033207484e+00 1.000000019057324e+00 1.000000019951113e+00 1.000000019900818e+00 1.000000004796960e+00 1.000000006096412e+00 1.000000006083057e+00 1.000000003515853e+00 1.000000005377997e+00 1.000000005546583e+00 1.000000008147943e+00 1.000000011953857e+00 1.000000010832033e+00 1.000000016650699e+00 1.000000016573334e+00 1.000000014785495e+00 1.000000033275821e+00 1.000000033106421e+00 1.000000028573280e+00 9.999999524306867e-01 9.999989210439698e-01 9.999866690083582e-01 9.998632486940007e-01 9.988250310694360e-01 9.917593564279619e-01 9.543302376762250e-01 8.095382631838537e-01 4.457011948452931e-01 0.000000000000000e+00 0.000000000000000e+00 0.000000000000000e+00 0.000000000000000e+00 0.000000000000000e+00 0.000000000000000e+00 0.000000000000000e+00 0.000000000000000e+00 0.000000000000000e+00 4.724583325882318e-10 8.390866833165830e-14 0.000000000000000e+00 1.199282449043172e-06 1.897060352930200e-20 0.000000000000000e+00 0.000000000000000e+00 0.000000000000000e+00 8.232750427540168e-07 1.332006284128182e-15 0.000000000000000e+00 4.882566818371537e-07 3.358545924852626e-15 1.145808205773846e-19 2.256376078158531e-07 1.213607246383290e-14 2.448855612106050e-02 6.292221051726870e-01 3.398253630233965e-10 3.124569931533223e-05 3.709948486557581e-08 1.539927545335565e-05 2.018915416030150e-06 1.986389557053442e-02 2.002683765373664e-06 6.273487716922991e-01 1.886940543484474e-06 1.583330221199367e-06 0.000000000000000e+00 9.152754007989493e-01 3.917280369607615e-13 0.000000000000000e+00 7.825394494671810e-01 0.000000000000000e+00 9.627129167509614e-01 0.000000000000000e+00 5.740778755353952e-15 1.423494770458405e-10 0.000000000000000e+00 0.000000000000000e+00 0.000000000000000e+00 0.000000000000000e+00 9.906608888586226e-01 2.760173601217125e-16 1.210556078100452e-06 0.000000000000000e+00 2.216052471540769e-07 5.622526570599997e-08 6.479613701401505e-05 4.586066727134996e-02 0.000000000000000e+00 2.147394340217411e-21 1.633670416327875e-06 1.641099153668632e-06 1.512201255278048e-06 1.304031707972025e-06 2.722305812823710e-22 6.844954041269607e-15 4.887637959484485e-07 1.331154542892934e-14 4.147040721290474e-14 2.637437280210344e-09 0.000000000000000e+00 0.000000000000000e+00 0.000000000000000e+00 0.000000000000000e+00 0.000000000000000e+00 0.000000000000000e+00 5.376972813656041e-02 1.080215416676930e-02 4.775790788262960e-01 1.174848576093716e-04 3.609939398020741e-06 3.142384660854453e-07 4.313908503035907e-11 5.725246356812296e-07 3.487305569246253e-15 7.934103126466581e-16 8.186844020162130e-07 8.569861306757947e-07 6.645452080703788e-19 7.737907911469970e-01 9.600593012241647e-01 0.000000000000000e+00 0.000000000000000e+00 7.252371238734174e-11 2.257485692263687e-11 0.000000000000000e+00 1.414366288859471e-12 3.833393516544138e-12 0.000000000000000e+00 1.810056040149919e-10 1.825705765244300e-05 1.845443318911307e-02 2.411827853666290e-12 5.682821165462127e-05 9.119412647374061e-04 1.599284566234463e-07 1.831876424021203e-01 2.809356823074736e-08 1.924912320637034e-06 1.789984884271055e-06 1.671365356194845e-06 1.495187353914667e-06 0.000000000000000e+00 0.000000000000000e+00 2.984931227261469e-18 8.796824334313522e-06 8.771456667559576e-08 8.431570766290967e-09 1.724403622392671e-06 1.654129746898614e-06 8.212704222096060e-03 1.510435061012097e-06 4.704588596737215e-01 1.284294312643030e-11 1.509456597496190e-12 3.701505783879687e-12 8.550666994556763e-12 9.976535201947077e-10 0.000000000000000e+00 0.000000000000000e+00 3.463566557968843e-02 0.000000000000000e+00 0.000000000000000e+00 1.359496973489652e-14 1.816964872043707e-09 4.333264023333065e-10 2.126866273517375e-10 0.000000000000000e+00 2.902271113311141e-02 0.000000000000000e+00 7.195241414316616e-07 1.180636910238818e-14 2.540250570060128e-17 2.291575444705914e-08 2.164401356200166e-08 1.342115477541464e-08 0.000000000000000e+00 2.259167376109571e-02 2.749412703473985e-13 0.000000000000000e+00 9.913550067450421e-01 0.000000000000000e+00 0.000000000000000e+00 0.000000000000000e+00 0.000000000000000e+00 4.524017365838445e-07 5.928122529175597e-17 2.304837029239925e-16 4.035525034329093e-13 1.241072430114217e-07 0.000000000000000e+00 1.993189871182081e-01 0.000000000000000e+00 1.388521653033212e-03 0.000000000000000e+00 9.992566784931046e-01 0.000000000000000e+00 7.709697236766230e-07 1.305718378810839e-07 4.994723936520398e-16 2.112787926555100e-05 9.866972313768130e-07 6.370648298341533e-14 9.029217061819442e-01 2.006624239223425e-09 3.983950507024186e-09 6.347217459899114e-01 1.417113256647800e-19 1.955271914778116e-05 1.165554176203112e-09 1.129008056547968e-03 0.000000000000000e+00 1.916459908228084e-01 2.772714332709922e-07 1.075808781652257e-07 8.935471461689201e-08 6.962118354095164e-08 0.000000000000000e+00 0.000000000000000e+00 6.387476268746735e-01 7.436965394199093e-01 9.238372291637483e-01 0.000000000000000e+00 0.000000000000000e+00 0.000000000000000e+00 9.845355577669245e-11 0.000000000000000e+00 0.000000000000000e+00 8.399030298600175e-08 0.000000000000000e+00 0.000000000000000e+00 7.423878245897526e-09 1.424732291587239e-14 7.396105102070230e-14 6.343917780180512e-13 1.506444284061097e-07 1.899972316993415e-01 0.000000000000000e+00 9.323230349090858e-04 0.000000000000000e+00 0.000000000000000e+00 0.000000000000000e+00 9.993316498173790e-01 8.830378494366334e-09 5.693333189699780e-01 1.301691044539203e-14 3.469576676572681e-09 1.930695925657681e-11 9.765998201955857e-01 0.000000000000000e+00 0.000000000000000e+00 0.000000000000000e+00 0.000000000000000e+00 7.468046213813634e-09 0.000000000000000e+00 3.386242575637548e-12 2.112817288190539e-08 5.959428537288252e-01 0.000000000000000e+00 0.000000000000000e+00 4.293078418847903e-07 2.646638987237313e-04 1.861614915343478e-07 9.797247108702796e-02 0.000000000000000e+00 0.000000000000000e+00 2.149729211530571e-06 2.200748183586631e-06 2.092554472215037e-06 1.874010093578109e-06 0.000000000000000e+00 8.023381259098593e-18 4.136943831305049e-17 8.414479132027526e-07 3.261771602261758e-14 1.978480433193460e-08 0.000000000000000e+00 0.000000000000000e+00 0.000000000000000e+00 0.000000000000000e+00 0.000000000000000e+00 0.000000000000000e+00 1.111822421651619e-01 3.251502629558787e-01 4.058674635254419e-03 4.308056172783106e-04 7.052160447695101e-07 4.437553397501600e-12 7.474145549961566e-07 8.196975830705411e-16 1.129757611759798e-06 1.478050775079174e-16 1.217397361336229e-06 0.000000000000000e+00 0.000000000000000e+00 1.148991226847169e-06 1.342502244058693e-15 1.792309868903441e-01 2.181748960598046e-01 1.027716441097297e-03 2.192116906777946e-07 3.985173080612966e-09 2.893248390745599e-09 1.887608251793187e-09 1.927337866983234e-03 1.675273822383310e-07 1.318158648006303e-10 8.398505771217738e-11 5.121237478229564e-11 0.000000000000000e+00 3.416290593311255e-13 0.000000000000000e+00 0.000000000000000e+00 2.333981626349589e-12 0.000000000000000e+00 4.413812381486788e-11 7.517594076673883e-13 0.000000000000000e+00 1.421365513258980e-10 0.000000000000000e+00 8.505197993816918e-01 1.785703592599487e-18 0.000000000000000e+00 1.062343411272985e-12 1.059214617914641e-08 8.504028078217537e-07 1.312706706891461e-16 0.000000000000000e+00 0.000000000000000e+00 0.000000000000000e+00 0.000000000000000e+00 3.450347403399368e-06 2.158852367752426e-06 2.084009867118160e-06 1.939596501162830e-06 1.122600437344322e-07 3.112554451076778e-01 2.951112106330921e-07 2.912005436406559e-03 0.000000000000000e+00 1.318213944401247e-06 8.585363839612181e-18 0.000000000000000e+00 8.894075348034680e-11 0.000000000000000e+00 9.999999978359709e-01 0.000000000000000e+00 0.000000000000000e+00 0.000000000000000e+00 0.000000000000000e+00 1.766777998711198e-09 0.000000000000000e+00 0.000000000000000e+00 9.999999744202642e-01 0.000000000000000e+00 0.000000000000000e+00 9.034718991321411e-01 0.000000000000000e+00 0.000000000000000e+00 2.901078156108981e-12 0.000000000000000e+00 8.955468942657680e-16 7.450785822189927e-09 9.967019997591853e-10 5.698933559179543e-10 3.013931114999562e-10 0.000000000000000e+00 6.263085686470377e-02 0.000000000000000e+00 2.124024920844590e-04 1.010767815159834e-13 0.000000000000000e+00 0.000000000000000e+00 0.000000000000000e+00 0.000000000000000e+00 0.000000000000000e+00 0.000000000000000e+00 9.728653864226164e-01 0.000000000000000e+00 0.000000000000000e+00 0.000000000000000e+00 0.000000000000000e+00 1.597846550575400e-06 2.475280229604060e-18 0.000000000000000e+00 0.000000000000000e+00 0.000000000000000e+00 4.191804978441085e-01 0.000000000000000e+00 7.240780384048460e-03 0.000000000000000e+00 0.000000000000000e+00 3.692498697297560e-06 5.114156589189729e-11 1.253193269555813e-12 9.220989302737615e-12 3.168346441081433e-12 7.203427977039612e-12 7.788670885646618e-12 1.674454517461727e-11 9.997058183246510e-13 3.360124832984923e-11 5.439253970294257e-09 0.000000000000000e+00 5.808782285417370e-02 0.000000000000000e+00 7.996502924612969e-18 8.847621725950593e-05 1.795429461784782e-11 8.903296816058223e-01 0.000000000000000e+00 0.000000000000000e+00 0.000000000000000e+00 0.000000000000000e+00 0.000000000000000e+00 9.906741478892374e-01 9.999862314704905e-01 1.082676096518349e-11 7.053091152541127e-04 0.000000000000000e+00 1.278411520606023e-01 0.000000000000000e+00 4.185440269414144e-08 2.281680659771037e-09 1.484142138160659e-09 8.522874137653161e-10 3.411093690989798e-17 4.310645508217415e-09 3.776529138687302e-04 4.047182224035400e-11 1.044354535824281e-01 0.000000000000000e+00 9.616310317785670e-08 6.916899138548953e-08 5.299109730022260e-08 3.802877191041732e-08 1.664763281442883e-20 9.898370188048977e-01 2.984998479392896e-13 6.552666172100002e-22 0.000000000000000e+00 9.886663920073887e-01 0.000000000000000e+00 7.998620628404758e-01 2.477958387797790e-08 5.218757536362378e-08 4.447329062580583e-13 1.218462466307378e-13 6.283902961583578e-13 2.234130750862422e-13 2.256624629405042e-08 5.819181927753947e-08 1.415770031125815e-12 5.636702252272928e-13 2.955107897665915e-08 4.829074230158944e-09 0.000000000000000e+00 0.000000000000000e+00 0.000000000000000e+00 6.300300272497729e-02 0.000000000000000e+00 0.000000000000000e+00 0.000000000000000e+00 1.166713889917920e-01 8.110859468895865e-05 2.838131173709929e-04 1.667884013869312e-06 3.747969834200523e-17 8.974171197995492e-01 0.000000000000000e+00 3.850911206281818e-17 5.218928608316788e-16 1.654258759278962e-08 6.131257418700083e-09 0.000000000000000e+00 9.985983616422688e-01 4.832334295747325e-08 4.698183005320859e-16 7.838939662241839e-01 9.673500208282748e-01 2.229148279345732e-11 4.226558035467334e-11 2.317475436333876e-10 7.361763105448167e-11 3.415307918296696e-08 1.111477667033721e-01 3.279531508028621e-04 0.000000000000000e+00 0.000000000000000e+00 0.000000000000000e+00 4.761450385856300e-10 0.000000000000000e+00 9.977396693971797e-01 4.881257098895711e-15 3.117247255021805e-14 1.397074304216119e-07 8.245497203414679e-08 0.000000000000000e+00 9.992558634211920e-01 1.438570175500168e-14 1.606456026970401e-13 0.000000000000000e+00 0.000000000000000e+00 5.110358380079506e-06 6.146924593090836e-10 1.757258166818843e-10 7.333364302670809e-11 1.295727862794427e-02 4.815931536197430e-01 0.000000000000000e+00 0.000000000000000e+00 0.000000000000000e+00 0.000000000000000e+00 0.000000000000000e+00 0.000000000000000e+00 0.000000000000000e+00 6.858268040501855e-03 2.828258845384079e-03 4.388298550464677e-01 3.044489300775639e-01 8.117259495158537e-07 3.398804123849462e-06 1.825509777940050e-09 3.021145751982307e-10 3.510377412326640e-12 2.018670947668331e-11 3.065332214029532e-13 2.883397991321695e-09 9.386391508780882e-13 6.735744994683019e-10 7.526782890998803e-14 2.836023115923665e-13 4.155590619630115e-18 1.674218936475442e-16 4.227481748848109e-16 4.274119263846163e-15 4.526343588739232e-06 1.112504289937904e-06 1.476689668420014e-07 1.114024120157146e-07 1.358409144141053e-07 9.693893439193921e-08 1.150882783216351e-07 7.724489444194902e-08 0.000000000000000e+00 0.000000000000000e+00 1.315091135271017e-10 9.541330126733780e-12 3.202864696190263e-01 4.631000359180594e-01 3.443397448360384e-03 8.864152225774467e-03 9.987414702106574e-01 0.000000000000000e+00 1.000453467348151e-15 4.743236415950971e-08 0.000000000000000e+00 1.941760599643363e-08 8.299438965318465e-10 1.096497573041808e-04 5.291809058465939e-02 0.000000000000000e+00 9.096711971184818e-19 4.700624745144114e-08 4.255000596992158e-08 2.963234686529469e-08 1.895084221789478e-08 0.000000000000000e+00 4.696090833446015e-20 1.315175529035728e-10 0.000000000000000e+00 0.000000000000000e+00 0.000000000000000e+00 0.000000000000000e+00 9.950852370475733e-01 1.022420752319228e-13 7.179170534916802e-13 2.635740165214629e-11 9.348832508294642e-09 0.000000000000000e+00 0.000000000000000e+00 0.000000000000000e+00 3.015860531435903e-03 2.875826473689774e-01 8.924594149344110e-07 1.564481561158144e-11 1.239578798829730e-11 3.205334294348692e-12 4.164858161985719e-11 9.150886248059832e-13 4.894291402115559e-11 8.791412886934476e-10 9.995737337689344e-01 0.000000000000000e+00 0.000000000000000e+00 4.190387635046608e-13 3.169198633790268e-14 3.579649221967155e-09 4.934836764463378e-09 6.247151424291100e-09 1.075142176663098e-06 0.000000000000000e+00 3.360512053617196e-01 5.095990831735038e-03 2.526061227233212e-14 7.227126541032057e-01 0.000000000000000e+00 2.673806705864880e-11 0.000000000000000e+00 0.000000000000000e+00 3.759403523155679e-09 1.256991600006977e-10 4.208472248963097e-12 2.110031757218121e-13 9.996760622170510e-01 0.000000000000000e+00 9.996365286458951e-01 0.000000000000000e+00 0.000000000000000e+00 0.000000000000000e+00 0.000000000000000e+00 8.488411737169735e-01 0.000000000000000e+00 0.000000000000000e+00 2.986530042026475e-10 1.776663840119780e-11 0.000000000000000e+00 1.244075376901868e-06 2.732714540891238e-17 9.999292252698095e-01 0.000000000000000e+00 0.000000000000000e+00 0.000000000000000e+00 0.000000000000000e+00 0.000000000000000e+00 0.000000000000000e+00 9.982132030141891e-01 9.982132031192391e-01 2.176452898634498e-01 1.005151865302352e-07 9.573880910350065e-01 9.573880921933247e-01 5.305250328649315e-08 1.836684432520698e-09 9.894464093914142e-01 9.894464084308093e-01 8.637687908170984e-08 6.370960573837254e-10 9.474029448605865e-14 0.000000000000000e+00 9.356000462250920e-02 9.347934985841067e-02 2.818038950685213e-06 2.690590585196780e-15 2.238784018474764e-06 2.953878922992829e-08 2.987348078869392e-04 2.866113306808035e-04 1.118882881311602e-13 6.978199665706623e-07 0.000000000000000e+00 0.000000000000000e+00 1.034021085043092e-06 0.000000000000000e+00 0.000000000000000e+00 9.392427759714241e-09 0.000000000000000e+00 1.287080244974690e-13 9.954448704481406e-01 9.954448706934729e-01 2.845683253696543e-07 2.147681211111190e-08 3.267990034128277e-10 2.172087501136039e-14 0.000000000000000e+00 9.999052805410908e-01 9.999052805462156e-01 0.000000000000000e+00 1.446684824476886e-01 0.000000000000000e+00 0.000000000000000e+00 0.000000000000000e+00 0.000000000000000e+00 0.000000000000000e+00 2.291243854735628e-13 0.000000000000000e+00 2.394585922176885e-14 0.000000000000000e+00 0.000000000000000e+00 0.000000000000000e+00 0.000000000000000e+00 0.000000000000000e+00 8.189721600859432e-01 8.189721587043802e-01 0.000000000000000e+00 0.000000000000000e+00 1.729772087225138e-01 1.728846637170470e-01 2.149846084314303e-14 5.017561904285394e-07 0.000000000000000e+00 0.000000000000000e+00 1.962402193187156e-06 1.851646309709319e-14 8.312963473667954e-05 0.000000000000000e+00 7.060850917029969e-07 4.676682580607018e-02 3.490656667220044e-13 9.541877507863417e-04 4.778825425666867e-09 9.364816851671615e-13 2.565973253786366e-06 8.726232258722921e-05 1.869788721476147e-06 5.364535118000207e-07 0.000000000000000e+00 4.725154789141887e-02 0.000000000000000e+00 9.978202892823946e-01 9.978202895426922e-01 0.000000000000000e+00 3.518546854696094e-04 7.360131602592784e-12 1.199342993106239e-04 1.448104658434192e-08 2.389518078524174e-06 4.639953424356652e-06 2.370455616980372e-06 1.738242346024100e-07 9.835173963835164e-04 3.109632203316039e-16 8.354255939877370e-09 1.584756514388107e-11 8.244897528803892e-03 3.785416793455166e-19 5.709458033278893e-09 1.267228414832346e-08 6.808644213233885e-07 8.748117913974276e-13 0.000000000000000e+00 6.456948158277074e-09 5.518234415994529e-08 0.000000000000000e+00 4.536482154728158e-07 7.347641653237901e-09 1.823246525630732e-01 1.830637679628208e-01 0.000000000000000e+00 2.636065485932537e-13 0.000000000000000e+00 0.000000000000000e+00 1.832566915279714e-08 1.737070760623722e-20 9.997380832972428e-01 9.997380833378473e-01 0.000000000000000e+00 5.126117552872314e-08 9.096514989410472e-13 0.000000000000000e+00 0.000000000000000e+00 0.000000000000000e+00 4.630540446155312e-07 1.830846431107837e-06 1.420718766376053e-17 2.951464869846764e-01 2.949497114345163e-01 7.305002493573668e-06 8.190673187454641e-11 8.455855237183974e-03 1.644667749350898e-04 0.000000000000000e+00 0.000000000000000e+00 7.317856248963308e-01 7.317919867866276e-01 2.326650414148051e-07 0.000000000000000e+00 0.000000000000000e+00 5.985068302255431e-07 1.536696666109874e-06 2.528553234671443e-04 1.338729017156073e-07 1.356772166029031e-06 7.609697628011141e-03 8.981477608646516e-01 8.981477615593613e-01 3.036285354344921e-08 4.635792755295969e-12 0.000000000000000e+00 0.000000000000000e+00 0.000000000000000e+00 0.000000000000000e+00 3.187103664386873e-07 1.589771482142990e-07 3.425167293977378e-10 1.795809302023099e-09 1.817164149683410e-10 8.903064082130422e-10 0.000000000000000e+00 0.000000000000000e+00 0.000000000000000e+00 0.000000000000000e+00 0.000000000000000e+00 9.728272304375947e-01 9.728272323389976e-01 0.000000000000000e+00 0.000000000000000e+00 1.697797095739445e-06 6.320483128635719e-24 1.729464968139519e-07 0.000000000000000e+00 0.000000000000000e+00 1.207156438163181e-11 3.646534406304135e-06 8.186502929082641e-03 3.468062500343535e-01 3.467414144035545e-01 4.980213127628436e-10 6.881414805850372e-02 6.819608909389362e-16 7.530373361217619e-09 1.355757853569414e-11 3.849949257414013e-12 3.499033919008879e-09 1.250829251940479e-09 0.000000000000000e+00 0.000000000000000e+00 0.000000000000000e+00 0.000000000000000e+00 0.000000000000000e+00 0.000000000000000e+00 0.000000000000000e+00 0.000000000000000e+00 0.000000000000000e+00 0.000000000000000e+00 0.000000000000000e+00 2.754467605581465e-08 8.452273542576862e-09 0.000000000000000e+00 2.946660739914177e-06 2.072414343269378e-05 3.538691049254955e-15 0.000000000000000e+00 7.380360177419857e-16 2.078376137318402e-02 7.874796121456387e-07 3.094856885410670e-03 9.187910439647890e-12 3.990489659859327e-06 6.643147095962937e-10 2.418065447470152e-05 2.485535234823547e-06 0.000000000000000e+00 2.100992129768512e-02 4.218896152163691e-11 1.507349905075221e-10 0.000000000000000e+00 0.000000000000000e+00 0.000000000000000e+00 0.000000000000000e+00 1.041755693971351e-10 5.148544589661313e-09 0.000000000000000e+00 9.332102976593693e-07 0.000000000000000e+00 0.000000000000000e+00 0.000000000000000e+00 0.000000000000000e+00 1.009343559226665e-12 5.546760158372954e-03 6.019567448672969e-03 1.167923052798020e-10 1.558769206407986e-08 1.358951481739536e-09 2.148792764339519e-10 6.502843740713384e-09 1.293349394045857e-06 2.253334327343918e-06 2.815195850531735e-16 7.761318621124077e-07 0.000000000000000e+00 0.000000000000000e+00 3.195415357123138e-12 9.770683466006083e-02 1.065875570126176e-19 0.000000000000000e+00 1.194894425278532e-07 0.000000000000000e+00 2.920390315861319e-06 9.565998353438732e-07 3.016227556319332e-03 2.584515450112337e-17 0.000000000000000e+00 0.000