<?xml version="1.0"?>
<VTKFile type="UnstructuredGrid" version="0.1" byte_order="LittleEndian">
<UnstructuredGrid>
<Piece NumberOfPoints="441" NumberOfCells="800">
<Points>
<DataArray type="Float64" NumberOfComponents="3" format="ascii">
0 0 0 0.050000000000000037 0 0 0.050000000000000037 0.049999999999899652 0 0 0.049999999999899652 0 0 0.099999999999814668 0 0.050000000000000037 0.099999999999814668 0 0.099999999999999978 0.099999999999814668 0 0.099999999999999978 0.049999999999899652 0 0.099999999999999978 0 0 0.050000000000000037 0.24999999999941211 0 0 0.24999999999941211 0 0 0.19999999999955789 0 0.050000000000000037 0.19999999999955789 0 0 0.14999999999970359 0 0.050000000000000037 0.14999999999970359 0 0.099999999999999978 0.14999999999970359 0 0.099999999999999978 0.19999999999955789 0 0.099999999999999978 0.24999999999941211 0 0.14999999999999999 0.24999999999941211 0 0.14999999999999999 0.19999999999955789 0 0.14999999999999999 0.14999999999970359 0 0.20000000000000001 0.14999999999970359 0 0.20000000000000001 0.19999999999955789 0 0.20000000000000001 0.24999999999941211 0 0.14999999999999999 0 0 0.14999999999999999 0.049999999999899652 0 0.14999999999999999 0.099999999999814668 0 0.20000000000000001 0.099999999999814668 0 0.20000000000000001 0.049999999999899652 0 0.20000000000000001 0 0 0.25 0 0 0.25 0.049999999999899652 0 0.29999999999999999 0.049999999999899652 0 0.29999999999999999 0 0 0.34999999999999998 0.049999999999899652 0 0.34999999999999998 0 0 0.34999999999999998 0.099999999999814668 0 0.29999999999999999 0.099999999999814668 0 0.25 0.099999999999814668 0 0.25 0.14999999999970359 0 0.29999999999999999 0.14999999999970359 0 0.25 0.24999999999941211 0 0.25 0.19999999999955789 0 0.29999999999999999 0.19999999999955789 0 0.29999999999999999 0.24999999999941211 0 0.34999999999999998 0.19999999999955789 0 0.34999999999999998 0.24999999999941211 0 0.34999999999999998 0.14999999999970359 0 0.40000000000000002 0.14999999999970359 0 0.40000000000000002 0.24999999999941211 0 0.40000000000000002 0.19999999999955789 0 0.45000000000000001 0.24999999999941211 0 0.45000000000000001 0.19999999999955789 0 0.45000000000000001 0.14999999999970359 0 0.45000000000000001 0.099999999999814668 0 0.45000000000000001 0 0 0.45000000000000001 0.049999999999899652 0 0.40000000000000002 0 0 0.40000000000000002 0.049999999999899652 0 0.40000000000000002 0.099999999999814668 0 0.40000000000000002 0.3999999999989749 0 0.40000000000000002 0.44999999999882923 0 0.40000000000000002 0.49999999999869432 0 0.45000000000000001 0.44999999999882923 0 0.45000000000000001 0.49999999999869432 0 0.45000000000000001 0.3999999999989749 0 0.45000000000000001 0.34999999999912063 0 0.45000000000000001 0.29999999999926641 0 0.40000000000000002 0.29999999999926641 0 0.40000000000000002 0.34999999999912063 0 0.34999999999999998 0.34999999999912063 0 0.34999999999999998 0.29999999999926641 0 0.29999999999999999 0.29999999999926641 0 0.25 0.29999999999926641 0 0.29999999999999999 0.34999999999912063 0 0.25 0.34999999999912063 0 0.25 0.3999999999989749 0 0.29999999999999999 0.3999999999989749 0 0.34999999999999998 0.3999999999989749 0 0.34999999999999998 0.49999999999869432 0 0.34999999999999998 0.44999999999882923 0 0.29999999999999999 0.49999999999869432 0 0.29999999999999999 0.44999999999882923 0 0.25 0.44999999999882923 0 0.25 0.49999999999869432 0 0.20000000000000001 0.49999999999869432 0 0.20000000000000001 0.44999999999882923 0 0.20000000000000001 0.3999999999989749 0 0.14999999999999999 0.3999999999989749 0 0.14999999999999999 0.44999999999882923 0 0.14999999999999999 0.49999999999869432 0 0.20000000000000001 0.29999999999926641 0 0.20000000000000001 0.34999999999912063 0 0.14999999999999999 0.34999999999912063 0 0.14999999999999999 0.29999999999926641 0 0.099999999999999978 0.29999999999926641 0 0.099999999999999978 0.34999999999912063 0 0.050000000000000037 0.34999999999912063 0 0 0.34999999999912063 0 0.050000000000000037 0.29999999999926641 0 0 0.29999999999926641 0 0.099999999999999978 0.49999999999869432 0 0.099999999999999978 0.44999999999882923 0 0.099999999999999978 0.3999999999989749 0 0.050000000000000037 0.3999999999989749 0 0 0.3999999999989749 0 0 0.44999999999882923 0 0.050000000000000037 0.44999999999882923 0 0.050000000000000037 0.49999999999869432 0 0 0.49999999999869432 0 0 0.5499999999988151 0 0.050000000000000037 0.5499999999988151 0 0.099999999999999978 0.5499999999988151 0 0.099999999999999978 0.59999999999894682 0 0.050000000000000037 0.59999999999894682 0 0 0.59999999999894682 0 0 0.64999999999907843 0 0.050000000000000037 0.64999999999907843 0 0 0.74999999999934175 0 0 0.69999999999921003 0 0.050000000000000037 0.69999999999921003 0 0.050000000000000037 0.74999999999934175 0 0.099999999999999978 0.69999999999921003 0 0.099999999999999978 0.74999999999934175 0 0.099999999999999978 0.64999999999907843 0 0.14999999999999999 0.64999999999907843 0 0.14999999999999999 0.74999999999934175 0 0.14999999999999999 0.69999999999921003 0 0.20000000000000001 0.74999999999934175 0 0.20000000000000001 0.69999999999921003 0 0.20000000000000001 0.64999999999907843 0 0.20000000000000001 0.59999999999894682 0 0.20000000000000001 0.5499999999988151 0 0.14999999999999999 0.5499999999988151 0 0.14999999999999999 0.59999999999894682 0 0.099999999999999978 1 0 0.099999999999999978 0.94999999999986839 0 0.050000000000000037 1 0 0 1 0 0 0.94999999999986839 0 0.050000000000000037 0.94999999999986839 0 0 0.89999999999973679 0 0.050000000000000037 0.89999999999973679 0 0.099999999999999978 0.89999999999973679 0 0.099999999999999978 0.84999999999960507 0 0.050000000000000037 0.84999999999960507 0 0 0.84999999999960507 0 0.050000000000000037 0.79999999999947335 0 0 0.79999999999947335 0 0.099999999999999978 0.79999999999947335 0 0.14999999999999999 0.79999999999947335 0 0.20000000000000001 0.79999999999947335 0 0.20000000000000001 0.84999999999960507 0 0.14999999999999999 0.84999999999960507 0 0.14999999999999999 0.89999999999973679 0 0.20000000000000001 0.89999999999973679 0 0.20000000000000001 0.94999999999986839 0 0.20000000000000001 1 0 0.14999999999999999 0.94999999999986839 0 0.14999999999999999 1 0 0.34999999999999998 1 0 0.34999999999999998 0.94999999999986839 0 0.29999999999999999 1 0 0.25 1 0 0.25 0.94999999999986839 0 0.29999999999999999 0.94999999999986839 0 0.25 0.89999999999973679 0 0.29999999999999999 0.89999999999973679 0 0.34999999999999998 0.89999999999973679 0 0.34999999999999998 0.84999999999960507 0 0.29999999999999999 0.84999999999960507 0 0.25 0.84999999999960507 0 0.29999999999999999 0.79999999999947335 0 0.25 0.79999999999947335 0 0.34999999999999998 0.79999999999947335 0 0.40000000000000002 0.79999999999947335 0 0.45000000000000001 0.79999999999947335 0 0.45000000000000001 0.84999999999960507 0 0.40000000000000002 0.84999999999960507 0 0.40000000000000002 0.89999999999973679 0 0.45000000000000001 0.89999999999973679 0 0.45000000000000001 0.94999999999986839 0 0.45000000000000001 1 0 0.40000000000000002 0.94999999999986839 0 0.40000000000000002 1 0 0.34999999999999998 0.59999999999894682 0 0.34999999999999998 0.5499999999988151 0 0.29999999999999999 0.5499999999988151 0 0.25 0.5499999999988151 0 0.29999999999999999 0.59999999999894682 0 0.25 0.59999999999894682 0 0.25 0.64999999999907843 0 0.29999999999999999 0.64999999999907843 0 0.25 0.74999999999934175 0 0.25 0.69999999999921003 0 0.29999999999999999 0.69999999999921003 0 0.29999999999999999 0.74999999999934175 0 0.34999999999999998 0.69999999999921003 0 0.34999999999999998 0.74999999999934175 0 0.34999999999999998 0.64999999999907843 0 0.40000000000000002 0.64999999999907843 0 0.40000000000000002 0.74999999999934175 0 0.40000000000000002 0.69999999999921003 0 0.45000000000000001 0.74999999999934175 0 0.45000000000000001 0.69999999999921003 0 0.45000000000000001 0.64999999999907843 0 0.45000000000000001 0.59999999999894682 0 0.40000000000000002 0.59999999999894682 0 0.40000000000000002 0.5499999999988151 0 0.45000000000000001 0.5499999999988151 0 0.5 0.5499999999988151 0 0.55000000000000004 0.5499999999988151 0 0.59999999999999998 0.5499999999988151 0 0.59999999999999998 0.59999999999894682 0 0.55000000000000004 0.59999999999894682 0 0.5 0.59999999999894682 0 0.5 0.64999999999907843 0 0.55000000000000004 0.64999999999907843 0 0.5 0.74999999999934175 0 0.5 0.69999999999921003 0 0.55000000000000004 0.69999999999921003 0 0.55000000000000004 0.74999999999934175 0 0.59999999999999998 0.69999999999921003 0 0.59999999999999998 0.74999999999934175 0 0.59999999999999998 0.64999999999907843 0 0.65000000000000002 0.64999999999907843 0 0.65000000000000002 0.74999999999934175 0 0.65000000000000002 0.69999999999921003 0 0.69999999999999996 0.74999999999934175 0 0.69999999999999996 0.69999999999921003 0 0.69999999999999996 0.64999999999907843 0 0.69999999999999996 0.59999999999894682 0 0.69999999999999996 0.5499999999988151 0 0.65000000000000002 0.5499999999988151 0 0.65000000000000002 0.59999999999894682 0 0.59999999999999998 1 0 0.59999999999999998 0.94999999999986839 0 0.55000000000000004 1 0 0.5 1 0 0.5 0.94999999999986839 0 0.55000000000000004 0.94999999999986839 0 0.5 0.89999999999973679 0 0.55000000000000004 0.89999999999973679 0 0.59999999999999998 0.89999999999973679 0 0.59999999999999998 0.84999999999960507 0 0.55000000000000004 0.84999999999960507 0 0.5 0.84999999999960507 0 0.55000000000000004 0.79999999999947335 0 0.5 0.79999999999947335 0 0.59999999999999998 0.79999999999947335 0 0.65000000000000002 0.79999999999947335 0 0.69999999999999996 0.79999999999947335 0 0.69999999999999996 0.84999999999960507 0 0.65000000000000002 0.84999999999960507 0 0.65000000000000002 0.89999999999973679 0 0.69999999999999996 0.89999999999973679 0 0.69999999999999996 0.94999999999986839 0 0.69999999999999996 1 0 0.65000000000000002 0.94999999999986839 0 0.65000000000000002 1 0 0.84999999999999998 1 0 0.84999999999999998 0.94999999999986839 0 0.80000000000000004 1 0 0.75 1 0 0.75 0.94
[...]
<CellData Scalars="tracer_conc," Vectors="" Tensors="">
<DataArray type="Float64" Name="tracer_conc" format="ascii">
1.9999999999999996 1.9999999999999976 2.0000000000000053 1.9999999999999283 2.0000000000000027 1.9999999999999722 1.9999999999974505 1.9999999999863558 1.9999999984339101 1.9999999999973663 1.9999999999999987 1.9999999999999987 1.9999999999999925 1.9999990538563166 1.9999999857751707 1.9999999947291851 1.9999999999484326 1.9999999999863176 1.9999999984362797 1.9999996081471016 1.9999996069719777 1.9999999947828782 1.9999990609939566 1.9999551554764767 1.9999551936893187 1.9671351094089808 1.9985087258997511 1.9984923615960946 1.999152765453851 1.9999783167752947 1.9999784601112713 1.9999998652607196 1.9999912698153344 1.9995822273050767 1.9773749124261499 1.9991367782299512 1.9664055039638033 1.5803450089404931 1.9999999999633178 1.9999999999996614 1.9999999999997613 1.9999999996672959 1.9999998639661158 1.9999999996522602 1.9999999661462338 1.9999999642992585 1.9999910844503224 1.9999973275374456 1.9999999954447991 1.9999999999479217 1.9999999935073602 1.9999995396995869 1.9999993314429818 1.9999617047590363 1.9999423049725527 1.6788305529744454 1.9916790805614317 1.9998223708985525 1.992620336429447 1.9851030963127221 1.9998375760320923 1.9999971400205101 1.9995667808459938 1.9766182685445837 1.6403224338326581 1.985912660307791 1.5669934792152389 0.0088582585539007403 0.085706106287347358 0.015109016294853755 0.12952174501220656 1.7032853255380491 0.0072036817200115798 1.6229418990429403 0.013964800521946864 0.0051395322843591426 0.076589458760270582 0.30782034392234819 0.12880081672975383 0.063053397613259038 0.32400171518071791 0.43016132660697221 0.66064029169266036 0.77392427160794985 0.89346402175905548 0.4423167351552178 0.64343562378061747 0.27706231304175305 0.12627133156903761 0.0098640598208845978 0.045361684507209239 0.00094052721887392997 1.7339704762632839 1.8470484510494372 1.9957727619962708 1.9973528256971755 1.7705585747504091 0.012225673613334726 0.0028735845455504366 1.7301750607684041 1.0069714731880628 1.0087885584037795 1.003124687159072 0.9824716370879174 1.0052984975710821 1.0134291484270972 1.0145811896272461 1.0135963366329925 1.0145895196042485 1.014891918162995 1.0091907291840512 1.0089357844667903 1.0056984476462074 1.0014838267745596 0.99437040879156524 1.0047542185498792 0.98233294012213568 0.94450675783235205 0.75543546433666364 0.89692764642065148 0.66371487769106863 0.99303904825761069 0.93503762051290085 0.98306920959700361 0.89405292410335946 0.92606988624940612 0.73850158505851293 0.66109107664480515 0.40769768953547825 0.72327524840562663 0.41854921882467055 0.33154511548038929 0.12893245423758037 0.091517675919883745 0.015809908959841936 0.33416304584677986 0.1274888136916377 0.39749023854405879 0.70947899493318223 0.88430469365986952 0.65593291125572661 0.88938941531057469 0.91792598483921695 0.98192660128454379 0.99212556273858521 1.0103176152880042 0.99196693441527284 1.0085592884237284 0.98197622672288143 0.91070150825509755 0.87937753808339902 0.69687906794441112 0.64957593063818286 0.33383752504443498 0.38780264170640777 0.12307902912930677 0.33167141066662698 0.096902672227913322 0.011606283925110259 0.097639996281660757 0.32832498851744013 0.64268639675298722 0.37855495425168284 1.512053004254877 0.010101830176738867 0.016189493511988288 0.095018427557853211 0.12547635727912743 0.01633445322006916 1.4673470190397828 1.4584549005661196 0.010995288498508504 1.5227876708915604 1.9553079622671319 1.9545944978918766 1.9999171437047987 1.9975956706147591 1.997612173932676 1.9419984525733136 1.9964113395250671 1.941296040105688 1.4063130084368214 1.926610281573268 1.9949065726773336 1.9998590903037377 1.9964277627136569 1.999916996639548 1.9999980227378142 0.016149981403006008 0.097553157437232169 0.12042290184242674 0.016306369148238506 1.4138357347176602 0.011993917868139898 1.3556607627423358 1.3621258890593944 1.9273040588075798 1.9106299730424885 1.3064981714579289 0.012206391302496159 0.015898651891675795 0.096870723119672819 0.11759975057171275 0.32422527483055491 0.36970859803529627 0.89595110436458503 0.67481072784305751 0.62878981812280044 0.36125778598430947 0.66532301819910233 0.31967129879457956 0.1146803475096288 0.35322337218738453 0.65697183949713722 0.86822387324943906 0.62231886138036674 0.89467582972517135 1.0089738064568508 1.0674629970426182 1.0187519715546589 1.0697333897427665 0.8690154657087652 0.89419553900016568 0.99777884519932747 1.007540555322237 0.99029181517134068 1.0463907669830008 1.048557677006734 1.0675228736780009 1.0313063196957897 1.0981689725746682 1.0984804089987819 1.1240005159323525 1.1240249695260311 1.1489789286231373 1.0678030938233543 1.083227940323271 1.0457932691949245 1.0333694488296259 0.99542506569281786 1.0207327971143298 0.98305004035631594 0.90450324559663875 0.87496940726972783 0.68533890676367792 0.63566191116170701 0.87139978592404255 1.0000585726419651 0.98562590167796793 0.8995020351003038 2.1157322850902824 1.9520622587587853 2.1157322833197969 1.9520621571646448 1.784064839074762 1.6072294969075367 1.4786806737487483 1.3569554146802634 1.4507387994114211 1.7402541263849904 1.6072320200457757 1.740254205625094 1.4507408820494616 1.2578204828631485 1.2577868975152744 1.1970177744911046 1.3569940268844629 1.2696342239811074 1.1369280531724006 1.1966419190006026 1.0962221415113107 1.034716760031428 1.0985956820092122 1.1403332757163707 1.140676617032691 1.1809775148690789 1.2222072014895344 1.1810063749899644 1.2222085441565496 1.2624859259462591 1.3866966123575799 1.448801988223734 1.6423252634792074 1.5473774301447418 1.3866965675361884 1.3218967817466796 1.3218950924897073 1.5473773697463256 1.8717612126073206 1.9960390217439092 1.8717612138687896 1.642325262609907 1.7310234318749824 2.1081610020914061 1.9960390217531374 2.4043017994745863 2.5206428270176655 2.4043017994745668 2.268214206891447 2.2682142068769 2.6886871521831655 2.6155711438126623 2.6886871521831632 2.6155711438126596 2.5206428270176762 2.2042151043668747 2.1081610020914092 1.809326017233601 1.8737375482899148 2.2042151043668587 2.2813265341179596 2.2813265341179565 1.8737375482899146 1.5516798930076905 1.551679893007698 1.5048159630939031 1.8093260172335992 1.7310234318805906 1.4488019887997987 1.5048159630906794 1.2994313915566571 1.2624859581835923 1.2994313919212863 1.3307499377044425 1.330749937706184 1.3545008372079099 1.369262020992009 1.3545008372079042 1.369262020992011 1.3742396615993462 1.6086532804554747 1.6159787060447144 1.950879036087352 1.9215453998904048 1.6086532804554787 1.5868904386861136 1.5868904386861229 1.921545399890412 2.3375423363408405 2.337542336340829 2.3716596863631239 1.9508790360873591 1.9607290457944657 2.3830744263788981 2.3716596863631265 2.7710482964663115 2.7812581351528025 2.771048296466323 2.740326095689233 2.7403260956892357 1.0309174526658347 1.0356976067876904 1.0549197440380929 1.062406858593073 1.0357109837256315 1.0205751010377926 1.0153213123010945 1.0203825277500043 1.0134645666770365 0.99291834958449599 1.0226921747034052 1.0306969982185301 1.0460430873598394 1.083248325875426 1.097437208679102 1.0549030628696365 1.1489799708872677 1.1721749483359956 1.1920535212523713 1.1721749706895923 1.192053521471141 1.0624062820823266 1.0974379958821168 1.109699563056882 1.1096995779197116 1.0681917763008208 1.1191331754866614 1.1191331756104836 1.1250460154235606 1.0718304573814252 1.2072452602999555 1.2072452603008275 1.2167297885560975 1.2167297885560986 1.2199328027717997 1.1250460154239685 1.1270453905164204 1.0730622630218101 1.042267123976659 1.0415082217289835 1.0718304574485253 1.0681917857562322 1.0415082158631819 1.0392687061205137 1.0392682965924394 1.0229312004096134 1.024339639347088 1.022941738357849 1.0243399274670737 1.0248123992758917 1.0248124035873594 1.0248124040222808 1.0239812269238064 1.0239812269258124 1.0215602300673969 1.0645786765543406 1.0370184571550851 1.040928204935913 1.0409282049359085 1.0709029379222681 1.0422671240225951 1.0422671240194008 1.0730622630220286 1.1270453905164199 1.1270453905164208 1.0730622630220406 1.2199328027717993 1.2199328027717993 1.214611876605344 1.2146118766053435 1.1989053506085869 1.0709029379222677 1.1236051159884486 1.1236051159884519 1.1134932536977025 1.0645786765543419 1.1134932536977029 1.0976761987142272 1.0976761987142272 1.0547957611256891 1.1989053506085916 1.174009053045594 1.1740090530455976 1.1421394421398714 1.1421394421398778 1.0778861994431606 1.0778861994431623 1.0427892386009352 1.0427892386009376 1.0237931663249356 1.0237931663249458 1.0134972313739652 1.0134972313739672 1.0178796998084314 1.0178796998084243 1.0215602300673998 1.0370184571550856 1.0547957611256891 1.0310271051117739 1.0310271051117872 2.7583916285712378 2.7756493693875113 2.7756493693875131 2.781258135152807 2.7812581351528038 2.3830744263788972 2.3830744263788963 1.9607290457944653 1.9486620349206545 2.3723127045201746 2.372312704520172 2.3396097316931748 1.9123491203836429 1.574338061609809 1.6055317260523183 1.6055317260523185 1.9486620349206563 1.9607290457944655 1.6159787060447139 1.6159787060447131 1.3742396615993449 1.3742396615993453 1.3664416279075748 1.3664416279075784 1.3433038764742582 1.3433038764742551 1.3060402982266666 1.3060402982266734 1.2570213380269215 1.2570213380269202 1.4535087079293405 1.4535087079293429 1.7649707515429496 1.8513118901967225 1.5231242648260237 1.5231242648260217 1.5743380616098139 1.9123491203836573 2.3396097316931828 2.2830175834665702 2.2830175834665862 1.8513118901967116 1.7649707515429536 2.1989421702210779 2.1989421702210725 2.6784908982436533 2.6784908982436582 2.7274161963368679 2.7274161963368688 2.7583916285712493 2.3235837438407252 2.492687807880174 2.4926878078801762 2.6042964901462593 2.6042964901462686 2.0822951823240263 2.0822951823240183 1.6533781010260096 1.5185755897612543 1.9271056043231849 1.9271056043231858 1.7283875328037219 1.3668358700671346 1.1771316158388676 1.2736266519472053 1.2736266519472086 1.5185755897612574 1.653378101026004 1.3685645142167391 1.3685645142167442 1.1999766177328193 1.1999766177328013 1.1401551060773865 1.1401551060773949 1.0841831674869407 1.0841831674869327 1.039208111832842 1.039208111832846 1.0108596260858356 1.0108596260858356 1.0285779633837961 1.0285779633837921 1.0782133734715935 1.2118851574661111 1.0909024093716895 1.0909024093716855 1.1771316158388769 1.366835870067151 1.7283875328037137 1.4870917715730878 1.4870917715731222 1.2118851574661105 1.078213373471588 1.2222906403933202 1.2222906403933269 1.6551724137919515 1.655172413791921 2.0634236453186392 2.063423645318653 2.3235837438407323 1.0097625931515111 1.0097625931515104 1.0185761202586625 1.0094685112196808 1.0047810343518195 1.0024951067978607 1.0052738515801412 1.0052738515801445 1.00908468782352 1.0090846878235284 1.0163599206517566 1.0163599206517651 1.0301543326977662 1.0564684518776251 1.0564684518776364 1.0301543326977725 1.1064864399681105 1.1064864399681145 1.0710246484022767 1.0710246484022869 1.0400351328927817 1.0185761202586556 1.0360907530259533 1.036090753025964 1.0192707293262888 1.0094685112197008 1.0192707293262944 1.0077349495671371 1.0077349495671351 1.0035871803557725 1.0400351328927977 1.0171999425855414 1.0171999425855387 1.0042986019923008 1.0042986019923004 1.0017755095185295 1.001775509518539 1.0007666972920832 1.0003468392511721 1.0003468392511654 1.0007666972920832 1.0035871803557725 1.0017239842206251 1.00172398422062 1.0047810343518173 1.0024951067978605 1.0008623014021483 1.0008623014021376 1.000164748644321 1.0001647486443312 1.0000823743221572 1.0000823743221718 1.0000242950410989 1.0000434753366982 1.0000434753367071 1.00014264651118 1.0002470742788969 1.0002470742788865 1.0007653031532404 1.0004539748322236 1.0004506732210585 1.0004506732210618 1.0013526292108299 1.0029456257983866 1.0029456257983891 1.0013526292108388 1.0007653031532551 1.0010371802753579 1.001710109632818 1.0017101096328225 1.0030798082515 1.001901369034504 1.0030798082515096 1.0051966152076171 1.0051966152076091 1.0008364243023806 1.0008364242763561 1.0012291809691034 1.0019013690345022 1.0012291809692742 1.0006604064525573 1.0006604064525559 1.0010371802753548 1.000453974832225 1.0002836326297477 1.0004436676405606 1.0004436676404926 1.0001875217718741 1.0001875217718792 1.000056461511184 1.00005646151117 1.0002836326297606 1.0000870839346154 1.0000870839346114 1.0001426465111876 1.0000242950410976 1.0000144251806371 1.0000144251806486 1.0000091359477268 1.0000091359477392 1.0000061993930962 1.0000061993930922 1.0000045303257215 1.0000035865078591 1.0000045303257195 1.000028991030665 1.0000289910306781 1.0000232172753754 1.0000801457483925 1.0000991219851816 1.0001318497645477 1.0000390630856766 1.0000390630856786 1.0000029425325492 1.0000029425631454 1.0000030974383931 1.0000030974385907 1.0000035865078605 1.0000232172741856 1.0000701490951112 1.0000201992813436 1.000020199126066 1.0000192385654252 1.000066625210255 1.0000192254241784 1.0000570019744357 1.0000649577376231 1.0001406462325004 1.0001714926431367 1.0001683623922262 1.0000701139951631 1.0000801452652197 1.0001956242336707 1.0003719382856537 1.0001724441036763 1.0002970721593556 0.99956345745961661 0.99771332395701795 1.0003161057697287 1.0003161057810996 1.0001318497645135 1.0000991219809732 1.0001957001060928 1.0002401613040612 1.0002401601235684 1.000461432228533 1.0003772279036665 1.0004612881864781 1.0006022781682788 1.0006022806494532 1.0009673980128628 1.0009671479592619 1.0007441579711915 1.0005605246351752 1.0007358414210115 1.0009757455446913 1.0007365038417106 0.9995993381075835 0.98543082091005174 0.99973623028149483 1.0015982130020551 1.0013542672839488 1.001341868321223 0.97016292250831371 0.98895518476586541 0.99720266150067305 0.99955002322048447 1.0003844250435812 0.99669558986070228 0.90497024013062544 0.96591947031734149 0.98722349432898948 0.91204377427352767 0.65145111235572073 0.82484241833174532 0.12758185822960638 0.47642473643926936 0.25994093615049818 0.46509872033532651 0.64093775224929039 0.81332836470138137 0.96153278400387254 0.80183486639242041 0.45395034582470595 0.12469483315681874 0.25544664085970847 0.034359846516556568 0.008126641609288424 0.99578894384501648 0.99998940109379464 1.0012829433766668 0.99621532158925163 0.89782755598971054 0.95701632991769414 0.98358793505354325 0.89062037216287349 0.63051599424590277 0.79036624772366637 0.95238421639873982 0.98170637461858556 0.99544762355473571 1.0003916355100018 1.0020899591383932 1.002495389496334 1.0022976074503813 1.0050248936435349 1.0033338148873183 1.0037408771904019 1.0037654412284296 1.0056638314230462 1.0037480104031908 1.0032370085092963 1.0058444411874947 1.0091983032424152 1.0091996319120595 1.0058775438478511 1.0148921559519244 1.0148921878241819 1.0143700757867478 1.0143700755078466 1.0128525256383463 1.0056647598978086 1.0088650347029542 1.0088650135024646 1.0078935600819623 1.0050249071751653 1.0078935602523771 1.0064350410423104 1.0064350410429677 1.0040686919049726 1.0128525256395253 1.0105610244743897 1.0105610244744003 1.0078646704039618 1.0078646704039573 1.0047361066889153 1.0047361066889073 1.0029643956548897 1.0029643956545569 1.0019390414643961 1.0019390415172822 1.0013326014361019 1.0013325967401354 1.0018582365840421 1.0018578303091001 1.0023153487705048 1.0033344419001291 1.0040686918066486 1.0026844180639458 1.002684409844834 
</DataArray>
</CellData>
</Piece>
</UnstructuredGrid>
</VTKFile>
