<?xml version="1.0"?>
<VTKFile type="UnstructuredGrid" version="0.1" byte_order="LittleEndian">
<UnstructuredGrid>
<Piece NumberOfPoints="1143" NumberOfCells="2148">
<Points>
<DataArray type="Float64" NumberOfComponents="3" format="ascii">
0 0 0 0.0736345888316307 0.0637333048655595 0 0.105263157894484 0 0 0.105847738327952 0.150895293579407 0 0 0.102040816326531 0 0 0.204081632653061 0 0 0.306122448979592 0 0.0963260944161509 0.273811510294367 0 0.19912213507756 0.241701131057856 0 0.306529038486018 0.218453285118224 0 0.222741758606036 0.141984576675053 0 0.157062047935717 0.0657304144218603 0 0.210526315788968 0 0 0.245859050062934 0.0615708420060463 0 0.315789473683452 0 0 0.322030541746038 0.113556493866926 0 0.420915352533358 0.074985042685528 0 0.421052631577937 0 0 0.526315789472444 0 0 0.594439451232812 0.0887178408363477 0 0.513101370826361 0.134129492815744 0 0.611102057161856 0.196335598991703 0 0.581885168833657 0.302392759021642 0 0.500986724861322 0.250629842679194 0 0.399803174487431 0.298440986856889 0 0.412014556344116 0.189798498882905 0 0.377510554953585 0.391263936876735 0 0.498523341233396 0.389076937637219 0 0.614047778589085 0.387795898525738 0 0.587686537066514 0.464126045476426 0 0.509931573480221 0.522280814579519 0 0.613945404707068 0.570990073651732 0 0.420597075781915 0.595854369448944 0 0.406811536593169 0.484911194529197 0 0.314543409362701 0.549165380872091 0 0.235802928303382 0.611564357809131 0 0.222058877190937 0.510857644422808 0 0.298455345785692 0.447563908098048 0 0.28395937666824 0.336326657262323 0 0.170994783200652 0.334188745583958 0 0.19230207234368 0.422678825965969 0 0.0798863474723025 0.392675045642543 0 0 0.408163265306122 0 0 0.510204081632653 0 0.099581482345634 0.49355644173514 0 0.124792039049303 0.598138423871711 0 0 0.612244897959184 0 0.0636610927580281 0.559357934802157 0 0 0.714285714285714 0 0.110872549238551 0.753262340488874 0 0.0788823051552232 0.670851705018505 0 0.158746937488262 0.676327148487044 0 0.236384173514931 0.729687493468818 0 0.193654919780874 0.809084389625954 0 0.283519584889572 0.824186168388132 0 0.312318074985545 0.9265612976054 0 0.223539675574619 0.901416903867864 0 0.108358608087324 0.881067940476987 0 0 0.816326530612245 0 0 0.918367346938775 0 0.0741199651049571 0.979589990241823 0 0.0938420895696505 1.07913022382781 0 0 1.02040816326531 0 0 1.12244897959184 0 0 1.22448979591837 0 0.0769912270182558 1.21550350972786 0 0.156022104484688 1.15671384061775 0 0.181863964367382 1.24890101842418 0 0.295350406939813 1.24878144427625 0 0.246522554351683 1.16362252184999 0 0.283487779541101 1.08170937477947 0 0.202239780457393 1.08245817859136 0 0.156323146912265 0.989428081563376 0 0.257041164856935 0.995959729170845 0 0.417102476317875 0.970588836600275 0 0.432025230341138 1.0714443936661 0 0.343730652028401 1.03385753969427 0 0.352853207783426 1.1463879991198 0 0.45104823163349 1.16347740791134 0 0.524568646099352 1.10899361680434 0 0.532279520629214 1.22161240635012 0 0.592382606789717 1.05464271608785 0 0.510741573083191 1.00937400060431 0 0.611014342578546 0.951968805613212 0 0.584422029155493 0.850865842495068 0 0.503559587933094 0.831151742969579 0 0.505014681376251 0.912126216755784 0 0.403248079189305 0.858808072252256 0 0.466088203080319 0.758460250557758 0 0.365259589174468 0.75455484928981 0 0.335916026949355 0.661311993908121 0 0.434091974643088 0.682028344269046 0 0.517751522887305 0.649204659932698 0 0.556815832987901 0.751222087509401 0 0.607480451484226 0.667524679935283 0 0.673766955499673 0.64179747048437 0 0.660848518727223 0.744887501297317 0 0.738730451585584 0.670293622968252 0 0.831988252746787 0.705289880352386 0 0.891179657821291 0.811722916643229 0 0.910219789124873 0.924987206132292 0 0.811936770804465 0.886847873846323 0 0.773212672907957 0.781855782167169 0 0.694671268182995 0.861804013605246 0 0.730259413925912 0.95775976245844 0 0.769720371621321 1.05300925460219 0 0.679988715135899 1.05058250699444 0 0.635599757051598 1.15229465042293 0 0.729836484144921 1.23236288424327 0 0.754371061972205 1.1438943646951 0 0.842900635534897 1.10163680185222 0 0.856429814884933 1.22094204632537 0 0.925590790614484 1.14668581297771 0 0.919899805888167 1.04590818443484 0 0.831391968228271 0.99938114807813 0 1.00374734117194 0.979124450324178 0 1.00849639477799 1.09047086872141 0 1.00212728020349 1.20578817203696 0 1.09579508167889 1.13858461839322 0 1.11159601100916 1.23871922893676 0 1.18547538194808 1.17298582261282 0 1.16376270091775 1.07953773050829 0 1.10381806911098 1.02673397416154 0 1.17140528955629 0.94672427573449 0 1.20863058429404 1.0140000988213 0 1.19670960640353 0.868101575186357 0 1.23835111652904 0.784057456925547 0 1.12982447656133 0.800928218495745 0 1.09131257763053 0.901819008479382 0 0.989422216948731 0.874911369871656 0 0.979535213804843 0.798043954551922 0 1.05139131088788 0.813433322551643 0 1.07273920199841 0.741352938388404 0 0.953558087601446 0.696580254982134 0 1.05816995778224 0.632556428378151 0 1.17419636997518 0.740517989436498 0 1.17215537934514 0.671242575712059 0 1.24448902471025 0.616023937954404 0 1.16755621223674 0.544461386369183 0 1.24595708749388 0.468492793678387 0 1.22565399853762 0.382788281316826 0 1.141915868145 0.419781161550079 0 1.07289789969404 0.312528740612149 0 0.998449064952117 0.410330812227989 0 0.982055524849828 0.493509096754416 0 1.05397680442352 0.511178337991362 0 0.973199829033225 0.570447143159581 0 0.871573099219186 0.599958933542136 0 0.902596400990451 0.482080093638731 0 0.793779443273457 0.505858952283911 0 0.792405972969367 0.608716895403289 0 0.718271863311236 0.575596495249469 0 0.682728929220303 0.47640034990436 0 0.746681771051909 0.387926434817699 0 0.82893956394501 0.435560427814912 0 0.867663912118382 0.362911290179403 0 0.863886156728703 0.241766334456221 0 0.78314504829354 0.17010051937666 0 0.769460470770621 0.273053164279476 0 0.672697639570897 0.28766618318192 0 0.714663424640052 0.204088718950095 0 0.699940620167892 0.10672435545698 0 0.631578947367022 0 0 0.736842105261599 0 0 0.842105263156177 0 0 0.813403882401762 0.0822309285457336 0 0.869902069792691 0.140741363100657 0 0.90435207992902 0.0736857670014441 0 0.947368421050755 0 0 1.0078160298597 0.074864658161345 0 1.05263157894548 0 0 1.07217975839383 0.142212341347491 0 0.953893262172477 0.166226831044512 0 0.964793292761269 0.28597364760584 0 1.03269884304227 0.230447194869937 0 1.13455899871136 0.217096796547299 0 1.18199924747997 0.30979610441797 0 1.23452357465823 0.21816381122767 0 1.18025845119839 0.11010044651604 0 1.09415611104755 0.0654354892049752 0 1.15789473684035 0 0 1.26315789473522 0 0 1.28015545428402 0.134253489113443 0 1.35597190592473 0.0854652352735259 0 1.36842105263009 0 0 1.47368421052496 0 0 1.52726988652229 0.0935208475014348 0 1.43600810953489 0.141255362919961 0 1.51881971132739 0.195232499109447 0 1.42991145721447 0.262208491773774 0 1.339082773418 0.226637907634606 0 1.27584256296759 0.319951127291717 0 1.35590977906976 0.336653253360248 0 1.4032239194737 0.430211184573731 0 1.30933019105574 0.41112098453386 0 1.27528587638027 0.551298387901432 0 1.35652442361575 0.606569798571744 0 1.3426444510497 0.500882288542712 0 1.46554520827884 0.537600581997118 0 1.49546762432289 0.418619780528163 0 1.43118808027027 0.356328484089554 0 1.51175918210937 0.316819418665511 0 1.58772819813486 0.385639264923741 0 1.68635617343798 0.324978289824945 0 1.68921100147206 0.452901491607104 0 1.58374734721708 0.489924248801578 0 1.56803454623212 0.604203390245244 0 1.66746359377432 0.561113176075504 0 1.7645878445382 0.551245651813427 0 1.80032622400742 0.468141410353538 0 1.7996967683109 0.384946776894333 0 1.81016205875802 0.286750675265454 0 1.82515591130724 0.184107150139076 0 1.60653599738435 0.251845441261645 0 1.70973638431829 0.214287091342807 0 1.62495633134115 0.11872224752482 0 1.57894736841994 0 0 1.68421052631495 0 0 1.78947368420997 0 0 1.74986152426765 0.0993571405544282 0 1.89473684210498 0 0 2 0 0 2 0.102040816326328 0 1.8802699166947 0.0795297739923937 0 1.91682606565592 0.163831378038849 0 1.91440116321537 0.249097807988028 0 2 0.306122448978984 0 2 0.204081632652656 0 2 0.408163265305313 0 1.90462317736733 0.3467317444827 0 1.9034790739197 0.445309492464089 0 2 0.510204081631641 0 2 0.612244897957969 0 1.88658850762887 0.550707857746562 0 1.9127325271428 0.665912001475194 0 2 0.714285714284297 0 1.94357452952373 0.758317595771228 0 1.91186005674093 0.845108463525355 0 2 0.918367346936953 0 2 0.816326530610625 0 2 1.02040816326328 0 1.91490405761161 0.962785555309079 0 1.90072419784831 1.0716096776632 0 1.93538923156756 1.16667404026696 0 2 1.12244897958961 0 2 1.22448979591594 0 1.9194334480734 1.24743728895637 0 1.8486534985999 1.185092014904 0 1.76398716255172 1.09754654802401 0 1.73838217549594 1.22435159937778 0 1.63692624254826 1.1955100929595 0 1.69359442094341 1.15050669607528 0 1.63508210317771 1.08461854393982 0 1.58438772881008 0.973029012016421 0 1.7048256954395 0.988948105378847 0 1.81622554596725 0.98532035675162 0 1.85303987256907 0.903730618401353 0 1.75987072913532 0.906694523256574 0 1.79979755245363 0.82511438199244 0 1.83524613672508 0.729137144012417 0 1.82773074035098 0.633016079225309 0 1.74129687257472 0.644896004810703 0 1.72698762335867 0.748264232318547 0 1.64048997128055 0.668584523059047 0 1.63366587099814 0.790222226508128 0 1.71142933611989 0.831631113528545 0 1.65209158108323 0.896295710779286 0 1.55777816744817 0.869231846744498 0 1.45643186944331 0.836450529299695 0 1.54025530894831 0.737202395796845 0 1.45900276562952 0.650441807260084 0 1.42511330480318 0.745853413048554 0 1.32869587722193 0.760020132926019 0 1.36851463676717 0.691312663775739 0 1.27323681256548 0.693678167072296 0 1.2915567177822 0.8451499713346 0 1.37290016413671 0.816457454501584 0 1.36537347548701 0.91633819833831 0 1.25719114745064 0.934877822817134 0 1.30948096030112 1.00960637674801 0 1.25327954951967 1.09355022061838 0 1.47458700710381 0.947132690
[...]
<CellData Scalars="conc_conc," Vectors="" Tensors="">
<DataArray type="Float64" Name="conc_conc" format="ascii">
0 0 0 0 0 0 0 0 0 0 0 0 0 0 0 0 0 0 0 0 0 0 0 0 0 0 0 0 0 0 0 0 0 0 0 0 0 0 0 0 0 0 0 0 0 0 0 0 0 0 0 0 0 0 0 0 0 0 0 0 0 0 0 0 0 0 0 0 0 0 0 0 0 0 0 0 0 0 0 0 0 0 0 0 0 0 0 0 0 0 0 0 0 0 0 0 0 0 0 0 0 0 0 0 0 0 0 0 0 0 0 0 0 0 0 0 0 0 0 0 0 0 0 0 0 0 0 0 0 0 0 0 0 0 0 0 0 0 0 0 0 0 0 0 0 0 0 0 0 0 0 0 0 0 0 0 0 0 0 0 0 0 0 0 0 0 0 0 0 0 0 0 0 0 0 0 0 0 0 0 0 0 0 0 0 0 0 0 0 0 0 0 0 0 0 0 0 0 0 0 0 0 0 0 0 0 0 0 0 0 0 0 0 0 0 0 0 0 0 0 0 0 0 0 0 0 0 0 0 0 0 0 0 0 0 0 0 0 0 0 0 0 0 0 0 0 0 0 0 0 0 0 0 0 0 0 0 0 0 0 0 0 0 0 0 0 0 0 0 0 0 0 0 0 0 0 0 0 0 0 0 0 0 0 0 0 0 0 0 0 0 0 0 0 0 0 0 0 0 0 0 0 0 0 0 0 0 0 0 0 0 0 0 0 0 0 0 0 0 0 0 0 0 0 0 0 0 0 0 0 0 0 0 0 0 0 0 0 0 0 0 0 0 0 0 0 0 0 0 0 0 0 0 0 0 0 0 0 0 0 0 0 0 0 0 0 0 0 0 0 0 0 0 0 0 0 0 0 0 0 0 0 0 0 0 0 0 0 0 0 0 0 0 0 0 0 0 0 0 0 0 0 0 0 0 0 0 0 0 0 0 0 0 0 0 0 0 0 0 0 0 0 0 0 0 0 0 0 0 0 0 0 0 0 0 0 0 0 0 0 0 0 0 0 0 0 0 0 0 0 0 0 0 0 0 0 0 0 0 0 0 0 0 0 0 0 0 0 0 0 0 0 0 0 0 0 0 0 0 0 0 0 0 0 0 0 0 0 0 0 0 0 0 0 0 0 0 0 0 0 0 0 0 0 0 0 0 0 0 0 0 0 0 0 0 0 0 0 0 0 0 0 0 0 0 0 0 0 0 0 0 0 0 0 0 0 0 0 0 0 0 0 0 0 0 0 0 0 0 0 0 0 0 0 0 0 0 0 0 0 0 0 0 0 0 0 0 0 0 0 0 0 0 0 0 0 0 0 0 0 0 0 0 0 0 0 0 0 0 0 0 0 0 0 0 0 0 0 0 0 0 0 0 0 0 0 0 0 0 0 0 0 0 0 0 0 0 0 0 0 0 0 0 0 0 0 0 0 0 0 0 0 0 0 0 0 0 0 0 0 0 0 0 0 0 0 0 0 0 0 0 0 0 0 0 0 0 0 0 0 0 0 0 0 0 0 0 0 0 0 0 0 0 0 0 0 0 0 0 0 0 0 0 0 0 0 0 0 0 0 0 0 0 0 0 0 0 0 0 0 0 0 0 0 0 0 0 0 0 0 0 0 0 0 0 0 0 0 0 0 0 0 0 0 0 0 0 0 0 0 0 0 0 0 0 0 0 0 0 0 0 0 0 0 0 0 0 0 0 0 0 0 0 0 0 0 0 0 0 0 0 0 0 0 0 0 0 0 0 0 0 0 0 0 0 0 0 0 0 0 0 0 0 0 0 0 0 0 0 0 0 0 0 0 0 0 0 0 0 0 0 0 0 0 0 0 0 0 0 0 0 0 0 0 0 0 0 0 0 0 0 0 0 0 0 0 0 0 0 0 0 0 0 0 0 0 0 0 0 0 0 0 0 0 0 0 0 0 0 0 0 0 0 0 0 0 0 0 0 0 0 0 0 0 0 0 0 0 0 0 0 0 0 0 0 0 0 0 0 0 0 0 0 0 0 0 0 0 0 0 0 0 0 0 0 0 0 0 0 0 0 0 0 0 0 0 0 0 0 0 0 0 0 0 0 0 0 0 0 0 0 0 0 0 0 0 0 0 0 0 0 0 0 0 0 0 0 0 0 0 0 0 0 0 0 0 0 0 0 0 0 0 0 0 0 0 0 0 0 0 0 0 0 0 0 0 0 0 0 0 0 0 0 0 0 0 0 0 0 0 0 0 0 0 0 0 0 0 0 0 0 0 0 0 0 0 0 0 0 0 0 0 0 0 0 0 0 0 0 0 0 0 0 0 0 0 0 0 0 0 0 0 0 0 0 0 0 0 0 0 0 0 0 0 0 0 0 0 0 0 0 0 0 0 0 0 0 0 0 0 0 0 0 0 0 0 0 0 0 0 0 0 0 0 0 0 0 0 0 0 0 0 0 0 0 0 0 0 0 0 0 0 0 0 0 0 0 0 0 0 0 0 0 0 0 0 0 0 0 0 0 0 0 0 0 0 0 0 0 0 0 0 0 0 0 0 0 0 0 0 0 0 0 0 0 0 0 0 0 0 0 0 0 0 0 0 0 0 0 0 0 0 0 0 0 0 0 0 0 0 0 0 0 0 0 0 0 0 0 0 0 0 0 0 0 0 0 0 0 0 0 0 0 0 0 0 0 0 0 0 0 0 0 0 0 0 0 0 0 0 0 0 0 0 0 0 0 0 0 0 0 0 0 0 0 0 0 0 0 0 0 0 0 0 0 0 0 0 0 0 0 0 0 0 0 0 0 0 0 0 0 0 0 0 0 0 0 0 0 0 0 0 0 0 0 0 0 0 0 0 0 0 0 0 0 0 9.13013679036017e-13 3.3767533363921e-11 2.45535075507871e-10 3.04398803059125e-09 2.85127711630353e-08 1.05353613610337e-08 1.49530846063519e-09 5.8814224764735e-12 1.74019101588709e-11 9.39076820528475e-11 2.06944193682541e-09 9.81648440075208e-12 3.16227536388883e-10 5.95866250366028e-13 4.2166462949586e-13 0 0 0 0 0 0 0 0 0 2.73892047253417e-12 0 0 0 0 0 0 0 3.92684455304204e-12 0 1.07178776320148e-10 1.80434207101247e-09 5.55103359288563e-10 5.2770001978414e-08 8.14531447483218e-09 1.10034125126899e-08 2.06763801548182e-10 1.37460438581877e-11 5.98422082983865e-11 2.89205358365769e-15 9.01632514006561e-14 1.01404646924672e-12 0 0 9.11275006440536e-09 0 1.50961929176456e-09 4.26933013939983e-07 8.58112416469771e-08 2.73178477858421e-06 9.25612200001534e-08 3.49971600839448e-07 1.76439740617154e-06 2.85035473247435e-05 8.04250651915078e-06 1.87350602665654e-05 6.48064344958597e-05 4.5348664664128e-06 0 0 0 0 0 0 0 0 0 1.90937368530123e-06 0 0 0 1.70832032618266e-08 9.16626591159025e-08 6.03506201052384e-07 3.85064022061683e-07 9.27575761285054e-08 1.95761265134635e-07 8.84432003716579e-07 6.83845137224434e-06 2.55177627046297e-06 1.91082020688283e-05 7.20693823628308e-06 1.94402686407151e-05 5.60606160875836e-05 6.3028759164983e-05 0.000150415520608452 0.000309381192249801 3.59384801363413e-05 0.000110471480665151 5.68584701688695e-05 0.000376711116449389 0.000163557194240263 0.000790917205265308 0.000372461551504749 0.000111724649764038 6.60613834629643e-05 0.000164474003340625 2.6502346160505e-06 2.03889866416859e-05 1.30899006260543e-06 6.75181237380072e-07 5.68377738625175e-06 5.80181727018257e-06 1.170427530116e-06 1.97772307382211e-05 1.19900967849926e-05 5.8011164801519e-07 3.77079219426984e-06 9.27542307442464e-08 3.14278863296637e-08 1.27046146156873e-09 1.23148893590557e-08 4.10524035182081e-12 0 0 0 1.13301291299468e-10 2.19813684864473e-10 9.74961160967946e-12 0 0 4.63992602085804e-12 1.43589392934277e-10 2.60962369099656e-09 2.87724911180289e-09 2.63831064584231e-07 2.05052920495842e-07 2.79032051686314e-08 4.93536829750818e-09 1.52376362143914e-08 4.17653869802288e-08 3.92585029497402e-10 1.77906670405484e-11 5.30404035369841e-13 0 0 0 1.33216171747542e-13 0 0 0 0 1.49843133938204e-12 7.07414474621702e-11 7.22462374606105e-12 8.83465209214368e-10 2.10761239746709e-11 3.03164464991075e-10 2.24488395235584e-09 1.52820246308829e-08 7.35412341037895e-08 9.66118141763577e-09 1.13442602108224e-07 3.40087812044861e-07 1.00953851649626e-05 1.36491261907591e-06 5.97900119328822e-07 2.75193477186714e-06 1.88374306293868e-05 3.40188613179024e-05 5.19117483961893e-05 0.000211488117276114 1.36120400940346e-05 0.000100824509832099 4.0050479419699e-06 3.88221466177775e-07 9.22002185263811e-08 1.00803671835043e-06 2.86917348756732e-06 2.26203068270057e-05 0.00010083350618751 5.10771697507222e-05 6.50067299305117e-06 1.36229771366311e-05 2.59604439476342e-05 4.20589639742569e-05 6.21420526533259e-05 0.000287217276556643 0.00144590588897584 0.000179594453100272 0.0021500068315437 0.000895164160125163 0.000434064359825676 0.000778250687795684 0.000223002741028794 0.000415363472802524 0.00174672857078407 0.00574786124228298 0.00322643837424781 0.00180299135423194 0.000745870321678704 0.00135820509605773 0.000562267164680165 0.00151453538239314 0.00241280613387165 0.0049044850585013 0.00776767708549295 0.00324840180403867 0.00718397670849117 0.0131830536105805 0.00899843441838795 0.00286762576934549 0.00477293435825862 0.0067396113813118 0.00887037085843895 0.0107760543375109 0.0116729533998945 0.0209170149090696 0.0157453003509143 0.0190486022999014 0.00968279681328267 0.00863889854355548 0.00933043732249274 0.0243545423815204 0.00456688551865178 0.00754631584485882 0.00473928945361419 0.024839682944434 0.0399846912700204 0.018075011878028 0.017351721342325 0.0201641999670999 0.00622725511149653 0.00618491037729286 0.000850257844385904 0.000860006503427888 0.0044122804673409 0.00431980670522164 0.00350314116946727 0.000432839059116552 0.00285577471117569 0.000671544452431 0.00331895177642805 0.000478053478965156 0.000427974284454186 0 8.15055879000827e-05 0 0 0 0.000709072105162639 0 0 0 0 0 0 0 0.00178444392368901 0.00348293415511503 0.00178793677083623 0 0 0 0.00348353144392746 0.002569251340455 0.00314763749097089 0.00314763904352067 0 0 0 0 0 0 0 0 0 0 0 0 0 0 0 0 0 0 0 0 0 0 0 0 0 0 0 0 0 0 0.00607887053669591 0.00607887071114656 0.0516362489754967 0.0517317122900067 0 0 0 0 0 0 0 0 0 0 0 0 0 0 0 0 0 0 0.00455438910475027 0.00812525848716874 0.0506829435138683 0.00607884817875689 0.00543582917327235 0.00543596299264521 0.0506760630301605 0.050680884286168 0.0154816427114719 0.0154735258511349 0.0110416984945482 0.0110239229336425 0.0402240587030306 0.0401702350522733 0.00761771400018551 0.00455178816856104 0.0446364073301877 0.00435543268770552 0 0 0 0 0 0 0 0 0 0 0 0 0 0 0 0 0 0 0 0 0 0 0 0 0 0 0 0 0 0 0 0 0 0 0 0 0 0 0 0 0 0 0 0 0 0 0 0 0 0 0 0 0 0 0 0 0 0 0 0 0 0 0 0 0 0 0 0 0 0 0 0 0 0 0 0 0 0 0 0.000614993814401985 0 0 0 0 0 0 0 0 0 0 0 0 0 0 0 0 0 0 0 0 0 0 0 0 0 0 0 0 0 0 0.00299054558095552 0 0 0 0 0 0 0 0 0 0 0 0 0 0 0 0.000845838740875447 0.00263375884074209 0.00234723253091263 0.000646376763228941 0.000391197007870016 0.000239951878440738 0.000691283508011626 0.000378994455249428 0.000109611261555717 0 0 0 0 0 0 0 0 0 0 0 0 0 0 0 0 0 0 0 0.000300966389875063 0.00023628831610492 0.000151650760727987 6.20243487755296e-05 0 3.61493710962837e-05 0.000298683477278741 0.000933843651621684 0.00155213139287154 0.000911738500983406 0.000635752485207758 0.000532486891129617 0.00201007389969086 0.00154757621353258 0.00462068621008245 0.00850915744510078 0.0072820941082075 0.0133071081037334 0.00740251485307226 0.00354757366828367 0.00567809743931737 0.00329914746665108 0.00367685149962872 0.00104660227245067 0.00190481435488263 0.00214477134297566 0.00144405090487481 0.00410282578055966 0.00292388323127742 0.00605026792988778 0.00194765610601357 0.0025030447434188 0.00084041671024839 0.000253781824105751 0.000589047490099366 0.00101685364004206 0.00434989733382638 0.00323084844275068 0.00211820328240192 0.000703525039166663 0.00284126669310722 0.00415960506404358 0.00372271567133871 0.00867779135259925 0.0100861460555093 0.0075426169097648 0.0111456949619195 0.0151085185618922 0.0159687765402069 0.00828573270058214 0.0139156733370474 0.00783962032048954 0.00194398962210237 0.00214930171267329 0.0044050365461274 0.00452232292647562 0.00112139362327719 0.00247104749751368 0.00107219123633673 0.00248964746766861 0.00642656250583786 0.0085587414326964 0.019264589254834 0.0141324182046781 0.00849963971806645 0.0191698692713815 0.0201669964053189 0.019292177728338 0.0210381132048849 0.0205046195145625 0.0100139501859845 0.012770759432764 0.00999933080506068 0.0204560945991024 0.0148807715640789 0.0198423287606014 0.0140378932911133 0.00648846786405118 0.012622035144004 0.00268214783314075 0.00608456961613527 0.00106082476236562 0.00111094073375993 0 0.00315767460570372 0.00319896970397069 0 0 0 0 0 0 0 0 0.0210430648875834 0.0249454460956499 0.0249463868641948 0 0.0179133787998953 0 0.0330687622428266 0.0249464320658547 0.0330687686472537 0 0 0 0 0 0 0 0 0 0 0 0 0 0 0 0 0 0 0 0 0 0 0 0.047218814910483 0 0 0 0 0 0 0 0 0 0 0 0 0 0 0 0 0 0 0 0 0 0.00243646033526415 0.0024364686667377 0 0.0151442021660256 0.0151442016577906 0.0189194705253558 0.0189192887240943 0.0193095604247292 0.0193041587175228 0.00643789768573752 0.00438212336802094 0.00438276965891121 0.000378229260166557 0.00037819291617539 0.00107365510708977 0.000139057270006853 0.000139288520343152 0 0 0 2.34979960612133e-05 0 0 0 0 0 0 0 0 0 0 0 0 0 0 2.32083514179316e-05 0.000556080676822731 9.61147459525795e-05 0.000552922682430835 9.29697938433659e-05 0.000296399661798795 0.0010807898715737 0.000237016107459961 0.000265307135477403 0.000188918193831141 0.00113404639629341 0.000271117972121942 0.000936264605381006 0.000182367705257656 0.000140948206694592 0.000456732729202505 2.95080156802381e-05 7.46448268920364e-05 0 0 0 2.16204199664155e-12 5.1750072340239e-11 9.02375409548955e-09 8.18923792592709e-10 1.71886901681679e-06 3.56598558375521e-07 6.4788825072142e-08 1.17305154174996e-05 1.73858613094877e-06 5.83752132840595e-06 6.14297845021722e-06 0.000121543161302293 0.000171838853630921 0.000398500213973746 6.8225138436173e-05 4.56281383542405e-05 2.03245085931566e-05 6.80354058398608e-06 1.00165789379865e-06 1.75978583681881e-07 2.69972795702854e-07 1.66033635168165e-06 7.22090581435902e-06 2.95494740443372e-06 4.65153292780479e-07 1.66554433901732e-05 5.66433253608298e-05 0.000132734419279915 0.000278846667545596 0.000321769126602766 2.95571554335987e-05 0.000131586666869875 0.00062826368611274 0.00114807755938287 0.000608145062454508 0.000272143845699085 5.49644777535185e-05 9.12426756893404e-05 0.000568773308320143 0.00016693712957246 0.000364903232704723 0.000171824554724418 0.000167186150157372 6.39737076582824e-05 2.53938158116577e-05 1.69168304801672e-05 1.62213967329953e-06 1.00423262267742e-05 4.27775253886605e-07 7.22777727260586e-07 5.08040089165159e-06 2.98251510215435e-06 7.283950075286e-07 1.04848462556434e-05 3.75172362551479e-05 1.82465396411982e-06 2.93106255343397e-08 2.43907277103311e-07 1.98515433646462e-09 8.47020860720771e-10 1.12597534763693e-08 1.03675600740204e-07 1.14418757895508e-07 1.32299892261933e-08 3.34917364499214e-11 1.15124983524686e-09 3.7298347190623e-11 0 0 0 0 0 0 0 4.16458698427304e-11 8.41431171913133e-11 0 0 0 8.33386371648618e-11 0 2.70285186288418e-09 4.12468555431346e-08 1.86279982523414e-09 2.71841297540095e-08 2.05906494036817e-08 1.68951461777726e-09 1.41059947214191e-10 4.707698786716e-12 8.02131275580838e-11 1.78516953915604e-12 0 0 0 0 0 0 0 0 0 0 0 0 0 0 0 0 0 0 0 0 0 0 0 0 0 0 0 0 0 0 0 0 0 0 0 0 0 0 0 0 0 0 0 0 0 0 0 0 0 0 0 0 0 0 0 0 0 0 0 0 0 0 0 0 0 0 0 0 0 0 0 0 0 0 0 0 0 0 0 0 0 0 0 0 0 0 0 0 0 0 0 0 0 0 0 0 0 0 0 0 0 0 0 0 0 0 0 0 0 0 0 
</DataArray>
</CellData>
</Piece>
</UnstructuredGrid>
</VTKFile>
