<?xml version="1.0"?>
<VTKFile type="UnstructuredGrid" version="0.1" byte_order="LittleEndian">
<UnstructuredGrid>
<Piece NumberOfPoints="568" NumberOfCells="1054">
<Points>
<DataArray type="Float64" NumberOfComponents="3" format="ascii">
0 0 0 0.049999999999899652 0 0 0.032369857048753323 0.032369857048862027 0 0.058433525112266523 0.058433525112214509 0 0 0.050000000000207989 0 0 0.10000000000041601 0 0.040058458469319477 0.094457855579157729 0 0.098076845682915317 0.099172414730993488 0 0.094457855579284614 0.040058458469418363 0 0.099999999999814668 0 0 0.056452228708379938 0.23456580837661581 0 0 0.20000000000083221 0 0.038839999600931263 0.17949825993190149 0 0 0.15000000000062411 0 0.054872692726595548 0.13410685639845171 0 0.089689702191541126 0.13851380458662241 0 0.12294765968567151 0.14825146416195439 0 0.08287507656968085 0.1788186348829835 0 0.099694771212264055 0.22074048840547039 0 0.15899695163321451 0.22783674912227669 0 0.12587517708284679 0.1889683322666954 0 0.16901316006868169 0.16800219386663079 0 0.18922011052115781 0.12644206653611201 0 0.22626394058331961 0.15465946819838111 0 0.20596721135052939 0.19972517895396219 0 0.2115548431873881 0.2417444767741872 0 0.18035159017842109 0.039190336535090492 0 0.14999999999970359 0 0 0.1383574446607988 0.058995933918849157 0 0.1484760565886207 0.1122209074004519 0 0.18172590289758209 0.08161197406129285 0 0.21720615046484709 0.1044394548351292 0 0.23167460333446299 0.05534377469531044 0 0.19999999999955789 0 0 0.24999999999941211 0 0 0.28320804985300141 0.050843339082505573 0 0.29999999999926641 0 0 0.32361955853288599 0.032799927825624707 0 0.36246243089534252 0.044218366607477223 0 0.34999999999912063 0 0 0.35582258519414178 0.085418764257258431 0 0.32242731191769902 0.068937933438140794 0 0.33076700644279272 0.1195922550481146 0 0.29506339503703888 0.1011380892434444 0 0.25714619498771307 0.1041399906845497 0 0.26318949769601319 0.14610173397257309 0 0.29914271679297122 0.15649620970120659 0 0.26017196519013502 0.20370391303005 0 0.30107969069289831 0.20280020009141189 0 0.28840285102268098 0.24960955320708811 0 0.33179683980498331 0.2223019939720311 0 0.33080167595110582 0.18179111300269291 0 0.3603074848216346 0.15401470087110539 0 0.3972892400718947 0.16563993209502181 0 0.43240736009008851 0.18205680965402779 0 0.41732862935313042 0.12986698634362279 0 0.38103425680679859 0.2047839516297037 0 0.42421838472613971 0.22246502005787769 0 0.46229330881044273 0.19890916456654811 0 0.49999999999997108 0.21968641114982909 0 0.45952001838826873 0.15666487330524251 0 0.46567857652706018 0.1143680615275231 0 0.47574662421782782 0.077626823840590969 0 0.48492433058289169 0.037321398276272413 0 0.49999999999869432 0 0 0.44999999999882923 0 0 0.44692795014265252 0.051801877645060238 0 0.40685581827241191 0.041139877312511682 0 0.3999999999989749 0 0 0.39061628640684498 0.081525103161991672 0 0.37516171960683908 0.121918126660369 0 0.43122735573933979 0.088176999192917438 0 0.42930823106401639 0.40626685012722968 0 0.39222057657781068 0.38067796690227418 0 0.39419886675318527 0.41912225240070788 0 0.37702386074717259 0.45819417564476811 0 0.41009598069569558 0.49083935749285379 0 0.42340342337193693 0.44762131874855388 0 0.46152714345798918 0.47344359412352599 0 0.46102425708533701 0.43254199134332588 0 0.46543211128216788 0.38788423543681888 0 0.49854341599767982 0.37075914768127122 0 0.47253211736503098 0.34081710830804929 0 0.48378871228000903 0.29745177826977359 0 0.45533136021725079 0.2525687312087147 0 0.43059486795334201 0.30395973419063538 0 0.39162098771181342 0.29503699292854563 0 0.40180462628983732 0.2561903397585753 0 0.43301393728221038 0.35984320557492139 0 0.39120887188745579 0.33407577688404289 0 0.34804757266227387 0.35750068079406011 0 0.3231032570156932 0.32141443408924047 0 0.3579628846738841 0.25683522786710378 0 0.35481435458309307 0.30398436674998969 0 0.32373692627050221 0.27286413781593999 0 0.29747949118041711 0.2964111573808435 0 0.26014443552207939 0.29262390443653519 0 0.25082138072344978 0.25770010742236849 0 0.28473805236128291 0.34355768118673757 0 0.25582605936799319 0.39507969989513358 0 0.2963043386970643 0.4298320229681446 0 0.30597655500381687 0.3934681685211931 0 0.35481422397128459 0.40312981465069342 0 0.33382663527330159 0.44130125047503482 0 0.33436424489304489 0.47849603121740791 0 0.29988655052531688 0.46700727827593119 0 0.26247584734598628 0.44764943295894732 0 0.262418491288269 0.49071922292154141 0 0.19218127164496679 0.46593838964869538 0 0.23232476702437141 0.46634525369567709 0 0.21968801783855879 0.43306783640023788 0 0.197169318452384 0.38703015239362498 0 0.17845774482872559 0.43087117257049429 0 0.14869578771858949 0.40481452396082068 0 0.1444847662218138 0.45353891581271188 0 0.16001314202358469 0.49771727055909287 0 0.22001518176882229 0.28602682846307981 0 0.19152147653881049 0.32791879770215432 0 0.2360419540479583 0.32191828326940741 0 0.22269553095687891 0.35837423432538801 0 0.15401470087117619 0.36030748482174652 0 0.14392209494791439 0.30620070203545702 0 0.1685376717739448 0.27232483159280108 0 0.1104775404132264 0.2631175359816938 0 0.099492119481027347 0.30746398533281638 0 0.073296788161418117 0.34226957089850552 0 0.11603400219493119 0.33748134585014028 0 0.033457646040922301 0.36364842331228431 0 0 0.35000000000145642 0 0.032220921767546963 0.32901489214487523 0 0.053730171687646627 0.28825077189828552 0 0 0.30000000000124832 0 0 0.25000000000104028 0 0.064893331803534807 0.48669777060454478 0 0.1091992745981364 0.48758069708049778 0 0.097100979577207341 0.43590673999053198 0 0.10935320311385981 0.37839190921727089 0 0.06053051438015096 0.39514626428972788 0 0 0.40000000000166441 0 0 0.45000000000187229 0 0.043612803661092707 0.44006111182840391 0 0.029444907164209121 0.47500000000196552 0 0 0.50000000000205869 0 0 0.55000000000173355 0 0.051801877645083663 0.55307204985745195 0 0.037321398276215258 0.51507566941747263 0 0.07762682384055844 0.52425337578226128 0 0.1143680615274819 0.53432142347292733 0 0.1219181266603569 0.62483828039315903 0 0.088176999192898689 0.56877264426067353 0 0.081525103161997597 0.6093837135931508 0 0.041139877312483641 0.59314418172763017 0 0 0.60000000000138687 0 0 0.65000000000104008 0 0.032357843506722522 0.67660040198578164 0 0.04421836660747535 0.63753756910470205 0 0 0.7000000000006934 0 0.04863291748797445 0.71789175274016204 0 0.091072812796719582 0.74198804864687795 0 0.099018722548963364 0.70475631558365193 0 0.085418764257258195 0.64417741480586865 0 0.068937933438162791 0.67757268808231053 0 0.1195922550481313 0.66923299355722787 0 0.1540147008710982 0.63969251517836956 0 0.1817911130026923 0.66919832404888702 0 0.13725179499972981 0.74154628962856628 0 0.1564962097012354 0.70085728320703999 0 0.20370391303007401 0.73982803480989479 0 0.2028002000914135 0.69892030930711557 0 0.249609553207091 0.71159714897732929 0 0.22230199397202771 0.66820316019503168 0 0.2047839516296828 0.61896574319320252 0 0.2224870800581388 0.57577541371134155 0 0.2196864111498267 0.50000000000003153 0 0.1989632851005598 0.53769147668950479 0 0.1566648733051971 0.54047998161174216 0 0.12986698634359389 0.58267137064684615 0 0.1656399320949789 0.60271075992809464 0 0.18205680965398621 0.56759263990989739 0 0.10000000000041601 1 0 0.094457855579188163 0.95994154153068711 0 0.050000000000207989 1 0 0 1 0 0.030452409610489669 0.96954759038951022 0 0 0.94999999999979179 0 0.058433525112254137 0.94156647488774581 0 0 0.89999999999958358 0 0.040058458469322648 0.90554214442079806 0 0.097990957645208238 0.90045039720880915 0 0.1229476596857173 0.85174853583809695 0 0.086813039193431391 0.81709574086842884 0 0.087041706119416085 0.85382799508926188 0 0.052469033166843738 0.86696410734366991 0 0 0.84999999999965292 0 0.043889462445437968 0.82675923981951283 0 0 0.79999999999999982 0 0 0.75000000000034661 0 0.052938001421335763 0.77688977118331159 0 0.11231692802445629 0.78020430794084028 0 0.16253691950235041 0.78284912262768558 0 0.24335844191347281 0.78651189793387466 0 0.20359074765364421 0.79422489417871855 0 0.22893929024737289 0.83990878992727813 0 0.17101873536300011 0.82898126463696109 0 0.1322615032692282 0.8130603300143705 0 0.14688274318541941 0.88962265630811932 0 0.1817259028976386 0.91838802593888857 0 0.18958721034944021 0.87660297360394568 0 0.22131139331094829 0.9041449437198319 0 0.23222643817617661 0.94420751116970569 0 0.20000000000083221 1 0 0.18045991219397989 0.960710939969875 0 0.13834721989462789 0.94095916274077984 0 0.15000000000062411 1 0 0.35000000000145642 1 0 0.36363861612613613 0.96654491682121313 0 0.32894624184180998 0.96779701826738929 0 0.30000000000124832 1 0 0.25000000000104028 1 0 0.28790752038294382 0.94635952848702642 0 0.26305414557470391 0.88949062093136155 0 0.30738136326657722 0.90051880305435028 0 0.33748026778199908 0.88396545633134682 0 0.3422695708985129 0.92670321183858773 0 0.36030748482174152 0.84598529912882459 0 0.30619531169472608 0.85607519768342955 0 0.27254997832041528 0.8312019486901443 0 0.28602682846308641 0.77998481823117594 0 0.32191828326940508 0.76395804595204586 0 0.32791879770213411 0.80847852346120164 0 0.35837423432538362 0.77730446904312345 0 0.38703015239361932 0.80283068154761972 0 0.43306783640023289 0.78031198216144404 0 0.46634612187967051 0.76767585524061377 0 0.46593838964869061 0.80781872835503554 0 0.49771727055908782 0.83998685797641781 0 0.45353891581270822 0.85551523377818905 0 0.43087117257049001 0.8215422551712771 0 0.40481452396081791 0.85130421228141606 0 0.37839190921727062 0.89064679688614412 0 0.43590673999053309 0.90289902042279657 0 0.48758069708049379 0.89080072540186539 0 0.48669777060454272 0.93510666819646593 0 0.44006111182840962 0.9563871963389079 0 0.47500000000196563 0.970555092835793 0 0.45000000000187229 1 0 0.39514626428973221 0.93946948561985189 0 0.40000000000166441 1 0 0.33231497408081678 0.60779218732873663 0 0.37104651296145419 0.60545170748311072 0 0.35984320557492089 0.5669
[...]
<CellData Scalars="pressure_p0," Vectors="velocity_p0," Tensors="">
<DataArray type="Float64" Name="pressure_p0" format="ascii">
97.254333579590167 98.921001672271061 95.306537213649193 96.973207313109015 98.664705997323878 98.664708026774022 96.716917028006065 93.447673835405979 91.634354164683629 93.566381217451124 91.912021521080348 87.683264100913703 88.970229232914761 88.518062667640834 91.851391113309489 93.236926317250948 98.118244626595953 94.061046728889124 96.823552996859561 94.113721708141213 98.705321019214068 96.876230658467733 96.83561738931607 92.41874394476028 90.149539925975759 89.642826789294915 88.943337290855425 92.032567115902381 89.718445028940053 87.694327504952952 91.112518046250656 82.030306742431875 87.181052558645789 84.870434038929062 82.20070716124998 86.072068050756727 85.318703060873247 83.109619123339556 78.910272530246118 80.516696584892756 75.113297619736954 76.919831365652087 75.012428907496826 79.95845879899295 77.41014690963074 75.915009721785012 80.782658912241686 83.318803208223926 82.321608442884724 87.239474423047255 84.376348914501349 84.381301927099031 87.169607524089741 82.685869947245124 78.979741249499142 80.39487490896154 76.646076659306715 76.465735461219637 80.20823783239851 79.599116804992434 77.277508905104781 72.226398254377898 74.503904066521073 69.024849367450884 69.772418398648682 67.546017328287434 66.383034464583716 65.463940717122355 62.917924705547406 62.613325101853007 64.608306704284388 63.036637009245055 65.309600959084321 66.366121284022626 68.391434771498893 69.976730249626556 72.152743644492801 74.265688860357102 72.820005635994079 72.583152821747404 68.965844337389015 69.167575890715753 71.420130930325996 73.353417370966113 71.678146347560272 71.320151089638685 69.290660944497262 68.535425695652009 67.877372794797864 65.212228663883437 64.306853815277634 65.937473182456728 67.976290014643098 64.261884029362307 64.458812429892788 60.340680844479365 62.241392338516704 59.64228723625191 62.045627911190564 58.432478504495791 56.358110487897605 59.764731914604141 61.973253660512007 58.744641635222763 57.288144444322313 55.271852407310234 56.035994055536719 51.180751393010048 52.745791884439612 51.244611900312904 55.249074658336035 54.859271758454753 52.5300908571541 50.653963615550509 52.417263880955986 51.538511398254769 56.192170853880242 54.244909813732662 54.869934810370964 50.867563691429922 53.080039900938552 52.169190446270136 53.938260661280779 57.166298264354936 58.104808069861534 56.540543968909034 61.022738042076732 61.335536107018015 60.563115581727565 58.69425503568808 59.043359362013184 58.43626578651164 58.181836202044522 61.958809587482165 59.475674445488146 62.465394447076612 60.179099560185847 59.649221585163581 61.824156969252464 56.832431090954486 55.134804063775135 55.848007643023237 52.739877190321295 50.919837842883048 52.330338552105204 50.888395200248283 52.291894939549529 56.208750021312696 54.807778690375159 55.741452167557092 51.041260993588509 50.466923420179072 52.116350500973482 50.958743134731691 55.461904655277593 53.769414246599254 54.300660845193207 51.78498479704534 54.342772412431977 57.07558331197653 59.199264164167893 59.552451504835219 62.078477717628886 61.620347486034007 58.172679249585244 59.451817648816885 62.284033466047219 68.707873038056192 68.136994304246855 63.530921003390461 65.801117924757051 65.449505827384769 63.186691997567607 68.522654061755588 66.611488777692244 66.216761859119003 71.799082937074161 69.679337223641923 71.921237410787427 73.354349731882309 69.822609089664567 73.96914991142755 74.557941863834543 72.846407566295852 68.796351122507872 71.396367997494451 71.781913922949769 66.371990756506989 66.846019664745882 64.477812982630255 63.497185579497867 64.348572172833329 65.159521950977691 67.73076133517111 71.158932442101644 68.760769931192002 71.377749392660249 68.999390025969944 74.759340833783511 72.507293527312399 76.185650955464084 80.937267138941309 78.526881176183892 80.322380715862693 78.526821756397155 76.183676468923593 75.400280574426915 77.476870393134092 77.577139654690669 80.156095809631083 84.278674054957321 82.522504864497066 83.337273752583343 86.264499786757455 86.990581229894531 86.210074561879281 83.44399469673175 82.829165449972777 79.996397941193976 75.633944345674493 77.253591463160575 76.126593819955502 78.414021818923317 80.664186002230579 78.324630051603719 75.217422721368905 79.620355016120186 81.909742785956993 87.353243963138695 86.200939536132111 83.684680677804991 83.20059931615188 85.902056560830104 85.399541899345508 92.644658690516351 88.203578793934 91.209981086003509 92.449346035960218 88.018345308815725 90.3725339890686 90.043850414129693 91.893962247351226 95.367490607332854 94.423827454970436 98.884749607969809 97.810727333296541 98.925974813280888 94.69173705457186 97.134963255269952 98.208991898327241 96.32724467724762 93.146413671455264 90.960200790791674 91.60935033763019 88.307146383695013 88.161625039587207 91.100466857730709 93.291826984536357 96.528545405399768 96.867055219751109 98.546238187144397 97.564743462754763 95.401627948614149 95.611342373934718 99.018503077187688 97.774455027514364 98.755949730100824 97.029210067880385 94.005278144755309 94.441650016603546 92.746453305434841 90.660912101744032 88.919568017393331 89.9601875287604 88.889630266942035 90.014332575462163 92.971898432355474 94.437185770940317 93.962674564832128 96.901914332515958 98.628654804531863 97.154700285351936 97.447449862273544 98.526043443863983 98.92140297559213 95.149513937587741 98.378905738740883 97.300306745598704 95.002369646747866 96.61431681565881 93.578565797228734 92.042532360141138 92.780342083940369 89.088597455914723 92.961215995569248 93.38080652848258 90.868365464545207 90.415044771511788 90.371232201177463 89.102351159771729 86.815831533616461 84.737394732751824 84.820090651952228 81.980367351856984 83.418365773490081 87.49646508675923 86.907832001185255 81.963829948721994 81.233425279975677 78.129661195928634 77.5097122101255 76.299679511410119 79.704152029313477 79.770307031336358 75.153174659758491 77.202349407741252 76.072714714448836 77.217959026690423 79.689055790088773 75.61502104111905 77.522569772676718 75.500767662632967 77.615925695248649 80.711194560270229 79.88305341951542 82.077119687866542 82.811915077635817 85.631779377999848 87.213977995603244 86.636640121724056 84.380339357603646 86.085806313074954 85.28089735939632 81.583956330131173 82.518711751725718 84.081176352116074 88.518077758488289 93.236959008816768 91.85140853448074 95.370469312207177 98.984920306486785 97.318252665620008 97.037137348881117 96.716939720098964 98.664722255337608 98.664724321178824 93.649410685127108 93.450581931771907 91.637269520731252 88.973509479386763 87.739359669969645 89.734051637242601 88.599335312517042 90.106647533292929 92.741904302617669 92.083324677494033 93.886700141822502 96.788071566459763 96.915766521569964 98.537027273837936 93.878681630093098 96.772436514056352 98.235410382589038 91.455789289169033 91.597786988375049 88.953699243387831 88.645343281838407 83.217030355965051 86.263238438212596 84.472864633028195 86.429584195232451 82.095235312165329 81.005744517723826 78.311698761577787 76.508054622671523 77.470511617678994 78.672173660046013 79.881824632952259 75.171869602793521 80.348596573654476 83.083799362518704 85.792494710074365 85.305113696046163 87.226043073760039 84.434879324399475 82.72689055546445 80.245940424157837 76.223281476394135 76.113692248343199 78.824627279284613 80.18633034382259 79.577168987241677 77.259148816943906 82.318018031097864 84.373122221431174 83.315627329362187 87.239851159889326 65.247191767025456 62.878722783267584 65.504893949490054 63.298227842170192 68.029278513295097 67.368472032058321 69.438245672225889 72.069775880441824 74.328920328070481 71.388658926769168 73.893812781988899 70.779080160203591 68.298199646477798 67.095710950057011 68.748131859388195 62.806462448128499 64.728681414118597 64.12742275138649 64.158205464762929 66.852716046308302 66.533993272109925 74.515345966855676 71.940142982518068 69.777980433539724 68.804650320435314 70.450261372529908 73.268948388394122 72.124196789516091 73.763953600176592 69.983580394738198 65.900260576856354 66.393062262523671 64.222651089000195 61.983938787214214 59.49413551036227 58.301073498206996 57.473482154889687 55.097914186891558 51.430762378449614 51.211459532655098 52.257182476972574 54.488272042425024 55.670778489246885 54.988400203029258 52.760175005497658 52.038762518677203 56.858027266983065 57.025879432995758 59.242854495273818 61.594995028895163 61.882936710675473 59.68521238987185 57.629559149268005 59.362941779913641 54.099136912328539 50.048927638592104 52.993836259127065 54.577829799833793 53.274714386576591 50.774216290710832 52.500001271571293 50.33080871575126 54.497971675919629 56.997970544015679 58.826443478681718 61.373863059024629 66.784810835610728 64.573002763878293 64.559840588909069 62.739112321817778 65.023173978833512 66.920386237086475 66.818471561698843 68.715681333732419 66.81846475027865 71.330146367108455 72.726090408656376 72.888025370329601 71.482499284203584 68.947752308928784 68.945011613700331 73.064268659100037 72.181470614933076 74.911958454902418 69.989714943809915 70.24990548843796 71.463424927347432 73.33811277005637 72.047743729581327 72.682886876740881 68.944617878195359 68.094374272315591 67.943025472924717 62.526542858851712 63.46152796607555 63.714221435721925 65.841733799112262 66.800696709957677 67.124608467014312 60.945655507680982 61.616057222455758 57.45799768098108 59.359191020462582 56.524016229155286 57.754810491165657 59.711445663113167 57.670571806811566 53.175797087267846 53.141714971707586 55.260922172794736 55.400604347438573 50.901926667629411 54.106006388083436 53.699530393860663 51.320059212180347 51.83048548231568 51.373701791546935 52.602006013495355 53.421110330631642 56.266298815763413 57.949371758232587 56.978769118507415 62.147607541291038 62.098997004334578 60.591218164141722 61.064022204220798 61.188254236909501 57.052763986315519 58.661251681607609 57.904672602440527 54.476584465386026 54.38876970879344 52.132540484591367 47.053937483847733 49.534674093240938 44.702744881320015 44.013623758574163 42.524668742700797 41.993512807017289 41.087087231471891 40.37471339314996 38.018865559353138 38.980798541165839 39.805111541576267 41.571899877306151 44.135606498132162 45.295358585522152 48.06045600782204 49.916319342576308 48.69872903755175 49.841532015189046 47.761536774950919 44.107871720315977 46.067463507001598 46.239583742211593 48.325703153646458 45.801945703896926 45.666335510131006 42.887889357311899 40.763752862084786 40.410578043195386 37.921428550433063 38.379538139814926 41.834394702963323 40.440301454279933 37.564045683650264 31.332361927618813 31.865498217734519 36.468986403269149 34.198954541199939 34.550381742028925 36.813198113000738 33.388577433407754 31.477399914756425 33.783101384806656 30.320518466698374 28.200962214014375 28.081243526992761 26.645682818034039 30.179859216582237 26.033336222262495 25.444377022928592 28.735498412868722 28.258323719044487 27.247592509649145 25.211863736419929 27.5447509564308 28.790520518465783 28.787273694026599 31.18855156681434 31.910513762668849 33.066026692912146 35.709853319935945 35.361011206544376 37.132690632902282 36.023220061620584 33.338158827440367 31.707422899029684 32.620795486450689 38.977252354336635 38.664439438591785 42.833664862147202 43.459438845866124 41.89518427143333 46.061726830844961 47.830806331151095 46.919940249926448 49.132426368437287 45.755035329105979 45.130023707027625 48.461457635367836 43.807738198933635 41.305669308374505 40.956599673181636 39.436801712042381 37.758510691249818 39.659216575599316 37.954248493287828 40.357571850758021 41.567384662733886 43.641731022258064 44.750796586013962 49.345993033067003 47.582648874496286 47.469879839392036 45.140659544458728 43.963975881376058 48.819238303512904 48.820454657653897 47.254650915897074 44.728597886623412 42.712231680775673 41.255245403222162 38.026606454230816 40.235159111143716 35.693002599555676 34.7876272213975 32.122459130437996 31.464416100441703 30.70915303445388 26.646374965002746 28.67965354577672 28.321647111177626 31.033994087857955 27.258790618951934 28.427868479551847 30.838330680633312 32.023595434305975 34.06243663965536 35.737998022117274 35.541109709377615 35.39161776574349 37.386602557199858 34.690351181084417 36.963313168511291 33.633811648520989 31.614507612620415 27.056851084037515 27.845381888831909 25.440961892042168 29.992578807817054 30.931140675379531 25.173926787998504 27.736933081285031 30.183582502126825 32.446647729307529 33.609609665669339 34.528715386369655 37.082068970984231 12.583123683175852 15.081612213167201 15.209215907729014 17.441354450425198 22.436998768356155 19.30848212098266 19.87835339874286 20.860289523184981 23.363859900981829 24.541929863515499 19.654595829731448 15.910902367470694 17.269807235206617 16.743882635756336 12.625248869820176 13.132428062545838 14.321552944048038 13.493071597949401 16.873610349243307 20.796117943325907 19.170225489567319 24.525729015905927 23.179887597567578 19.798054808293809 22.769785002031401 22.647694188665643 24.149226497098439 19.311711945948623 12.644739069310074 18.079160642597071 17.896084678952398 15.150178374335367 12.215151380080465 10.028783513386525 7.7753052315898206 8.7385459256945044 1.8597487020026904 5.8897797120064812 3.1693834309644542 5.9980638181432893 3.2776650867795691 1.3096357189781145 3.3033109192112691 8.3676723674173239 8.9655925844704036 10.512866685950106 11.939272438841513 10.901447327404563 6.6013873831209802 8.414701570840327 6.6216307865605906 1.3352820900373716 1.3352818894276388 3.2830662003265454 3.0267791515893503 1.0789951031178782 2.7456619212565498 4.6934460332317061 8.148595310408016 6.7630466975444072 11.481928246588819 15.721340396736647 17.477459527268635 16.662674372286197 13.735472279271146 13.009448556656736 13.790137251799877 16.556114735655978 17.170878532569976 19.677632874404665 21.463362413831216 19.062833421606175 21.463323014673115 23.785559831619235 23.806505326963077 24.599712505279964 19.843873271950926 22.422808088706198 22.523031320832761 24.784877210263097 21.675255684957648 20.379529760482839 22.810689898249272 24.366105048911358 23.873476666046113 19.344415562228068 21.585874938726604 20.076612823269883 16.808095706916813 14.64656885153649 14.107702442233647 18.090174106865771 16.315341623605548 13.799124608255184 12.646752370574728 9.9561582418192174 9.6270866232258392 11.981341315205331 7.5472844208897989 8.1060299450063997 11.79716027537496 8.7876928225824678 7.3314012754677549 3.6477631429204505 2.86145179089461 1.7880166414943388 5.5760887764893141 4.6318342390982643 5.3046801034260778 1.0734340174945349 1.1151717006348103 2.1886048497613273 1.4537680017033785 3.4714572828350514 3.1328610790134817 8.8995151633282639 6.7081724984872757 11.838363334810671 11.693006035460952 6.8536162758052832 8.4020182927864369 9.0399437450068358 4.3890946872558034 4.5984072460608418 2.4352750903415754 2.225962956798524 0.98150684044091774 1.2444564010018249 2.9735564532492922 5.5723464607232911 6.006376753337241 2.8442907516223741 3.1004536371435725 1.3713535587466716 6.1033512289634295 5.5476299186445068 7.077583327634807 10.035394435485372 11.094164277961838 7.3307937602608817 11.145089860360844 9.4147231504507722 10.051918317224224 12.786970252883314 14.369185977774475 17.187296430904002 17.922055847965517 13.364506475732075 15.620083530243701 13.912203205749428 14.716906821844518 18.416161059256503 17.481420461153462 15.91915417352438 20.310638428511105 22.781737850346371 23.92708016545501 24.378860354229548 22.470293045469923 22.377351714107554 24.474521310313165 19.287903033759854 20.115607512121663 21.870488160132382 18.766732141514936 23.700459849616536 22.490437770543426 24.825841045592838 22.797458704698144 20.295996206995383 20.229847415060913 18.019775446427253 13.181980015153503 15.180056464288349 15.262754480385336 13.457955758479176 12.5743290178603 18.036324914008052 16.876787427587193 11.712742155543314 7.3640713456620759 8.5374603993206026 7.0109646872302047 9.6694865948341722 10.952596515514898 9.6557295651611152 9.1889030573194734 6.6753859733572352 7.0807626215261763 4.8640507251354688 1.0931432804696319 2.5660830321475951 1.4729389652944185 3.5396078042283987 5.0859130780204289 2.7879473467729285 1.6948019970868016 1.8448091567212987 3.1511576165660369 5.8715662224153107 1.306351301759697 3.301819778126569 3.272885871873394 5.9932935480108602 9.0129857578099646 8.4276440137715358 10.675852319276652 10.41648325405661 12.108023489130783 8.7975008779818129 8.0465496111875705 4.6934460943199259 1.0789954923364058 2.7456618464766605 3.0267801799922252 3.2830682725671347 1.335283350684177 1.3352842402056671 6.6075689774986976 11.988162840223884 10.924570115489434 12.393099382966511 8.4021285111314441 6.5888187368890172 6.7630458243375209 11.481927203792941 8.1485941068844703 17.649936729934137 15.453497101232752 12.61882096884016 16.414111337648222 15.047965031129198 12.864586778262831 15.519450912163741 17.2012640913455 19.617556882457901 23.723118596078464 23.947424899428121 21.137469706710313 20.4687839351135 19.762733848475598 22.818847526896349 17.412907053287945 16.815551447906326 18.602976472288567 13.496772822552266 14.970144565608322 12.85140555505977 13.555515052363907 14.282483678765246 16.840719116940953 19.85212431186806 19.493554152429837 21.251487430271478 24.730160272921587 22.310190441356507 21.505785290386491 23.438276569786687 27.877332033321878 26.182348888175973 30.017926544495353 29.542286255903086 31.195402978008616 26.669825103897587 28.054705712008477 25.442586468836318 30.214743040663659 33.147498722149273 33.466257064776926 35.872641192198408 35.841813879537291 35.777368470349138 34.116563655329735 33.606973018140771 30.57550729935376 27.941682333010963 25.760530562036003 28.627695970813356 26.197765442206787 29.226013788813205 31.704809360667976 32.907119099390165 35.271387585212096 37.193563580033 31.266106521133395 31.984482693031911 34.497747732536006 36.702127752343259 37.121610844524241 34.755436097725074 32.633824856535497 43.002034108553566 38.626483260007348 41.173570901888873 42.370452898617934 40.314800607856512 40.637068149027712 45.900862944946333 47.006166883664946 49.951062266600495 45.422176280780576 46.725288755505666 49.225781521667045 49.669191709891564 47.499999758593994 45.502032873404524 41.702218536608186 42.549614772141716 40.509168056779174 38.016077563585739 38.405013611160804 38.117081343345852 43.141977158674457 40.757142322260712 42.974115531684845 45.011969248853198 47.961213004357738 47.240179825093705 48.788865838707061 47.776504105102767 45.548735321951021 44.332889001574813 44.95851133902373 48.667212778595264 46.941998382084769 47.053964173647493 49.066667989480436 49.319551783018824 44.902140733127546 44.670741007097227 42.381278327267708 37.541268423711479 40.371616588819442 38.677179786086064 38.316408407925287 42.448512713236184 40.670251760872702 43.272753981811647 41.855264690266687 45.974290319330372 46.569679570476055 47.97945972681616 48.317132109459067 47.955350474977323 46.634729682219216 48.042793726494793 46.520240057372312 46.488404873534101 43.606058885539262 43.667049246008872 42.307245005518169 39.695529468162427 38.017336251761463 37.981619040779748 43.420123662115358 41.88755890107759 38.849549557871271 36.426945148528787 36.505039336231526 33.347258968356577 35.53199322283259 35.678489260252576 31.353113485155994 33.352920515482069 33.066647440407209 28.553043956895955 27.146591324831768 31.185124620125261 31.187059936885017 28.50906481776429 27.097769475390216 26.935499688013117 27.789457131958429 28.528617377364959 29.941221983973129 29.688765940216271 25.066717934460964 27.953814480790989 27.296123114889149 26.663440384850215 31.073683989479562 32.033527784042924 31.923903365565117 36.555282700749913 36.288662397776051 3