<?xml version="1.0"?>
<VTKFile type="UnstructuredGrid" version="0.1" byte_order="LittleEndian">
<UnstructuredGrid>
<Piece NumberOfPoints="669" NumberOfCells="1271">
<Points>
<DataArray type="Float64" NumberOfComponents="3" format="ascii">
0.000000000000000e+00 0.000000000000000e+00 0.000000000000000e+00 1.000000000000000e-01 0.000000000000000e+00 0.000000000000000e+00 1.000000000000000e-01 1.000000000000000e+00 0.000000000000000e+00 0.000000000000000e+00 1.000000000000000e+00 0.000000000000000e+00 2.000000000000000e-01 0.000000000000000e+00 0.000000000000000e+00 2.000000000000000e-01 1.000000000000000e+00 0.000000000000000e+00 2.499999999994164e-02 0.000000000000000e+00 0.000000000000000e+00 4.999999999986850e-02 0.000000000000000e+00 0.000000000000000e+00 7.499999999993355e-02 0.000000000000000e+00 0.000000000000000e+00 1.000000000000000e-01 2.040816326526773e-02 0.000000000000000e+00 1.000000000000000e-01 4.081632653053230e-02 0.000000000000000e+00 1.000000000000000e-01 6.122448979579424e-02 0.000000000000000e+00 1.000000000000000e-01 8.163265306106718e-02 0.000000000000000e+00 1.000000000000000e-01 1.020408163263421e-01 0.000000000000000e+00 1.000000000000000e-01 1.224489795916153e-01 0.000000000000000e+00 1.000000000000000e-01 1.428571428568673e-01 0.000000000000000e+00 1.000000000000000e-01 1.632653061221139e-01 0.000000000000000e+00 1.000000000000000e-01 1.836734693873606e-01 0.000000000000000e+00 1.000000000000000e-01 2.040816326526072e-01 0.000000000000000e+00 1.000000000000000e-01 2.244897959178539e-01 0.000000000000000e+00 1.000000000000000e-01 2.448979591831005e-01 0.000000000000000e+00 1.000000000000000e-01 2.653061224483471e-01 0.000000000000000e+00 1.000000000000000e-01 2.857142857135938e-01 0.000000000000000e+00 1.000000000000000e-01 3.061224489788404e-01 0.000000000000000e+00 1.000000000000000e-01 3.265306122440871e-01 0.000000000000000e+00 1.000000000000000e-01 3.469387755093337e-01 0.000000000000000e+00 1.000000000000000e-01 3.673469387745804e-01 0.000000000000000e+00 1.000000000000000e-01 3.877551020398269e-01 0.000000000000000e+00 1.000000000000000e-01 4.081632653050736e-01 0.000000000000000e+00 1.000000000000000e-01 4.285714285703202e-01 0.000000000000000e+00 1.000000000000000e-01 4.489795918355669e-01 0.000000000000000e+00 1.000000000000000e-01 4.693877551008135e-01 0.000000000000000e+00 1.000000000000000e-01 4.897959183660601e-01 0.000000000000000e+00 1.000000000000000e-01 5.102040816313634e-01 0.000000000000000e+00 1.000000000000000e-01 5.306122448967233e-01 0.000000000000000e+00 1.000000000000000e-01 5.510204081620832e-01 0.000000000000000e+00 1.000000000000000e-01 5.714285714274430e-01 0.000000000000000e+00 1.000000000000000e-01 5.918367346928030e-01 0.000000000000000e+00 1.000000000000000e-01 6.122448979581627e-01 0.000000000000000e+00 1.000000000000000e-01 6.326530612235226e-01 0.000000000000000e+00 1.000000000000000e-01 6.530612244888825e-01 0.000000000000000e+00 1.000000000000000e-01 6.734693877542424e-01 0.000000000000000e+00 1.000000000000000e-01 6.938775510196021e-01 0.000000000000000e+00 1.000000000000000e-01 7.142857142849620e-01 0.000000000000000e+00 1.000000000000000e-01 7.346938775503219e-01 0.000000000000000e+00 1.000000000000000e-01 7.551020408156818e-01 0.000000000000000e+00 1.000000000000000e-01 7.755102040810415e-01 0.000000000000000e+00 1.000000000000000e-01 7.959183673464014e-01 0.000000000000000e+00 1.000000000000000e-01 8.163265306117613e-01 0.000000000000000e+00 1.000000000000000e-01 8.367346938771211e-01 0.000000000000000e+00 1.000000000000000e-01 8.571428571424810e-01 0.000000000000000e+00 1.000000000000000e-01 8.775510204078409e-01 0.000000000000000e+00 1.000000000000000e-01 8.979591836732008e-01 0.000000000000000e+00 1.000000000000000e-01 9.183673469385606e-01 0.000000000000000e+00 1.000000000000000e-01 9.387755102039205e-01 0.000000000000000e+00 1.000000000000000e-01 9.591836734692804e-01 0.000000000000000e+00 1.000000000000000e-01 9.795918367346401e-01 0.000000000000000e+00 7.500000000006912e-02 1.000000000000000e+00 0.000000000000000e+00 5.000000000013687e-02 1.000000000000000e+00 0.000000000000000e+00 2.500000000006912e-02 1.000000000000000e+00 0.000000000000000e+00 0.000000000000000e+00 9.795918367346089e-01 0.000000000000000e+00 0.000000000000000e+00 9.591836734692177e-01 0.000000000000000e+00 0.000000000000000e+00 9.387755102038267e-01 0.000000000000000e+00 0.000000000000000e+00 9.183673469384355e-01 0.000000000000000e+00 0.000000000000000e+00 8.979591836730444e-01 0.000000000000000e+00 0.000000000000000e+00 8.775510204076679e-01 0.000000000000000e+00 0.000000000000000e+00 8.571428571424604e-01 0.000000000000000e+00 0.000000000000000e+00 8.367346938772958e-01 0.000000000000000e+00 0.000000000000000e+00 8.163265306121313e-01 0.000000000000000e+00 0.000000000000000e+00 7.959183673469667e-01 0.000000000000000e+00 0.000000000000000e+00 7.755102040818023e-01 0.000000000000000e+00 0.000000000000000e+00 7.551020408166378e-01 0.000000000000000e+00 0.000000000000000e+00 7.346938775514733e-01 0.000000000000000e+00 0.000000000000000e+00 7.142857142863088e-01 0.000000000000000e+00 0.000000000000000e+00 6.938775510211443e-01 0.000000000000000e+00 0.000000000000000e+00 6.734693877559796e-01 0.000000000000000e+00 0.000000000000000e+00 6.530612244908152e-01 0.000000000000000e+00 0.000000000000000e+00 6.326530612256505e-01 0.000000000000000e+00 0.000000000000000e+00 6.122448979604860e-01 0.000000000000000e+00 0.000000000000000e+00 5.918367346953213e-01 0.000000000000000e+00 0.000000000000000e+00 5.714285714301567e-01 0.000000000000000e+00 0.000000000000000e+00 5.510204081649921e-01 0.000000000000000e+00 0.000000000000000e+00 5.306122448998274e-01 0.000000000000000e+00 0.000000000000000e+00 5.102040816346629e-01 0.000000000000000e+00 0.000000000000000e+00 4.897959183693851e-01 0.000000000000000e+00 0.000000000000000e+00 4.693877551039940e-01 0.000000000000000e+00 0.000000000000000e+00 4.489795918386030e-01 0.000000000000000e+00 0.000000000000000e+00 4.285714285732120e-01 0.000000000000000e+00 0.000000000000000e+00 4.081632653078209e-01 0.000000000000000e+00 0.000000000000000e+00 3.877551020424299e-01 0.000000000000000e+00 0.000000000000000e+00 3.673469387770387e-01 0.000000000000000e+00 0.000000000000000e+00 3.469387755116478e-01 0.000000000000000e+00 0.000000000000000e+00 3.265306122462567e-01 0.000000000000000e+00 0.000000000000000e+00 3.061224489808657e-01 0.000000000000000e+00 0.000000000000000e+00 2.857142857154745e-01 0.000000000000000e+00 0.000000000000000e+00 2.653061224500836e-01 0.000000000000000e+00 0.000000000000000e+00 2.448979591846925e-01 0.000000000000000e+00 0.000000000000000e+00 2.244897959193015e-01 0.000000000000000e+00 0.000000000000000e+00 2.040816326539104e-01 0.000000000000000e+00 0.000000000000000e+00 1.836734693885194e-01 0.000000000000000e+00 0.000000000000000e+00 1.632653061231283e-01 0.000000000000000e+00 0.000000000000000e+00 1.428571428577373e-01 0.000000000000000e+00 0.000000000000000e+00 1.224489795923462e-01 0.000000000000000e+00 0.000000000000000e+00 1.020408163269553e-01 0.000000000000000e+00 0.000000000000000e+00 8.163265306156420e-02 0.000000000000000e+00 0.000000000000000e+00 6.122448979617301e-02 0.000000000000000e+00 0.000000000000000e+00 4.081632653078204e-02 0.000000000000000e+00 0.000000000000000e+00 2.040816326539097e-02 0.000000000000000e+00 1.249999999999323e-01 0.000000000000000e+00 0.000000000000000e+00 1.499999999998645e-01 0.000000000000000e+00 0.000000000000000e+00 1.749999999999269e-01 0.000000000000000e+00 0.000000000000000e+00 2.000000000000000e-01 2.040816326526773e-02 0.000000000000000e+00 2.000000000000000e-01 4.081632653053230e-02 0.000000000000000e+00 2.000000000000000e-01 6.122448979579424e-02 0.000000000000000e+00 2.000000000000000e-01 8.163265306106718e-02 0.000000000000000e+00 2.000000000000000e-01 1.020408163263421e-01 0.000000000000000e+00 2.000000000000000e-01 1.224489795916153e-01 0.000000000000000e+00 2.000000000000000e-01 1.428571428568673e-01 0.000000000000000e+00 2.000000000000000e-01 1.632653061221139e-01 0.000000000000000e+00 2.000000000000000e-01 1.836734693873606e-01 0.000000000000000e+00 2.000000000000000e-01 2.040816326526072e-01 0.000000000000000e+00 2.000000000000000e-01 2.244897959178539e-01 0.000000000000000e+00 2.000000000000000e-01 2.448979591831005e-01 0.000000000000000e+00 2.000000000000000e-01 2.653061224483471e-01 0.000000000000000e+00 2.000000000000000e-01 2.857142857135938e-01 0.000000000000000e+00 2.000000000000000e-01 3.061224489788404e-01 0.000000000000000e+00 2.000000000000000e-01 3.265306122440871e-01 0.000000000000000e+00 2.000000000000000e-01 3.469387755093337e-01 0.000000000000000e+00 2.000000000000000e-01 3.673469387745804e-01 0.000000000000000e+00 2.000000000000000e-01 3.877551020398269e-01 0.000000000000000e+00 2.000000000000000e-01 4.081632653050736e-01 0.000000000000000e+00 2.000000000000000e-01 4.285714285703202e-01 0.000000000000000e+00 2.000000000000000e-01 4.489795918355669e-01 0.000000000000000e+00 2.000000000000000e-01 4.693877551008135e-01 0.000000000000000e+00 2.000000000000000e-01 4.897959183660601e-01 0.000000000000000e+00 2.000000000000000e-01 5.102040816313634e-01 0.000000000000000e+00 2.000000000000000e-01 5.306122448967233e-01 0.000000000000000e+00 2.000000000000000e-01 5.510204081620832e-01 0.000000000000000e+00 2.000000000000000e-01 5.714285714274430e-01 0.000000000000000e+00 2.000000000000000e-01 5.918367346928030e-01 0.000000000000000e+00 2.000000000000000e-01 6.122448979581627e-01 0.000000000000000e+00 2.000000000000000e-01 6.326530612235226e-01 0.000000000000000e+00 2.000000000000000e-01 6.530612244888825e-01 0.000000000000000e+00 2.000000000000000e-01 6.734693877542424e-01 0.000000000000000e+00 2.000000000000000e-01 6.938775510196021e-01 0.000000000000000e+00 2.000000000000000e-01 7.142857142849620e-01 0.000000000000000e+00 2.000000000000000e-01 7.346938775503219e-01 0.000000000000000e+00 2.000000000000000e-01 7.551020408156818e-01 0.0000000000000
[...]
<PointData Scalars="pressure_p1," Vectors="" Tensors="">
<DataArray type="Float64" Name="pressure_p1" format="ascii">
9.942958545644673e-01 9.929932328198874e-01 6.451316477364410e-03 6.014622183239528e-03 9.912302428761379e-01 7.341106608799547e-03 9.934793564770967e-01 9.924751630549743e-01 9.913680759502014e-01 9.797314741164247e-01 9.606052642242604e-01 9.388853831325805e-01 9.179512081071879e-01 8.978712841387102e-01 8.774909861058686e-01 8.570228709081055e-01 8.366481295010962e-01 8.163265034935784e-01 7.960015241337792e-01 7.756370352105735e-01 7.552477922697287e-01 7.348856025915966e-01 7.144192690333896e-01 6.939477989203278e-01 6.738676128111917e-01 6.531125490918207e-01 6.322152614151361e-01 6.122282220715207e-01 5.920203253648899e-01 5.719368425907898e-01 5.510952498067373e-01 5.306500036406838e-01 5.101111620493229e-01 4.892551790179397e-01 4.691303699227180e-01 4.488435767139492e-01 4.285661764158619e-01 4.084080753052293e-01 3.883229013440385e-01 3.674032269377047e-01 3.466947100465578e-01 3.267851737971177e-01 3.062173974710449e-01 2.856004427724408e-01 2.653488877447073e-01 2.453080712166926e-01 2.246289512632855e-01 2.038407059582090e-01 1.839195674913842e-01 1.631099176720328e-01 1.423688303595345e-01 1.223594367776007e-01 1.022683722633344e-01 8.217861436903359e-02 6.134399759704713e-02 4.082434849190272e-02 2.103964684823849e-02 5.699641314767368e-03 7.627640650206176e-03 8.632689061721035e-03 1.989795424169940e-02 4.016378944538982e-02 6.113543241503061e-02 8.149427447263675e-02 1.018626219825195e-01 1.225027624685979e-01 1.429602239629564e-01 1.633168899934104e-01 1.836583278866711e-01 2.040478624160492e-01 2.245215008408351e-01 2.448814394798593e-01 2.652723426632693e-01 2.857459395137371e-01 3.061050154437407e-01 3.264880886050063e-01 3.467674051053875e-01 3.671346045767455e-01 3.876236925442263e-01 4.079276073566247e-01 4.282825191793989e-01 4.487029941594207e-01 4.687433843732118e-01 4.883929453291539e-01 5.100569511463247e-01 5.312673076095072e-01 5.504675918451180e-01 5.710314788884026e-01 5.918050975427130e-01 6.122082917034121e-01 6.326558673530263e-01 6.530205035690604e-01 6.733884782987026e-01 6.938854054437945e-01 7.142992743443758e-01 7.346618067463103e-01 7.551357396854687e-01 7.755273447213685e-01 7.958935389933958e-01 8.164472110516222e-01 8.370011289708748e-01 8.573759648110278e-01 8.777254605668677e-01 8.982355222948852e-01 9.186420553416813e-01 9.390442838664471e-01 9.587318849670918e-01 9.791593659029921e-01 9.924561157287681e-01 9.945385821779967e-01 9.924561156784454e-01 9.793077948916162e-01 9.619354925012550e-01 9.390087543714594e-01 9.174081499014403e-01 8.977653884758866e-01 8.775035189035586e-01 8.571703499620390e-01 8.367848663075576e-01 8.161810498974034e-01 7.956192298309293e-01 7.752684490251696e-01 7.549960388182489e-01 7.346517275261650e-01 7.142887471307122e-01 6.937762886077716e-01 6.734262144209920e-01 6.531714325466307e-01 6.328337337456927e-01 6.124486750247118e-01 5.918126655386426e-01 5.714027892674201e-01 5.512847687627755e-01 5.317109648572532e-01 5.104350773068319e-01 4.887502147948256e-01 4.691915618156450e-01 4.490128425524698e-01 4.281653718655499e-01 4.076053037210607e-01 3.885707124155690e-01 3.669200679642834e-01 3.459732505501391e-01 3.264922602592888e-01 3.062686486741832e-01 2.858790007781549e-01 2.652236491846341e-01 2.447794182174472e-01 2.244781359907322e-01 2.047951324046681e-01 1.834976741375584e-01 1.621063836029144e-01 1.426282174400205e-01 1.224770164896958e-01 1.016345123727054e-01 8.092375888409029e-02 6.101219418462430e-02 4.082936378806753e-02 2.164577527591938e-02 5.731521488161462e-03 7.676230555932185e-03 5.486376342491911e-03 1.544533371765133e-01 2.139852192680700e-01 2.752351740059456e-01 3.364909748433327e-01 9.286025593373557e-01 8.676280760965368e-01 3.976807090490678e-01 8.063689661458697e-01 4.546195239320082e-01 7.451633742802520e-01 7.204442487731262e-02 6.839206062432416e-01 6.227114760743669e-01 5.641399894503724e-01 5.090978013029589e-01 1.121436511820297e-01 3.788366109308438e-02 9.636658487341256e-01 1.833123313413743e-01 4.286202450296329e-01 2.447890629120024e-01 5.919409559278277e-01 6.530577864907433e-01 3.672367109259077e-01 3.062609476244056e-01 8.982996598808962e-01 7.143913048310369e-01 8.366008997986558e-01 7.756201245416044e-01 3.049121213834319e-01 2.440625170239634e-01 3.665347548152638e-01 4.274901844635130e-01 1.807161070373909e-01 8.379444363016130e-01 7.763246228512063e-01 7.151159936718187e-01 6.538879146030973e-01 8.989291340799842e-01 5.927290969558109e-01 5.359172733522614e-01 5.349544053828327e-01 1.265440248824792e-01 4.855655417394938e-01 4.855628523386812e-01 9.742492282630771e-02 9.569142763204719e-01 4.336493035647975e-02 1.366789019293734e-01 8.744685061338749e-02 1.533972321506192e-01 2.142791758382614e-01 3.979660624058646e-01 5.584446982450241e-01 2.755053892167094e-01 3.366432893474217e-01 6.224345277722454e-01 3.365320926906519e-01 2.750791949211211e-01 6.835988040287332e-01 3.975259338889313e-01 7.449020972266691e-01 2.139658158725673e-01 8.673521611194045e-01 9.283391550563059e-01 8.062050806356409e-01 8.064344086459982e-01 8.678035108461245e-01 7.452129827122939e-01 9.291742190332742e-01 6.839878077201417e-01 6.227636370344630e-01 5.617548407196379e-01 4.582333860365650e-01 4.583524216438132e-01 7.120867612172176e-02 5.848066412544537e-02 5.098892027385529e-01 5.098775609019053e-01 1.631128080105747e-01 1.122312228576479e-01 2.487518297291624e-02 9.754659669563185e-01 9.496733651326291e-01 9.226119643203221e-02 1.320654942891022e-01 1.120286919617647e-01 9.728447110215147e-01 2.715243406450597e-02 8.887919161537642e-01 8.275562257998796e-01 3.153030083151154e-01 2.540993550719743e-01 1.925765591012972e-01 7.663062942155384e-01 7.050793818523572e-01 6.438288735107172e-01 5.829551674404642e-01 3.765482482713603e-01 4.373945412215823e-01 3.155128713928454e-01 8.273417909493906e-01 2.546299113598142e-01 8.883709095671254e-01 1.936687959046951e-01 7.657510861572362e-01 7.045209569365617e-01 3.770787918365304e-01 6.432963351479780e-01 5.821207602873434e-01 4.380290925594733e-01 5.816936601590729e-01 6.431218509026507e-01 3.771757430560587e-01 7.044360955211157e-01 7.656811482957152e-01 1.935022304320460e-01 1.735893869266595e-01 2.547272887746563e-01 8.881281412602909e-01 2.350199413086382e-01 3.161991596173608e-01 2.962419610756930e-01 8.266903039106471e-01 9.080545687494751e-01 8.466184462169882e-01 7.853937423233078e-01 7.241615977112247e-01 3.574603984484091e-01 6.628253046124969e-01 4.187612692313140e-01 6.016800504587786e-01 4.385570137272845e-01 4.884255907615018e-01 2.950007581606142e-02 5.273061334903364e-01 9.801130256320135e-01 2.960002946098865e-01 2.348154806211012e-01 1.733314136104082e-01 4.183908276215798e-01 3.572875518284047e-01 8.468568099721830e-01 6.631136291364942e-01 7.243680923125773e-01 7.855726786722043e-01 6.019510494706467e-01 9.082665459886267e-01 9.502793050237787e-01 5.288605779013971e-02 4.176727891296004e-01 3.565949633744878e-01 6.026176338135141e-01 6.638410497677305e-01 7.250657390852150e-01 7.862983124788312e-01 2.341157707462254e-01 9.088676041811580e-01 8.476130827927552e-01 2.952437119563217e-01 1.119506642270113e-01 5.421556166406365e-01 5.402667393775603e-01 4.952249845790049e-01 4.952256469645596e-01 9.490588771457613e-01 5.088005088042564e-02 1.333015264876325e-01 1.766458725950974e-01 5.755008349329720e-01 6.367020087210016e-01 3.836482504374803e-01 6.979595394293285e-01 7.592088615773078e-01 8.816618527561648e-01 8.168917817718225e-01 3.260021938055811e-01 2.611992846446051e-01 1.999385861224160e-01 4.476369124315051e-01 4.772914413802361e-01 4.773027285693399e-01 9.098114030384231e-02 9.837266711597993e-01 2.896685187411812e-01 2.284490798470820e-01 1.640300034388416e-01 8.531890098968622e-01 9.177693799998853e-01 7.919681582241198e-01 7.307342360934642e-01 3.508867970121301e-01 6.694336068967326e-01 4.121322246993436e-01 6.082851094699642e-01 5.454310638692842e-01 4.601093163905657e-02 1.725903794625606e-02 7.590551404347516e-02 5.530473986995429e-01 1.437994288061475e-01 5.243477751718936e-01 5.243376384110160e-01 4.076952259509295e-01 3.467277079874949e-01 6.126264533314562e-01 6.738447689843509e-01 7.350720802345840e-01 7.961697683267052e-01 9.188041581582977e-01 2.240926643872783e-01 8.576041501728850e-01 2.852574785582214e-01 5.008446478548173e-01 5.008556383032182e-01 3.220683645835503e-01 2.643875233211756e-01 8.207843461851463e-01 2.029340837798513e-01 3.868352948146634e-01 8.785364051408345e-01 5.728580754411220e-01 6.335273233782502e-01 6.947535656157040e-01 7.559794749258706e-01 4.472985767877911e-01 4.686427929270464e-01 4.686812779628621e-01 9.383603474555171e-01 8.087362725085034e-02 9.401602692088996e-01 6.171395130967409e-02 9.333697812654113e-02 1.309683469452861e-01 1.351271999880739e-02 5.179885512596699e-01 5.181450832804364e-01 1.497058209830110e-01 7.337643800434167e-02 1.477110226097150e-01 9.883987050484710e-01 1.160136321138427e-02 1.641754732054521e-01 9.661642994091177e-01 1.030146786473436e-01 1.214123474933285e-01 9.898052117495739e-01 5.619587874290870e-01 6.422319017128806e-01 7.652977274676750e-01 8.262036047416600e-01 7.040753585592540e-01 8.832500446740459e-01 4.994345800567799e-01 4.180548701053319e-01 3.170617150279164e-01 1.750958161181997e-01 9.142709476084533e-02 2.332614581005124e-01 9.384498962082085e-01 3.690746733260592e-01 4.648131912280055e-02 6.021795180569314e-01 4.590358416889484e-01 1.324962841082834e-01 2.756107656641068e-01 7.350148101823617e-01 6.732158981950062e-01 7.957886419226871e-01 8.572429046696807e-01 5.301683934907871e-01 2.021085211994315e-01 6.721787710634207e-01 7.945381781094741e-01 7.358788534803287e-01 8.561380149859789e-01 5.320123856614004e-01 2.071307906955513e-01 3.389929506829137e-01 3.447300592649301e-01 5.877950791932531e-01 4.734288739021212e-01 1.469327664584634e-01 2.611320839125821e-01 9.647218882896681e-01 9.647218880832128e-01 9.148042501072402e-01 9.148092071700373e-01 3.924754244686104e-01 3.949585661359461e-01 6.169393204887392e-01 4.443497611706754e-01 2.903186194475074e-01 1.143360746485802e-01 6.834894157373515e-02 7.169609804920567e-02 3.108092093371088e-02 4.838566782951570e-01 6.266286602348295e-01 5.775142668018336e-01 4.333281503046593e-01 1.068090676284210e-01 2.510665828327985e-01 3.014233812297455e-01 1.571205599979764e-01 5.613307357826279e-01 7.657115757701768e-01 7.649396945727411e-01 8.264313495198918e-01 7.042155202984884e-01 8.262076738590701e-01 7.039960781810654e-01 5.001808882764819e-01 1.739369178334817e-01 2.343495779517424e-01 8.872603490060261e-01 8.873807836567694e-01 6.432466283123334e-01 3.165462967246622e-01 4.187781098456899e-01 3.346063915490055e-02 5.124910391980860e-01 3.672866729985722e-01 3.642488276687841e-01 9.389207295879958e-01 9.389208230263815e-01 1.841330039709965e-01 5.492449376047577e-01 6.546487117007970e-01 9.285650633738711e-02 2.246749912917112e-01 3.186751574529913e-01 4.162143746954175e-01 8.961550639555735e-02 6.020541270712380e-01 4.590704361390501e-01 2.756250107730739e-01 1.325234151353797e-01 6.220522847474274e-01 4.392438787258138e-01 1.124566291124232e-01 2.954310036104540e-01 4.789091409318013e-01 5.823439167778490e-01 1.524757922755893e-01 2.556523562602973e-01 5.514068397956074e-02 6.023207374523415e-01 4.589149740664449e-01 1.322446178479626e-01 2.756771094294174e-01 2.639909511497007e-02 6.920853101523408e-02 5.039090720962053e-02 7.257430016412406e-01 6.821166865462547e-01 8.049900428441302e-01 8.661584818861793e-01 5.181786494227447e-01 1.948533855111975e-01 6.830416720831707e-01 7.253086495938281e-01 8.052060397517317e-01 1.941128915752517e-01 8.666859013145967e-01 8.473313227204641e-01 6.839011125257487e-01 7.447017147927074e-01 7.247690870175578e-01 8.059600542469297e-01 7.858146168521927e-01 5.198882323680468e-01 2.144353233527681e-01 8.672122370243859e-01 9.173107683330828e-01 4.008755452727857e-01 3.372683109010154e-01 7.450219294021275e-01 6.600327057120505e-01 7.855210138294741e-01 8.470225077014949e-01 5.435956411113031e-01 2.141841468101852e-01 7.849946994111717e-01 7.455689924057080e-01 8.462847236999372e-01 5.420427634729542e-01 6.632276464676156e-01 6.023828118105158e-01 4.588590005138542e-01 2.757522429605587e-01 1.319745916837224e-01 9.578555111880210e-01 9.550610766245086e-01 9.550610760996120e-01 9.806764898346627e-01 5.252977309295671e-01 1.976850746064656e-01 5.366206704755145e-01 6.673572136339738e-01 3.358203315268877e-01 3.822610624672448e-01 3.818854288642256e-01 5.810696475260867e-01 4.801932724653298e-01 2.543921930485482e-01 1.537330438223189e-01 2.111390565448732e-01 9.777706650145872e-01 9.777706647685606e-01 7.183372835186701e-01 6.898652687274045e-01 8.157228982215612e-01 5.102966233500790e-01 8.763576569282313e-01 4.869736898450155e-02 9.069140133292543e-01 9.069271965653584e-01 3.373636896019900e-01 1.128745711954886e-01 2.967839252237158e-01 4.379942861116498e-01 6.233773913946167e-01 4.002342030815162e-01 7.030251534029799e-02 8.406800423852520e-01 7.546023977197199e-01 7.759925430797675e-01 2.234954100294329e-01 3.540129129500061e-01 3.977068300575206e-01 4.953228407028556e-01 5.708836481192661e-01 4.904133930403553e-01 1.643794769824466e-01 2.438965230857786e-01 3.520673683684429e-01 7.751680374624620e-01 7.554043498993154e-01 8.364189685988501e-01 5.515208520218294e-01 3.758823824466368e-01 3.787644630667742e-01 8.117517832453091e-01 6.894517660186429e-01 7.187276334787607e-01 1.851186778791653e-01 8.760179240276136e-01 1.621118610094248e-02 8.976740386308960e-01 8.976287151808046e-01 4.095065915971566e-01 4.099597948717081e-01 4.279039165144025e-01 6.336291633411925e-01 3.070713211661624e-01 3.528598493337419e-01 6.529154775656253e-01 3.566937795189591e-01 9.984965946470264e-02 5.661561369982953e-01 6.378961396559881e-01 1.683298976317851e-01 9.243361048368400e-01 9.243350581179076e-01 3.264185446873429e-01 8.287982349106345e-02 3.251364714883703e-01 9.479203896091518e-01 9.479203974653799e-01 7.225102632847774e-02 1.391809430307496e-02 4.780351289763770e-01 4.391327516558074e-01 2.956010024524185e-01 2.567865569215202e-01 1.126089094763292e-01 9.298515443024790e-01 9.298514302261133e-01 8.534434143671640e-02 5.833025397877767e-01 6.207949355476207e-01 1.513785689087861e-01 1.477501841803037e-02 1.456577498264114e-02 4.978536562449535e-01 2.380442635163435e-01 6.404414222469387e-01 5.635949688525462e-01 1.702964559756635e-01 1.851235612272656e-01 2.400454573576028e-01 5.528893706577009e-02 3.158194229223382e-02 2.235891408129269e-01 5.929329375859204e-01 6.112757303624000e-01 4.683120115555706e-01 4.496505878439514e-01 1.231594025909091e-01 2.849999420096481e-01 1.417818038046263e-01 2.663616191969646e-01 4.231084600093478e-01 3.117351353843049e-01 3.849868013550917e-01 9.654450641182105e-02 
</DataArray>
</PointData>
<CellData Scalars="pressure_p0," Vectors="velocity_p0," Tensors="">
<DataArray type="Float64" Name="pressure_p0" format="ascii">