<?xml version="1.0"?>
<VTKFile type="UnstructuredGrid" version="0.1" byte_order="LittleEndian">
<UnstructuredGrid>
<Piece NumberOfPoints="54" NumberOfCells="131">
<Points>
<DataArray type="Float64" NumberOfComponents="3" format="ascii">
0 0 -1 0 0.1419064153440632 -0.85809358465605046 0.14138946044788619 0.141933462342688 -1 0.17663550269374309 0.2000173280584561 -0.80767327345777706 0.14192670059260701 0 -0.85802340138044431 0.24999999999941211 0 -1 0.49924645474497431 0.19077333889470441 -1 0.49999999999869432 0 -1 0.27864353689002019 0 -0.72105707495041649 0 0 -0.74999999999934164 0 0.27852182539691489 -0.72147817460311425 0.36400213509809493 0.30340182266465199 -0.71803582340462213 0.27542009602191558 0.2786841073879448 -1 0.50013523499221102 0 -0.80867011855167226 0.16779372096061709 0.25035625696182251 -0.15569373965263369 0 0.27852182539690867 -0.27852182539678699 0.19099722793781729 0 -0.49920550623183851 0 0 -0.49999999999869432 0 0.190861992945314 -0.49999999999972489 0.27852182539674158 0 -0.27558237801288138 0.14190641534384699 0 -0.14141650744653689 0.14146834752682999 0.14136466736642039 0 0 0.14190641534418191 -0.14190641534369811 0 0 -0.24999999999941211 0 0 0 0.49631982208178133 0.49903983155338327 -1 0 0.25000000000104028 -1 0.19232253086422449 0.50146053791918455 -1 0 0.50023418051147772 -0.80910018661861283 0.42348748445510859 0.67651247978210449 -0.75231254100799561 1 0.72147817460311847 -0.72147817460311847 0.764412522315979 0.67651247978210449 -0.75231254100799561 1 0.49999999999972489 -0.80913800705468164 0.764412522315979 0.33558750152587891 -0.75231254100799561 0.74999999999934164 0 -1 0.72147817460313113 0.27852182539678161 -1 0.72147817460311847 0 -0.72147817460311858 1 0 -0.74999999999934164 1 0.19232253086420811 -0.50146053791859801 1 0.27852182539678272 -0.72147817460312469 1 0.49738970948455541 -0.4998377180089762 0.80925971854791523 0 -0.49925229508213942 0.50109540343913672 0 -0.49621010312562502 0.72305346565390649 0.3029574597295554 -0.36031078036159248 0.764412522315979 0.67651247978210449 -0.41138750314712519 0.42348748445510859 0.67651247978210449 -0.41138750314712519 0 0.50017861225427096 -0.49773060372977418 0 0.50000000000037348 -0.1908619929453429 0 0.25000000000104028 0 0.19390478027631419 0.49987828850705518 0 0.27589341849557891 0.27527133753033889 0 0.42348748445510859 0.33558750152587891 -0.41138750314712519 0.49999999999974359 0 -0.1937830687830959 0.24999999999941211 0 0 
</DataArray>
</Points>
<Cells>
<DataArray type="UInt32" Name="connectivity" format="ascii">
5 12 2 8 3 5 4 1 0 26 2 9 3 2 1 9 2 3 4 3 12 2 26 8 3 4 9 3 10 1 9 0 9 2 1 0 2 9 4 0 2 26 10 3 1 26 5 3 12 2 12 26 2 3 1 26 2 3 4 2 5 4 5 0 2 0 5 2 6 8 5 13 7 6 5 13 8 11 6 3 6 11 8 13 6 3 11 12 3 5 6 8 6 5 3 12 5 6 12 5 7 6 16 42 11 51 16 11 42 8 11 8 13 42 8 3 16 11 9 16 10 18 17 9 18 16 11 18 16 51 10 16 9 3 16 11 10 18 10 11 16 3 3 16 9 8 46 18 11 51 28 11 29 46 11 18 46 10 11 28 10 46 33 11 51 29 11 46 51 29 11 12 27 25 12 6 25 11 27 29 25 12 3 11 27 12 25 27 6 12 11 25 12 3 27 26 26 27 10 3 28 11 27 29 12 27 26 10 11 27 28 27 11 10 3 10 27 26 28 29 46 51 45 33 31 25 29 31 29 51 45 33 31 51 44 31 33 51 29 30 40 44 31 33 40 31 44 30 32 40 31 40 32 33 31 35 6 34 35 34 36 13 35 36 11 13 11 36 35 33 34 6 7 13 6 34 35 13 35 13 11 6 7 34 6 11 33 25 29 6 11 35 25 35 25 6 11 33 35 25 43 36 51 33 11 42 13 36 41 43 36 42 51 11 36 42 36 11 51 33 43 39 36 33 41 38 37 36 36 39 43 38 37 38 39 36 36 38 43 41 32 40 33 39 33 40 43 39 40 38 43 39 40 33 43 44 51 36 43 42 43 33 51 44 44 31 51 45 47 46 45 51 15 47 48 14 47 14 51 49 48 14 49 50 49 48 47 14 50 14 49 51 47 15 51 14 51 15 47 46 46 51 15 18 51 16 15 18 15 16 51 14 23 16 14 19 14 16 23 15 18 15 23 16 17 18 23 16 14 19 51 52 19 42 51 52 19 14 51 16 42 19 51 16 52 14 53 50 52 50 51 14 53 14 52 19 14 23 21 22 22 15 48 14 21 23 14 20 14 20 19 53 14 21 20 53 21 20 53 24 21 14 50 53 48 22 21 24 22 15 14 23 14 48 21 50 20 14 19 23 22 14 48 21 23 24 21 22 21 24 23 20 
</DataArray>
<DataArray type="UInt32" Name="offsets" format="ascii">
3 7 11 15 19 23 27 31 35 39 42 46 50 53 57 61 65 68 72 76 80 84 88 92 96 99 102 106 110 114 118 122 126 130 134 138 142 146 150 154 158 162 166 170 174 177 181 185 188 192 196 200 204 207 211 215 219 223 227 231 235 239 243 247 251 255 258 262 266 270 274 278 282 285 289 293 296 300 304 308 312 316 320 324 328 332 336 340 344 348 352 356 360 364 368 372 376 380 384 388 392 396 400 404 408 412 416 420 424 428 432 436 440 444 448 452 456 460 464 468 472 476 480 484 488 492 496 500 504 508 512 
</DataArray>
<DataArray type="UInt32" Name="types" format="ascii">
5 10 10 10 10 10 10 10 10 10 5 10 10 5 10 10 10 5 10 10 10 10 10 10 10 5 5 10 10 10 10 10 10 10 10 10 10 10 10 10 10 10 10 10 10 5 10 10 5 10 10 10 10 5 10 10 10 10 10 10 10 10 10 10 10 10 5 10 10 10 10 10 10 5 10 10 5 10 10 10 10 10 10 10 10 10 10 10 10 10 10 10 10 10 10 10 10 10 10 10 10 10 10 10 10 10 10 10 10 10 10 10 10 10 10 10 10 10 10 10 10 10 10 10 10 10 10 10 10 10 10 
</DataArray>
</Cells>
<CellData Scalars="pressure_p0," Vectors="velocity_p0," Tensors="anisotropy,">
<DataArray type="Float64" Name="pressure_p0" format="ascii">
-3.7386089473689559 -0.26091985766882853 -0.55706459337181413 -0.33386161886397747 -0.33789575147171957 -1.181253586119039 -0.14511390070953561 -0.13257696941503355 -0.23772883736040715 -0.23899852591876647 -3.738560111948324 -0.23678685271931532 -1.1925273169103499 -3.7386087306778668 -0.62432677626476274 -0.63871495715600579 -0.55965893336562811 -3.7385602873264778 -0.45072856799604033 -0.73546548767700826 -0.73613384663213588 -0.57441943607824475 -1.1870028687919163 -0.71758159217602868 -1.3925842901511456 -3.7386516938619723 -3.7386323671024568 -0.17143311422744228 -0.13798045165882616 -0.22240116322884512 -0.29640194959361715 -0.033578554083296415 -0.015461302566021498 -0.1735174062210075 -0.11263914594995525 -0.16809432995367535 -0.32059475584391561 -0.094545084283646136 -0.18977604557784994 -0.48488261795935955 -0.15762736540330263 -0.24643368660624154 -0.58956753640709525 -0.39676424025602319 -1.6655264662733753 -3.7387227358367139 -1.3757637503817337 -1.2133849966698238 -3.7387240446278112 -1.6311774336953857 -1.3781263005361546 -0.69446063129985913 -0.91874367418689284 -3.7386524055500332 -0.60208223982407705 -0.75485625101848319 -0.44723428859588188 -0.28956874778013431 -1.1366593200713018 -0.44253624453465235 -0.39202137050408709 -0.66200009611744204 -0.17138654843337392 -0.28414373031326623 -0.17509007115695935 -0.34631829675885789 -3.7386642027551118 -0.58272043184925693 -0.66922953985241473 -0.77713802089693229 -0.707753710637403 -1.2489846192239709 -1.110903357131944 -3.7386378130049542 -1.110576877842365 -1.6767729300212089 -3.7387271854901241 -1.3154783915539314 -0.28463844332434873 -0.22678011459334718 -0.069687420293545396 -0.22181391269894099 -0.43073568584327271 -0.26728117032465459 -0.033687044927544721 -0.12233435775521637 -0.067639539662449427 -0.087594390298480346 -0.18043975561661746 -0.17356183455470739 -0.064777549483836877 -0.20183514788236473 -0.15683669463717401 -0.27262027591442939 -0.28045546363696761 -0.13618944522336449 -0.0089183505838473804 -0.041423170229275837 -0.0057740144795071519 -0.010138904313482983 -0.03155617302600567 -0.043287518262400702 -0.05703644841832476 -0.071431866475006489 -0.079446397552788123 -0.060073244001234913 -0.012621397200292175 -0.017145949586558372 -0.016120712015780334 -0.010555524373242612 -0.041230590968415269 -0.047950349521090715 -0.051746362695029011 -0.061138263780508031 -0.0092066481594137196 -0.036185665071406525 -0.010077150936556346 -0.004826958101186829 -0.0062604646057306769 -0.0054051034779631739 -0.0070543147759538974 -0.0042030261051327284 -0.00080362744617102711 -0.0044251520567574979 -0.00048299864239659989 -0.0083288805853403147 -0.0038390758515264084 -0.0081374322891461272 -0.0028578589178762312 -0.0009509858455519968 -0.0010539076626082011 
</DataArray>
<DataArray type="Float64" Name="velocity_p0" NumberOfComponents="3" format="ascii">
0.0048068240764026259 0.0043695480554728338 0 0.034721499061583672 1.151593761434317 -0.58398151790011521 2.3069066679854151 0.43460114571903929 -2.6220737100759921 0.4620833895365134 0.43274069833824069 -0.65430589448921705 0.47179896234815966 0.4438929422107602 -0.65578904981040709 0.47055870118524362 0.42430560321490024 -2.1082860440835915 0.22390581905664936 0.5012356269789231 -0.44510392539304222 0.50778879195034698 0.15846085230870846 -0.42088001918016932 0.50457161052151833 0.49956231162310488 -0.74784292678390463 0.51037789427511204 0.5053909353261351 -0.74684614438422214 0.0014659111215768999 0.0040309031959335963 0 1.1903835843595945 0.017820257564663877 -0.59124037272425911 0.47952015215633448 0.43491497029311432 -2.0955406207360148 0.0043998141167263544 0.0048121287866118882 0 0.97922361593565621 0.41101473516531339 -1.2589052528445674 0.45525649646056543 0.92785246606941341 -1.2437686663523573 0.44102296528753421 2.3145015507427753 -2.6190357121003149 0.004070564461352507 0.0014643647032278621 0 0.041320352617251754 1.2006875007032864 -0.99782086170364004 -0.076029722337515898 2.4147176408099025 -2.3008281618243616 0.058435231025550802 0.51142846850406642 -0.75984270138814547 -0.025796230762357986 0.73951433476767692 -0.50790387871618958 0.17516094549884303 0.26496871542381167 -1.279514128360463 -0.031415345528593541 1.1600850636429381 -1.189554759739327 0.39194195654345448 0.55220688439402976 -1.8892150595024009 0.0046851715323906421 0.0056069512497854994 0 -0.00076256444996316631 0.00095650198409856437 0 0.082326525358906721 0.13968253774749684 -0.29700673482125073 0.068647054766054275 0.26439290618604983 -0.3877738541715795 -0.0075985387255611964 0.53702369204182543 -0.53965289323228471 0.19500133825456203 0.33414748827177077 -0.65723486600267245 0.190494189053799 0.025790817567259788 -0.23473010257250318 0.1125650397577212 0.11254731000717536 -0.22341952647515448 0.036665307440263473 0.072645768808827005 -0.30828674823180691 0.15669133934974369 0.19807861978395941 -0.26147291655074789 0.1988354586623983 0.076604233810369668 -0.38413857723025346 0.24769109532202893 0.31401729125415229 -0.56066390796705445 0.13655526379701333 0.24587834872626724 -0.35712351042889656 0.12100888585046782 0.10052810607364496 -0.31400753239400531 0.39218716041581575 -0.011264046129553375 -0.75514929897127958 0.27014825770011724 0.0895117412316047 -0.40376054449314436 0.47968507942452387 -0.058608008793844146 -0.56575305269094112 0.027755130857783111 0.13439322520279814 -0.88605056600038989 0.073876162667475306 0.073920033508702437 -0.56286774061683387 0.13738192350589185 0.23404003511221427 -1.5638453757507516 0.0018805829098355348 0.0041284840458727396 0 0.10510113617513796 -0.0056983436566729329 -1.2198037486192788 0.23496591551650511 0.29458886142223623 -1.2173961023145492 0.0040258734270848928 0.0019723811592979989 0 0.11575250968673993 0.22064433841732328 -1.6000862768114781 0.66257509621338562 0.37097118164031007 -1.9020264168008458 1.1674128015064773 -0.032768797727393134 -1.1737393470775195 0.49147703187468456 0.10192480969495263 -0.75055121941077296 0.0056469361042729782 0.0047857192698827229 0 0.71308919523975134 -0.082818489688818789 -0.54767273703444574 0.56668635086593888 0.091190646683931897 -0.79495244681139521 1.1793382243436243 -0.0035451049498399917 -1.0406269898459037 0.06483244446408376 -0.10676105626416024 -0.38051560852006033 -0.033946703368957776 0.031122119439850549 -0.8073631606670757 0.064832444076243112 -0.14580679471038988 -0.60104237557555418 -0.20159304176060994 -0.12541252904697286 -0.58282311486075944 0.02294700651769449 0.06051395643758356 -0.80736315997861363 -0.19454308425238659 -0.052338134031454167 -0.31966404104738799 -0.20159304163820857 -0.046977883937172629 -0.42806162274931109 -0.49913358280646231 0.012286154853618947 -0.48094898020481475 -0.47535567609043883 -0.0035480465058319675 -0.72144807060051885 -0.0038355798849253331 0.0056790840217628077 0 -0.24673468392940606 1.1071061547757017 -1.308956302827986 -0.24199974559521253 0.54224341528301978 -0.74222836264420267 -0.12703718363339064 0.37186552612444473 -0.67053007220162919 -0.075280308290997244 2.2164355162798945 -2.3486348697831891 0.34874635132237297 1.3313702958197013 -1.7825217669343871 0.22432450762905604 0.61656691359598481 -1.1161303980643051 0.0019429327640757971 0.0011085039995397687 0 -0.028060106312687683 -0.0015872530709630239 -0.87085364485226913 0.092701245445051247 0.30713384345348871 -1.5533703952311853 -0.0012587056404384897 0.0033429211227739611 0 -0.21730589754215029 0.24271362528080626 -1.2342914900248649 -0.15313015216013534 0.11126512527786188 -0.46654797018314409 -0.005090663145287555 0.53066142473776801 -0.65441152161907223 -0.055472540458979785 0.22294595770710957 -0.24364995575674875 0.037044858889659985 0.2478390296482694 -0.36007432807808915 0.048639585223811399 0.15550957158530876 -0.66672242695757067 -0.15777914307309393 0.045996736305485272 -0.49927208869241751 -0.021856423742690007 0.19148753286013565 -0.24155001415718247 -0.22885593906305401 0.11004383439666718 -0.33734364988067139 -0.22632410199770409 0.10873827544056622 -0.32754896447692727 -0.04200156429260106 0.17908261561963956 -0.26126092631506898 -0.50511820498415827 -0.026086462130789495 -0.50481526414574718 -0.18534358689564204 0.033497037273575128 -0.32418464536004932 -0.22384106314135943 0.069340937144137652 -0.24112167852055694 -0.16270983540360925 0.049206402990382571 -0.31691200404786729 -0.0097296319731648984 0.20409572896141553 -0.31297914437522545 -0.14866258184142117 0.10514052007132194 -0.40520048486299087 -0.14476018574614605 -0.068579682813191573 -0.39144974418220163 0.11793759422479755 0.0027495955935021373 -0.36968822147692287 0.044929787313242792 0.0040914706461255904 -0.23369068751377078 0.015605583784931196 0.025541904314082979 -0.24066626498720142 0.016040369084579426 0.0038343642018248414 -0.23076526489976149 0.028593957633817925 0.020046503229007209 -0.23074018787945699 0.0066065846054716524 0.013066196095701331 -0.2388211646558292 0.024005967336924127 0.020542483901177355 -0.24388621214608863 0.094819119143775277 0.011675947632967422 -0.27338932373446584 0.13738981284947627 0.041988798365382322 -0.31105047480953563 0.072729365534193832 0.0257419134631202 -0.30979836635650332 0.014737290250495444 0.031819037643838984 -0.28426395955385186 0.030118813765461619 0.045607520399087512 -0.20893465667507938 0.046954616452894761 0.053646536946813796 -0.2208432063712979 0.069512689175335485 0.052564070892096658 -0.25016522390887674 0.050921925522378245 0.050859451251330345 -0.22367594417553019 -0.0017256391195940857 0.029701246120467206 -0.23793482517047118 0.010279982524454393 0.095551757209302146 -0.2706550437577715 0.009140469633675468 0.054564122226535755 -0.24812359064608402 0.038780152224442865 0.13777862044508354 -0.29791285679249591 0.0083465505474058233 0.023453812894283325 -0.22488018355453429 0.01182589953923649 0.014440830601330083 -0.23537708690328032 0.0042909998782744846 0.035298904749533677 -0.23211774060037166 0.0064421600056965289 0.0021996631430962199 -0.2096375591017359 0.027202833151925298 0.0044276078801020607 -0.22089205573963538 0.006501689035336565 0.0033738823426786232 -0.212258549864423 0.0070731284329242214 0.023233528527362539 -0.2132167001357102 0.0060579404997339083 0.00090127822995032802 -0.21025022059273779 0.0050478043746604237 0.0062336930092314448 -0.20621577122743992 0.0092922556082155466 0.0067409086322920836 -0.22117347796230002 0.0038852342978048376 0.0018308160099440168 -0.20386625110404732 0.040273479921378655 0.012293875946151785 -0.22138438701272156 0.0091602970283547434 0.0045099230573397084 -0.2172240570024575 0.0084052069765555189 0.028873765759215284 -0.21427378978311629 0.0045383231718407677 -0.00075518672802409037 -0.20660278870918369 0.0065420712481202743 0.0067161693716847118 -0.20609671475380303 0.0074771750232374146 0.0076505878414594164 -0.20722371604600726 
</DataArray>
<DataArray type="Float64" Name="anisotropy" NumberOfComponents="9" format="ascii">
1 0 0 0 1 0 0 0 1 0.10000000000000001 0 0 0 0.10000000000000001 0 0 0 0.10000000000000001 0.10000000000000001 0 0 0 0.10000000000000001 0 0 0 0.10000000000000001 0.10000000000000001 0 0 0 0.10000000000000001 0 0 0 0.10000000000000001 0.10000000000000001 0 0 0 0.10000000000000001 0 0 0 0.10000000000000001 0.10000000000000001 0 0 0 0.10000000000000001 0 0 0 0.10000000000000001 0.10000000000000001 0 0 0 0.10000000000000001 0 0 0 0.10000000000000001 0.10000000000000001 0 0 0 0.10000000000000001 0 0 0 0.10000000000000001 0.10000000000000001 0 0 0 0.10000000000000001 0 0 0 0.10000000000000001 0.10000000000000001 0 0 0 0.10000000000000001 0 0 0 0.10000000000000001 1 0 0 0 1 0 0 0 1 0.10000000000000001 0 0 0 0.10000000000000001 0 0 0 0.10000000000000001 0.10000000000000001 0 0 0 0.10000000000000001 0 0 0 0.10000000000000001 1 0 0 0 1 0 0 0 1 0.10000000000000001 0 0 0 0.10000000000000001 0 0 0 0.10000000000000001 0.10000000000000001 0 0 0 0.10000000000000001 0 0 0 0.10000000000000001 0.10000000000000001 0 0 0 0.10000000000000001 0 0 0 0.10000000000000001 1 0 0 0 1 0 0 0 1 0.10000000000000001 0 0 0 0.10000000000000001 0 0 0 0.10000000000000001 0.10000000000000001 0 0 0 0.10000000000000001 0 0 0 0.10000000000000001 0.10000000000000001 0 0 0 0.10000000000000001 0 0 0 0.10000000000000001 0.10000000000000001 0 0 0 0.10000000000000001 0 0 0 0.10000000000000001 0.10000000000000001 0 0 0 0.10000000000000001 0 0 0 0.10000000000000001 0.10000000000000001 0 0 0 0.10000000000000001 0 0 0 0.10000000000000001 0.10000000000000001 0 0 0 0.10000000000000001 0 0 0 0.10000000000000001 1 0 0 0 1 0 0 0 1 1 0 0 0 1 0 0 0 1 0.10000000000000001 0 0 0 0.10000000000000001 0 0 0 0.10000000000000001 0.10000000000000001 0 0 0 0.10000000000000001 0 0 0 0.10000000000000001 0.10000000000000001 0 0 0 0.10000000000000001 0 0 0 0.10000000000000001 0.10000000000000001 0 0 0 0.10000000000000001 0 0 0 0.10000000000000001 0.10000000000000001 0 0 0 0.10000000000000001 0 0 0 0.10000000000000001 0.10000000000000001 0 0 0 0.10000000000000001 0 0 0 0.10000000000000001 0.10000000000000001 0 0 0 0.10000000000000001 0 0 0 0.10000000000000001 0.10000000000000001 0 0 0 0.10000000000000001 0 0 0 0.10000000000000001 0.10000000000000001 0 0 0 0.10000000000000001 0 0 0 0.10000000000000001 0.10000000000000001 0 0 0 0.10000000000000001 0 0 0 0.10000000000000001 0.10000000000000001 0 0 0 0.10000000000000001 0 0 0 0.10000000000000001 0.10000000000000001 0 0 0 0.10000000000000001 0 0 0 0.10000000000000001 0.10000000000000001 0 0 0 0.10000000000000001 0 0 0 0.10000000000000001 0.10000000000000001 0 0 0 0.10000000000000001 0 0 0 0.10000000000000001 0.10000000000000001 0 0 0 0.10000000000000001 0 0 0 0.10000000000000001 0.10000000000000001 0 0 0 0.10000000000000001 0 0 0 0.10000000000000001 0.10000000000000001 0 0 0 0.10000000000000001 0 0 0 0.10000000000000001 0.10000000000000001 0 0 0 0.10000000000000001 0 0 0 0.10000000000000001 1 0 0 0 1 0 0 0 1 0.10000000000000001 0 0 0 0.10000000000000001 0 0 0 0.10000000000000001 0.10000000000000001 0 0 0 0.10000000000000001 0 0 0 0.10000000000000001 1 0 0 0 1 0 0 0 1 0.10000000000000001 0 0 0 0.10000000000000001 0 0 0 0.10000000000000001 0.10000000000000001 0 0 0 0.10000000000000001 0 0 0 0.10000000000000001 0.10000000000000001 0 0 0 0.10000000000000001 0 0 0 0.10000000000000001 0.10000000000000001 0 0 0 0.10000000000000001 0 0 0 0.10000000000000001 1 0 0 0 1 0 0 0 1 0.10000000000000001 0 0 0 0.10000000000000001 0 0 0 0.10000000000000001 0.10000000000000001 0 0 0 0.10000000000000001 0 0 0 0.10000000000000001 0.10000000000000001 0 0 0 0.10000000000000001 0 0 0 0.10000000000000001 0.10000000000000001 0 0 0 0.10000000000000001 0 0 0 0.10000000000000001 0.10000000000000001 0 0 0 0.10000000000000001 0 0 0 0.10000000000000001 0.10000000000000001 0 0 0 0.10000000000000001 0 0 0 0.10000000000000001 0.10000000000000001 0 0 0 0.10000000000000001 0 0 0 0.10000000000000001 0.10000000000000001 0 0 0 0.10000000000000001 0 0 0 0.10000000000000001 0.10000000000000001 0 0 0 0.10000000000000001 0 0 0 0.10000000000000001 0.10000000000000001 0 0 0 0.10000000000000001 0 0 0 0.10000000000000001 0.10000000000000001 0 0 0 0.10000000000000001 0 0 0 0.10000000000000001 0.10000000000000001 0 0 0 0.10000000000000001 0 0 0 0.10000000000000001 1 0 0 0 1 0 0 0 1 0.10000000000000001 0 0 0 0.10000000000000001 0 0 0 0.10000000000000001 0.10000000000000001 0 0 0 0.10000000000000001 0 0 0 0.10000000000000001 0.10000000000000001 0 0 0 0.10000000000000001 0 0 0 0.10000000000000001 0.10000000000000001 0 0 0 0.10000000000000001 0 0 0 0.10000000000000001 0.10000000000000001 0 0 0 0.10000000000000001 0 0 0 0.10000000000000001 0.10000000000000001 0 0 0 0.10000000000000001 0 0 0 0.10000000000000001 1 0 0 0 1 0 0 0 1 0.10000000000000001 0 0 0 0.10000000000000001 0 0 0 0.10000000000000001 0.10000000000000001 0 0 0 0.10000000000000001 0 0 0 0.10000000000000001 1 0 0 0 1 0 0 0 1 0.10000000000000001 0 0 0 0.10000000000000001 0 0 0 0.10000000000000001 0.10000000000000001 0 0 0 0.10000000000000001 0 0 0 0.10000000000000001 0.10000000000000001 0 0 0 0.10000000000000001 0 0 0 0.10000000000000001 0.10000000000000001 0 0 0 0.10000000000000001 0 0 0 0.10000000000000001 0.10000000000000001 0 0 0 0.10000000000000001 0 0 0 0.10000000000000001 0.10000000000000001 0 0 0 0.10000000000000001 0 0 0 0.10000000000000001 0.10000000000000001 0 0 0 0.10000000000000001 0 0 0 0.10000000000000001 0.10000000000000001 0 0 0 0.10000000000000001 0 0 0 0.10000000000000001 0.10000000000000001 0 0 0 0.10000000000000001 0 0 0 0.10000000000000001 0.10000000000000001 0 0 0 0.10000000000000001 0 0 0 0.10000000000000001 0.10000000000000001 0 0 0 0.10000000000000001 0 0 0 0.10000000000000001 0.10000000000000001 0 0 0 0.10000000000000001 0 0 0 0.10000000000000001 0.10000000000000001 0 0 0 0.10000000000000001 0 0 0 0.10000000000000001 0.10000000000000001 0 0 0 0.10000000000000001 0 0 0 0.10000000000000001 0.10000000000000001 0 0 0 0.10000000000000001 0 0 0 0.10000000000000001 0.10000000000000001 0 0 0 0.10000000000000001 0 0 0 0.10000000000000001 0.10000000000000001 0 0 0 0.10000000000000001 0 0 0 0.10000000000000001 0.10000000000000001 0 0 0 0.10000000000000001 0 0 0 0.10000000000000001 0.10000000000000001 0 0 0 0.10000000000000001 0 0 0 0.10000000000000001 0.10000000000000001 0 0 0 0.10000000000000001 0 0 0 0.10000000000000001 0.10000000000000001 0 0 0 0.10000000000000001 0 0 0 0.10000000000000001 0.10000000000000001 0 0 0 0.10000000000000001 0 0 0 0.10000000000000001 0.10000000000000001 0 0 0 0.10000000000000001 0 0 0 0.10000000000000001 0.10000000000000001 0 0 0 0.10000000000000001 0 0 0 0.10000000000000001 0.10000000000000001 0 0 0 0.10000000000000001 0 0 0 0.10000000000000001 0.10000000000000001 0 0 0 0.10000000000000001 0 0 0 0.10000000000000001 0.10000000000000001 0 0 0 0.10000000000000001 0 0 0 0.10000000000000001 0.10000000000000001 0 0 0 0.10000000000000001 0 0 0 0.10000000000000001 0.10000000000000001 0 0 0 0.10000000000000001 0 0 0 0.10000000000000001 0.10000000000000001 0 0 0 0.10000000000000001 0 0 0 0.10000000000000001 0.10000000000000001 0 0 0 0.10000000000000001 0 0 0 0.10000000000000001 0.10000000000000001 0 0 0 0.10000000000000001 0 0 0 0.10000000000000001 0.10000000000000001 0 0 0 0.10000000000000001 0 0 0 0.10000000000000001 0.10000000000000001 0 0 0 0.10000000000000001 0 0 0 0.10000000000000001 0.10000000000000001 0 0 0 0.10000000000000001 0 0 0 0.10000000000000001 0.10000000000000001 0 0 0 0.10000000000000001 0 0 0 0.10000000000000001 0.10000000000000001 0 0 0 0.10000000000000001 0 0 0 0.10000000000000001 0.10000000000000001 0 0 0 0.10000000000000001 0 0 0 0.10000000000000001 0.10000000000000001 0 0 0 0.10000000000000001 0 0 0 0.10000000000000001 0.10000000000000001 0 0 0 0.10000000000000001 0 0 0 0.10000000000000001 0.10000000000000001 0 0 0 0.10000000000000001 0 0 0 0.10000000000000001 0.10000000000000001 0 0 0 0.10000000000000001 0 0 0 0.10000000000000001 0.10000000000000001 0 0 0 0.10000000000000001 0 0 0 0.10000000000000001 0.10000000000000001 0 0 0 0.10000000000000001 0 0 0 0.10000000000000001 0.10000000000000001 0 0 0 0.10000000000000001 0 0 0 0.10000000000000001 0.10000000000000001 0 0 0 0.10000000000000001 0 0 0 0.10000000000000001 0.10000000000000001 0 0 0 0.10000000000000001 0 0 0 0.10000000000000001 0.10000000000000001 0 0 0 0.10000000000000001 0 0 0 0.10000000000000001 0.10000000000000001 0 0 0 0.10000000000000001 0 0 0 0.10000000000000001 0.10000000000000001 0 0 0 0.10000000000000001 0 0 0 0.10000000000000001 0.10000000000000001 0 0 0 0.10000000000000001 0 0 0 0.10000000000000001 0.10000000000000001 0 0 0 0.10000000000000001 0 0 0 0.10000000000000001 0.10000000000000001 0 0 0 0.10000000000000001 0 0 0 0.10000000000000001 0.10000000000000001 0 0 0 0.10000000000000001 0 0 0 0.10000000000000001 
</DataArray>
</CellData>
</Piece>
</UnstructuredGrid>
</VTKFile>
