<?xml version="1.0"?>
<VTKFile type="UnstructuredGrid" version="0.1" byte_order="LittleEndian">
<UnstructuredGrid>
<Piece NumberOfPoints="506" NumberOfCells="131">
<Points>
<DataArray type="Float64" NumberOfComponents="3" format="ascii">
0.27852182539691328 0.7214781746031842 -1 0 0.75000000000034661 -1 0.19232253086422449 0.50146053791918455 -1 0.24999999999941211 0 -1 0.49924645474497431 0.19077333889470441 -1 0.27542009602191558 0.2786841073879448 -1 0.27852182539691328 0.7214781746031842 -1 0.4995456570474846 0.80901946774026934 -1 0.25000000000104028 1 -1 0.27542009602191558 0.2786841073879448 -1 0.19232253086422449 0.50146053791918455 -1 0 0.25000000000104028 -1 0 0.75000000000034661 -1 0 0.50000000000205869 -1 0.19232253086422449 0.50146053791918455 -1 0 0.25000000000104028 -1 0.19232253086422449 0.50146053791918455 -1 0 0.50000000000205869 -1 0.27852182539691328 0.7214781746031842 -1 0.49631982208178133 0.49903983155338327 -1 0.4995456570474846 0.80901946774026934 -1 0.27852182539691328 0.7214781746031842 -1 0.19232253086422449 0.50146053791918455 -1 0.49631982208178133 0.49903983155338327 -1 0.27542009602191558 0.2786841073879448 -1 0.49631982208178133 0.49903983155338327 -1 0.19232253086422449 0.50146053791918455 -1 0.27542009602191558 0.2786841073879448 -1 0.49924645474497431 0.19077333889470441 -1 0.49631982208178133 0.49903983155338327 -1 0.27852182539691328 0.7214781746031842 -1 0.14190641534415949 0.85809358465625163 -1 0 0.75000000000034661 -1 0.24999999999941211 0 -1 0.27542009602191558 0.2786841073879448 -1 0.14138946044788619 0.141933462342688 -1 0.27852182539691328 0.7214781746031842 -1 0.25000000000104028 1 -1 0.14190641534415949 0.85809358465625163 -1 0.27542009602191558 0.2786841073879448 -1 0 0.25000000000104028 -1 0.14138946044788619 0.141933462342688 -1 0 1 -1 0 0.75000000000034661 -1 0.14190641534415949 0.85809358465625163 -1 0 1 -1 0.14190641534415949 0.85809358465625163 -1 0.25000000000104028 1 -1 0 0 -1 0.14138946044788619 0.141933462342688 -1 0 0.25000000000104028 -1 0 0 -1 0.24999999999941211 0 -1 0.14138946044788619 0.141933462342688 -1 0 0.85809358465609809 -0.14190641534383031 0 1 0 0.1414165074468669 1 -0.14190641534369289 0 1 -0.24999999999941211 0.27558237801301821 1 -0.27852182539675591 0 0.80935234175974147 -0.50021433470480037 0.42348748445510859 0.67651247978210449 -0.41138750314712519 0 0.72147817460320118 -0.27852182539678011 0.14190641534415949 0.85809358465625163 -1 0.27558237801302449 1 -0.72147817460308317 0.27852182539691328 0.7214781746031842 -1 0.25000000000104028 1 -1 0 0.85590277777789092 -0.85590277777763279 0 0.72340718694886286 -0.72340718694880013 0 0.75000000000034661 -1 0.27852182539691328 0.7214781746031842 -1 0.27558237801301821 1 -0.27852182539675591 0.49967339473549238 1 -0.19086199294534331 0.27589492110682312 0.72442964287534417 0 0.42348748445510859 0.67651247978210449 -0.41138750314712519 0 0.72147817460320118 -0.27852182539678011 0.27558237801301821 1 -0.27852182539675591 0.27589492110682312 0.72442964287534417 0 0.42348748445510859 0.67651247978210449 -0.41138750314712519 0.14190641534415949 0.85809358465625163 -1 0.14141650744674819 1 -0.85809358465604513 0.25000000000104028 1 -1 0 1 -1 0.27542009602191558 0.2786841073879448 -1 0.17663550269374309 0.2000173280584561 -0.80767327345777706 0.19232253086422449 0.50146053791918455 -1 0 0.25000000000104028 -1 0.42348748445510859 0.67651247978210449 -0.75231254100799561 0.4995456570474846 0.80901946774026934 -1 0.27852182539691328 0.7214781746031842 -1 0.49967339473549249 1 -0.80913800705467398 0.49924645474497431 0.19077333889470441 -1 0.17663550269374309 0.2000173280584561 -0.80767327345777706 0.36400213509809493 0.30340182266465199 -0.71803582340462213 0.27542009602191558 0.2786841073879448 -1 0.27558237801301821 1 -0.27852182539675591 0.25000000000104028 1 0 0.1414165074468669 1 -0.14190641534369289 0.27589492110682312 0.72442964287534417 0 0 0.85809358465609809 -0.14190641534383031 0 0.75000000000034661 0 0 0.72147817460320118 -0.27852182539678011 0.27589492110682312 0.72442964287534417 0 0.27864353689002019 0 -0.72105707495041649 0.17663550269374309 0.2000173280584561 -0.80767327345777706 0.24999999999941211 0 -1 0.14192670059260701 0 -0.85802340138044431 0.27558237801302449 1 -0.72147817460308317 0 1 -0.74999999999934164 0.14141650744674819 1 -0.85809358465604513 0 0.85590277777789092 -0.85590277777763279 0.49631982208178133 0.49903983155338327 -1 0.19232253086422449 0.50146053791918455 -1 0.42348748445510859 0.67651247978210449 -0.75231254100799561 0.27852182539691328 0.7214781746031842 -1 0.14141650744674819 1 -0.85809358465604513 0.27558237801302449 1 -0.72147817460308317 0 0.85590277777789092 -0.85590277777763279 0.14190641534415949 0.85809358465625163 -1 0 0.1419064153440632 -0.85809358465605046 0 0 -1 0 0.25000000000104028 -1 0.14138946044788619 0.141933462342688 -1 0.27558237801302449 1 -0.72147817460308317 0 0.72340718694886286 -0.72340718694880013 0.27852182539691328 0.7214781746031842 -1 0.42348748445510859 0.67651247978210449 -0.75231254100799561 0.19378306878302151 1 -0.49999999999974709 0.27558237801302449 1 -0.72147817460308317 0.49999999999996553 1 -0.50000000000003098 0.42348748445510859 0.67651247978210449 -0.41138750314712519 0 0.50000000000037348 -0.1908619929453429 0 0.72147817460320118 -0.27852182539678011 0.42348748445510859 0.67651247978210449 -0.41138750314712519 0 0.50017861225427096 -0.49773060372977418 0 1 0 0 0.85809358465609809 -0.14190641534383031 0.1414165074468669 1 -0.14190641534369289 0.14146859796247779 0.85858549603494483 0 0 0.85809358465609809 -0.14190641534383031 0 1 0 0 0.75000000000034661 0 0.14146859796247779 0.85858549603494483 0 0.25000000000104028 1 0 0 1 0 0.1414165074468669 1 -0.14190641534369289 0.14146859796247779 0.85858549603494483 0 0 0 -0.49999999999869432 0 0 -0.74999999999934164 0 0.190861992945314 -0.49999999999972489 0.19099722793781729 0 -0.49920550623183851 0 0.80935234175974147 -0.50021433470480037 0 1 -0.74999999999934164 0 1 -0.49999999999869432 0.19378306878302151 1 -0.49999999999974709 0.36400213509809493 0.30340182266465199 -0.71803582340462213 0 0.190861992945314 -0.49999999999972489 0.19099722793781729 0 -0.49920550623183851 0.42348748445510859 0.33558750152587891 -0.41138750314712519 0.27852182539691328 0.7214781746031842 -1 0.4995456570474846 0.80901946774026934 -1 0.25000000000104028 1 -1 0.49967339473549249 1 -0.80913800705467398 0.27558237801301821 1 -0.27852182539675591 0 0.85809358465609809 -0.14190641534383031 0.1414165074468669 1 -0.14190641534369289 0 1 -0.24999999999941211 0 0 -0.49999999999869432 0 0.190861992945314 -0.49999999999972489 0 0 -0.24999999999941211 0.19099722793781729 0 -0.49920550623183851 0.14141650744674819 1 -0.85809358465604513 0.14190641534415949 0.85809358465625163 -1 0 0.85590277777789092 -0.85590277777763279 0 1 -1 0 0.27852182539691489 -0.72147817460311425 0.17663550269374309 0.2000173280584561 -0.80767327345777706 0 0.1419064153440632 -0.85809358465605046 0 0.25000000000104028 -1 0.27558237801302449 1 -0.72147817460308317 0 0.72340718694886286 -0.72340718694880013 0 0.85590277777789092 -0.85590277777763279 0.27852182539691328 0.7214781746031842 -1 0.49924645474497431 0.19077333889470441 -1 0.27542009602191558 0.2786841073879448 -1 0.36400213509809493 0.30340182266465199 -0.71803582340462213 0.49631982208178133 0.49903983155338327 -1 0.27542009602191558 0.2786841073879448 -1 0.17663550269374309 0.2000173280584561 -0.80767327345777706 0.36400213509809493 0.30340182266465199 -0.71803582340462213 0.19232253086422449 0.50146053791918455 -1 0 0.80935234175974147 -0.50021433470480037 0.27558237801301821 1 -0.27852182539675591 0.42348748445510859 0.67651247978210449 -0.41138750314712519 0.19378306878302151 1 -0.49999999999974709 0.14190641534415949 0.85809358465625163 -1 0 0.85590277777789092 -0.85590277777763279 0 0.75000000000034661 -1 0.27852182539691328 0.7214781746031842 -1 0.4995456570474846 0.80901946774026934 -1 0.49631982208178133 0.49903983155338327 -1 0.42348748445510859 0.67651247978210449 -0.75231254100799561 0.27852182539691328 0.7214781746031842 -1 0 0.190861992945314 -0.49999999999972489 0 0.27852182539690867 -0.27852182539678699 0 0 -0.24999999999941211 0.19099722793781729 0 -0.49920550623183851 0.24999999999941211 0 -1 0.17663550269374309 0.2000173280584561 -0.80767327345777706 0.27542009602191558 0.2786841073879448 -1 0.14138946044788619 0.141933462342688 -1 0.14192670059260701 0 -0.85802340138044431 0.24999999999941211 0 -1 0 0 -1 0.14138946044788619 0.141933462342688 -1 0.27558237801301821 1 -0.27852182539675591 0.19378306878302151 1 -0.49999999999974709 0.49999999999996553 1 -0.50000000000003098 0.42348748445510859 0.67651247978210449 -0.41138750314712519 0.17663550269374309 0.2000173280584561 -0.80767327345777706 0.14192670059260701 0 -0.85802340138044431 0.14138946044788619 0.141933462342688 -1 0.24999999999941211 0 -1 0 1 -0.74999999999934164 0.14141650744674819 1 -0.85809358465604513 0 0.85590277777789092 -0.85590277777763279 0 1 -1 0 0.50023418051147772 -0.80910018661861283 0.19232253086422449 0.50146053791918455 -1 0 0.50000000000205869 -1 0 0.75000000000034661 -1 0.49999999999996553 1 -0.50000000000003098 0.27558237801302449 1 -0.72147817460308317 0.42348748445510859 0.67651247978210449 -0.75231254100799561 0.42348748445510859 0.67651247978210449 -0.41138750314712519 0 0.80935234175974147 -0.50021433470480037 0.27558237801302449 1 -0.72147817460308317 0 1 -0.74999999999934164 0.19378306878302151 1 -0.49999999999974709 0.36400213509809493 0.30340182266465199 -0.71803582340462213 0.27542009602191558 0.2786841073879448 -1 0.19232253086422449 0.50146053791918455 -1 0.49631982208178133 0.49903983155338327 -1 0.49967339473549238 1 -0.19086199294534331 0.25000000000104028 1 0 0.27558237801301821 1 -0.27852182539675591 0.27589492110682312 0.72442964287534417 0 0 0.50023418051147772 -0.80910018661861283 0.36400213509809493 0.30340182266465199 -0.71803582340462213 0.423487484455
[...]
<CellData Scalars="pressure_p0,pressure_p1," Vectors="velocity_p0," Tensors="anisotropy,">
<DataArray type="Float64" Name="pressure_p0" format="ascii">
-3.7386682613155489 -3.738651693931621 -3.7386711523174196 -3.7386524056273278 -3.7386409332627197 -3.7386338556523602 -3.7387299386583179 -3.738728729838662 -3.7387240446788672 -3.7387227358898416 -3.7386330830507557 -3.7386089474695474 -3.7386352502681057 -3.7386087307895073 -3.7385841428383384 -3.7385855971237896 -3.7385601122207661 -3.7385602875467874 -0.0010108963973533011 -0.06319976295540948 -1.0266509924617873 -0.596525455291817 -0.034280408046716636 -0.043509182040082743 -0.56112788888431719 -1.3781263025639297 -1.1502870192270085 -1.1870028691901675 -0.0049734387563920308 -0.0049948024308046606 -0.26091985777735538 -0.062184411896870927 -1.6981448772753054 -0.30870491743632988 -0.55706459285472421 -0.65930360702199486 -0.096662864117175298 -0.059126230169043448 -0.0025218580380860331 -0.00094567892717483369 -0.00092602388792867155 -0.015461302535474229 -0.016927684396801701 -0.17351740815614364 -1.2393847845732935 -0.0026635967853100235 -0.010555524452536625 -0.38931761672289439 -0.23678685421750229 -0.49831101081511187 -1.6311774322221408 -1.2133849984133254 -0.079509688493159925 -1.1472210438563655 -1.6610497104023392 -0.016120712083130265 -1.1925273172912765 -0.55965893268657307 -0.063374955473719338 -0.63871495686037849 -0.060077960809278956 -0.70887375288440557 -0.23665111662002036 -0.036640651520974288 -1.665526465898282 -0.0068585017629418021 -0.48488261876926336 -0.2887490989682025 -0.0055954111950005251 -0.01169437638125263 -0.0076719976782146284 -0.28806439202217576 -0.010912783174423084 -0.014714722703883408 -0.6243267776428143 -0.068590289081154013 -0.59303552329658149 -0.0094026817856408089 -0.68582881753388625 -0.049549712999877454 -0.24544657895810507 -1.3757637495193029 -0.10481950692269329 -0.1361894444246825 -0.39676424023094126 -0.28956874686073708 -0.35595300779636402 -1.1812535874738299 -0.0062144524697688355 -0.0025507365069700645 -0.14511390111333877 -0.13257697058762874 -0.0026038890547761323 -0.5438724049634428 -0.29640195061494984 -0.81034386162076477 -0.91874367556918468 -0.075858031330637371 -0.017831491096808413 -0.11822361378758871 -0.25141999885907818 -0.71034575113583043 -1.1639430805476139 -0.60822416664764334 -1.2418221595114569 -0.73613384664841786 -0.71758159239131558 -1.3925842906399892 -0.73507822132862344 -0.24643368717234138 -0.07944639858376934 -0.071431866437316319 -0.33386162015782112 -0.33789575196978422 -0.23772883733308131 -0.23899852560978846 -0.19280814507174199 -0.20870331059547406 -0.15762736487214224 -0.18977604614283575 -0.041114932479832778 -0.09454508440982573 -0.32059475601412246 -0.16809433005456714 -0.11263914577230358 -0.033578553618879764 -0.057036446935155187 -0.60208224203879579 -0.75485625359374131 -0.44723429016432092 -0.69446063412063741 
</DataArray>
<DataArray type="Float64" Name="pressure_p1" format="ascii">
-1.7322326009193747 -1.8771713898273041 -1.8540990976626288 -1.8543681205902391 -1.8510839725973574 -1.7742671927411344 -2.009059455312066 -1.8741132619096923 -2.0730655614367799 -2.0928979694527512 -1.6611308202522448 -1.7280761751044111 -1.6480511235931248 -1.7251053138833174 -1.5430541523024608 -1.5299744556433408 -1.4102875906820445 -1.4132584519031384 -0.0037008336611488437 -0.070726348217854493 -1.3174144746019754 -1.0537191059719424 -0.048715670868435465 -0.050951453667963845 -1.2116219112082729 -1.5471971679393857 -1.3167997362504029 -1.3421591325678881 -0.012576592174076268 -0.013781601432625417 -0.71030112618555075 -0.25841657473929108 -1.5976230624667451 -0.63439286595119448 -1.1358097312873714 -0.77704279299622248 -0.16750049330206235 -0.095465531775169407 -0.0030191803020459904 -0.0028860353752293796 -0.0025237575136982139 -0.080883584712730827 -0.049604820053457684 -0.25676414885806925 -1.5622047473235516 -0.010227811306101946 -0.048211117723766267 -0.87701644541601087 -0.69787203257856922 -0.68784233827710894 -1.7394014504158846 -1.3272848265559096 -0.076045579936373744 -1.3486857765045461 -1.6988327075185254 -0.054135366171602819 -1.4524782088250143 -1.1404314815134897 -0.092843699478993111 -0.97119441443154952 -0.50104015420410675 -1.5406200288229674 -0.34665730813693879 -0.12827040665616246 -1.7245271444039063 -0.016962683788773379 -0.56053083724839725 -0.48187419664240566 -0.016849685720327422 -0.040875271314617143 -0.021497571216757626 -0.38843684217033891 -0.039564832375733397 -0.019693889376649509 -0.9665726642054312 -0.20646043817689286 -1.103006895425622 -0.013072014962424054 -0.85760188435247264 -0.085288684960945493 -0.48579405306920864 -1.3547938234587811 -0.28534683798385319 -0.13080380959827959 -0.45112413517763805 -0.31388984099562711 -0.96899833174345706 -1.4502500629091939 -0.0070031868214483102 -0.0065077640331005398 -0.35271379444929407 -0.34251284675813226 -0.0068700418946316998 -1.2601282755422081 -0.43072387093576026 -0.98280900880971278 -0.95343747748902774 -0.11046470864644323 -0.044884064094252642 -0.15070237375944295 -0.32985918859431934 -0.84797371046404046 -1.1962667164969916 -1.1031884940315297 -1.4514815000644803 -0.86191164106537776 -1.0840521283646742 -1.5642996198671839 -1.4830074439308003 -0.44220932331014889 -0.095427051575396771 -0.11883387545240524 -0.61121347838499407 -0.61360708269529207 -0.78045054546693471 -0.78284414977723316 -0.35351840877585844 -0.29494075519983898 -0.31098722752711516 -0.28017097273507779 -0.053184200221029924 -0.29527702649879994 -0.42291652755489706 -0.28758040365010673 -0.28746968311793686 -0.15213355921314642 -0.10670100649761807 -0.83511596355077955 -0.83922999167253609 -1.0550283049342561 -1.0591423330560124 
</DataArray>
<DataArray type="Float64" Name="velocity_p0" NumberOfComponents="3" format="ascii">
0.0055880191538374563 -0.0034044241387957432 0 0.004685167658062356 0.0056069514914593487 0 0.0035671758479469324 -0.0052603390220702954 0 0.0056469389890706099 0.0047857154908036176 0 0.0011151499399072507 0.0021027235897995581 0 0.00097019736524906635 -0.00060911954449643295 0 0.0014836460759490022 -0.003173374772659515 0 0.0033915996127195517 -0.0011280521893330599 0 0.004025870442402258 0.001972375468308747 0 0.001880581880296113 0.0041284832717351939 0 0.0046123498362775402 -0.0041320645244244713 0 0.0048068190259273561 0.0043695360205085725 0 0.0044224779173768144 -0.0042633836769910022 0 0.0043997989331447255 0.0048121208898579274 0 0.0014943333174890334 -0.00390443710895129 0 0.0042600833952371256 -0.0014619876444097019 0 0.0014658851976734025 0.0040308923521655054 0 0.0040705499130691651 0.0014643647424270839 0 0.0080684103076019142 -0.0080405554856953793 -0.20426283567558426 0.052730456298489679 -0.033714010734218786 -0.27142899389351161 0.17932287566492913 -1.0895748796524949 -1.9303639095253482 1.1116863445557881 -0.17602240298968563 -1.3261321918987132 0.0033803922003548155 -0.024687280211229581 -0.23403245583597054 0.0062325354304210989 -0.01482723372364542 -0.25292195496605718 0.49407578270356767 -2.3175085134279256 -2.618148630334947 0.66257509449994911 0.37097118333201395 -1.9020264168512582 0.081604758349373807 -0.46477596649409592 -1.1597502099473538 0.1751609411097052 0.26496871471058686 -1.2795141267241863 0.0015952773611791551 -0.021632003148721532 -0.21475519821406103 0.021039901460494951 -0.0027181580334656071 -0.21391838342723113 0.034721498674089357 1.1515937614748173 -0.58398151673610799 0.30027190687651539 -0.52548962356339735 -0.39858710931994557 0.1663770511688078 -0.27392534852262351 -1.5946954976283765 0.099336898902597726 -0.60307623568132107 -0.52447767904999298 2.3069066671124614 0.43460114778678516 -2.6220737034461283 0.22014509878126015 -0.27326083879797014 -0.60696449839523303 0.069213735242699803 -0.25706620696512283 -0.27863958994636806 0.097174905986280355 -0.0059527088012053253 -0.27593616194884674 0.011728796065100064 -0.011689902732958557 -0.21158524932081782 0.0076087173898033572 -0.0035590555343828108 -0.20757290527640421 0.0033721816893737128 -0.0074652424710149323 -0.20744060243607099 0.11256503755000619 0.11254730781063649 -0.22341952341452198 0.12105203631228906 -0.12301458772967591 -0.22515691042308356 0.036665310186425215 0.072645767429552699 -0.30828674823129198 -0.41339413471565745 -1.2886651866751424 -1.7873609316091197 0.0024006491435137889 -0.017963397219605617 -0.20103659294923459 0.050921924715964288 0.050859450435994019 -0.22367594618168646 0.47710885191726804 -0.47357335822713015 -0.78485124924020999 1.1903835912439378 0.017820260864391146 -0.59124037157567466 0.41941640877178799 -0.13912975644035513 -0.67075490580853458 0.1157525043536521 0.22064433824188431 -1.6000862795831921 0.23496591123935906 0.29458886143346286 -1.2173960993193937 0.010611884405999576 -0.096937455555281285 -0.32547170526713365 1.1935746901889295 -0.67418600345006396 -1.9925512744353719 0.1277177707718562 -0.25063952923422683 -1.6336117914835433 0.069512690445433484 0.052564073177542144 -0.25016522498890459 0.47952015188068797 0.43491497273978263 -2.0955406213224861 0.44102296557084686 2.3145015463461478 -2.6190357137429769 0.047279983033042872 -0.1470324439367911 -0.30878098913691254 0.45525649811664087 0.92785246779411368 -1.2437686644169528 0.5599369044246969 -0.55589672592936512 -0.61941288552472273 2.2072272379673223 -0.072257643576293273 -2.3478999205065474 0.046813102499898618 -0.15741427433761604 -0.35130567133478718 0.032435800122007724 -0.2058498860527527 -0.23095051011812806 0.1373819198022031 0.23404003382896077 -1.5638453759259774 0.0036546174987307084 -0.034447445876949645 -0.2240648137968734 0.39218715939418053 -0.01126404559210043 -0.75514929990862478 0.47262148673558618 0.022187421992166056 -0.57832834458225524 0.022103447679986302 -0.013936756227469017 -0.20614295586196141 0.056237605845296003 -0.057134295892962664 -0.2250828465261944 0.040148416751910221 -0.0060310067467877482 -0.22897483006175268 0.26607193286233488 -0.15028633579363762 -0.60145137971910223 0.061797578019312641 -0.047439842328724946 -0.21368201694329739 0.031026970653727351 -0.020585491800035091 -0.22181039617612502 0.97922361925393075 0.4110147344551906 -1.2589052496613975 0.22048406553720334 -0.099440404362219958 -0.35090536590701821 0.2466440369635543 -1.1568997978655264 -1.2724820205725229 0.0080488353322328288 -0.02696899633206614 -0.21592626368458315 0.31649330935864145 -0.58671884709772837 -0.73197861992357849 0.012262080380078325 -0.10184956965266612 -0.27605178882434811 -0.016858322651706545 -0.51180635242949246 -0.60783620977307673 0.1051011354222329 -0.0056983430145830516 -1.2198037485830693 0.53012040696456331 -0.40889287016351406 -0.28910699183201155 0.1179375950478983 0.0027495972275280987 -0.3696882205108023 0.073876161330027126 0.073920031914572554 -0.56286774179750232 0.064832442558231979 -0.10676105611411812 -0.38051560899542669 0.15690937907974079 -1.2208403002426262 -1.0857897945163058 0.47055869997974831 0.42430560486648217 -2.1082860438723636 0.005338309810993383 -0.0054073158844768904 -0.2243199118620528 -0.002192041093227029 -0.0045760905578321187 -0.21761022622548323 0.22390581833743167 0.50123562849827508 -0.44510392684157329 0.50778879639265806 0.1584608545887998 -0.42088001972229216 0.0044145107295450875 0.0018852495562810198 -0.21793892017326488 2.2158333724584711 -0.3653299684480118 -2.6318191627198817 0.19500135270984875 0.33414748224840835 -0.65723485971422868 0.47935065571110513 -0.70950307700959636 -1.2430101730917598 0.49147702675311766 0.10192480965152931 -0.75055121993130591 0.14716709628769495 -0.037269834010733041 -0.31738404794588282 0.056867263001583748 -0.077765711895937256 -0.25297274401879344 0.045637923142772541 -0.21809465907996817 -0.30040903263787355 0.0062020304483969835 -0.068592627401133616 -0.44678986868061543 0.53951532511204259 -0.30019914769421774 -0.70383852527576252 0.47216823878183034 -0.084019853814786771 -1.2421837340322619 1.1782024413851104 -0.18606006919529849 -1.2925770268062511 1.2310419428634027 0.45543630536543539 -1.7870181641043097 0.058435233741918946 0.5114284690138563 -0.75984270124594278 -0.031415345561061181 1.1600850625511909 -1.1895547613007278 0.39194195665925907 0.55220688400867368 -1.8892150608693248 2.3931638457424977 -0.070790125835651696 -2.3026782064420726 0.47968508088646999 -0.058608006974519941 -0.5657530561331372 0.072729366647808186 0.025741912059600192 -0.30979836682632111 0.13738981288819213 0.04198879617178497 -0.31105047618852244 0.46208338831304085 0.43274070383413116 -0.65430589506688808 0.4717989598369951 0.44389294440654598 -0.65578904802000659 0.50457161241285253 0.49956231317304023 -0.74784292344677306 0.51037789347055484 0.50539093696853699 -0.74684614128760107 0.26598500364764599 -0.08522221418950969 -0.43250400376151632 0.09192205167116238 -0.095481344905161553 -0.32836488404762965 0.27014825732436965 0.089511744258765208 -0.40376054291856378 0.12100888743434102 0.10052810378601146 -0.31400753203566217 0.02069477318274629 -0.015265966177981465 -0.24504092329154181 0.13655526549380415 0.24587834827744109 -0.35712351146674132 0.24769109428518421 0.31401729361495584 -0.56066390857668791 0.19883545999340535 0.076604229437552171 -0.38413857518890171 0.15669134259818857 0.19807862107241508 -0.2614729225091057 0.19049418568258758 0.025790820285478529 -0.23473009815567833 0.094819115137358953 0.011675947792800848 -0.27338932962800833 0.71308919800151083 -0.082818490388891136 -0.54767273875501943 0.56668634882729763 0.091190648740103103 -0.79495244950025357 1.1793382312972627 -0.0035451070675061938 -1.0406269914637365 1.1674128025900274 -0.032768795629336711 -1.1737393446257764 
</DataArray>
<DataArray type="Float64" Name="anisotropy" NumberOfComponents="9" format="ascii">