<?xml version="1.0"?>
<VTKFile type="UnstructuredGrid" version="0.1" byte_order="LittleEndian">
<UnstructuredGrid>
<Piece NumberOfPoints="502" NumberOfCells="131">
<Points>
<DataArray type="Float64" NumberOfComponents="3" format="ascii">
0.72106926594561294 0.72137148922016592 -1 0.75000000000034661 1 -1 0.4995456570474846 0.80901946774026934 -1 0.72147817460313113 0.27852182539678161 -1 1 0.24999999999941211 -1 0.80868366410180859 0.49988146068535011 -1 0.72106926594561294 0.72137148922016592 -1 0.80868366410180859 0.49988146068535011 -1 1 0.74999999999934164 -1 0.72147817460313113 0.27852182539678161 -1 0.49924645474497431 0.19077333889470441 -1 0.74999999999934164 0 -1 0.75000000000034661 1 -1 0.50000000000205869 1 -1 0.4995456570474846 0.80901946774026934 -1 1 0.24999999999941211 -1 1 0.49999999999869432 -1 0.80868366410180859 0.49988146068535011 -1 0.24999999999941211 0 -1 0.49999999999869432 0 -1 0.49924645474497431 0.19077333889470441 -1 0.50000000000205869 1 -1 0.25000000000104028 1 -1 0.4995456570474846 0.80901946774026934 -1 1 0.49999999999869432 -1 1 0.74999999999934164 -1 0.80868366410180859 0.49988146068535011 -1 0.49999999999869432 0 -1 0.74999999999934164 0 -1 0.49924645474497431 0.19077333889470441 -1 0.49631982208178133 0.49903983155338327 -1 0.72106926594561294 0.72137148922016592 -1 0.4995456570474846 0.80901946774026934 -1 0.49631982208178133 0.49903983155338327 -1 0.80868366410180859 0.49988146068535011 -1 0.72106926594561294 0.72137148922016592 -1 0.72147817460313113 0.27852182539678161 -1 0.80868366410180859 0.49988146068535011 -1 0.49631982208178133 0.49903983155338327 -1 0.72147817460313113 0.27852182539678161 -1 0.49631982208178133 0.49903983155338327 -1 0.49924645474497431 0.19077333889470441 -1 0.72106926594561294 0.72137148922016592 -1 0.85802543321328628 0.85807580375875903 -1 0.75000000000034661 1 -1 0.72147817460313113 0.27852182539678161 -1 0.85809358465589669 0.14190641534373391 -1 1 0.24999999999941211 -1 0.72106926594561294 0.72137148922016592 -1 1 0.74999999999934164 -1 0.85802543321328628 0.85807580375875903 -1 0.72147817460313113 0.27852182539678161 -1 0.74999999999934164 0 -1 0.85809358465589669 0.14190641534373391 -1 1 1 -1 0.75000000000034661 1 -1 0.85802543321328628 0.85807580375875903 -1 1 1 -1 0.85802543321328628 0.85807580375875903 -1 1 0.74999999999934164 -1 1 0 -1 0.85809358465589669 0.14190641534373391 -1 0.74999999999934164 0 -1 1 0 -1 1 0.24999999999941211 -1 0.85809358465589669 0.14190641534373391 -1 1 0.74999999999934164 -1 0.72106926594561294 0.72137148922016592 -1 0.764412522315979 0.67651247978210449 -0.75231254100799561 0.85802543321328628 0.85807580375875903 -1 0.74999999999934164 0 -1 0.49924645474497431 0.19077333889470441 -1 0.49999999999869432 0 -1 0.50013523499221102 0 -0.80867011855167226 0.764412522315979 0.67651247978210449 -0.41138750314712519 0.764412522315979 0.67651247978210449 -0.75231254100799561 0.42348748445510859 0.33558750152587891 -0.41138750314712519 0.42348748445510859 0.67651247978210449 -0.41138750314712519 0.75000000000034661 1 -1 0.72106926594561294 0.72137148922016592 -1 0.72147817460319108 1 -0.72147817460312469 0.49967339473549249 1 -0.80913800705467398 1 0.49999999999972489 -0.80913800705468164 1 0.24999999999941211 -1 1 0.27852182539678272 -0.72147817460312469 0.764412522315979 0.33558750152587891 -0.75231254100799561 1 0.49999999999972489 -0.80913800705468164 1 0.74999999999934164 -1 0.80868366410180859 0.49988146068535011 -1 0.764412522315979 0.67651247978210449 -0.75231254100799561 0.75000000000034661 1 -1 0.50000000000205869 1 -1 0.4995456570474846 0.80901946774026934 -1 0.49967339473549249 1 -0.80913800705467398 1 1 -1 1 0.74999999999934164 -1 1 0.85809358465601437 -0.85809358465601437 0.85802543321328628 0.85807580375875903 -1 0.72106926594561294 0.72137148922016592 -1 0.75000000000034661 1 -1 0.4995456570474846 0.80901946774026934 -1 0.49967339473549249 1 -0.80913800705467398 1 0.49738970948455541 -0.4998377180089762 1 0.19232253086420811 -0.50146053791859801 0.72305346565390649 0.3029574597295554 -0.36031078036159248 1 0.27852182539678272 -0.72147817460312469 0.764412522315979 0.33558750152587891 -0.75231254100799561 1 0.24999999999941211 -1 1 0.27852182539678272 -0.72147817460312469 1 0.14190641534373399 -0.85809358465589558 0.85809358465601437 0 -0.85809358465601437 1 0 -0.74999999999934164 1 0 -1 1 0.14190641534373399 -0.85809358465589558 0.764412522315979 0.33558750152587891 -0.75231254100799561 1 0.49738970948455541 -0.4998377180089762 0.72305346565390649 0.3029574597295554 -0.36031078036159248 1 0.27852182539678272 -0.72147817460312469 0.72106926594561294 0.72137148922016592 -1 0.764412522315979 0.67651247978210449 -0.75231254100799561 0.72147817460319108 1 -0.72147817460312469 0.49967339473549249 1 -0.80913800705467398 1 0.72147817460311847 -0.72147817460311847 1 0.49999999999972489 -0.80913800705468164 1 0.49738970948455541 -0.4998377180089762 0.764412522315979 0.67651247978210449 -0.75231254100799561 0.49631982208178133 0.49903983155338327 -1 0.764412522315979 0.33558750152587891 -0.75231254100799561 0.72147817460313113 0.27852182539678161 -1 0.80868366410180859 0.49988146068535011 -1 0.49999999999996553 1 -0.50000000000003098 0.80913800705466277 1 -0.49999999999972899 0.72147817460319741 1 -0.27852182539678338 0.764412522315979 0.67651247978210449 -0.41138750314712519 1 0.49738970948455541 -0.4998377180089762 1 0.49999999999972489 -0.80913800705468164 0.764412522315979 0.33558750152587891 -0.75231254100799561 0.764412522315979 0.67651247978210449 -0.75231254100799561 0.80925971854791523 0 -0.49925229508213942 0.72305346565390649 0.3029574597295554 -0.36031078036159248 0.72147817460311847 0 -0.72147817460311858 0.50109540343913672 0 -0.49621010312562502 0.764412522315979 0.67651247978210449 -0.75231254100799561 0.764412522315979 0.33558750152587891 -0.75231254100799561 0.42348748445510859 0.33558750152587891 -0.41138750314712519 0.42348748445510859 0.67651247978210449 -0.75231254100799561 1 0.74999999999934164 -1 1 0.49999999999972489 -0.80913800705468164 0.80868366410180859 0.49988146068535011 -1 1 0.49999999999869432 -1 0.764412522315979 0.33558750152587891 -0.75231254100799561 0.764412522315979 0.67651247978210449 -0.75231254100799561 0.49631982208178133 0.49903983155338327 -1 0.42348748445510859 0.67651247978210449 -0.75231254100799561 0.49999999999996553 1 -0.50000000000003098 0.764412522315979 0.67651247978210449 -0.41138750314712519 0.72147817460319741 1 -0.27852182539678338 0.42348748445510859 0.67651247978210449 -0.41138750314712519 0.49967339473549238 1 -0.19086199294534331 0.49999999999996553 1 -0.50000000000003098 0.72147817460319741 1 -0.27852182539678338 0.42348748445510859 0.67651247978210449 -0.41138750314712519 1 0.24999999999941211 -1 0.764412522315979 0.33558750152587891 -0.75231254100799561 0.85809358465589669 0.14190641534373391 -1 1 0.14190641534373399 -0.85809358465589558 0.764412522315979 0.33558750152587891 -0.75231254100799561 0.764412522315979 0.67651247978210449 -0.75231254100799561 0.42348748445510859 0.33558750152587891 -0.41138750314712519 0.764412522315979 0.67651247978210449 -0.41138750314712519 0.49924645474497431 0.19077333889470441 -1 0.74999999999934164 0 -1 0.72147817460313113 0.27852182539678161 -1 0.50013523499221102 0 -0.80867011855167226 0.764412522315979 0.33558750152587891 -0.75231254100799561 1 0.14190641534373399 -0.85809358465589558 1 0.27852182539678272 -0.72147817460312469 0.72147817460311847 0 -0.72147817460311858 0.36400213509809493 0.30340182266465199 -0.71803582340462213 0.50109540343913672 0 -0.49621010312562502 0.50013523499221102 0 -0.80867011855167226 0.72147817460311847 0 -0.72147817460311858 1 0.49738970948455541 -0.4998377180089762 1 0.19232253086420811 -0.50146053791859801 1 0.27365336566714249 -0.27365336566714249 0.72305346565390649 0.3029574597295554 -0.36031078036159248 0.4995456570474846 0.80901946774026934 -1 0.50000000000205869 1 -1 0.25000000000104028 1 -1 0.49967339473549249 1 -0.80913800705467398 0.49924645474497431 0.19077333889470441 -1 0.36400213509809493 0.30340182266465199 -0.71803582340462213 0.72147817460313113 0.27852182539678161 -1 0.49631982208178133 0.49903983155338327 -1 0.764412522315979 0.33558750152587891 -0.75231254100799561 0.85809358465589669 0.14190641534373391 -1 0.72147817460311847 0 -0.72147817460311858 0.72147817460313113 0.27852182539678161 -1 1 0 -0.74999999999934164 1 0.19232253086420811 -0.50146053791859801 1 0.27852182539678272 -0.72147817460312469 0.72147817460311847 0 -0.72147817460311858 0.85809358465589669 0.14190641534373391 -1 0.74999999999934164 0 -1 0.72147817460311847 0 -0.72147817460311858 0.72147817460313113 0.27852182539678161 -1 0.85809358465601437 0 -0.85809358465601437 0.74999999999934164 0 -1 0.72147817460311847 0 -0.72147817460311858 0.85809358465589669 0.14190641534373391 -1 0.49999999999996553 1 -0.50000000000003098 0.764412522315979 0.67651247978210449 -0.75231254100799561 0.42348748445510859 0.67651247978210449 -0.41138750314712519 0.42348748445510859 0.67651247978210449 -0.75231254100799561 1 0.14190641534373399 -0.85809358465589558 1 0 -0.74999999999934164 1 0.27852182539678272 -0.72147817460312469 0.72147817460311847 0 -0.72147817460311858 0.764412522315979 0.33558750152587891 -0.75231254100799561 0.36400213509809493 0.30340182266465199 -0.71803582340462213 0.42348748445510859 0.33558750152587891 -0.41138750314712519 0.42348748445510859 0.67651247978210449 -0.75231254100799561 0.72147817460313113 0.27852182539678161 -1 0.74999999999934164 0 -1 0.72147817460311847 0 -0.72147817460311858 0.50013523499221102 0 -0.80867011855167226 0.764412522315979 0.67651247978210449 -0.75231254100799561 0.49999999999996553 1 -0.50000000000003098 0.764412522315979 0.67651247978210449 -0.41138750314712519 0.72147817460319108 1 -0.72147817460312469 1 0.24999999999941211 -1 0.85809358465589669 0.14190641534373391 -1 1 0 -1 1 0.14190641534373399 -0.85809358465589558 1 0.24999999999941211 -1 1 0.4999999999997
[...]
<CellData Scalars="pressure_p0,pressure_p1," Vectors="velocity_p0," Tensors="anisotropy,">
<DataArray type="Float64" Name="pressure_p0" format="ascii">
-3.7386699770151228 -3.738657630408734 -3.738660527288463 -3.7386642027127608 -3.7386463426134195 -3.738635712944987 -3.738632367151165 -3.7386467921689701 -3.7386372007048134 -3.7386378129933493 -3.7387308893701929 -3.7387267020233326 -3.738725058180536 -3.7387271855108568 -3.738629498184407 -3.7386225062828444 -3.7386268458692498 -3.7386257770042022 -3.7385793980143927 -3.7385780685902779 -3.7385760134894741 -3.7385740163593053 -1.2716424875066084 -0.7077537109549672 -0.2804554642664609 -0.61204728247506135 -0.31022071854731942 -0.77920338948953816 -0.70004385316197348 -0.56272974717444779 -1.2611178420600906 -0.064777549559580247 -0.27989490391283306 -0.059180955202781889 -0.1735618351461565 -0.642256632005902 -0.17509007065982041 -1.6280604802826735 -0.052044732744127201 -0.34631829658269025 -0.069687420582889792 -0.66200009533661774 -0.72927107061660279 -1.136659318109174 -0.11855741655182264 -0.052911401953824613 -0.68584346711786481 -0.39202137101590767 -1.2489846197914884 -0.32018888533163181 -0.22678011510325982 -0.043774721065986053 -0.69484759041106803 -1.6767729281872796 -0.88317049781559931 -0.067639539250303346 -1.0157051123032332 -0.35299268456497523 -0.38234192790593968 -0.096238072069781841 -0.58956753603637635 -0.58272043262495143 -0.21078815301548692 -0.55423577249580169 -0.78106984628965548 -0.22240116482724748 -0.077557708293124583 -0.099524456685139304 -0.060804821819605719 -0.73546548773122411 -0.45072856806822559 -0.291850217036283 -1.2455193051237901 -1.3309788064833337 -1.3114274271655892 -1.6297439935261071 -0.20183514963185062 -0.78443462348120696 -0.063133803004032735 -0.033687044702711617 -0.5595263606753651 -1.3206813980532799 -0.23119562967574459 -1.1105768763030248 -0.05917340083867878 -0.18043975525227085 -0.44253624385068591 -0.72986986149370736 -0.2841437310115193 -0.033767541754770446 -0.059794918574164073 -0.27262027716800796 -0.38870686928860265 -1.3154783908984353 -0.066809335033695016 -0.34390013217500104 -0.39114127638377238 -0.1713865491396859 -0.54468531777782936 -0.30445690184486562 -0.52062891700433955 -0.24147873598004527 -0.46290298274273944 -0.081046494451464793 -0.087594390418782545 -1.1109033564229105 -0.57441943705890564 -0.13798045442329535 -0.17143311761605806 -0.77713802135354104 -0.66922953988118961 -1.1932854444143066 -0.92550872663492123 -1.7183613746735891 -1.349397600370063 -0.31016277513442336 -0.50567562278592415 -0.35837277579931126 -0.61841289501229435 -0.26728117144699692 -0.12233435773195905 -0.25708604805365592 -0.12025117017300843 -0.60504714957110306 -0.9465636085859126 -0.59992699225902313 -1.1455142407827932 -0.28463844347034994 -0.15683669552273499 -0.43073568690680442 -0.22181391513503784 
</DataArray>
<DataArray type="Float64" Name="pressure_p1" format="ascii">
-1.9154564464858848 -1.8102496757831203 -1.7784709248424582 -1.8195855738586562 -1.9825108730867207 -1.8494278844124681 -1.7970618820494446 -1.968798999556804 -1.8509773028295096 -1.8574547209568408 -2.0567049306054055 -1.9937331943763543 -2.0270613637340582 -1.9749193145767063 -1.6708959217979424 -1.6251375529276955 -1.5968821363835668 -1.6866155001605829 -1.5053009279998748 -1.4312871425854996 -1.4877170631858467 -1.426239115952959 -1.3558102392706952 -1.5371663671805593 -0.26375778709424486 -1.1416215482830165 -0.71291185387372824 -1.1571559397985411 -1.658513578891621 -1.1378312796378778 -1.6082227589409939 -0.10935895150235547 -0.67453574412257711 -0.47225680269104786 -0.26162974825920238 -0.85204315301097411 -0.35342771302197395 -1.6849723658244531 -0.090095494034609813 -0.46665323256295854 -0.13948973407952353 -0.55776344334559513 -1.5016784051100995 -1.0685264913861077 -0.11088884267046331 -0.086000005689290782 -0.98531138013392938 -0.39594045097384356 -1.5087645068569207 -0.36278501020926501 -0.42125101133997583 -0.071572032693849152 -1.6482296737441833 -1.6509174592588511 -1.0717787738063682 -0.14490818178787576 -1.3442655205886243 -0.93458865455649831 -0.42342981321282747 -0.20757195375763032 -0.56934277968889646 -1.1338297575598486 -0.30308591484384984 -1.1447486552015358 -1.1625215820266492 -0.42347106134887952 -0.15663760836928664 -0.24258567667452297 -0.23297882622619182 -1.4918717380000119 -1.0717063773308968 -0.71526158164819242 -1.3835295077196805 -1.4920018306148637 -1.3698335569849049 -1.6534485327652857 -0.24810941844157447 -0.92961558962816948 -0.12126163376299473 -0.11037962364944183 -1.1793983771798269 -1.5223635998612493 -0.261606820841076 -1.0801058277294087 -0.22744708006771963 -0.35224004906029083 -0.42558077946599626 -1.5005163412973186 -0.38342292823771534 -0.081985269374248396 -0.50562307619900659 -0.26062694117770269 -0.81730460561047802 -1.3613551575175009 -0.14674518047204896 -0.39111306032395982 -0.85315541315452847 -0.27019740869673098 -1.2365165227108379 -0.5724948829871499 -0.67356064622061695 -0.44450121525770564 -0.56256655814509737 -0.10257913970338946 -0.12375146426404665 -1.241329390377077 -0.84956589003160043 -0.30244660952159341 -0.26382301134869274 -0.88699565764098565 -0.86639464108000497 -1.3525338427204074 -0.97010849589836612 -1.7345668139885297 -1.3521414671664884 -0.58051116318171347 -0.67429387746598035 -0.86518702966506245 -0.95896974394932954 -0.3105508191593277 -0.15828002240248043 -0.31378735727575313 -0.16733905080118996 -0.78795355564532521 -1.0711343727873457 -1.0775319509173678 -1.360712768059388 -0.30971571298316564 -0.17318318604179525 -0.45660855912260778 -0.32007603218123754 
</DataArray>
<DataArray type="Float64" Name="velocity_p0" NumberOfComponents="3" format="ascii">
-0.0040805858648162805 -0.0053835272963960751 0 -0.0055119773737904183 0.0037822549688453369 0 -0.0055314632086329654 -0.0035677508052567074 0 -0.0038355896489012083 0.0056790851499650746 0 0.0014112287383711611 -0.0011070644065284819 0 -0.0010089511806683595 -0.0011764270828327665 0 -0.00076256973968961657 0.0009565010718753786 0 -0.0015245699265071136 -0.00113560497092741 0 -0.0010122386694066501 0.0014647305152197217 0 0.0019429268311762869 0.0011085040239142267 0 -0.0014371401444400723 -0.0030726945539836332 0 -0.0039415499810089745 -0.0013061233126330149 0 -0.0039352052336036865 0.0016517332738886371 0 -0.0012587103755135394 0.0033429243773470873 0 -0.0048739279783491171 -0.0042111438248261159 0 -0.0046897005391681509 0.0039693192985033182 0 -0.0046774484535228563 -0.0038608541300945037 0 -0.0046349891691793961 0.0041533142667891732 0 -0.004290949542921277 -0.0015028960745460528 0 -0.0014589965747252567 -0.0038874951911078205 0 -0.0043288142760970674 0.001466495263286943 0 -0.0014794935765504837 0.0038071776205445681 0 -0.28066094909939981 -0.074911396665470517 -1.963712385329258 -0.075280307602659885 2.2164355177803099 -2.3486348701865229 -0.14476018400286181 -0.068579682420831248 -0.39144974509149355 -0.19184879815680125 -1.1927750032650075 -1.2838376742243516 -1.2160881773214749 0.16832997188384996 -0.60665578330293646 -0.99050986572670674 0.078284416362992659 -1.0269211590348992 0.014130641106661559 -2.2231207166571028 -2.347804356618397 -2.3261624100232976 -0.49767540807608696 -2.6165879281441056 0.4218171242271993 -1.3267072631964481 -1.7623314835608641 -0.22384106368492551 0.069340938141404643 -0.24112167884872476 -1.125374113632625 0.13331394105827543 -0.72214692916567391 -0.55148962274943836 0.55148962275077473 -0.62840360142690221 -0.18534358971286644 0.033497038261109086 -0.32418464450354867 -0.17316668649349432 -0.52367209543261806 -0.60799565614376982 -0.49913358206035024 0.012286153728751137 -0.48094897880803772 -0.40104864691827624 0.27586145641111814 -1.6011629487813681 -0.017208051777373709 -0.13782649782773615 -0.29758705545384062 -0.47535567724796324 -0.0035480464050344114 -0.72144806943567441 -0.055472541183510221 0.22294595892162358 -0.2436499562440283 0.022947006416355442 0.060513956051551077 -0.80736315902816735 -2.344633018361578 -0.0016332312624291994 -2.3174560755902984 -0.03394670188054294 0.031122117472424049 -0.80736315902817102 -0.053787580783946368 -0.14396578437245811 -0.33750299363675906 0.010143450728432826 -0.11088234343378406 -0.29045948709629604 -0.99245698722574782 0.41785192857509418 -1.2988282935398714 -0.20159304038656733 -0.12541252886832832 -0.58282311193644409 0.34874635454695735 1.3313702935089848 -1.7825217688719766 -0.4977917539045616 0.082374484695214856 -0.53892913465988934 -0.0050906655721655314 0.53066142448445652 -0.65441152102194899 -0.14749304697481455 0.03583158273719627 -0.2800495468006961 0.014234316251130696 -2.1859902712056098 -2.3567711194057184 0.092701248173213069 0.30713384537164357 -1.5533703984025895 -0.20511224852697163 0.25925059544347678 -1.1121013070271557 -0.22632410150360227 0.10873827690635925 -0.32754896507153092 -0.17721237545656801 1.0617252578040179 -1.942475840916426 -0.15573312795451116 1.2051500285073402 -1.0853738702091942 0.049558548203043451 -0.14580679304013636 -0.54583657045294165 -0.47621116134907548 0.36741427165067181 -0.27546993835476946 0.027755131118970683 0.13439322263677295 -0.88605056323247766 -0.24673468426416909 1.107106156354515 -1.3089563041199126 -0.094573231961290943 -0.12539535506667593 -0.41202013557762235 -2.280467402573207 0.44733962062455868 -2.6255504663289395 -0.96178260875037336 -0.08127798047866 -0.99405222809836602 -0.0075985423661381335 0.53702369566744845 -0.53965289207879219 -0.10167381725781724 -0.25254202124470604 -0.26616318800182198 -0.38353423938058412 -0.49527185430405551 -0.28311112377034575 -0.52195100296305907 -0.30264192945364476 -0.40827268305146924 -0.076029721642241505 2.4147176404971833 -2.3008281625400944 0.041320350742676593 1.2006875025247266 -0.99782086172469242 -1.1757776098285559 -0.25295459961551092 -0.62337465483075305 -0.41306903461174616 0.10863564398412207 -2.0002383254313574 -0.4833163962664967 -0.10437535638374151 -1.9201899845327601 -0.44858989508784547 0.0034983623276145237 -1.190446768919428 -0.37783771660327603 -0.28667838381663624 -1.5973505057791033 -0.1627098406874862 0.049206402011521017 -0.31691200295241279 -0.53498870058426418 -0.0028958373353656641 -0.70706413751599795 -0.24595564641482287 -0.068671033679486015 -0.24554379799148468 -0.021856424863593321 0.19148753115734835 -0.24155001207965821 -0.48372264411294902 2.3092372153248428 -2.620049204315035 -0.4842011251605145 0.13354857808799861 -1.9291963091321036 -0.14101328038572872 -0.06857968242083165 -0.35815340459380718 -0.02806010779482393 -0.0015872543820918683 -0.8708536458749172 -0.29640284783582327 0.5099401163450521 -0.40244849637185476 -0.50511820415055497 -0.026086461782932141 -0.50481526329956328 0.064832447786059177 -0.14580679398852331 -0.60104237393118531 -2.3489048681261528 -0.0016358685659309848 -2.3164215489876891 -0.20159303989334382 -0.046977881604527094 -0.42806162241494128 -0.19265335846177539 -0.023695345494493703 -0.23847499670572944 -0.55665704968318874 -0.55665704968210994 -0.62819864886772381 -0.14866257694150004 0.10514052161237145 -0.40520048488276716 -0.46948008168976407 0.46842410711380811 -0.79347865795402717 -0.21730589499271341 0.24271362349698675 -1.2342914887857606 -0.099502273757262408 -0.21526154818200863 -0.3408714632621862 -0.2546460222626058 -0.32789982047133198 -0.57937138886235251 -0.47637777255624136 -0.48058252756710468 -0.78455244828512494 -0.19454308828966704 -0.052338134023874446 -0.31966403973334778 -0.37429480107008389 -2.228696130754388 -2.6353694498639375 -0.090191250625567682 0.58641724535260031 -0.53218296458871628 -0.41777594974709281 0.49411232728397808 -0.58973608900756491 0.031562936622931442 -0.50301473493577697 -0.52403153723179141 -0.0046329141127640361 -0.45912031489420724 -0.790213635784492 -0.19011808480540912 -0.035172146973400514 -0.2611331721159309 -0.042001564462611829 0.1790826151688486 -0.26126092663503708 0.22432450487924904 0.61656690821299087 -1.1161303969309477 -0.025796226826538871 0.73951433636004382 -0.50790387227584866 0.068647050836240425 0.264392913935527 -0.38777385430337696 0.082326529219418201 0.13968253882767664 -0.29700673798448357 -0.12703718109338219 0.37186552700716985 -0.67053007197399572 -0.24199974464792806 0.54224341371435836 -0.74222836246058388 0.058563746007485609 -0.54665826970350961 -1.1265704406882173 -0.31697564263151973 -0.35372403785043305 -0.80872808039333699 0.10964155873030479 -0.27286276783587232 -1.5744257329139264 -0.23806297102648682 -0.27627242593513035 -1.2363744725852868 -0.60489891572630605 -0.097660838976571129 -0.53030586004327307 -0.54407821788324418 -0.3684437359969755 -0.62293063820770878 -1.2350753868810265 -0.16649401889207427 -1.091425573607816 -1.1826230674331424 -0.19836434879772641 -1.1701151796646074 -0.15777914215809735 0.045996736794611665 -0.49927209301793946 -0.22885594014280725 0.11004383507558468 -0.33734365026430335 -0.10649997997060512 -0.035533677295308569 -0.53095663083325839 -0.11735708380835606 -0.19717804982217632 -0.34029367214144723 -0.18763000034979543 -0.45902818210282287 -0.64148258224875365 -0.33505117272030527 -0.29212939806840943 -1.5057687008535492 -0.18171417264711184 -1.1256579345818547 -1.3147512572116349 -0.70625844300404639 -1.1559587954766928 -1.999248211747201 -0.1531301527390507 0.11126512475825626 -0.46654797092680034 -0.0097296345884122226 0.20409572747035196 -0.31297914449669179 0.048639582649829913 0.15550956994302345 -0.66672242553989824 0.037044855046880702 0.24783903132694207 -0.36007432491287317 
</DataArray>
<DataArray type="Float64" Name="anisotropy" NumberOfComponents="9" format="ascii">