<?xml version="1.0"?>
<VTKFile type="UnstructuredGrid" version="0.1" byte_order="LittleEndian">
<UnstructuredGrid>
<Piece NumberOfPoints="486" NumberOfCells="800">
<Points>
<DataArray type="Float64" NumberOfComponents="3" format="ascii">
0.000000000000000e+00 0.000000000000000e+00 0.000000000000000e+00 0.000000000000000e+00 1.000000000000000e+00 0.000000000000000e+00 1.600000000000000e+01 0.000000000000000e+00 0.000000000000000e+00 1.600000000000000e+01 1.000000000000000e+00 0.000000000000000e+00 0.000000000000000e+00 1.999999999995579e-01 0.000000000000000e+00 0.000000000000000e+00 3.999999999989749e-01 0.000000000000000e+00 0.000000000000000e+00 5.999999999989468e-01 0.000000000000000e+00 0.000000000000000e+00 7.999999999994734e-01 0.000000000000000e+00 1.600000000000000e+01 1.999999999995579e-01 0.000000000000000e+00 1.600000000000000e+01 3.999999999989749e-01 0.000000000000000e+00 1.600000000000000e+01 5.999999999989468e-01 0.000000000000000e+00 1.600000000000000e+01 7.999999999994734e-01 0.000000000000000e+00 2.000000000000000e-01 0.000000000000000e+00 0.000000000000000e+00 4.000000000000000e-01 0.000000000000000e+00 0.000000000000000e+00 6.000000000000000e-01 0.000000000000000e+00 0.000000000000000e+00 8.000000000000000e-01 0.000000000000000e+00 0.000000000000000e+00 1.000000000000000e+00 0.000000000000000e+00 0.000000000000000e+00 1.200000000000000e+00 0.000000000000000e+00 0.000000000000000e+00 1.400000000000000e+00 0.000000000000000e+00 0.000000000000000e+00 1.600000000000000e+00 0.000000000000000e+00 0.000000000000000e+00 1.800000000000000e+00 0.000000000000000e+00 0.000000000000000e+00 2.000000000000000e+00 0.000000000000000e+00 0.000000000000000e+00 2.200000000000000e+00 0.000000000000000e+00 0.000000000000000e+00 2.400000000000000e+00 0.000000000000000e+00 0.000000000000000e+00 2.600000000000000e+00 0.000000000000000e+00 0.000000000000000e+00 2.800000000000000e+00 0.000000000000000e+00 0.000000000000000e+00 3.000000000000000e+00 0.000000000000000e+00 0.000000000000000e+00 3.200000000000000e+00 0.000000000000000e+00 0.000000000000000e+00 3.400000000000000e+00 0.000000000000000e+00 0.000000000000000e+00 3.600000000000000e+00 0.000000000000000e+00 0.000000000000000e+00 3.800000000000000e+00 0.000000000000000e+00 0.000000000000000e+00 4.000000000000000e+00 0.000000000000000e+00 0.000000000000000e+00 4.200000000000000e+00 0.000000000000000e+00 0.000000000000000e+00 4.400000000000000e+00 0.000000000000000e+00 0.000000000000000e+00 4.600000000000000e+00 0.000000000000000e+00 0.000000000000000e+00 4.800000000000000e+00 0.000000000000000e+00 0.000000000000000e+00 5.000000000000000e+00 0.000000000000000e+00 0.000000000000000e+00 5.200000000000000e+00 0.000000000000000e+00 0.000000000000000e+00 5.400000000000000e+00 0.000000000000000e+00 0.000000000000000e+00 5.600000000000000e+00 0.000000000000000e+00 0.000000000000000e+00 5.800000000000000e+00 0.000000000000000e+00 0.000000000000000e+00 6.000000000000000e+00 0.000000000000000e+00 0.000000000000000e+00 6.200000000000000e+00 0.000000000000000e+00 0.000000000000000e+00 6.400000000000000e+00 0.000000000000000e+00 0.000000000000000e+00 6.600000000000000e+00 0.000000000000000e+00 0.000000000000000e+00 6.800000000000000e+00 0.000000000000000e+00 0.000000000000000e+00 7.000000000000000e+00 0.000000000000000e+00 0.000000000000000e+00 7.200000000000000e+00 0.000000000000000e+00 0.000000000000000e+00 7.400000000000000e+00 0.000000000000000e+00 0.000000000000000e+00 7.600000000000000e+00 0.000000000000000e+00 0.000000000000000e+00 7.800000000000000e+00 0.000000000000000e+00 0.000000000000000e+00 8.000000000000000e+00 0.000000000000000e+00 0.000000000000000e+00 8.199999999999999e+00 0.000000000000000e+00 0.000000000000000e+00 8.400000000000000e+00 0.000000000000000e+00 0.000000000000000e+00 8.600000000000000e+00 0.000000000000000e+00 0.000000000000000e+00 8.800000000000001e+00 0.000000000000000e+00 0.000000000000000e+00 9.000000000000000e+00 0.000000000000000e+00 0.000000000000000e+00 9.199999999999999e+00 0.000000000000000e+00 0.000000000000000e+00 9.400000000000000e+00 0.000000000000000e+00 0.000000000000000e+00 9.600000000000000e+00 0.000000000000000e+00 0.000000000000000e+00 9.800000000000001e+00 0.000000000000000e+00 0.000000000000000e+00 1.000000000000000e+01 0.000000000000000e+00 0.000000000000000e+00 1.020000000000000e+01 0.000000000000000e+00 0.000000000000000e+00 1.040000000000000e+01 0.000000000000000e+00 0.000000000000000e+00 1.060000000000000e+01 0.000000000000000e+00 0.000000000000000e+00 1.080000000000000e+01 0.000000000000000e+00 0.000000000000000e+00 1.100000000000000e+01 0.000000000000000e+00 0.000000000000000e+00 1.120000000000000e+01 0.000000000000000e+00 0.000000000000000e+00 1.140000000000000e+01 0.000000000000000e+00 0.000000000000000e+00 1.160000000000000e+01 0.000000000000000e+00 0.000000000000000e+00 1.180000000000000e+01 0.000000000000000e+00 0.000000000000000e+00 1.200000000000000e+01 0.000000000000000e+00 0.000000000000000e+00 1.220000000000000e+01 0.000000000000000e+00 0.000000000000000e+00 1.240000000000000e+01 0.000000000000000e+00 0.000000000000000e+00 1.260000000000000e+01 0.000000000000000e+00 0.000000000000000e+00 1.280000000000000e+01 0.000000000000000e+00 0.000000000000000e+00 1.300000000000000e+01 0.000000000000000e+00 0.000000000000000e+00 1.320000000000000e+01 0.000000000000000e+00 0.000000000000000e+00 1.340000000000000e+01 0.000000000000000e+00 0.000000000000000e+00 1.360000000000000e+01 0.000000000000000e+00 0.000000000000000e+00 1.380000000000000e+01 0.000000000000000e+00 0.000000000000000e+00 1.400000000000000e+01 0.000000000000000e+00 0.000000000000000e+00 1.420000000000000e+01 0.000000000000000e+00 0.000000000000000e+00 1.440000000000000e+01 0.000000000000000e+00 0.000000000000000e+00 1.460000000000000e+01 0.000000000000000e+00 0.000000000000000e+00 1.480000000000000e+01 0.000000000000000e+00 0.000000000000000e+00 1.500000000000000e+01 0.000000000000000e+00 0.000000000000000e+00 1.520000000000000e+01 0.000000000000000e+00 0.000000000000000e+00 1.540000000000000e+01 0.000000000000000e+00 0.000000000000000e+00 1.560000000000000e+01 0.000000000000000e+00 0.000000000000000e+00 1.580000000000000e+01 0.000000000000000e+00 0.000000000000000e+00 2.000000000000000e-01 1.000000000000000e+00 0.000000000000000e+00 4.000000000000000e-01 1.000000000000000e+00 0.000000000000000e+00 6.000000000000000e-01 1.000000000000000e+00 0.000000000000000e+00 8.000000000000000e-01 1.000000000000000e+00 0.000000000000000e+00 1.000000000000000e+00 1.000000000000000e+00 0.000000000000000e+00 1.200000000000000e+00 1.000000000000000e+00 0.000000000000000e+00 1.400000000000000e+00 1.000000000000000e+00 0.000000000000000e+00 1.600000000000000e+00 1.000000000000000e+00 0.000000000000000e+00 1.800000000000000e+00 1.000000000000000e+00 0.000000000000000e+00 2.000000000000000e+00 1.000000000000000e+00 0.000000000000000e+00 2.200000000000000e+00 1.000000000000000e+00 0.000000000000000e+00 2.400000000000000e+00 1.000000000000000e+00 0.000000000000000e+00 2.600000000000000e+00 1.000000000000000e+00 0.000000000000000e+00 2.800000000000000e+00 1.000000000000000e+00 0.000000000000000e+00 3.000000000000000e+00 1.000000000000000e+00 0.000000000000000e+00 3.200000000000000e+00 1.000000000000000e+00 0.000000000000000e+00 3.400000000000000e+00 1.000000000000000e+00 0.000000000000000e+00 3.600000000000000e+00 1.000000000000000e+00 0.000000000000000e+00 3.800000000000000e+00 1.000000000000000e+00 0.000000000000000e+00 4.000000000000000e+00 1.000000000000000e+00 0.000000000000000e+00 4.200000000000000e+00 1.000000000000000e+00 0.000000000000000e+00 4.400000000000000e+00 1.000000000000000e+00 0.000000000000000e+00 4.600000000000000e+00 1.000000000000000e+00 0.000000000000000e+00 4.800000000000000e+00 1.000000000000000e+00 0.000000000000000e+00 5.000000000000000e+00 1.000000000000000e+00 0.000000000000000e+00 5.200000000000000e+00 1.000000000000000e+00 0.000000000000000e+00 5.400000000000000e+00 1.000000000000000e+00 0.000000000000000e+00 5.600000000000000e+00 1.000000000000000e+00 0.000000000000000e+00 5.800000000000000e+00 1.000000000000000e+00 0.000000000000000e+00 6.000000000000000e+00 1.000000000000000e+00 0.000000000000000e+00 6.200000000000000e+00 1.000000000000000e+00 0.000000000000000e+00 6.400000000000000e+00 1.000000000000000e+00 0.000000000000000e+00 6.600000000000000e+00 1.000000000000000e+00 0.000000000000000e+00 6.800000000000000e+00 1.000000000000000e+00 0.000000000000000e+00 7.000000000000000e+00 1.000000000000000e+00 0.000000000000000e+00 7.200000000000000e+00 1.000000000000000e+00 0.000000000000000e+00 7.400000000000000e+00 1.000000000000000e+00 0.000000000000000e+00 7.600000000000000e+00 1.000000000000000e+00 0.000000000000000e+00 7.800000000000000e+00 1.000000000000000e+00 0.000000000000000e+00 8.000000000000000e+00 1.000000000000000e+00 0.000000000000000e+00 8.199999999999999e+00 1.000000000000000e+00 0.000000000000000e+00 8.400000000000000e+00 1.000000000000000e+00 0.000000000000000e+00 8.600000000000000e+00 1.000000000000000e+00 0.000000000000000e+00 8.800000000000001e+00 1.000000000000000e+00 0.000000000000000e+00 9.000000000000000e+00 1.000000000000000e+00 0.000000000000000e+00 9.199999999999999e+00 1.000000000000000e+00 0.000000000000000e+00 9.400000000000000e+00 1.000000000000000e+00 0.000000000000000e+00 9.600000000000000e+00 1.000000000000000e+00 0.000000000000000e+00 9.800000000000001e+00 1.000000000000000e+00 0.000000000000000e+00 1.000000000000000e+01 1.000000000000000e+00 0.000000000000000e+00 1.020000000000000e+01 1.000000000000000e+00 0.000000000000000e+00 1.040000000000000e+01 1.000000000000000e+00 0.000000000000000e+00 1.060000000000000e+01 1.000000000000000e+00 0.000000000000000e+00 1.080000000000000e+01 1.000000000000000e+00 0.000000000000000e+00 1.100000000000000e+01 1.000000000000000e+00 0.000000000000000e+00 1.120000000000000e+01 1.000000000000000e+00 0.000000000000000e+00 1.140000000000000e+01 1.000000000000000e+00 0.00000000000000
[...]
<PointData Scalars="pressure_p1," Vectors="" Tensors="">
<DataArray type="Float64" Name="pressure_p1" format="ascii">
-4.149089875501243e-02 -2.785265308695901e-02 -7.712228647671249e+00 -7.709803541437416e+00 -3.691543949691182e-02 -3.687147818928939e-02 -3.683322892766020e-02 -3.677605000824360e-02 -7.711115441106549e+00 -7.710899991591693e+00 -7.710686885735498e+00 -7.710472646535780e+00 -1.180830104222778e-01 -2.181769771386452e-01 -3.182262629777586e-01 -4.182522545832039e-01 -5.182659410352424e-01 -6.182731146826812e-01 -7.182768521261028e-01 -8.182787864708327e-01 -9.182797808251051e-01 -1.018280288543821e+00 -1.118280546062117e+00 -1.218280675776501e+00 -1.318280740608761e+00 -1.418280772705090e+00 -1.518280788392168e+00 -1.618280795909558e+00 -1.718280799385312e+00 -1.818280800871526e+00 -1.918280801381151e+00 -2.018280801411848e+00 -2.118280801207800e+00 -2.218280800889015e+00 -2.318280800514629e+00 -2.418280800113756e+00 -2.518280799700618e+00 -2.618280799282010e+00 -2.718280798861036e+00 -2.818280798438974e+00 -2.918280798016184e+00 -3.018280797592512e+00 -3.118280797167399e+00 -3.218280796739773e+00 -3.318280796307763e+00 -3.418280795868084e+00 -3.518280795415031e+00 -3.618280794938677e+00 -3.718280794421785e+00 -3.818280793834478e+00 -3.918280793125048e+00 -4.018280792204241e+00 -4.118280790918316e+00 -4.218280789003010e+00 -4.318280786005138e+00 -4.418280781149347e+00 -4.518280773112328e+00 -4.618280759641221e+00 -4.718280736910664e+00 -4.818280698442596e+00 -4.918280633297395e+00 -5.018280523054502e+00 -5.118280336789774e+00 -5.218280022750251e+00 -5.318279494606426e+00 -5.418278608840314e+00 -5.518277127710006e+00 -5.618274658862333e+00 -5.718270557342227e+00 -5.818263767403640e+00 -5.918252568561283e+00 -6.018234170366592e+00 -6.118204070001806e+00 -6.218155041057240e+00 -6.318075553972888e+00 -6.417947329419924e+00 -6.517741583558610e+00 -6.617413324314358e+00 -6.716892784740620e+00 -6.816072718459193e+00 -6.914789824650459e+00 -7.012798023157191e+00 -7.109730701347391e+00 -7.205048492840759e+00 -7.297968792497330e+00 -7.387373334527648e+00 -7.471691142614585e+00 -7.548756450987351e+00 -7.615645182882234e+00 -7.668499332168961e+00 -7.702355467168548e+00 -8.196659890180213e-02 -1.818489087480007e-01 -2.817873877343416e-01 -3.817549492124413e-01 -4.817378458106474e-01 -5.817288635913461e-01 -6.817241731242162e-01 -7.817217393546261e-01 -8.817204847894500e-01 -9.817198422594227e-01 -1.081719515223819e+00 -1.181719349721057e+00 -1.281719266373848e+00 -1.381719224540781e+00 -1.481719203555137e+00 -1.581719192977464e+00 -1.681719187567794e+00 -1.781719184711306e+00 -1.881719183110015e+00 -1.981719182122734e+00 -2.081719181434232e+00 -2.181719180890358e+00 -2.281719180416176e+00 -2.381719179975504e+00 -2.481719179550964e+00 -2.581719179134231e+00 -2.681719178721282e+00 -2.781719178310107e+00 -2.881719177899595e+00 -2.981719177488971e+00 -3.081719177077475e+00 -3.181719176664087e+00 -3.281719176247201e+00 -3.381719175824098e+00 -3.481719175390075e+00 -3.581719174936981e+00 -3.681719174450667e+00 -3.781719173906598e+00 -3.881719173262306e+00 -3.981719172444395e+00 -4.081719171326355e+00 -4.181719169690541e+00 -4.281719167163368e+00 -4.381719163105033e+00 -4.481719156422436e+00 -4.581719145252610e+00 -4.681719126428575e+00 -4.781719094580895e+00 -4.881719040631086e+00 -4.981718949273646e+00 -5.081718794782067e+00 -5.181718534048256e+00 -5.281718095073607e+00 -5.381717358014124e+00 -5.481716124091069e+00 -5.581714064821362e+00 -5.681710639494700e+00 -5.781704961705139e+00 -5.881695584644457e+00 -5.981680157719173e+00 -6.081654880847903e+00 -6.181613643206215e+00 -6.281546674147282e+00 -6.381438447257445e+00 -6.481264453114317e+00 -6.580986278715333e+00 -6.680544186147036e+00 -6.779846054395283e+00 -6.878751125242938e+00 -6.977046477809868e+00 -7.074413570763926e+00 -7.170381602507743e+00 -7.264263982600244e+00 -7.355074117540631e+00 -7.441417340971090e+00 -7.521357596461223e+00 -7.592260835254848e+00 -7.650622241514149e+00 -7.691891009863181e+00 -1.001404513327747e-01 -2.002251700548892e-01 -3.002705221472692e-01 -4.002946715280196e-01 -5.003074525454597e-01 -6.003141725837030e-01 -7.003176817610584e-01 -8.003195014697640e-01 -9.003204384986150e-01 -1.000320917686945e+00 -1.100321161081163e+00 -1.200321283849558e+00 -1.300321345292105e+00 -1.400321375745015e+00 -1.500321390636806e+00 -1.600321397767182e+00 -1.700321401052111e+00 -1.800321402442473e+00 -1.900321402902786e+00 -2.000321402907142e+00 -2.100321402687995e+00 -2.200321402359457e+00 -2.300321401977723e+00 -2.400321401570509e+00 -2.500321401151421e+00 -2.600321400727003e+00 -2.700321400300284e+00 -2.800321399872529e+00 -2.900321399444113e+00 -3.000321399014913e+00 -3.100321398584416e+00 -3.200321398151652e+00 -3.300321397714902e+00 -3.400321397271181e+00 -3.500321396815294e+00 -3.600321396338201e+00 -3.700321395824206e+00 -3.800321395246083e+00 -3.900321394556721e+00 -4.000321393674755e+00 -4.100321392459982e+00 -4.200321390671326e+00 -4.300321387895199e+00 -4.400321383423702e+00 -4.500321376048135e+00 -4.600321363709813e+00 -4.700321342911422e+00 -4.800321307727580e+00 -4.900321248146931e+00 -5.000321147303303e+00 -5.100320976867144e+00 -5.200320689402189e+00 -5.300320205736235e+00 -5.400319394175668e+00 -5.500318036438657e+00 -5.600315772067916e+00 -5.700312008158097e+00 -5.800305773500988e+00 -5.900295484219331e+00 -6.000278569411179e+00 -6.100250877030721e+00 -6.200205737569561e+00 -6.300132499625946e+00 -6.400014258429913e+00 -6.499824364485566e+00 -6.599521110779722e+00 -6.699039737839864e+00 -6.798280551217938e+00 -6.897091505876893e+00 -6.995243080136142e+00 -7.092392669047215e+00 -7.188035151555694e+00 -7.281435880097130e+00 -7.371542358953214e+00 -7.456871683053763e+00 -7.535372842707978e+00 -7.604266669270433e+00 -7.659871649605035e+00 -7.697430585209102e+00 -1.000366208915227e-01 -2.000676722742691e-01 -3.000856047435352e-01 -4.000954537845385e-01 -5.001007365934188e-01 -6.001035313830512e-01 -7.001049953431013e-01 -8.001057557681940e-01 -9.001061476803108e-01 -1.000106348155558e+00 -1.100106449945322e+00 -1.200106501213138e+00 -1.300106526772209e+00 -1.400106539323271e+00 -1.500106545333195e+00 -1.600106548077404e+00 -1.700106549203610e+00 -1.800106549533412e+00 -1.900106549472597e+00 -2.000106549220096e+00 -2.100106548873228e+00 -2.200106548479831e+00 -2.300106548063644e+00 -2.400106547636547e+00 -2.500106547204461e+00 -2.600106546770256e+00 -2.700106546335223e+00 -2.800106545899820e+00 -2.900106545464057e+00 -3.000106545027650e+00 -3.100106544590020e+00 -3.200106544150158e+00 -3.300106543706331e+00 -3.400106543255552e+00 -3.500106542792622e+00 -3.600106542308507e+00 -3.700106541787520e+00 -3.800106541202453e+00 -3.900106540506226e+00 -4.000106539617533e+00 -4.100106538396267e+00 -4.200106536601499e+00 -4.300106533819890e+00 -4.400106529343931e+00 -4.500106521965505e+00 -4.600106509626798e+00 -4.700106488831686e+00 -4.800106453656352e+00 -4.900106394091331e+00 -5.000106293272477e+00 -5.100106122871988e+00 -5.200105835454377e+00 -5.300105351846413e+00 -5.400104540350849e+00 -5.500103182679432e+00 -5.600100918366844e+00 -5.700097154501177e+00 -5.800090919873845e+00 -5.900080630617393e+00 -6.000063715848413e+00 -6.100036023535952e+00 -6.199990884158596e+00 -6.299917646250550e+00 -6.399799404936076e+00 -6.499609510650157e+00 -6.599306256490904e+00 -6.698824883380516e+00 -6.798065697404566e+00 -6.896876653674025e+00 -6.995028229640170e+00 -7.092177818528472e+00 -7.187820297898033e+00 -7.281221021228398e+00 -7.371327496597758e+00 -7.456656822745084e+00 -7.535157989805376e+00 -7.604051824499378e+00 -7.659656807756449e+00 -7.697215740187969e+00 -9.994913549469013e-02 -1.999240076697089e-01 -2.999098000416107e-01 -3.999020715090196e-01 -4.998979485412861e-01 -5.998957755850749e-01 -6.998946407291982e-01 -7.998940525494947e-01 -8.998937497655471e-01 -9.998935948533690e-01 -1.099893516023813e+00 -1.199893476069016e+00 -1.299893455835954e+00 -1.399893445537585e+00 -1.499893440212453e+00 -1.599893437364728e+00 -1.699893435746564e+00 -1.799893434736382e+00 -1.899893434025172e+00 -1.999893433459709e+00 -2.099893432964487e+00 -2.199893432502745e+00 -2.299893432056908e+00 -2.399893431618729e+00 -2.499893431184375e+00 -2.599893430752035e+00 -2.699893430320777e+00 -2.799893429890024e+00 -2.899893429459316e+00 -2.999893429028148e+00 -3.099893428595848e+00 -3.199893428161361e+00 -3.299893427722939e+00 -3.399893427277586e+00 -3.499893426820094e+00 -3.599893426341434e+00 -3.699893425825919e+00 -3.799893425246352e+00 -3.899893424555680e+00 -3.999893423672625e+00 -4.099893422457135e+00 -4.199893420668374e+00 -4.299893417893145e+00 -4.399893413424160e+00 -4.499893406053634e+00 -4.599893393724209e+00 -4.699893372940384e+00 -4.799893337779067e+00 -4.899893278231567e+00 -4.999893177434313e+00 -5.099893007059488e+00 -5.199892719670387e+00 -5.299892236090628e+00 -5.399891424617262e+00 -5.499890066953771e+00 -5.599887802625378e+00 -5.699884038712832e+00 -5.799877804007728e+00 -5.899867514655804e+00 -5.999850599800958e+00 -6.099822907443930e+00 -6.199777768074449e+00 -6.299704530184235e+00 -6.399586288787162e+00 -6.499396394187074e+00 -6.599093139461750e+00 -6.698611765778897e+00 -6.797852579735568e+00 -6.896663536880955e+00 -6.994815114448294e+00 -7.091964704516641e+00 -7.187607183200114e+00 -7.281007903509924e+00 -7.371114374761376e+00 -7.456443698078002e+00 -7.534944865625540e+00 -7.603838704515383e+00 -7.659443694482326e+00 -7.697002631482698e+00 -9.984586546719400e-02 -1.997685758235867e-01 -2.997263837987740e-01 -3.997037401033636e-01 -4.996917201238733e-01 -5.996853942871417e-01 -6.996820905536570e-01 -7.996803775045711e-01 -8.996794953238550e-01 -9.996790439776521e-01 -1.099678814466589e+00 -1.199678698396774e+00 -1.299678639949724e+00 -1.399678610581876e+00 -1.499678595798189e+00 -1.599678588287328e+00 -1.699678584384526e+00 -1.799678582263008e+00 -1.899678581016579e+00 -1.999678580197747e+00 -2.099678579586621e+00 -2.199678579075800e+00 -2.299678578613216e+00 -2.399678578173818e+00 -2.499678577745631e+00 -2.599678577322919e+00 -2.699678576902887e+00 -2.799678576484098e+00 -2.899678576065686e+00 -2.999678575646968e+00 -3.099678575227191e+00 -3.199678574805269e+00 -3.299678574379432e+00 -3.399678573946677e+00 -3.499678573501798e+00 -3.599678573035757e+00 -3.699678572532872e+00 -3.799678571965958e+00 -3.899678571287961e+00 -3.999678570417624e+00 -4.099678569214922e+00 -4.199678567439071e+00 -4.299678564676938e+00 -4.399678560221347e+00 -4.499678552864656e+00 -4.599678540549708e+00 -4.699678519781233e+00 -4.799678484636373e+00 -4.899678425106551e+00 -4.999678324328008e+00 -5.099678153972096e+00 -5.199677866600182e+00 -5.299677383032273e+00 -5.399676571559702e+00 -5.499675213878157e+00 -5.599672949504128e+00 -5.699669185511674e+00 -5.799662950692572e+00 -5.899652661205363e+00 -5.999635746222289e+00 -6.099608053782088e+00 -6.199562914401490e+00 -6.299489676554089e+00 -6.399371435161250e+00 -6.499181540374219e+00 -6.598878285153467e+00 -6.698396910744450e+00 -6.797637724118194e+00 -6.896448681354141e+00 -6.994600259951866e+00 -7.091749851576913e+00 -7.187392331260392e+00 -7.280793050822415e+00 -7.370899519143649e+00 -7.456228838467720e+00 -7.534730003702436e+00 -7.603623844612372e+00 -7.659228841076228e+00 -7.696787784337929e+00 
</DataArray>
</PointData>
<CellData Scalars="pressure_p0," Vectors="velocity_p0," Tensors="">
<DataArray type="Float64" Name="pressure_p0" format="ascii">