<?xml version="1.0"?>
<VTKFile type="UnstructuredGrid" version="0.1" byte_order="LittleEndian">
<UnstructuredGrid>
<Piece NumberOfPoints="486" NumberOfCells="800">
<Points>
<DataArray type="Float64" NumberOfComponents="3" format="ascii">
0.000000000000000e+00 0.000000000000000e+00 0.000000000000000e+00 0.000000000000000e+00 1.000000000000000e+00 0.000000000000000e+00 1.600000000000000e+01 0.000000000000000e+00 0.000000000000000e+00 1.600000000000000e+01 1.000000000000000e+00 0.000000000000000e+00 0.000000000000000e+00 1.999999999995579e-01 0.000000000000000e+00 0.000000000000000e+00 3.999999999989749e-01 0.000000000000000e+00 0.000000000000000e+00 5.999999999989468e-01 0.000000000000000e+00 0.000000000000000e+00 7.999999999994734e-01 0.000000000000000e+00 1.600000000000000e+01 1.999999999995579e-01 0.000000000000000e+00 1.600000000000000e+01 3.999999999989749e-01 0.000000000000000e+00 1.600000000000000e+01 5.999999999989468e-01 0.000000000000000e+00 1.600000000000000e+01 7.999999999994734e-01 0.000000000000000e+00 2.000000000000000e-01 0.000000000000000e+00 0.000000000000000e+00 4.000000000000000e-01 0.000000000000000e+00 0.000000000000000e+00 6.000000000000000e-01 0.000000000000000e+00 0.000000000000000e+00 8.000000000000000e-01 0.000000000000000e+00 0.000000000000000e+00 1.000000000000000e+00 0.000000000000000e+00 0.000000000000000e+00 1.200000000000000e+00 0.000000000000000e+00 0.000000000000000e+00 1.400000000000000e+00 0.000000000000000e+00 0.000000000000000e+00 1.600000000000000e+00 0.000000000000000e+00 0.000000000000000e+00 1.800000000000000e+00 0.000000000000000e+00 0.000000000000000e+00 2.000000000000000e+00 0.000000000000000e+00 0.000000000000000e+00 2.200000000000000e+00 0.000000000000000e+00 0.000000000000000e+00 2.400000000000000e+00 0.000000000000000e+00 0.000000000000000e+00 2.600000000000000e+00 0.000000000000000e+00 0.000000000000000e+00 2.800000000000000e+00 0.000000000000000e+00 0.000000000000000e+00 3.000000000000000e+00 0.000000000000000e+00 0.000000000000000e+00 3.200000000000000e+00 0.000000000000000e+00 0.000000000000000e+00 3.400000000000000e+00 0.000000000000000e+00 0.000000000000000e+00 3.600000000000000e+00 0.000000000000000e+00 0.000000000000000e+00 3.800000000000000e+00 0.000000000000000e+00 0.000000000000000e+00 4.000000000000000e+00 0.000000000000000e+00 0.000000000000000e+00 4.200000000000000e+00 0.000000000000000e+00 0.000000000000000e+00 4.400000000000000e+00 0.000000000000000e+00 0.000000000000000e+00 4.600000000000000e+00 0.000000000000000e+00 0.000000000000000e+00 4.800000000000000e+00 0.000000000000000e+00 0.000000000000000e+00 5.000000000000000e+00 0.000000000000000e+00 0.000000000000000e+00 5.200000000000000e+00 0.000000000000000e+00 0.000000000000000e+00 5.400000000000000e+00 0.000000000000000e+00 0.000000000000000e+00 5.600000000000000e+00 0.000000000000000e+00 0.000000000000000e+00 5.800000000000000e+00 0.000000000000000e+00 0.000000000000000e+00 6.000000000000000e+00 0.000000000000000e+00 0.000000000000000e+00 6.200000000000000e+00 0.000000000000000e+00 0.000000000000000e+00 6.400000000000000e+00 0.000000000000000e+00 0.000000000000000e+00 6.600000000000000e+00 0.000000000000000e+00 0.000000000000000e+00 6.800000000000000e+00 0.000000000000000e+00 0.000000000000000e+00 7.000000000000000e+00 0.000000000000000e+00 0.000000000000000e+00 7.200000000000000e+00 0.000000000000000e+00 0.000000000000000e+00 7.400000000000000e+00 0.000000000000000e+00 0.000000000000000e+00 7.600000000000000e+00 0.000000000000000e+00 0.000000000000000e+00 7.800000000000000e+00 0.000000000000000e+00 0.000000000000000e+00 8.000000000000000e+00 0.000000000000000e+00 0.000000000000000e+00 8.199999999999999e+00 0.000000000000000e+00 0.000000000000000e+00 8.400000000000000e+00 0.000000000000000e+00 0.000000000000000e+00 8.600000000000000e+00 0.000000000000000e+00 0.000000000000000e+00 8.800000000000001e+00 0.000000000000000e+00 0.000000000000000e+00 9.000000000000000e+00 0.000000000000000e+00 0.000000000000000e+00 9.199999999999999e+00 0.000000000000000e+00 0.000000000000000e+00 9.400000000000000e+00 0.000000000000000e+00 0.000000000000000e+00 9.600000000000000e+00 0.000000000000000e+00 0.000000000000000e+00 9.800000000000001e+00 0.000000000000000e+00 0.000000000000000e+00 1.000000000000000e+01 0.000000000000000e+00 0.000000000000000e+00 1.020000000000000e+01 0.000000000000000e+00 0.000000000000000e+00 1.040000000000000e+01 0.000000000000000e+00 0.000000000000000e+00 1.060000000000000e+01 0.000000000000000e+00 0.000000000000000e+00 1.080000000000000e+01 0.000000000000000e+00 0.000000000000000e+00 1.100000000000000e+01 0.000000000000000e+00 0.000000000000000e+00 1.120000000000000e+01 0.000000000000000e+00 0.000000000000000e+00 1.140000000000000e+01 0.000000000000000e+00 0.000000000000000e+00 1.160000000000000e+01 0.000000000000000e+00 0.000000000000000e+00 1.180000000000000e+01 0.000000000000000e+00 0.000000000000000e+00 1.200000000000000e+01 0.000000000000000e+00 0.000000000000000e+00 1.220000000000000e+01 0.000000000000000e+00 0.000000000000000e+00 1.240000000000000e+01 0.000000000000000e+00 0.000000000000000e+00 1.260000000000000e+01 0.000000000000000e+00 0.000000000000000e+00 1.280000000000000e+01 0.000000000000000e+00 0.000000000000000e+00 1.300000000000000e+01 0.000000000000000e+00 0.000000000000000e+00 1.320000000000000e+01 0.000000000000000e+00 0.000000000000000e+00 1.340000000000000e+01 0.000000000000000e+00 0.000000000000000e+00 1.360000000000000e+01 0.000000000000000e+00 0.000000000000000e+00 1.380000000000000e+01 0.000000000000000e+00 0.000000000000000e+00 1.400000000000000e+01 0.000000000000000e+00 0.000000000000000e+00 1.420000000000000e+01 0.000000000000000e+00 0.000000000000000e+00 1.440000000000000e+01 0.000000000000000e+00 0.000000000000000e+00 1.460000000000000e+01 0.000000000000000e+00 0.000000000000000e+00 1.480000000000000e+01 0.000000000000000e+00 0.000000000000000e+00 1.500000000000000e+01 0.000000000000000e+00 0.000000000000000e+00 1.520000000000000e+01 0.000000000000000e+00 0.000000000000000e+00 1.540000000000000e+01 0.000000000000000e+00 0.000000000000000e+00 1.560000000000000e+01 0.000000000000000e+00 0.000000000000000e+00 1.580000000000000e+01 0.000000000000000e+00 0.000000000000000e+00 2.000000000000000e-01 1.000000000000000e+00 0.000000000000000e+00 4.000000000000000e-01 1.000000000000000e+00 0.000000000000000e+00 6.000000000000000e-01 1.000000000000000e+00 0.000000000000000e+00 8.000000000000000e-01 1.000000000000000e+00 0.000000000000000e+00 1.000000000000000e+00 1.000000000000000e+00 0.000000000000000e+00 1.200000000000000e+00 1.000000000000000e+00 0.000000000000000e+00 1.400000000000000e+00 1.000000000000000e+00 0.000000000000000e+00 1.600000000000000e+00 1.000000000000000e+00 0.000000000000000e+00 1.800000000000000e+00 1.000000000000000e+00 0.000000000000000e+00 2.000000000000000e+00 1.000000000000000e+00 0.000000000000000e+00 2.200000000000000e+00 1.000000000000000e+00 0.000000000000000e+00 2.400000000000000e+00 1.000000000000000e+00 0.000000000000000e+00 2.600000000000000e+00 1.000000000000000e+00 0.000000000000000e+00 2.800000000000000e+00 1.000000000000000e+00 0.000000000000000e+00 3.000000000000000e+00 1.000000000000000e+00 0.000000000000000e+00 3.200000000000000e+00 1.000000000000000e+00 0.000000000000000e+00 3.400000000000000e+00 1.000000000000000e+00 0.000000000000000e+00 3.600000000000000e+00 1.000000000000000e+00 0.000000000000000e+00 3.800000000000000e+00 1.000000000000000e+00 0.000000000000000e+00 4.000000000000000e+00 1.000000000000000e+00 0.000000000000000e+00 4.200000000000000e+00 1.000000000000000e+00 0.000000000000000e+00 4.400000000000000e+00 1.000000000000000e+00 0.000000000000000e+00 4.600000000000000e+00 1.000000000000000e+00 0.000000000000000e+00 4.800000000000000e+00 1.000000000000000e+00 0.000000000000000e+00 5.000000000000000e+00 1.000000000000000e+00 0.000000000000000e+00 5.200000000000000e+00 1.000000000000000e+00 0.000000000000000e+00 5.400000000000000e+00 1.000000000000000e+00 0.000000000000000e+00 5.600000000000000e+00 1.000000000000000e+00 0.000000000000000e+00 5.800000000000000e+00 1.000000000000000e+00 0.000000000000000e+00 6.000000000000000e+00 1.000000000000000e+00 0.000000000000000e+00 6.200000000000000e+00 1.000000000000000e+00 0.000000000000000e+00 6.400000000000000e+00 1.000000000000000e+00 0.000000000000000e+00 6.600000000000000e+00 1.000000000000000e+00 0.000000000000000e+00 6.800000000000000e+00 1.000000000000000e+00 0.000000000000000e+00 7.000000000000000e+00 1.000000000000000e+00 0.000000000000000e+00 7.200000000000000e+00 1.000000000000000e+00 0.000000000000000e+00 7.400000000000000e+00 1.000000000000000e+00 0.000000000000000e+00 7.600000000000000e+00 1.000000000000000e+00 0.000000000000000e+00 7.800000000000000e+00 1.000000000000000e+00 0.000000000000000e+00 8.000000000000000e+00 1.000000000000000e+00 0.000000000000000e+00 8.199999999999999e+00 1.000000000000000e+00 0.000000000000000e+00 8.400000000000000e+00 1.000000000000000e+00 0.000000000000000e+00 8.600000000000000e+00 1.000000000000000e+00 0.000000000000000e+00 8.800000000000001e+00 1.000000000000000e+00 0.000000000000000e+00 9.000000000000000e+00 1.000000000000000e+00 0.000000000000000e+00 9.199999999999999e+00 1.000000000000000e+00 0.000000000000000e+00 9.400000000000000e+00 1.000000000000000e+00 0.000000000000000e+00 9.600000000000000e+00 1.000000000000000e+00 0.000000000000000e+00 9.800000000000001e+00 1.000000000000000e+00 0.000000000000000e+00 1.000000000000000e+01 1.000000000000000e+00 0.000000000000000e+00 1.020000000000000e+01 1.000000000000000e+00 0.000000000000000e+00 1.040000000000000e+01 1.000000000000000e+00 0.000000000000000e+00 1.060000000000000e+01 1.000000000000000e+00 0.000000000000000e+00 1.080000000000000e+01 1.000000000000000e+00 0.000000000000000e+00 1.100000000000000e+01 1.000000000000000e+00 0.000000000000000e+00 1.120000000000000e+01 1.000000000000000e+00 0.000000000000000e+00 1.140000000000000e+01 1.000000000000000e+00 0.00000000000000
[...]
<PointData Scalars="pressure_p1," Vectors="" Tensors="">
<DataArray type="Float64" Name="pressure_p1" format="ascii">
-1.157968958468178e-01 -7.794897946722985e-02 -2.111642084435750e+01 -2.111279611498056e+01 -1.030875224566565e-01 -1.030429477352287e-01 -1.030040243043883e-01 -1.029463674923756e-01 -2.111452833569300e+01 -2.111430614913175e+01 -2.111408397253965e+01 -2.111386179443693e+01 -3.301654773575461e-01 -6.102621093373418e-01 -8.903136721354664e-01 -1.170341494513863e+00 -1.450356578140286e+00 -1.730364771324309e+00 -2.010369224431509e+00 -2.290371644493607e+00 -2.570372959020939e+00 -2.850373672473864e+00 -3.130374059138377e+00 -3.410374268056199e+00 -3.690374380236138e+00 -3.970374439770557e+00 -4.250374470688986e+00 -4.530374486080680e+00 -4.810374493055654e+00 -5.090374495459887e+00 -5.370374495364665e+00 -5.650374493879276e+00 -5.930374491589052e+00 -6.210374488786916e+00 -6.490374485591704e+00 -6.770374482003017e+00 -7.050374477917948e+00 -7.330374473120062e+00 -7.610374467242526e+00 -7.890374459700280e+00 -8.170374449580020e+00 -8.450374435468786e+00 -8.730374415191202e+00 -9.010374385409897e+00 -9.290374341020899e+00 -9.570374274242624e+00 -9.850374173248262e+00 -1.013037402012042e+01 -1.041037378780404e+01 -1.069037343558451e+01 -1.097037290240504e+01 -1.125037209703202e+01 -1.153037088364494e+01 -1.181036906081776e+01 -1.209036633100438e+01 -1.237036225645390e+01 -1.265035619584166e+01 -1.293034721365804e+01 -1.321033395134906e+01 -1.349031444510138e+01 -1.377028586969852e+01 -1.405024418066357e+01 -1.433018361749826e+01 -1.461009601870482e+01 -1.488996988385862e+01 -1.516978909867248e+01 -1.544953121515563e+01 -1.572916515010022e+01 -1.600864813088472e+01 -1.628792167793961e+01 -1.656690636864182e+01 -1.684549507904471e+01 -1.712354434978728e+01 -1.740086347397346e+01 -1.767720086230710e+01 -1.795222721027961e+01 -1.822551498111126e+01 -1.849651373503463e+01 -1.876452088968073e+01 -1.902864759684229e+01 -1.928777957495707e+01 -1.954053294751580e+01 -1.978520540268858e+01 -2.001972330022880e+01 -2.024158569531856e+01 -2.044780660841900e+01 -2.063485721727464e+01 -2.079860993332418e+01 -2.093428648998293e+01 -2.103641218277956e+01 -2.109877828437195e+01 -2.298851218891141e-01 -5.097646554877806e-01 -7.897007065007303e-01 -1.069666275095215e+00 -1.349647623413410e+00 -1.629637493583852e+00 -1.909631985825821e+00 -2.189628989400944e+00 -2.469627358434580e+00 -2.749626470119221e+00 -3.029625985774851e+00 -3.309625721169085e+00 -3.589625576062204e+00 -3.869625495914734e+00 -4.149625451061955e+00 -4.429625425377041e+00 -4.709625410095716e+00 -4.989625400453358e+00 -5.269625393855446e+00 -5.549625388882923e+00 -5.829625384750428e+00 -6.109625381009071e+00 -6.389625377379995e+00 -6.669625373656342e+00 -6.949625369638473e+00 -7.229625365081373e+00 -7.509625359639277e+00 -7.789625352794471e+00 -8.069625343755670e+00 -8.349625331306672e+00 -8.629625313578023e+00 -8.909625287701260e+00 -9.189625249286317e+00 -9.469625191633488e+00 -9.749625104549251e+00 -1.002962497257316e+01 -1.030962477233261e+01 -1.058962446861203e+01 -1.086962400853500e+01 -1.114962331298939e+01 -1.142962226404350e+01 -1.170962068656120e+01 -1.198961832146593e+01 -1.226961478704718e+01 -1.254960952323984e+01 -1.282960171179837e+01 -1.310959016255197e+01 -1.338957315223311e+01 -1.366954819743141e+01 -1.394951173668374e+01 -1.422945868814339e+01 -1.450938183818067e+01 -1.478927100209354e+01 -1.506911188024493e+01 -1.534888451078258e+01 -1.562856119307431e+01 -1.590810372368720e+01 -1.618745974899120e+01 -1.646655799554141e+01 -1.674530209217220e+01 -1.702356264795880e+01 -1.730116720068490e+01 -1.757788760529049e+01 -1.785342439642019e+01 -1.812738764041971e+01 -1.839927379784598e+01 -1.866843815659413e+01 -1.893406247761040e+01 -1.919511762926539e+01 -1.945032117956814e+01 -1.969809016660839e+01 -1.993648956465591e+01 -2.016317728864092e+01 -2.037534692401078e+01 -2.056966972638209e+01 -2.074223776697735e+01 -2.088851032770133e+01 -2.100326571065355e+01 -2.108056054458177e+01 -2.801427138746930e-01 -5.602296419242894e-01 -8.402769097958994e-01 -1.120302619731204e+00 -1.400316605136502e+00 -1.680324212571810e+00 -1.960328349865090e+00 -2.240330598882004e+00 -2.520331820533503e+00 -2.800332483457591e+00 -3.080332842618822e+00 -3.360333036595600e+00 -3.640333140686469e+00 -3.920333195849725e+00 -4.200333224400231e+00 -4.480333238500056e+00 -4.760333244764092e+00 -5.040333246774977e+00 -5.320333246462771e+00 -5.600333244860064e+00 -5.880333242510584e+00 -6.160333239685907e+00 -6.440333236496119e+00 -6.720333232941020e+00 -7.000333228925473e+00 -7.280333224249097e+00 -7.560333218571835e+00 -7.840333211350925e+00 -8.120333201738561e+00 -8.400333188422444e+00 -8.680333169381216e+00 -8.960333141512296e+00 -9.240333100068533e+00 -9.520333037808713e+00 -9.800332943721672e+00 -1.008033280111688e+01 -1.036033258477806e+01 -1.064033225673646e+01 -1.092033176002005e+01 -1.120033100944802e+01 -1.148032987813265e+01 -1.176032817777588e+01 -1.204032563004189e+01 -1.232032182516462e+01 -1.260031616239860e+01 -1.288030776479425e+01 -1.316029535788734e+01 -1.344027709799456e+01 -1.372025033060337e+01 -1.400021125246857e+01 -1.428015444204024e+01 -1.456007221124098e+01 -1.483995371681316e+01 -1.511978375086181e+01 -1.539954110721791e+01 -1.567919639229937e+01 -1.595870911587214e+01 -1.623802385842028e+01 -1.651706526808664e+01 -1.679573159236743e+01 -1.707388639983597e+01 -1.735134809814015e+01 -1.762787681065772e+01 -1.790315814120439e+01 -1.817678334116979e+01 -1.844822540475543e+01 -1.871681066482412e+01 -1.898168555355045e+01 -1.924177833650951e+01 -1.949575583026990e+01 -1.974197536998844e+01 -1.997843259611578e+01 -2.020270596528746e+01 -2.041189924598451e+01 -2.060258361346198e+01 -2.077074126560919e+01 -2.091171267380608e+01 -2.102014961516045e+01 -2.108997605004306e+01 -2.800373505174018e-01 -5.600692582628466e-01 -8.400879402618063e-01 -1.120098404572974e+00 -1.400104165271244e+00 -1.680107313989582e+00 -1.960109029348361e+00 -2.240109961815280e+00 -2.520110467615418e+00 -2.800110741260941e+00 -3.080110888723672e+00 -3.360110967594473e+00 -3.640111009132191e+00 -3.920111030326780e+00 -4.200111040441108e+00 -4.480111044533866e+00 -4.760111045360961e+00 -5.040111044412932e+00 -5.320111042486858e+00 -5.600111040001284e+00 -5.880111037166389e+00 -6.160111034072089e+00 -6.440111030729420e+00 -6.720111027084251e+00 -7.000111023012217e+00 -7.280111018297192e+00 -7.560111012590725e+00 -7.840111005345602e+00 -8.120110995711682e+00 -8.400110982375439e+00 -8.680110963314876e+00 -8.960110935427089e+00 -9.240110893964728e+00 -9.520110831686525e+00 -9.800110737581276e+00 -1.008011059495846e+01 -1.036011037860184e+01 -1.064011005054274e+01 -1.092010955380927e+01 -1.120010880322081e+01 -1.148010767188997e+01 -1.176010597151917e+01 -1.204010342377337e+01 -1.232009961888771e+01 -1.260009395611846e+01 -1.288008555851857e+01 -1.316007315162726e+01 -1.344005489176569e+01 -1.372002812442662e+01 -1.399998904637042e+01 -1.427993223605178e+01 -1.455985000539500e+01 -1.483973151113887e+01 -1.511956154537734e+01 -1.539931890192251e+01 -1.567897418716918e+01 -1.595848691086485e+01 -1.623780165349308e+01 -1.651684306322502e+01 -1.679550938760900e+01 -1.707366419525826e+01 -1.735112589378002e+01 -1.762765460636738e+01 -1.790293593653794e+01 -1.817656113549525e+01 -1.844800319777146e+01 -1.871658845735682e+01 -1.898146334792522e+01 -1.924155613543464e+01 -1.949553363395901e+01 -1.974175317348751e+01 -1.997821039060038e+01 -2.020248374496074e+01 -2.041167701583565e+01 -2.060236138925003e+01 -2.077051906258339e+01 -2.091149049410024e+01 -2.101992744415412e+01 -2.108975387057644e+01 -2.799480531035139e-01 -5.599221011009172e-01 -8.399071897767937e-01 -1.119898895401244e+00 -1.399894340432744e+00 -1.679891851887405e+00 -1.959890494781923e+00 -2.239889754694401e+00 -2.519889350564985e+00 -2.799889129329749e+00 -3.079889007685678e+00 -3.359888940250970e+00 -3.639888902282734e+00 -3.919888880304992e+00 -4.199888866998394e+00 -4.479888858396634e+00 -4.759888852348582e+00 -5.039888847680995e+00 -5.319888843746842e+00 -5.599888840181984e+00 -5.879888836771996e+00 -6.159888833376065e+00 -6.439888829879718e+00 -6.719888826160587e+00 -6.999888822057309e+00 -7.279888817333815e+00 -7.559888811630969e+00 -7.839888804395870e+00 -8.119888794775379e+00 -8.399888781454395e+00 -8.679888762410085e+00 -8.959888734539090e+00 -9.239888693093853e+00 -9.519888630832966e+00 -9.799888536745167e+00 -1.007988839413993e+01 -1.035988817780100e+01 -1.063988784975976e+01 -1.091988735304437e+01 -1.119988660247433e+01 -1.147988547116244e+01 -1.175988377081143e+01 -1.203988122308668e+01 -1.231987741822405e+01 -1.259987175548082e+01 -1.287986335791132e+01 -1.315985095105665e+01 -1.343983269124006e+01 -1.371980592395653e+01 -1.399976684596793e+01 -1.427971003572863e+01 -1.455962780515896e+01 -1.483950931098798e+01 -1.511933934529258e+01 -1.539909670186051e+01 -1.567875198705909e+01 -1.595826471061497e+01 -1.623757945301269e+01 -1.651662086246143e+01 -1.679528718658660e+01 -1.707344199408865e+01 -1.735090369260124e+01 -1.762743240519164e+01 -1.790271373506447e+01 -1.817633893306348e+01 -1.844778099368787e+01 -1.871636625164907e+01 -1.898124114207213e+01 -1.924133393211507e+01 -1.949531143515867e+01 -1.974153097788304e+01 -1.997798819278858e+01 -2.020226153832973e+01 -2.041145479746212e+01 -2.060213916310082e+01 -2.077029683835421e+01 -2.091126828241059e+01 -2.101970525196426e+01 -2.108953169164768e+01 -2.798433828496077e-01 -5.597639019539935e-01 -8.397198205824657e-01 -1.119695644935472e+00 -1.399682447060214e+00 -1.679675255749293e+00 -1.959671340116092e+00 -2.239669208286376e+00 -2.519668047241467e+00 -2.799667414413641e+00 -3.079667068982590e+00 -3.359666879896949e+00 -3.639666775829674e+00 -3.919666717967253e+00 -4.199666685202289e+00 -4.479666666064575e+00 -4.759666654322076e+00 -5.039666646585367e+00 -5.319666641005624e+00 -5.599666636567420e+00 -5.879666632703160e+00 -6.159666629080266e+00 -6.439666625479986e+00 -6.719666621723250e+00 -6.999666617617941e+00 -7.279666612911382e+00 -7.559666607235530e+00 -7.839666600032756e+00 -8.119666590447421e+00 -8.399666577163091e+00 -8.679666558156244e+00 -8.959666530323162e+00 -9.239666488916088e+00 -9.519666426693517e+00 -9.799666332644120e+00 -1.007966619007733e+01 -1.035966597377691e+01 -1.063966564577423e+01 -1.091966514909750e+01 -1.119966439856624e+01 -1.147966326729333e+01 -1.175966156698166e+01 -1.203965901929684e+01 -1.231965521447504e+01 -1.259964955177402e+01 -1.287964115424870e+01 -1.315962874744090e+01 -1.343961048767456e+01 -1.371958372044499e+01 -1.399954464251343e+01 -1.427948783233168e+01 -1.455940560181423e+01 -1.483928710767934e+01 -1.511911714198694e+01 -1.539887449850201e+01 -1.567852978356660e+01 -1.595804250688826e+01 -1.623735724895240e+01 -1.651639865800480e+01 -1.679506498175074e+01 -1.707321978899597e+01 -1.735068148744606e+01 -1.762721020011199e+01 -1.790249152993604e+01 -1.817611672734028e+01 -1.844755878651523e+01 -1.871614404241981e+01 -1.898101893124707e+01 -1.924111172162467e+01 -1.949508922761450e+01 -1.974130877464849e+01 -1.997776599214316e+01 -2.020203933527391e+01 -2.041123258594960e+01 -2.060191694041606e+01 -2.077007460954426e+01 -2.091104605986428e+01 -2.101948304824981e+01 -2.108930950593813e+01 
</DataArray>
</PointData>
<CellData Scalars="pressure_p0," Vectors="velocity_p0," Tensors="">
<DataArray type="Float64" Name="pressure_p0" format="ascii">