<?xml version="1.0"?>
<VTKFile type="UnstructuredGrid" version="0.1" byte_order="LittleEndian">
<UnstructuredGrid>
<Piece NumberOfPoints="379" NumberOfCells="993">
<Points>
<DataArray type="Float64" NumberOfComponents="3" format="ascii">
-1 -1 -1 -0.87056920111203429 -0.87056920111203429 -0.80227400139066918 -1 -1 -1 -1 -1 -0.59999999999889031 -1 -1 -0.60000000000110965 -1 -0.67107565134893155 -0.67107565134893155 -1 -0.59999999999889031 -1 -0.66583333333275874 -0.66583333333239347 -1 -0.74999999999930522 -0.74999999999930522 -1 -0.72518752622864124 -0.72518752622864124 -0.61273440778575017 -0.66583333333351591 -1 -0.66583333333315065 -0.60000000000110965 -1 -1 -0.37587441770202001 -0.73499906993994391 -1 -0.02065217391320728 -0.59212890624956316 -1 -0.20000000000221921 -1 -1 -0.37403623188481072 -1 -0.73659244791672251 -0.42499999999951449 -1 -0.42500000000048549 -0.1065432793026645 -0.56359737866759718 -0.41177052984314211 -0.1379319433659362 -1 -0.2629046154775449 -0.59212890624997638 -1 -0.020652173912305338 -1 -1 -0.20000000000221921 -1 -1 -0.19999999999778079 -0.78903473570907368 -0.78903473570907368 -0.30841104657717883 -0.73499906994040909 -1 -0.37587441770105179 -0.6057284563230787 -0.60404385510750136 -0.49826740792046331 -0.54197582865243765 -0.54197582865243765 -0.32751722154614588 -1 -0.7376409115196747 -0.37508469548645479 -0.62863062448463713 -0.46745932706119142 -0.11999591144776869 -1 -0.4249999999998787 -0.4249999999998787 -1 -0.23359075167890789 -0.1510583366092684 -0.66729178708414372 -0.067393743342362492 -0.14686617162500909 -0.097546208495605954 -0.097546208495605954 -0.30312311549910897 -0.3016845869899456 -0.3016845869899456 -0.25856690051700398 -0.4241409395822987 -0.23007659441054501 -0.37318077406731692 -0.45288501364069239 -0.45288501364069239 -0.65221290956960065 -0.052524318018002857 -0.052524318018002857 -0.70037747619365109 -0.23617324487685831 -0.23617324487685831 -0.54881343617859102 -0.2499999999979157 -0.2499999999979157 -1 -0.49999999999861039 -0.49999999999861039 -1 -0.42499999999833571 -0.42499999999930649 -1 -0.26331330250934359 -0.13931137698355769 -1 -0.73659244791614409 -0.37403623188284502 -1 -1 -0.38334556505142209 -0.73764091151984079 -1 -0.020652173911629299 -0.59212890625039361 -1 -0.19999999999778079 -1 -1 0.20000000000221921 -1 -0.73499906994048669 0.37587441770272723 -1 -0.59212890624962644 0.020652173914146289 -1 -0.61630006513649305 0.1025803231860405 -0.51651247997689065 -1 0.37508469548854267 -0.73764091152028144 -1 1.169814245471912e-12 -4.9529130796699405e-13 -1 0.15084732221072369 -0.233905914997591 -1 0.42500000000130039 -0.42500000000130039 -1 0.73764091152029565 -0.38334556505367029 -0.54197582865243765 0.54197582865243765 -0.32751722154614588 -1 0.5921289062504641 -0.02065217391400884 -1 1 -0.20000000000221921 -1 1 -0.20000000000221921 -0.59212890624962633 1 -0.020652173914146289 -0.73499906994048669 1 -0.37587441770272711 -0.78903473570907368 0.78903473570907368 -0.30841104657717883 -1 1 -0.60000000000110965 -1 1 -0.60000000000110965 -0.87056920111203429 0.87056920111203429 -0.80227400139066918 -1 1 -1 -1 1 -1 -1 0.60000000000110965 -1 -1 0.67107565134971348 -0.67107565134971348 -0.72518752622864124 0.72518752622864124 -0.61273440778575017 -0.66583333333315087 0.66583333333351613 -1 -0.74999999999930522 0.74999999999930522 -1 -0.59999999999889031 1 -1 -0.66583333333315087 1 -0.66583333333351613 -0.3740362318832598 1 -0.73659244791669909 -0.3740362318832598 0.73659244791669909 -1 -0.19999999999778079 1 -1 -0.13793194336641659 1 -0.2629046154780611 -0.42500000000048571 1 -0.42499999999951471 -0.34439642916552732 0.37484659228014822 -0.37484659228014822 -0.3016845869899456 0.3016845869899456 -0.25856690051700398 -0.32274546535943233 0.064832119391471293 -0.17157441643160551 -0.097546208495605954 0.097546208495605954 -0.30312311549910897 -0.0031680272807140019 0.17180286299957809 -0.33019956224301428 -0.052524318018002857 0.052524318018002857 -0.70037747619365109 -0.23617324487685831 0.23617324487685831 -0.54881343617859102 -0.45288501364069239 0.45288501364069239 -0.65221290956960065 -0.49999999999861039 0.49999999999861039 -1 -0.42500000000048571 0.42499999999951471 -1 -0.13793194336641659 0.26290461547806099 -1 -0.2499999999979157 0.2499999999979157 -1 0.233905914997591 0.15084732221072369 -1 4.9529824686089796e-13 1.169772612108488e-12 -1 0.42500000000130039 0.42500000000130039 -1 2.7563507032368761e-12 2.7563507032368761e-12 -1 0.12306838995414381 0.12306838995414381 -0.75635116117162815 0.250000000002084 0.250000000002084 -1 0.33111616624173268 0.33111616624173268 -0.61869085505177113 0.086750101542148725 0.086750101542148725 -0.46268747461271847 0.24427460243056259 0.24427460243056259 -0.29898399135780362 0.35598805838663411 0.1969293949336679 -0.42564577391111902 0.1591732863256026 0.1591732863256026 -0.049126730232273 0.43990041464967028 0.43990041464967028 -0.20609238795445931 0.07664452935887614 0.57033111645353918 -0.41965559909336753 4.9528436907309015e-13 1 -1.1697795510023921e-12 0.233905914997591 1 -0.15084732221072369 0.42500000000130039 1 -0.42500000000130039 0.020652173914008799 1 -0.59212890625046422 0.20000000000221921 1 -1 0.020652173914008799 0.59212890625046422 -1 0.38334556505367029 0.73764091152029565 -1 0.38334556505367029 1 -0.73764091152029565 0.67107565134971348 1 -0.67107565134971348 0.60000000000110965 1 -1 0.67107565134971348 0.67107565134971348 -1 0.50000000000138978 0.50000000000138978 -1 0.60824703158247673 0.60824703158247673 -0.62001270581499579 1 0.67107565134971348 -0.67107565134971348 1 0.60000000000110965 -1 0.75000000000069478 0.75000000000069478 -1 1 1 -1 1 1 -1 1 1 -0.60000000000110965 0.80740797649646556 0.80740797649646556 -0.71550997062006139 1 1 -0.59999999999889031 0.76561262991287926 0.76561262991287926 -0.33695765083817247 0.73764091152028155 1 -0.37508469548854267 1 1 -0.20000000000221921 1 1 -0.19999999999778079 0.5750563066221559 0.5750563066221559 -0.24174482880806339 1 0.73764091152028155 -0.37508469548854267 1 0.42500000000130039 -0.42500000000130039 1 0.233905914997591 -0.15084732221072369 1 4.9529130796699405e-13 -1.169842001047527e-12 1 0.020652173914008861 -0.5921289062504641 1 0.38334556505367029 -0.73764091152029565 0.73764091152028155 0.37508469548854267 -1 1 0.20000000000221921 -1 1 -0.19999999999778079 -1 0.59212890625039372 -0.020652173911629341 -1 1 -0.37403623188325968 -0.73659244791669887 0.73764091151984079 -0.38334556505142209 -1 1 -0.59999999999889031 -1 1 -0.66583333333315065 -0.66583333333351591 1 -1 -0.60000000000110965 0.80740797649646556 -0.80740797649646556 -0.71550997062006139 1 -1 -0.59999999999889031 1 -1 -1 0.75000000000069478 -0.75000000000069478 -1 1 -1 -1 0.59999999999889031 -1 -1 0.66583333333315065 -1 -0.66583333333351591 0.60824703158247673 -0.60824703158247673 -0.62001270581499579 0.67107565134893155 -0.67107565134893155 -1 0.50000000000138978 -0.50000000000138978 -1 0.37508469548645479 -0.7376409115196747 -1 0.37587441770105179 -1 -0.73499906994040909 0.19999999999778079 -1 -1 0.020652173912305338 -1 -0.59212890624997638 0.2424746255176794 -0.62434461889364923 -0.62506455691200458 0.1510583366092684 -0.233590751678908 -1 0.12306838995414381 -0.12306838995414381 -0.75635116117162815 2.7563507032368761e-12 -2.7563507032368761e-12 -1 0.42499999999987881 -0.42499999999987881 -1 0.250000000002084 -0.250000000002084 -1 0.33111616624173268 -0.33111616624173268 -0.61869085505177113 0.023030738938624059 -0.13766604115259079 -0.53581336968832938 0.086750101542148725 -0.086750101542148725 -0.46268747461271847 0.24427460243056259 -0.24427460243056259 -0.29898399135780362 0.38200389204227903 -0.38200389204227903 -0.32043261020290797 0.43990041464967028 -0.43990041464967028 -0.20609238795445931 0.1591732863256026 -0.1591732863256026 -0.049126730232273 0.11460743731059619 -0.56379530721283155 -0.0059554513121601541 0.26296446179239891 -1 -0.13791421260127909 0.42500000000048549 -1 -0.42499999999951449 0.73659244791672251 -1 -0.37403623188481078 1 -1 -0.19999999999778079 1 -1 -0.20000000000221921 0.76561262991287915 -0.76561262991287915 -0.33695765083817247 1 -0.73499906994048647 -0.37587441770272689 1 -0.59212890624962633 -0.020652173914146209 1 -0.42500000000048549 -0.42499999999951449 1 -0.13793194336641651 -0.26290461547806099 1 -0.42499999999833571 0.42499999999930649 0.50199599098224201 -0.0091286490652600933 0.0036870641011998769 1 -0.26331330250934359 0.13931137698355769 1 -0.73659244791614409 0.37403623188284502 0.82761855768095038 -0.82761855768095038 0.38646657496148279 1 -1 0.19999999999778079 1 -1 0.20000000000221921 0.59212890624997638 -1 0.020652173912305338 0.73499906994040909 -1 0.37587441770105179 0.62553858651804595 -0.62553858651804595 0.40760841637338158 0.73098600441609463 -0.73098600441609463 0.066476502812246346 0.42499999999951449 -1 0.42500000000048549 0.14832498338974781 -1 0.2329085315902007 0 -1 -3.6125020324381658e-18 0.034785793896573949 -0.28906182737547342 0.23153341917593709 0.44558720315667338 -0.44558720315667338 0.16961007844255341 0.42478438566155741 -0.42478438566155741 0.43579910419781198 0.38554272279733381 -0.38603744341816848 0.30779776227163691 0.23593421584241739 -0.23593421584241739 0.36992433811657388 0.018134667170230621 -0.018134667170230621 0.25781250000035277 0.088303644102427054 -0.088303644102427054 0.66008205551131582 0.26187097034773221 -0.1229237036213677 0.59561800481434135 0.36405662571402242 -0.36405662571402242 0.68714198594603926 0.4249999999989425 -0.4249999999989425 1 0.49999999999861039 -0.49999999999861039 1 0.2117584038090447 -0.15936498633379109 1 0.2499999999979157 -0.2499999999979157 1 0.02250272003230407 -0.58951631015320638 1 0.2214026391037191 -0.61854949894649958 0.62457239461934 0.20000000000221921 -1 1 0.37403623188481072 -1 0.73659244791672251 0.38371567427657982 -0.73711839230009446 1 0.74999999999930522 -0.74999999999930522 1 0.67107565134832325 -0.67107565134832325 1 0.57346592365123428 -0.57346592
[...]
<CellData Scalars="pressure_p0,sigma," Vectors="velocity_p0," Tensors="">
<DataArray type="Float64" Name="pressure_p0" format="ascii">
1.0000000000000346 0.9999999999997583 0.99999999999988098 0.99999999999982148 1.0000000000000027 0.99999999999988054 0.99999999999993294 0.99999999999981448 0.99999999999982658 0.99999999999975375 0.99999999999999734 1.0000000000000195 0.99999999999994182 0.99999999999987232 1.0000000000000182 0.99999999999957634 0.99999999999984668 0.99999999999983546 0.99999999999997014 0.9999999999999416 0.9999999999999466 1.0000000000000859 1.0000000000000524 1.0000000000000386 0.99999999999968914 0.99999999999997558 0.99999999999993439 0.99999999999995481 0.99999999999970046 0.99999999999990186 0.99999999999980593 0.99999999999979261 0.99999999999962785 0.99999999999995814 0.99999999999997258 0.99999999999993983 0.99999999999994538 0.99999999999981903 0.99999999999960687 0.99999999999934142 0.99999999999974132 0.99999999999965139 0.99999999999981148 0.99999999999954214 0.99999999999940514 0.99999999999938627 0.99999999999960054 0.99999999999945099 0.9999999999997462 0.9999999999993554 0.99999999999944089 0.99999999999953926 0.99999999999934497 0.99999999999961009 0.99999999999986544 0.99999999999998301 0.99999999999987799 0.99999999999993439 0.9999999999994954 1.0000000000000102 0.99999999999954681 0.99999999999958455 1.0000000000000364 0.99999999999955846 0.99999999999974609 0.99999999999976197 0.99999999999983902 0.99999999999996714 0.9999999999996293 0.999999999999581 0.99999999999994948 0.99999999999990596 0.99999999999979416 0.99999999999947109 0.99999999999975109 0.99999999999969913 0.99999999999982148 0.99999999999991429 0.99999999999991041 0.99999999999972777 0.99999999999994471 0.99999999999993305 0.99999999999992717 0.99999999999989719 0.99999999999960298 0.99999999999967049 0.99999999999971378 0.99999999999944211 1.0000000000002949 0.99999999999993183 1.0000000000009099 0.99999999999934919 0.99999999999994715 0.9999999999998479 1.0000000000000178 1.0000000000000813 1.0000000000006013 1.0000000000000313 1.0000000000001243 0.9999999999999688 0.99999999999992073 1.0000000000000315 1.0000000000003131 1.0000000000004101 0.99999999999948419 0.99999999999990985 0.99999999999978617 1.0000000000000893 1.0000000000000568 1.0000000000001106 1.0000000000001399 1.0000000000001981 1.0000000000001688 1.0000000000000282 1.0000000000000639 1.0000000000001183 1.0000000000000564 1.0000000000001559 0.99999999999987499 1.0000000000000548 0.99999999999994604 0.99999999999960942 0.9999999999996716 1.000000000000044 0.9999999999996132 0.99999999999991285 0.99999999999998268 0.99999999999999045 1.0000000000000133 0.99999999999999967 1.0000000000003788 1.0000000000001139 1.0000000000006208 1.0000000000004072 1.0000000000002154 1.000000000000028 1.0000000000002975 1.0000000000001907 1.0000000000001363 1.00000000000003 1.0000000000002007 1.0000000000001508 1.0000000000000859 1.0000000000000981 1.0000000000000826 0.99999999999978628 0.99999999999986433 1.000000000000062 0.99999999999998546 1.0000000000000513 1.0000000000001741 1.0000000000000679 1.0000000000000688 0.99999999999999578 1.0000000000003388 1.0000000000002458 1.0000000000001816 1.0000000000001998 1.0000000000002487 1.0000000000004499 1.0000000000004365 1.0000000000001432 1.0000000000002198 0.99999999999995759 1.0000000000001674 1.0000000000000868 1.0000000000001101 1.0000000000000471 1.0000000000000877 1.0000000000000866 1.0000000000002121 1.0000000000000335 1.0000000000000204 0.99999999999998113 1.0000000000003082 1.0000000000003912 1.0000000000003115 1.0000000000002791 1.0000000000001181 0.99999999999999267 1.0000000000000666 1.0000000000000544 1.0000000000000382 1.0000000000000018 0.99999999999998446 1.0000000000000713 1.0000000000001421 1.0000000000000808 1.0000000000000673 0.99999999999981748 0.99999999999999944 0.99999999999985567 1.000000000000044 1.0000000000000586 1.0000000000000289 1.0000000000003773 1.0000000000001117 1.0000000000003355 1.000000000000177 1.0000000000002647 1.0000000000003886 1.000000000000387 1.0000000000001812 1.0000000000002651 1.0000000000000235 1.000000000000105 1.0000000000000466 1.0000000000002296 1.0000000000003684 1.0000000000000846 1.0000000000002494 1.0000000000000573 1.0000000000002101 0.99999999999993738 1.0000000000002456 1.0000000000001281 1.0000000000002116 1.0000000000001295 1.0000000000000835 1.0000000000001807 1.0000000000002556 1.0000000000011202 1.0000000000004268 1.0000000000000671 1.000000000000298 1.0000000000000155 0.99999999999997857 0.99999999999980216 0.99999999999986033 1.0000000000000555 1.0000000000001428 0.99999999999996059 0.9999999999997301 1.0000000000002689 1.0000000000000742 0.99999999999963607 0.99999999999992273 0.99999999999989986 0.99999999999973355 1.000000000000532 0.99999999999985945 1.0000000000009401 1.0000000000004121 1.0000000000004783 1.000000000000598 1.0000000000010121 1.0000000000008942 0.99999999999982969 0.99999999999978995 1.0000000000001972 1.00000000000031 0.99999999999987288 0.99999999999994915 1.0000000000003189 1.000000000000548 1.0000000000003504 1.0000000000002838 1.0000000000002536 1.000000000000461 1.0000000000002469 1.0000000000001874 1.0000000000004428 1.0000000000001321 1.0000000000000013 1.000000000000286 0.99999999999999933 1.0000000000000178 0.99999999999999067 0.99999999999997069 1.0000000000000524 1.000000000000026 1.0000000000001259 1.0000000000000884 1.0000000000001457 1.0000000000000182 1.0000000000000928 1.0000000000000586 1.0000000000001088 0.99999999999990408 1.0000000000000135 0.99999999999997846 0.99999999999990474 1.0000000000000375 1.0000000000001257 0.99999999999996925 1.0000000000000049 1.0000000000000597 0.99999999999999911 0.99999999999990963 0.9999999999999607 0.99999999999994627 0.99999999999991229 1.0000000000000138 0.99999999999995459 1.000000000000036 1.0000000000000138 1.0000000000002389 1.0000000000000751 1.0000000000001568 1.0000000000002831 1.0000000000000639 1.0000000000001483 1.0000000000001128 1.00000000000004 1.0000000000001603 1.0000000000000657 1.0000000000001421 1.0000000000001554 1.0000000000001974 1.0000000000001172 1.0000000000001519 1.0000000000001485 1.0000000000001175 1.0000000000000751 1.0000000000000524 1.0000000000000182 1.0000000000000477 0.99999999999999334 1.0000000000001181 1.0000000000000497 1.0000000000000666 1.000000000000034 1.0000000000000289 0.99999999999999578 1.0000000000000182 1.00000000000003 1.0000000000000184 1.0000000000000142 0.99999999999998346 1 0.99999999999997513 1.0000000000000275 1.0000000000000833 1.0000000000000655 0.99999999999998679 0.99999999999996536 0.99999999999991718 0.99999999999999012 1.0000000000000269 0.99999999999984046 0.99999999999989331 1.0000000000000746 1.0000000000000375 1.0000000000000941 1.0000000000001157 1.0000000000001255 1.0000000000001128 1.0000000000001574 1.0000000000001361 1.0000000000001432 1.0000000000001625 1.0000000000000564 1.000000000000119 1.0000000000001212 1.0000000000001603 1.000000000000195 1.0000000000002278 1.0000000000002194 1.0000000000002427 1.0000000000001874 1.0000000000000215 1.0000000000000335 1.0000000000000164 1.0000000000000235 1.0000000000000038 1.0000000000000429 1.0000000000001057 1.0000000000000164 1.000000000000083 1.0000000000002873 0.99999999999994049 0.99999999999999512 1.0000000000000835 0.999999999999997 0.99999999999990552 0.99999999999997646 0.99999999999999312 0.99999999999999489 1.0000000000000064 1.0000000000000067 0.99999999999997669 0.99999999999988753 0.99999999999998901 0.99999999999996492 0.99999999999998379 0.99999999999997391 0.99999999999996514 0.99999999999998979 0.99999999999999367 0.9999999999999909 1.0000000000000022 1.0000000000000036 1.000000000000008 0.99999999999995581 0.99999999999993661 1.0000000000000069 0.99999999999998557 1.0000000000000517 1.0000000000000369 0.9999999999997824 1.0000000000000173 0.99999999999995359 0.99999999999990785 0.99999999999999456 0.99999999999998856 1.0000000000000004 0.99999999999994971 0.99999999999990641 0.99999999999993405 0.99999999999997113 1.0000000000002844 1.0000000000000528 1.0000000000002061 1.0000000000002547 0.99999999999991418 1.0000000000002438 1.0000000000001916 1.000000000000113 1.0000000000002884 1.0000000000002174 1.0000000000000113 1.0000000000002289 0.99999999999997236 0.99999999999998712 0.99999999999996181 0.99999999999993994 1.0000000000000269 1.0000000000000786 0.99999999999962297 0.99999999999977762 0.99999999999988998 1.0000000000001987 0.99999999999978839 0.99999999999999301 1.0000000000000715 0.99999999999973055 0.99999999999965183 0.99999999999993783 0.99999999999973821 0.99999999999993405 0.99999999999988609 0.99999999999993983 0.99999999999980038 0.99999999999984923 0.99999999999991795 0.99999999999981748 0.99999999999991573 0.99999999999973199 0.99999999999980527 0.99999999999955436 0.99999999999981803 0.99999999999961731 0.99999999999969091 0.99999999999939149 0.99999999999964229 0.99999999999970657 0.99999999999986855 0.99999999999938627 0.99999999999972022 0.99999999999986411 0.99999999999982236 0.99999999999979072 0.99999999999983258 0.99999999999976785 0.99999999999979217 0.99999999999980349 0.99999999999986622 0.99999999999985456 0.99999999999977129 0.99999999999997979 0.99999999999998612 0.99999999999994382 0.99999999999997091 1.00000000000002 0.99999999999996725 0.99999999999989719 1.0000000000001781 0.99999999999996492 1.0000000000000466 1.0000000000000222 1.000000000000242 1.0000000000000557 0.99999999999987321 0.9999999999999909 0.99999999999995648 0.99999999999993316 0.99999999999992917 0.9999999999998771 0.9999999999999144 0.99999999999995448 0.99999999999994937 0.99999999999986289 0.9999999999998811 0.99999999999988609 0.99999999999986866 0.99999999999986489 0.99999999999987343 0.99999999999993505 0.99999999999999234 1.0000000000000457 1.0000000000000746 1.0000000000000084 0.99999999999996514 0.99999999999995937 1.0000000000001905 1.0000000000003029 1.0000000000002005 0.99999999999989986 0.99999999999963163 0.99999999999976263 0.99999999999982836 0.99999999999973133 0.99999999999975442 0.99999999999971012 0.99999999999969846 0.9999999999997462 0.99999999999971423 0.99999999999990163 0.99999999999975797 0.99999999999979017 0.99999999999970335 0.99999999999991929 1.0000000000000173 0.99999999999976097 0.99999999999968359 0.99999999999939471 0.99999999999990596 1.0000000000003793 1.0000000000002709 1.0000000000004194 1.0000000000001614 0.99999999999999445 0.9999999999998922 0.99999999999998201 1.0000000000000038 0.99999999999991129 0.99999999999995826 0.99999999999987432 0.99999999999992339 1.0000000000003315 1.0000000000005724 1.0000000000004099 0.99999999999994593 1.0000000000002212 1.0000000000000071 1.0000000000000302 1.0000000000000513 1.0000000000002429 1.0000000000003708 1.0000000000000413 1.000000000000034 0.99999999999995814 1.0000000000000115 0.99999999999976075 1.0000000000000289 0.99999999999992717 0.99999999999994538 0.99999999999991762 0.99999999999986944 0.99999999999998512 0.99999999999997335 0.99999999999997435 0.99999999999997347 1.0000000000000331 1.0000000000000249 0.99999999999994671 1.0000000000000573 1.0000000000000424 1.0000000000000335 0.99999999999990907 0.99999999999976819 0.9999999999999023 1.0000000000002589 1.0000000000001894 0.99999999999995515 0.99999999999999489 0.99999999999997724 1.0000000000006517 1.0000000000004992 1.0000000000001377 1.0000000000001774 1.0000000000000908 1.0000000000000702 1.0000000000001652 1.0000000000000595 1.0000000000000888 1.0000000000001552 1.0000000000000231 1.0000000000000859 1.0000000000000102 1.0000000000000653 1.0000000000000466 1 1.0000000000000213 0.99999999999995748 0.99999999999985612 0.99999999999986267 0.99999999999991218 0.9999999999999859 0.99999999999981326 1.0000000000000229 0.999999999999996 0.99999999999999023 1 0.99999999999998523 0.99999999999998446 0.99999999999994615 0.99999999999998457 0.99999999999997902 0.99999999999997979 0.99999999999998368 1 1.0000000000000375 1.0000000000000031 1.0000000000000002 1.0000000000000409 0.99999999999998657 0.99999999999989364 0.99999999999993849 0.99999999999986922 1.0000000000000584 0.99999999999989386 1.0000000000000218 0.99999999999989986 0.99999999999986677 1.0000000000000293 0.99999999999997768 1.0000000000000429 0.99999999999990485 0.9999999999998691 0.99999999999991207 0.99999999999994627 0.99999999999996114 0.99999999999986577 0.99999999999977662 1.000000000000036 0.99999999999977263 0.99999999999995826 0.99999999999987765 0.99999999999992761 1.0000000000000031 0.99999999999999267 0.99999999999998213 0.99999999999996558 0.99999999999997502 0.99999999999999134 0.99999999999996303 1.0000000000000098 0.99999999999999689 1.0000000000000253 1.0000000000000002 1.0000000000000147 1.000000000000004 0.99999999999998757 1.0000000000000511 1.0000000000000562 1.0000000000000271 1.0000000000000042 1.000000000000079 0.99999999999998823 0.99999999999999811 1.0000000000000784 1.0000000000000733 1.0000000000000218 1.0000000000000593 0.99999999999996247 1.000000000000002 0.99999999999994027 1 1.0000000000000302 1.0000000000000844 1.0000000000000211 1.000000000000028 1.0000000000000364 1.0000000000000608 1.0000000000000306 1.0000000000000575 1.000000000000028 1.0000000000000151 0.99999999999996936 0.99999999999999023 0.99999999999997635 0.99999999999996336 0.99999999999997602 0.99999999999992517 0.99999999999994782 0.9999999999998046 0.9999999999998429 0.99999999999995348 0.99999999999992339 0.99999999999989742 0.99999999999991895 0.99999999999994116 0.99999999999992428 0.99999999999993239 0.9999999999999003 1.0000000000000133 1.0000000000000404 1.000000000000026 1.0000000000000759 1.0000000000000879 1.000000000000119 0.99999999999992106 1.0000000000000757 1.0000000000000044 0.99999999999992983 0.99999999999988276 0.99999999999975109 0.99999999999975309 0.99999999999982214 1.0000000000001861 1.0000000000000262 1.0000000000000213 1.0000000000000679 1.0000000000000941 1.0000000000000442 1.0000000000000737 1.0000000000000437 0.99999999999999689 1.0000000000000278 1.0000000000000098 0.99999999999994404 1.0000000000001428 0.99999999999999678 1.0000000000000449 0.99999999999999867 1.0000000000000429 1.0000000000000377 1.0000000000000993 1.000000000000016 1.0000000000000231 1.000000000000137 1.0000000000001754 1.0000000000000719 1.0000000000002065 1.0000000000000746 1.0000000000001661 1.0000000000001605 1.0000000000001545 1.0000000000001248 1.0000000000000902 1.0000000000001927 1.0000000000000895 1.0000000000002829 1.0000000000000981 1.0000000000000919 1.0000000000001481 1.0000000000000191 1.0000000000000537 1.0000000000002827 1.0000000000003366 1.0000000000003824 1.0000000000000475 1.0000000000000655 1.0000000000000238 1.0000000000001317 1.0000000000000244 1.0000000000001206 1.0000000000000702 1.0000000000000131 1.0000000000000551 1.0000000000002913 1.0000000000000502 0.99999999999973799 1.0000000000000169 1.0000000000002705 0.99999999999998412 1.0000000000000184 1.0000000000003237 1.0000000000002804 0.99999999999992673 0.99999999999998468 0.99999999999998934 0.99999999999998235 0.9999999999999909 0.99999999999994504 0.99999999999992606 1.0000000000000897 0.99999999999997247 1.0000000000000451 1.0000000000000051 1.0000000000000075 1.0000000000001437 1.0000000000000113 1.0000000000000968 1.0000000000000409 1.0000000000000793 1.0000000000000879 0.99999999999998002 0.99999999999998701 0.99999999999999378 1.0000000000000073 1.0000000000000575 1.0000000000000271 1.0000000000000036 1.0000000000000322 1.0000000000000315 0.99999999999999278 0.99999999999997458 1.0000000000000402 1.0000000000000435 1.0000000000000528 1.0000000000000573 1.0000000000000906 1.0000000000000657 1.0000000000001892 1.0000000000000795 0.99999999999999745 1.0000000000000238 1.000000000000028 1.0000000000000782 1.00000000000002 1.0000000000000484 1.000000000000012 1.0000000000001217 1.0000000000000144 1.000000000000016 1.0000000000001017 1.0000000000000273 1.0000000000001648 1.0000000000001079 1.0000000000000466 1.0000000000001099 1.0000000000000782 1.0000000000000364 1.0000000000001144 0.99999999999999634 1.0000000000000318 0.99999999999997224 1.0000000000000417 1.000000000000014 1.000000000000054 1.0000000000000402 1.0000000000001705 1.0000000000003391 1.0000000000003832 1.0000000000004567 1.0000000000002958 1.000000000000026 1.0000000000000777 1.0000000000000266 0.99999999999992306 1.0000000000000548 0.99999999999995048 1.0000000000000517 0.99999999999991207 1.0000000000000437 0.99999999999987788 1.0000000000000668 0.99999999999993694 1.0000000000000129 1.0000000000000289 0.99999999999997446 1.0000000000001472 1.0000000000000417 0.99999999999994726 1.000000000000103 1.0000000000000115 0.99999999999997424 1.0000000000000031 1.0000000000000018 1.000000000000006 1.0000000000000044 0.99999999999999722 0.99999999999993006 0.99999999999994438 0.99999999999998967 0.99999999999995359 0.9999999999999557 0.99999999999997757 0.99999999999998357 0.9999999999999778 0.99999999999998268 0.9999999999999476 0.99999999999995215 0.99999999999999722 0.99999999999984035 0.99999999999988276 1.0000000000000642 0.99999999999998634 1.0000000000000122 0.99999999999996814 0.99999999999989186 0.99999999999998967 0.9999999999998449 1.0000000000000411 1.0000000000000395 1.0000000000000209 0.99999999999991995 1.00000000000004 1.0000000000000369 1.0000000000000169 1.0000000000000677 1.0000000000000817 1.0000000000000486 0.99999999999989664 0.99999999999982958 0.99999999999990818 0.99999999999972289 0.9999999999997804 1.0000000000001517 1.0000000000000997 1.0000000000000795 0.99999999999998523 0.99999999999974265 1.0000000000000728 1.0000000000000333 0.99999999999977374 0.99999999999974143 1.0000000000000544 1.0000000000000799 1.0000000000000488 1.0000000000001095 0.99999999999998912 0.99999999999992362 0.9999999999997693 0.99999999999986811 0.9999999999998439 0.9999999999998016 0.99999999999976652 0.9999999999997875 0.99999999999983769 0.99999999999982481 0.99999999999970257 0.99999999999976152 0.99999999999996669 0.99999999999993516 0.99999999999976519 0.9999999999997804 0.9999999999996082 0.99999999999964995 0.99999999999956479 0.99999999999971867 0.99999999999965206 0.9999999999997804 0.99999999999973044 0.99999999999962474 0.99999999999981393 0.99999999999979505 0.99999999999970601 0.99999999999992806 0.9999999999999416 0.99999999999996392 0.99999999999999512 0.99999999999995537 0.99999999999991829 0.99999999999988853 0.99999999999988431 0.99999999999990519 0.99999999999964184 0.99999999999950595 0.9999999999996636 0.99999999999956934 0.99999999999955858 0.99999999999962785 0.99999999999976286 0.99999999999980482 0.99999999999981715 0.99999999999964162 0.99999999999990918 0.99999999999985389 0.9999999999998479 0.9999999999999245 0.9999999999999204 0.99999999999991473 0.99999999999996969 0.99999999999991829 0.99999999999993539 0.99999999999997069 0.99999999999993494 0.999999999999994 1.0000000000000067 0.99999999999980949 1.0000000000000491 0.99999999999975986 1.00000000000004 0.9999999999997764 1 1.0000000000000497 1.0000000000000806 1.0000000000000424 1.0000000000000204 1.0000000000000457 1.0000000000000322 1.0000000000000668 1.0000000000000011 0.99999999999993916 0.99999999999996092 1.0000000000001092 0.99999999999998501 1.0000000000000184 1.0000000000001295 1.0000000000000466 
</DataArray>
<DataArray type="Float64" Name="velocity_p0" NumberOfComponents="3" format="ascii">