<?xml version="1.0"?>
<VTKFile type="UnstructuredGrid" version="0.1" byte_order="LittleEndian">
<UnstructuredGrid>
<Piece NumberOfPoints="21" NumberOfCells="28">
<Points>
<DataArray type="Float64" NumberOfComponents="3" format="ascii">
0 0 0 0 1 0 1 1 0 1 0 0 0.33333333333250248 0 0 0.66666666666578889 0 0 1 0.33333333333250248 0 1 0.66666666666578889 0 0.66666666666759111 1 0 0.33333333333472032 1 0 0 0.66666666666759111 0 0 0.33333333333472032 0 0.50000000000004996 0.49999999999997519 0 0.29166666666684449 0.7083333333334445 0 0.29166666666652658 0.2916666666668038 0 0.70833333333346027 0.70833333333323512 0 0.70833333333327586 0.2916666666665107 0 0.49999999999981742 0.1726190476194705 0 0.17261904761971569 0.50000000000021494 0 0.82738095238054699 0.49999999999982031 0 0.50000000000021227 0.82738095238030207 0 
</DataArray>
</Points>
<Cells>
<DataArray type="UInt32" Name="connectivity" format="ascii">
1 13 9 0 14 11 1 10 13 0 4 14 2 8 15 2 15 7 3 6 16 3 16 5 12 14 17 12 13 18 12 18 14 12 20 13 12 17 16 12 19 15 12 16 19 12 15 20 4 5 17 6 7 19 10 11 18 8 9 20 10 18 13 8 20 15 4 17 14 6 19 16 11 14 18 9 13 20 5 16 17 7 15 19 
</DataArray>
<DataArray type="UInt32" Name="offsets" format="ascii">
3 6 9 12 15 18 21 24 27 30 33 36 39 42 45 48 51 54 57 60 63 66 69 72 75 78 81 84 
</DataArray>
<DataArray type="UInt32" Name="types" format="ascii">
5 5 5 5 5 5 5 5 5 5 5 5 5 5 5 5 5 5 5 5 5 5 5 5 5 5 5 5 
</DataArray>
</Cells>
<CellData Scalars="pressure_p0," Vectors="velocity_p0," Tensors="">
<DataArray type="Float64" Name="pressure_p0" format="ascii">
0.4166666666660383 0.19444444444505718 0.19444444444144274 0.41666666666756091 1.583333333333651 1.8055555555550069 1.8055555555536751 1.5833333333320647 0.86111111111138849 0.64285714285633877 0.64285714285781403 0.86111111111418026 1.1388888888870392 1.3571428571370863 1.3571428571354511 1.1388888888966888 1.0000000000031009 1.8849206349260612 0.11507936507491393 0.99999999999652034 0.30952380951513625 1.2500000000029861 0.7500000000044551 1.6904761904736239 0.30952380952539776 0.74999999999847922 1.2500000000014393 1.690476190477634 
</DataArray>
<DataArray type="Float64" Name="velocity_p0" NumberOfComponents="3" format="ascii">
-1.1999999999989067e-14 -7.612547178428025e-26 0 -1.2000000000041542e-14 -4.741054040378281e-27 0 -1.1999999999884763e-14 -1.8042649130511307e-25 0 -1.2000000000108001e-14 -7.1195091126648926e-26 0 -1.1999999999928926e-14 5.7617611656437481e-26 0 -1.1999999999929475e-14 5.7088680419486793e-26 0 -1.1999999999968541e-14 2.5847421990019062e-26 0 -1.1999999999909596e-14 -3.3162923594586115e-26 0 -1.1999999999897731e-14 1.0155795293815306e-25 0 -1.200000000024472e-14 4.0168797293853921e-27 0 -1.1999999999925848e-14 7.3435061667023989e-26 0 -1.20000000002751e-14 3.4389602302204789e-26 0 -1.1999999999897761e-14 1.761210856996431e-25 0 -1.1999999999447806e-14 -3.7076383659297033e-25 0 -1.1999999999858677e-14 1.5205648935542352e-25 0 -1.2000000000052033e-14 -3.6024043211732203e-25 0 -1.1999999999853716e-14 -5.6806347101508193e-25 0 -1.1999999999179407e-14 -4.3321164357207606e-25 0 -1.1999999999489409e-14 5.8421618691038736e-25 0 -1.1999999999935966e-14 -4.2500946231004059e-25 0 -1.2000000000391467e-14 -2.5280940973979854e-25 0 -1.2000000000044942e-14 8.6958188620865706e-25 0 -1.2000000000153564e-14 2.4773545639741699e-25 0 -1.2000000000485576e-14 -4.7999819499982905e-26 0 -1.200000000004363e-14 -4.440892465941686e-27 0 -1.1999999999938388e-14 2.7847026612573283e-25 0 -1.1999999999879395e-14 1.7809875998903217e-25 0 -1.2000000001092909e-14 2.232910235273335e-25 0 
</DataArray>
</CellData>
</Piece>
</UnstructuredGrid>
</VTKFile>
