<?xml version="1.0"?>
<VTKFile type="UnstructuredGrid" version="0.1" byte_order="LittleEndian">
<UnstructuredGrid>
<Piece NumberOfPoints="21" NumberOfCells="28">
<Points>
<DataArray type="Float64" NumberOfComponents="3" format="ascii">
0 0 0 0 1 0 1 1 0 1 0 0 0.33333333333250248 0 0 0.66666666666578889 0 0 1 0.33333333333250248 0 1 0.66666666666578889 0 0.66666666666759111 1 0 0.33333333333472032 1 0 0 0.66666666666759111 0 0 0.33333333333472032 0 0.50000000000004996 0.49999999999997519 0 0.29166666666684449 0.7083333333334445 0 0.29166666666652658 0.2916666666668038 0 0.70833333333346027 0.70833333333323512 0 0.70833333333327586 0.2916666666665107 0 0.49999999999981742 0.1726190476194705 0 0.17261904761971569 0.50000000000021494 0 0.82738095238054699 0.49999999999982031 0 0.50000000000021227 0.82738095238030207 0 
</DataArray>
</Points>
<Cells>
<DataArray type="UInt32" Name="connectivity" format="ascii">
1 13 9 0 14 11 1 10 13 0 4 14 2 8 15 2 15 7 3 6 16 3 16 5 12 14 17 12 13 18 12 18 14 12 20 13 12 17 16 12 19 15 12 16 19 12 15 20 4 5 17 6 7 19 10 11 18 8 9 20 10 18 13 8 20 15 4 17 14 6 19 16 11 14 18 9 13 20 5 16 17 7 15 19 
</DataArray>
<DataArray type="UInt32" Name="offsets" format="ascii">
3 6 9 12 15 18 21 24 27 30 33 36 39 42 45 48 51 54 57 60 63 66 69 72 75 78 81 84 
</DataArray>
<DataArray type="UInt32" Name="types" format="ascii">
5 5 5 5 5 5 5 5 5 5 5 5 5 5 5 5 5 5 5 5 5 5 5 5 5 5 5 5 
</DataArray>
</Cells>
<CellData Scalars="pressure_p0," Vectors="velocity_p0," Tensors="">
<DataArray type="Float64" Name="pressure_p0" format="ascii">
0.41666666666615915 0.19444444444505715 0.19444444444144277 0.41666666666768171 1.5833333333342541 1.8055555555557308 1.8055555555543985 1.5833333333326678 0.86111111111138849 0.64285714285633877 0.64285714285781415 0.86111111111417982 1.1388888888870392 1.3571428571370872 1.3571428571354514 1.1388888888966886 1.0000000000034626 1.8849206349267846 0.11507936507491442 0.99999999999688327 0.30952380951513692 1.2500000000029861 0.7500000000044551 1.6904761904736234 0.30952380952539765 0.74999999999847966 1.2500000000014391 1.690476190477634 
</DataArray>
<DataArray type="Float64" Name="velocity_p0" NumberOfComponents="3" format="ascii">
-1.2000000000158701e-14 1.6917516542917209e-26 0 -1.2000000000023553e-14 3.3809789536867345e-26 0 -1.1999999999884763e-14 -1.8042234978536066e-25 0 -1.2000000000200531e-14 -1.2825813356671604e-25 0 -1.2000000000237361e-14 -1.6076748590132654e-25 0 -1.1999999999874925e-14 1.1876438978760746e-25 0 -1.2000000000201856e-14 3.3428375289192986e-25 0 -1.1999999999662848e-14 4.1347355486254113e-26 0 -1.1999999999872021e-14 1.6764950843847465e-25 0 -1.2000000000156585e-14 1.5824628644824019e-25 0 -1.199999999992585e-14 -6.7938278879443979e-26 0 -1.2000000000120872e-14 -1.1983112694669258e-25 0 -1.1999999999949171e-14 1.8713358393652842e-25 0 -1.2000000000064692e-14 -4.2216877419033973e-25 0 -1.1999999999836658e-14 4.9221765042170253e-26 0 -1.200000000020625e-14 -5.1445406161807241e-25 0 -1.19999999999154e-14 -3.434534720542189e-25 0 -1.1999999999543435e-14 -6.3079684564187767e-26 0 -1.1999999999627872e-14 9.0719004100416358e-26 0 -1.200000000012102e-14 -2.2362550055114721e-25 0 -1.200000000002409e-14 -2.9168131970546912e-26 0 -1.199999999958223e-14 6.0520935332012893e-25 0 -1.1999999999953064e-14 9.8844271424192779e-28 0 -1.2000000000230008e-14 -2.9480678661195476e-25 0 -1.2000000000056299e-14 3.272983895761978e-27 0 -1.1999999999938396e-14 1.1323467205723448e-25 0 -1.2000000000002801e-14 -2.4588005554833717e-26 0 -1.20000000001147e-14 1.3078564390704416e-25 0 
</DataArray>
</CellData>
</Piece>
</UnstructuredGrid>
</VTKFile>
