<?xml version="1.0"?>
<VTKFile type="UnstructuredGrid" version="0.1" byte_order="LittleEndian">
<UnstructuredGrid>
<Piece NumberOfPoints="21" NumberOfCells="28">
<Points>
<DataArray type="Float64" NumberOfComponents="3" format="ascii">
0 0 0 0.49999999999981742 0.1726190476194705 0 0.33333333333250248 0 0 0.29166666666652658 0.2916666666668038 0 0 0.33333333333472032 0 0.17261904761971569 0.50000000000021494 0 0 0.66666666666759111 0 0 1 0 0.33333333333472032 1 0 0.29166666666684449 0.7083333333334445 0 0.70833333333346027 0.70833333333323512 0 0.66666666666759111 1 0 0.50000000000021227 0.82738095238030207 0 1 1 0 1 0.66666666666578889 0 1 0.33333333333250248 0 0.82738095238054699 0.49999999999982031 0 1 0 0 0.66666666666578889 0 0 0.50000000000004996 0.49999999999997519 0 0.70833333333327586 0.2916666666665107 0 
</DataArray>
</Points>
<Cells>
<DataArray type="UInt32" Name="connectivity" format="ascii">
0 3 4 0 2 3 2 18 1 2 1 3 19 5 3 19 3 1 4 3 5 6 4 5 6 5 9 7 9 8 7 6 9 8 9 12 19 9 5 19 12 9 19 16 10 19 10 12 11 12 10 11 8 12 13 10 14 13 11 10 14 10 16 15 14 16 15 16 20 17 20 18 17 15 20 18 20 1 19 20 16 19 1 20 
</DataArray>
<DataArray type="UInt32" Name="offsets" format="ascii">
3 6 9 12 15 18 21 24 27 30 33 36 39 42 45 48 51 54 57 60 63 66 69 72 75 78 81 84 
</DataArray>
<DataArray type="UInt32" Name="types" format="ascii">
5 5 5 5 5 5 5 5 5 5 5 5 5 5 5 5 5 5 5 5 5 5 5 5 5 5 5 5 
</DataArray>
</Cells>
<CellData Scalars="pressure_p0," Vectors="velocity_p0," Tensors="">
<DataArray type="Float64" Name="pressure_p0" format="ascii">
0.1944444444443775 0.41666666666605157 0.99999999999879008 0.74999999999927791 0.64285714285777695 0.86111111111064242 0.30952380952419134 0.11507936507938969 0.30952380952388003 0.41666666666541863 0.19444444444366671 0.74999999999412603 0.64285714285891427 0.86111111111109162 1.3571428571429656 1.1388888888893058 1.2500000000013003 0.99999999999777511 1.8055555555561273 1.5833333333345099 1.6904761904765038 1.8849206349203209 1.6904761904748322 1.5833333333327542 1.8055555555552425 1.249999999999643 1.3571428571420561 1.1388888888892916 
</DataArray>
<DataArray type="Float64" Name="velocity_p0" NumberOfComponents="3" format="ascii">
-1.1999999999983866e-14 3.9077211016254346e-26 0 -1.2000000028804214e-14 -6.6923718952782446e-23 0 -1.199999999993243e-14 -1.1880429234434581e-22 0 -1.1999999999970218e-14 -4.1647122630238097e-26 0 -1.1999999999904725e-14 -4.2869857033330666e-26 0 -1.2000000000112354e-14 1.9377737048029978e-25 0 -1.200000000002839e-14 -1.3407085514683706e-26 0 -1.1999999999966769e-14 -1.1802936863916779e-26 0 -1.2000000000025915e-14 7.4859744461853136e-26 0 -1.2000000028567718e-14 6.6770080008451149e-23 0 -1.1999999999941788e-14 6.7747374540380494e-27 0 -1.1999999999966828e-14 1.3253888726889786e-25 0 -1.2000000000018536e-14 -8.1404528962019261e-26 0 -1.1999999999957152e-14 3.5289692595061963e-26 0 -1.2000000000177148e-14 -1.7679674506496489e-25 0 -1.2000000000111192e-14 -3.0027201496332593e-26 0 -1.1999999999915768e-14 5.1299624666522398e-27 0 -1.2000000000210786e-14 1.1832764286388864e-22 0 -1.1999999599082592e-14 1.721670188226207e-22 0 -1.1999999856669165e-14 3.3392351167095163e-22 0 -1.2000000000066851e-14 1.4234245616853198e-25 0 -1.1999999762491637e-14 -3.8729678344459229e-25 0 -1.1999999999951036e-14 -3.0397571691333858e-26 0 -1.1999999856754495e-14 -3.3396571967368548e-22 0 -1.1999999599117409e-14 -1.7189182232925163e-22 0 -1.1999999999971042e-14 -5.2142128113298438e-26 0 -1.2000000000048794e-14 2.8787506583777773e-26 0 -1.199999999993247e-14 6.6958513635159482e-27 0 
</DataArray>
</CellData>
</Piece>
</UnstructuredGrid>
</VTKFile>
