<?xml version="1.0"?>
<VTKFile type="UnstructuredGrid" version="0.1" byte_order="LittleEndian">
<UnstructuredGrid>
<Piece NumberOfPoints="568" NumberOfCells="1054">
<Points>
<DataArray type="Float64" NumberOfComponents="3" format="ascii">
0.000000000000000e+00 0.000000000000000e+00 0.000000000000000e+00 0.000000000000000e+00 0.000000000000000e+00 1.000000000000000e+00 1.000000000000000e+00 0.000000000000000e+00 1.000000000000000e+00 1.000000000000000e+00 0.000000000000000e+00 0.000000000000000e+00 4.999999999989965e-02 0.000000000000000e+00 0.000000000000000e+00 9.999999999981467e-02 0.000000000000000e+00 0.000000000000000e+00 1.499999999997036e-01 0.000000000000000e+00 0.000000000000000e+00 1.999999999995579e-01 0.000000000000000e+00 0.000000000000000e+00 2.499999999994121e-01 0.000000000000000e+00 0.000000000000000e+00 2.999999999992664e-01 0.000000000000000e+00 0.000000000000000e+00 3.499999999991206e-01 0.000000000000000e+00 0.000000000000000e+00 3.999999999989749e-01 0.000000000000000e+00 0.000000000000000e+00 4.499999999988292e-01 0.000000000000000e+00 0.000000000000000e+00 4.999999999986943e-01 0.000000000000000e+00 0.000000000000000e+00 5.499999999988151e-01 0.000000000000000e+00 0.000000000000000e+00 5.999999999989468e-01 0.000000000000000e+00 0.000000000000000e+00 6.499999999990784e-01 0.000000000000000e+00 0.000000000000000e+00 6.999999999992100e-01 0.000000000000000e+00 0.000000000000000e+00 7.499999999993417e-01 0.000000000000000e+00 0.000000000000000e+00 7.999999999994734e-01 0.000000000000000e+00 0.000000000000000e+00 8.499999999996051e-01 0.000000000000000e+00 0.000000000000000e+00 8.999999999997368e-01 0.000000000000000e+00 0.000000000000000e+00 9.499999999998684e-01 0.000000000000000e+00 0.000000000000000e+00 1.000000000000000e+00 0.000000000000000e+00 4.999999999989965e-02 1.000000000000000e+00 0.000000000000000e+00 9.999999999981467e-02 1.000000000000000e+00 0.000000000000000e+00 1.499999999997036e-01 1.000000000000000e+00 0.000000000000000e+00 1.999999999995579e-01 1.000000000000000e+00 0.000000000000000e+00 2.499999999994121e-01 1.000000000000000e+00 0.000000000000000e+00 2.999999999992664e-01 1.000000000000000e+00 0.000000000000000e+00 3.499999999991206e-01 1.000000000000000e+00 0.000000000000000e+00 3.999999999989749e-01 1.000000000000000e+00 0.000000000000000e+00 4.499999999988292e-01 1.000000000000000e+00 0.000000000000000e+00 4.999999999986943e-01 1.000000000000000e+00 0.000000000000000e+00 5.499999999988151e-01 1.000000000000000e+00 0.000000000000000e+00 5.999999999989468e-01 1.000000000000000e+00 0.000000000000000e+00 6.499999999990784e-01 1.000000000000000e+00 0.000000000000000e+00 6.999999999992100e-01 1.000000000000000e+00 0.000000000000000e+00 7.499999999993417e-01 1.000000000000000e+00 0.000000000000000e+00 7.999999999994734e-01 1.000000000000000e+00 0.000000000000000e+00 8.499999999996051e-01 1.000000000000000e+00 0.000000000000000e+00 8.999999999997368e-01 1.000000000000000e+00 0.000000000000000e+00 9.499999999998684e-01 9.499999999997918e-01 0.000000000000000e+00 1.000000000000000e+00 8.999999999995836e-01 0.000000000000000e+00 1.000000000000000e+00 8.499999999996529e-01 0.000000000000000e+00 1.000000000000000e+00 7.999999999999998e-01 0.000000000000000e+00 1.000000000000000e+00 7.500000000003466e-01 0.000000000000000e+00 1.000000000000000e+00 7.000000000006934e-01 0.000000000000000e+00 1.000000000000000e+00 6.500000000010401e-01 0.000000000000000e+00 1.000000000000000e+00 6.000000000013869e-01 0.000000000000000e+00 1.000000000000000e+00 5.500000000017335e-01 0.000000000000000e+00 1.000000000000000e+00 5.000000000020587e-01 0.000000000000000e+00 1.000000000000000e+00 4.500000000018723e-01 0.000000000000000e+00 1.000000000000000e+00 4.000000000016644e-01 0.000000000000000e+00 1.000000000000000e+00 3.500000000014564e-01 0.000000000000000e+00 1.000000000000000e+00 3.000000000012483e-01 0.000000000000000e+00 1.000000000000000e+00 2.500000000010403e-01 0.000000000000000e+00 1.000000000000000e+00 2.000000000008322e-01 0.000000000000000e+00 1.000000000000000e+00 1.500000000006241e-01 0.000000000000000e+00 1.000000000000000e+00 1.000000000004160e-01 0.000000000000000e+00 1.000000000000000e+00 5.000000000020799e-02 0.000000000000000e+00 1.000000000000000e+00 0.000000000000000e+00 0.000000000000000e+00 9.499999999997918e-01 0.000000000000000e+00 0.000000000000000e+00 8.999999999995836e-01 0.000000000000000e+00 0.000000000000000e+00 8.499999999996529e-01 0.000000000000000e+00 0.000000000000000e+00 7.999999999999998e-01 0.000000000000000e+00 0.000000000000000e+00 7.500000000003466e-01 0.000000000000000e+00 0.000000000000000e+00 7.000000000006934e-01 0.000000000000000e+00 0.000000000000000e+00 6.500000000010401e-01 0.000000000000000e+00 0.000000000000000e+00 6.000000000013869e-01 0.000000000000000e+00 0.000000000000000e+00 5.500000000017335e-01 0.000000000000000e+00 0.000000000000000e+00 5.000000000020587e-01 0.000000000000000e+00 0.000000000000000e+00 4.500000000018723e-01 0.000000000000000e+00 0.000000000000000e+00 4.000000000016644e-01 0.000000000000000e+00 0.000000000000000e+00 3.500000000014564e-01 0.000000000000000e+00 0.000000000000000e+00 3.000000000012483e-01 0.000000000000000e+00 0.000000000000000e+00 2.500000000010403e-01 0.000000000000000e+00 0.000000000000000e+00 2.000000000008322e-01 0.000000000000000e+00 0.000000000000000e+00 1.500000000006241e-01 0.000000000000000e+00 0.000000000000000e+00 1.000000000004160e-01 0.000000000000000e+00 0.000000000000000e+00 5.000000000020799e-02 5.022266536995916e-01 0.000000000000000e+00 5.007981052797934e-01 7.071428571428752e-01 0.000000000000000e+00 7.071428571428400e-01 2.928571428571630e-01 0.000000000000000e+00 7.071428571428829e-01 7.071428571428393e-01 0.000000000000000e+00 2.928571428571245e-01 2.928571428571166e-01 0.000000000000000e+00 2.928571428571638e-01 5.000000000000265e-01 0.000000000000000e+00 7.803135888501761e-01 2.196864111498267e-01 0.000000000000000e+00 5.000000000000315e-01 7.803135888501739e-01 0.000000000000000e+00 4.999999999999759e-01 4.999999999999710e-01 0.000000000000000e+00 2.196864111498291e-01 8.289812646369814e-01 0.000000000000000e+00 8.289812646369882e-01 1.710187353630001e-01 0.000000000000000e+00 8.289812646369611e-01 8.309922923012688e-01 0.000000000000000e+00 1.696816851667972e-01 1.696816851668107e-01 0.000000000000000e+00 1.690077076987337e-01 5.661054582156719e-01 0.000000000000000e+00 6.378553646177545e-01 3.598432055749209e-01 0.000000000000000e+00 5.669860627177888e-01 6.401567944250812e-01 0.000000000000000e+00 4.330139372822173e-01 4.330139372822104e-01 0.000000000000000e+00 3.598432055749215e-01 6.398165724807067e-01 0.000000000000000e+00 8.467641779693066e-01 1.532358220306934e-01 0.000000000000000e+00 6.398165724807086e-01 8.467641779692993e-01 0.000000000000000e+00 3.601834275192951e-01 3.601834275192931e-01 0.000000000000000e+00 1.532358220307005e-01 8.459852991288416e-01 0.000000000000000e+00 6.396925151782715e-01 3.603074848217415e-01 0.000000000000000e+00 8.459852991288244e-01 6.396925151782666e-01 0.000000000000000e+00 1.540147008711593e-01 1.540147008711762e-01 0.000000000000000e+00 3.603074848217465e-01 4.449107642741860e-01 0.000000000000000e+00 6.669581649904425e-01 6.661733647266976e-01 0.000000000000000e+00 5.586987495249738e-01 3.338266352733016e-01 0.000000000000000e+00 4.413012504750349e-01 5.586987495249671e-01 0.000000000000000e+00 3.338266352733064e-01 5.346795395488237e-01 0.000000000000000e+00 8.879537588577966e-01 1.120462411422053e-01 0.000000000000000e+00 5.346795395488287e-01 8.879537588577516e-01 0.000000000000000e+00 4.653204604511585e-01 4.653204604511535e-01 0.000000000000000e+00 1.120462411422502e-01 7.410476285424231e-01 0.000000000000000e+00 9.030346798023724e-01 9.696532019762004e-02 0.000000000000000e+00 7.410476285424162e-01 8.972738482386574e-01 0.000000000000000e+00 2.560155098728639e-01 2.560155098728724e-01 0.000000000000000e+00 1.027261517613337e-01 8.896078905359650e-01 0.000000000000000e+00 7.370939166858543e-01 7.370347523060018e-01 0.000000000000000e+00 1.103623933856532e-01 2.628350275170910e-01 0.000000000000000e+00 8.894799408044297e-01 1.104903431171893e-01 0.000000000000000e+00 2.628941918969458e-01 5.965250635839570e-01 0.000000000000000e+00 7.438728849980634e-01 2.562036657236151e-01 0.000000000000000e+00 5.964399595958016e-01 7.438728849980553e-01 0.000000000000000e+00 4.034749364160485e-01 4.031805595888117e-01 0.000000000000000e+00 2.560350211139840e-01 7.458549806417561e-01 0.000000000000000e+00 6.119044556076395e-01 3.880955443923760e-01 0.000000000000000e+00 7.458549806417566e-01 6.119044556076344e-01 0.000000000000000e+00 2.541450193582488e-01 2.544965174065945e-01 0.000000000000000e+00 3.880814134647713e-01 8.998196115153944e-01 0.000000000000000e+00 8.998196115153941e-01 8.998196115154038e-01 0.000000000000000e+00 1.001803884845969e-01 1.001803884846082e-01 0.000000000000000e+00 8.998196115153920e-01 1.001803884845995e-01 0.000000000000000e+00 1.001803884845984e-01 4.368423602432631e-01 0.000000000000000e+00 9.030822197707735e-01 9.708946524916746e-02 0.000000000000000e+00 4.360517756098067e-01 9.030822197707016e-01 0.000000000000000e+00 5.631576397567231e-01 5.631576397567221e-01 0.000000000000000e+00 9.691778022930138e-02 7.398280348099158e-01 0.000000000000000e+00 7.962960869699172e-01 2.037039130300738e-01 0.000000000000000e+00 7.398280348098946e-01 7.962960869699410e-01 0.000000000000000e+00 2.601719651901145e-01 2.601719651901350e-01 0.000000000000000e+00 2.037039130300500e-01 7.932194594161340e-01 0.000000000000000e+00 7.141516153959377e-01 2.853581139230056e-01 0.000000000000000e+00 7.933845683676654e-01 7.141516153959360e-01 0.000000000000000e+00 2.067805405838667e-01 2.067805405838698e-01 0.000000000000000e+00 2.858483846040812e-01 4.911353714455947e-01 0.000000000000000e+00 5.903226734545123e-01 5.705697288820671e-01 0.000000000000000e+00 5.497170020089721e-01 4.107495277344459e-01 0.000000000000000e+00 4.9037725997835
[...]
<PointData Scalars="pressure_p1," Vectors="" Tensors="">
<DataArray type="Float64" Name="pressure_p1" format="ascii">
9.235529340435157e-01 1.310331237314495e-01 -4.303785283872827e-01 8.775034212253947e-01 9.210590442320712e-01 9.211687919190382e-01 9.203612293239257e-01 9.179611197506284e-01 9.135734881373287e-01 9.154805997911192e-01 9.135062320260112e-01 9.087274738070213e-01 9.027290112950395e-01 9.046147170776829e-01 8.999620662574180e-01 8.906925387516283e-01 8.937159923266010e-01 8.872931688794639e-01 8.803787057647142e-01 8.808477499415542e-01 8.792899063955829e-01 8.774228598746463e-01 8.756685634972499e-01 8.383511131301897e-01 7.870230233719036e-01 7.388258082717928e-01 6.868451757589632e-01 6.322211726229221e-01 5.802729413326294e-01 5.295600900110257e-01 4.771630734406628e-01 4.160905340372750e-01 3.536749687314485e-01 2.984688160315803e-01 2.319445557993933e-01 1.650644623429236e-01 1.031057582746136e-01 3.257650675818907e-02 -4.932400521203906e-02 -1.334406010449823e-01 -2.211024934584498e-01 -3.304633580264115e-01 -4.019425949251803e-01 -3.610112950364686e-01 -3.172002182056879e-01 -2.719339827815452e-01 -2.224319465473875e-01 -1.808081993388607e-01 -1.374127225382449e-01 -9.072105547089349e-02 -3.926424120059967e-02 -1.142604393531254e-03 2.691464821262103e-02 5.570396843046824e-02 7.236182029885599e-02 8.914769202412437e-02 1.045154190729164e-01 1.139530471459241e-01 1.216675016385767e-01 1.273021253892189e-01 1.311066929195437e-01 1.519233499347915e-01 1.806899435249838e-01 2.090574579622576e-01 2.408035845942950e-01 2.762729180417426e-01 3.123652967581050e-01 3.474787379144995e-01 3.842909665974364e-01 4.278610229376171e-01 4.726585266831867e-01 5.121620016003172e-01 5.592079236573332e-01 6.053528080638895e-01 6.471430175124776e-01 6.927936409406285e-01 7.424414625779759e-01 7.905126723194966e-01 8.358917556298633e-01 8.850628091362995e-01 4.182640767330131e-01 1.448939231723474e-01 2.759947146236141e-01 6.053867089861749e-01 6.473583899469385e-01 1.533488891786463e-01 4.608126672544319e-01 3.722631496759857e-01 6.991648881874006e-01 -6.019750730654448e-02 2.080373134894216e-01 7.252096701002220e-01 7.718760787078301e-01 2.688187094727486e-01 3.846487426080478e-01 4.649591705938831e-01 5.669913898858828e-01 2.147229989142774e-02 3.506640924868533e-01 5.199999342506533e-01 7.747006484612456e-01 1.938928488340368e-01 1.550817807587491e-01 7.525619884874422e-01 5.914226825224483e-01 2.731345856460438e-01 3.252492382694017e-01 5.025463008224148e-01 5.806495574871134e-01 4.883353890677262e-02 4.396033951101782e-01 4.006338638056610e-01 8.032975746617400e-01 -1.163707891930800e-01 2.776393024045890e-01 6.324281894267901e-01 8.319836811472100e-01 5.813576952920459e-02 7.892050459945837e-01 1.544708149706147e-01 6.821528503045952e-01 1.513756904906826e-01 3.755437024144776e-01 4.799186946930886e-01 6.704966668224550e-01 2.502970357245791e-01 2.231197333493154e-01 6.520349405442011e-01 5.574425346071369e-01 -2.132152444395415e-01 7.976236837242210e-01 1.734803580746372e-01 8.409563022438018e-01 8.639595249903909e-02 5.253433883105426e-01 2.821507594617926e-01 8.150892036142261e-01 2.493632024477855e-02 2.659313729170922e-01 6.331089342936185e-01 7.339233261882465e-01 1.152626576840592e-01 2.141893284100989e-01 6.909419438173209e-01 6.552461149547520e-01 3.339939627872803e-01 3.556263697137450e-01 4.447373042355402e-01 4.886093666545850e-01 2.365654405595734e-01 3.073009072792275e-01 5.550016129955329e-01 5.805686453303541e-01 -1.722199379137126e-01 2.265912656987705e-01 7.080314289445521e-01 8.549367987988873e-01 -7.002346791871460e-02 8.133586522769826e-01 1.520830141032480e-01 7.640266179856953e-01 2.284324141196465e-01 4.375811435103208e-01 4.015118755997938e-01 6.212536246580411e-01 -3.197472038317111e-02 3.792134053163319e-01 4.832357172971527e-01 8.434461840688220e-01 1.589029548621979e-01 8.315989767862302e-01 1.093530967414696e-01 6.112511981793992e-01 1.489598038550238e-01 2.850618339102373e-01 5.258008040327588e-01 7.317333195512911e-01 4.934318235405936e-01 8.684655159140797e-02 4.026563008212447e-01 4.487611739470583e-01 7.419160646168725e-01 8.641295197385192e-02 3.195135441068413e-01 5.563820963157444e-01 7.065402785321777e-01 -9.608227342735043e-02 3.280950962163853e-01 5.560606272991578e-01 8.599485069233336e-01 3.819068987436925e-01 4.246698802344674e-01 5.475063682563771e-01 2.115304050357088e-01 3.189715284301807e-01 5.036797644384915e-01 6.508164381664764e-01 5.149136206797434e-01 4.127110763449099e-02 4.856314910489596e-01 3.359531448822837e-01 8.503427741217590e-01 3.316542582488649e-01 1.041474548294735e-01 4.665477187320932e-01 3.666906062302933e-01 7.555315609765972e-01 -6.805229825529786e-03 3.068627428138865e-01 5.806270689324348e-01 7.743385612875445e-01 1.474238008102117e-02 1.917319130543592e-01 7.404458589608928e-01 7.175985298820784e-01 1.754572981305271e-01 2.266668804611557e-01 6.630138914340876e-01 6.141220967385524e-01 1.839138734500315e-01 3.256692712536671e-01 5.390538838223683e-01 6.279608980616517e-01 2.827540343998478e-01 5.105839102829672e-01 2.263339832948823e-01 8.491247272268051e-01 8.158325480336570e-02 5.639219467739407e-01 3.840562263631874e-01 8.380590709589323e-01 8.840994961527230e-01 -3.154999426931572e-01 1.510930968378312e-01 -1.942503801633466e-01 2.568015782401634e-01 6.589313001109360e-01 8.795136812308930e-01 -1.276637523159731e-03 8.438291435259745e-01 1.290134559531569e-01 7.155389594085612e-01 -4.960648511800164e-02 2.437128003076552e-01 6.666415914159283e-01 7.846227245492425e-01 -1.550350682086318e-02 4.271802175875849e-01 4.167851788112372e-01 8.706793901591316e-01 1.246601382450537e-01 7.525953675977125e-01 1.683825811930845e-01 6.405684046480861e-01 2.812211887789393e-01 4.330453093331772e-01 2.100109333979761e-01 3.897872962584096e-01 4.578781751558933e-01 6.199757265162987e-01 1.689198108909420e-01 4.204165014580589e-01 4.228249311593512e-01 6.694711586785390e-01 -2.797395872725264e-01 1.946978561357747e-01 7.567879231134514e-01 8.848802807212675e-01 -1.575444464157771e-01 8.434277605664249e-01 1.433402203324205e-01 8.078290626204119e-01 2.688016356153003e-01 2.673074529771706e-01 5.949060775087452e-01 5.478629281153758e-01 3.081900739248086e-02 3.950212447734822e-01 4.604637127820702e-01 7.928390731001855e-01 9.395785106616350e-02 2.522379181875019e-01 6.434401143952341e-01 6.794672608835793e-01 8.772952019082791e-02 3.618516214378114e-01 5.013644550653363e-01 7.221834748452283e-01 8.483986134844564e-02 8.485970092747258e-01 1.139930576946937e-01 6.605331135460525e-01 -1.432874349819930e-01 2.017409282493595e-01 7.736832450673122e-01 7.918861578362995e-01 3.681443864523806e-01 1.779071478721096e-01 2.370113331937156e-01 5.628818142261153e-01 7.104780067509165e-01 1.157096931570847e-03 2.283474362356158e-01 6.883835213272311e-01 7.383964412124060e-01 2.016745610926232e-01 2.637625779597537e-01 6.118514259315662e-01 6.006581551285415e-01 1.178460671297408e-01 2.136872374634907e-01 5.746194335262987e-01 7.985447038639282e-01 3.202124339004591e-01 4.674959132156383e-01 1.719512163554801e-01 1.918814732843462e-01 7.090120398284608e-01 6.112944888861809e-01 4.137291441097838e-01 2.277764398589799e-01 3.512775693987102e-01 5.048857313228899e-01 5.963673434747472e-01 -4.591484920566777e-02 1.770227036752466e-01 -3.998395192951502e-02 3.324873534804957e-01 5.477420887029917e-01 8.163960534145894e-01 5.022244455875347e-02 5.230124281850852e-01 2.836269018772406e-01 8.697984314841721e-01 7.699189411885978e-01 7.513223892996876e-01 4.004696858279142e-01 6.910389816338382e-02 4.793887892981873e-01 3.461127467480804e-01 8.069003681423413e-01 1.808714390538566e-01 2.933674276536001e-01 5.214627404218336e-01 6.910567354001861e-01 -1.552528978928005e-01 2.976765079415729e-01 6.004861710377066e-01 8.816818435791982e-01 3.061788184517980e-01 7.029268949468264e-01 8.116112390198790e-01 -9.118749412418092e-02 3.593941138116862e-01 5.120858284083353e-01 8.829019512915500e-01 3.375463577275421e-01 4.812208725411296e-01 4.618875345252366e-01 5.367689915861124e-01 -1.151112444663228e-01 1.758802408090092e-01 7.449308976830545e-01 8.257720568114585e-01 -1.152523918408458e-01 2.506058172231332e-01 9.025587408131946e-02 2.866058896693560e-01 5.987700011273098e-01 6.923116488919691e-01 -2.510543868542432e-01 2.224429232232450e-01 7.120139146413600e-01 8.984979960143740e-01 -8.669238128734129e-02 8.589724480172347e-01 1.289428368202131e-01 7.655693897695309e-01 5.321098322333028e-01 4.056750300793358e-01 5.794868184595484e-01 5.818633973649264e-01 3.771176867732611e-01 4.835384872719874e-01 1.960079577398577e-01 2.382867427886221e-01 4.645236971832430e-01 4.804435436808947e-01 3.525705510474570e-01 3.685787234373266e-01 6.557412549252201e-01 9.035059950923857e-02 6.237538043071034e-01 1.386103021143263e-01 8.718518882377946e-01 4.527997820481967e-01 5.351679373382332e-01 1.246937227551674e-01 3.976647204410330e-01 4.533562311459002e-01 7.033095178412344e-01 1.598817437324858e-01 1.382421858511241e-01 7.867244693681166e-01 6.130828080684115e-01 2.895814187881810e-01 5.551651263713340e-01 6.715543681876083e-01 8.317478052946665e-01 7.941848776772581e-02 4.311042057994281e-01 4.145061481239609e-01 7.631098545709494e-01 -5.204561716345490e-02 3.966072444953102e-01 4.595509532274691e-01 8.808259001840052e-01 1.132637207982763e-01 5.073064303568837e-01 3.091934205849318e-01 7.674469604481472e-01 1.338486385113131e-01 2.531624810523616e-01 5.480568739616793e-01 7.621576759740324e-01 5.526190126618981e-01 -6.965016979320037e-03 1.578288616582501e-01 4.266053701438436e-01 1.368448739733689e-01 3.396666947280738e-01 5.260981621552795e-01 6.726924840858022e-01 4.445375812130301e-01 7.963848584821690e-01 7.232317561530013e-01 -1.554996894937532e-02 3.612122345507210e-01 5.074096367172001e-01 8.143542862313836e-01 3.745000552621618e-01 8.811812624733878e-01 1.902577776070200e-03 4.576955309828512e-01 4.189908757849463e-02 3.258272610393413e-01 5.518426322635727e-01 7.432689599978642e-01 1.147013465209736e-01 8.018147505311299e-01 1.371326609077916e-01 6.431848382366598e-01 8.013667609891255e-01 -3.242099039246160e-01 8.974974377844438e-01 1.719064873372690e-01 8.528113446149461e-01 -2.438767809320630e-01 8.490566445611872e-01 1.413877472541661e-01 1.842652648306846e-01 2.958147885103732e-01 5.754015505134473e-01 6.207786134261788e-01 1.217873957236602e-01 4.305590579099610e-01 4.121370921227352e-01 7.199030369399725e-01 2.460386950070519e-01 4.107808336963387e-01 2.967513480619841e-01 1.444778114894368e-01 4.945449923794974e-01 3.279106581243063e-01 7.217506612641792e-01 5.439506380834198e-04 4.130692555731766e-01 4.359517531427583e-01 8.380896676362312e-01 5.098224412484500e-01 -1.395657121915634e-01 3.291715336848632e-01 5.558321193146720e-01 8.971192086429365e-01 5.729307948099053e-02 3.785534018743832e-01 4.810220651039819e-01 7.581163780577779e-01 1.834044100951397e-01 3.563241672642980e-01 5.015162228789262e-01 6.359785315911545e-01 3.280153896185242e-01 8.860406254399628e-01 2.214321842065841e-02 4.910873904153030e-01 2.058279975570490e-01 2.067997941383689e-01 5.880363964205706e-01 6.828420745580643e-01 4.616497638584229e-02 3.001060400775393e-01 5.855899965240803e-01 7.303344105798406e-01 -1.072475665260535e-01 2.259909150974337e-01 3.660487885767156e-01 4.260640354100015e-01 5.565102788548987e-02 2.243745521191260e-01 6.869518775962941e-01 6.991825867267871e-01 6.171917598436146e-01 7.435654551538863e-02 7.322026133730389e-01 1.901881100375219e-01 6.781750729535871e-01 2.510295623934740e-01 3.051330568425545e-01 5.165538131744069e-01 6.156918739458466e-01 -5.503241994033330e-02 2.753706662670063e-01 6.220009647730197e-01 7.895676404164038e-01 -8.064880251115963e-02 3.039220351999681e-01 5.892932319495006e-01 8.292812395030577e-01 3.871562535685258e-01 3.423259918177587e-01 1.847232344671360e-01 8.733465291671922e-01 7.870871546653282e-02 5.922581135183510e-01 8.638531457781717e-01 9.099026594318417e-01 -3.886124518541322e-01 1.375160490950665e-01 1.775601441004254e-01 3.365381837967834e-01 4.889454440944317e-01 6.826964026417346e-01 1.377334961753199e-01 3.066248094546284e-01 5.676380504914945e-01 6.616590077992767e-01 2.668004840145022e-01 4.663132902138858e-01 3.491814452154186e-01 5.229570094990691e-01 -5.614756349466526e-02 3.514561525751134e-01 5.222176863014089e-01 8.438891018910807e-01 3.148718285391781e-01 -2.063094735745109e-01 2.035401231462958e-01 8.049176806573848e-01 8.014945362446221e-01 1.415830521897997e-01 2.478320674079243e-01 6.419120411284076e-01 6.432810797884478e-01 2.381200574547282e-02 4.492393202190099e-01 3.862606859275802e-01 8.418466932569935e-01 
</DataArray>
</PointData>
<CellData Scalars="pressure_p0,piezo_head_p0," Vectors="velocity_p0," Tensors="">
<DataArray type="Float64" Name="pressure_p0" format="ascii">