<?xml version="1.0"?>
<VTKFile type="UnstructuredGrid" version="0.1" byte_order="LittleEndian">
<UnstructuredGrid>
<Piece NumberOfPoints="69" NumberOfCells="124">
<Points>
<DataArray type="Float64" NumberOfComponents="3" format="ascii">
0.000000000000000e+00 1.000000000000000e+00 0.000000000000000e+00 1.000000000000000e+00 1.000000000000000e+00 0.000000000000000e+00 1.000000000000000e+00 0.000000000000000e+00 0.000000000000000e+00 0.000000000000000e+00 0.000000000000000e+00 0.000000000000000e+00 2.500000000000000e-01 -0.000000000000000e+00 0.000000000000000e+00 0.000000000000000e+00 2.500000000000000e-01 0.000000000000000e+00 5.000000000000000e-01 5.000000000000000e-01 -0.000000000000000e+00 7.500000000000000e-01 1.000000000000000e+00 0.000000000000000e+00 6.875000000000000e-01 8.750000000000000e-01 0.000000000000000e+00 6.250000000000000e-01 7.500000000000000e-01 0.000000000000000e+00 5.625000000000000e-01 6.250000000000000e-01 0.000000000000000e+00 1.249999999997599e-01 3.124999999998800e-01 0.000000000000000e+00 2.499999999996086e-01 3.749999999998043e-01 0.000000000000000e+00 3.749999999997349e-01 4.374999999998674e-01 0.000000000000000e+00 4.375000000000694e-01 3.750000000001388e-01 0.000000000000000e+00 3.750000000002776e-01 2.500000000005551e-01 0.000000000000000e+00 3.125000000002082e-01 1.250000000004163e-01 0.000000000000000e+00 1.000000000000000e+00 8.333333333335646e-01 0.000000000000000e+00 1.000000000000000e+00 6.666666666673605e-01 0.000000000000000e+00 1.000000000000000e+00 5.000000000013877e-01 0.000000000000000e+00 1.000000000000000e+00 3.333333333344898e-01 0.000000000000000e+00 1.000000000000000e+00 1.666666666673605e-01 0.000000000000000e+00 8.750000000000000e-01 1.000000000000000e+00 0.000000000000000e+00 5.625000000008674e-01 1.000000000000000e+00 0.000000000000000e+00 3.750000000006939e-01 1.000000000000000e+00 0.000000000000000e+00 1.875000000005205e-01 1.000000000000000e+00 0.000000000000000e+00 0.000000000000000e+00 8.125000000010408e-01 0.000000000000000e+00 0.000000000000000e+00 6.250000000006939e-01 0.000000000000000e+00 0.000000000000000e+00 4.375000000003469e-01 0.000000000000000e+00 0.000000000000000e+00 1.250000000003469e-01 0.000000000000000e+00 1.249999999997554e-01 0.000000000000000e+00 0.000000000000000e+00 4.374999999991326e-01 0.000000000000000e+00 0.000000000000000e+00 6.249999999989591e-01 0.000000000000000e+00 0.000000000000000e+00 8.124999999994795e-01 0.000000000000000e+00 0.000000000000000e+00 2.798796021293082e-01 8.344274147057053e-01 0.000000000000000e+00 2.645244370067465e-01 5.156353158163987e-01 0.000000000000000e+00 4.139414069912184e-01 6.056325264010037e-01 0.000000000000000e+00 4.492710539671537e-01 8.556512408515589e-01 0.000000000000000e+00 2.758946705068648e-01 6.605885315643570e-01 0.000000000000000e+00 1.390078959961168e-01 7.261831610706000e-01 0.000000000000000e+00 1.492912418697525e-01 4.458279356810638e-01 0.000000000000000e+00 5.014585693307863e-01 7.367466304650486e-01 0.000000000000000e+00 1.392858751591214e-01 5.733980610567744e-01 0.000000000000000e+00 3.813620468049507e-01 7.403859221383123e-01 0.000000000000000e+00 1.271010713601231e-01 8.709480661820344e-01 0.000000000000000e+00 5.677751205718758e-01 8.470224641095303e-01 0.000000000000000e+00 5.698670717843664e-01 3.776209365087199e-01 0.000000000000000e+00 7.125974780784441e-01 6.384669131570183e-01 0.000000000000000e+00 8.608728669021763e-01 2.520652359795942e-01 0.000000000000000e+00 8.578792739151740e-01 7.535325208825020e-01 0.000000000000000e+00 5.447576766858295e-01 1.431838882066932e-01 0.000000000000000e+00 7.150899340618379e-01 1.571595685477760e-01 0.000000000000000e+00 8.612746697781972e-01 5.794807697879764e-01 0.000000000000000e+00 7.533843026232094e-01 4.929444342317560e-01 0.000000000000000e+00 8.055298449100090e-01 8.871112287212741e-01 0.000000000000000e+00 8.656940847709105e-01 4.098367391676661e-01 0.000000000000000e+00 7.182603949284063e-01 3.456402071721618e-01 0.000000000000000e+00 6.323653418237701e-01 5.029675640633227e-01 0.000000000000000e+00 6.110846258508276e-01 2.575059958234323e-01 0.000000000000000e+00 4.945749328930023e-01 2.625170377655549e-01 0.000000000000000e+00 7.385779517043357e-01 7.773678856428465e-01 0.000000000000000e+00 8.769890164881212e-01 1.160638338657984e-01 0.000000000000000e+00 9.063795342218008e-01 9.020858332805730e-01 0.000000000000000e+00 4.287911518546233e-01 1.545544542796670e-01 0.000000000000000e+00 2.403886547178353e-01 2.418881479267384e-01 0.000000000000000e+00 1.840276181286450e-01 1.117324051466445e-01 0.000000000000000e+00 3.381944444444832e-01 3.381944444445634e-01 0.000000000000000e+00 1.008171452988615e-01 1.888570369725047e-01 0.000000000000000e+00 8.435242216391163e-02 8.645171265626619e-02 0.000000000000000e+00 
</DataArray>
</Points>
<Cells>
<DataArray type="Int32" Name="connectivity" format="ascii">
7 8 8 9 9 10 10 6 5 11 11 12 12 13 13 6 6 14 14 15 15 16 16 4 13 36 35 13 6 36 5 11 28 8 7 23 36 38 35 34 39 38 28 40 42 24 37 23 28 42 27 24 34 37 24 25 34 34 38 43 23 37 45 8 23 45 10 36 6 28 11 40 0 26 44 13 35 12 25 0 44 26 27 39 12 40 11 38 39 42 37 34 43 34 44 39 10 41 36 25 44 34 12 35 40 35 38 42 10 9 41 36 41 43 8 45 9 9 45 41 27 42 39 36 43 38 26 39 44 35 42 40 37 41 45 37 43 41 46 56 57 53 57 56 49 47 52 4 31 16 49 60 47 52 55 19 51 48 56 52 53 55 31 32 50 54 49 62 17 62 49 17 49 18 21 20 48 32 51 50 33 51 32 18 49 52 1 62 17 53 56 55 18 52 19 52 47 53 16 31 63 51 61 48 20 19 55 14 46 6 51 56 58 10 47 9 55 56 48 8 54 7 22 7 54 20 55 48 33 61 51 33 2 61 31 50 63 6 46 57 21 61 2 10 57 47 46 58 56 51 58 50 53 47 57 14 59 46 9 47 60 10 6 57 54 60 49 8 60 54 15 59 14 1 22 62 21 48 61 8 9 60 46 59 58 16 63 15 15 63 59 50 59 63 22 54 62 50 58 59 14 6 13 11 67 64 4 65 30 4 16 65 13 12 66 15 14 66 65 64 67 16 15 64 12 11 64 15 66 64 12 64 66 11 5 67 16 64 65 14 13 66 3 68 29 3 30 68 29 67 5 30 65 68 29 68 67 67 68 65 
</DataArray>
<DataArray type="Int32" Name="offsets" format="ascii">
2 4 6 8 10 12 14 16 18 20 22 24 27 30 33 36 39 42 45 48 51 54 57 60 63 66 69 72 75 78 81 84 87 90 93 96 99 102 105 108 111 114 117 120 123 126 129 132 135 138 141 144 147 150 153 156 159 162 165 168 171 174 177 180 183 186 189 192 195 198 201 204 207 210 213 216 219 222 225 228 231 234 237 240 243 246 249 252 255 258 261 264 267 270 273 276 279 282 285 288 291 294 297 300 303 306 309 312 315 318 321 324 327 330 333 336 339 342 345 348 351 354 357 360 
</DataArray>
<DataArray type="UInt8" Name="types" format="ascii">
3 3 3 3 3 3 3 3 3 3 3 3 5 5 5 5 5 5 5 5 5 5 5 5 5 5 5 5 5 5 5 5 5 5 5 5 5 5 5 5 5 5 5 5 5 5 5 5 5 5 5 5 5 5 5 5 5 5 5 5 5 5 5 5 5 5 5 5 5 5 5 5 5 5 5 5 5 5 5 5 5 5 5 5 5 5 5 5 5 5 5 5 5 5 5 5 5 5 5 5 5 5 5 5 5 5 5 5 5 5 5 5 5 5 5 5 5 5 5 5 5 5 5 5 
</DataArray>
</Cells>
<CellData Scalars="age_conc,U235_conc," Vectors="" Tensors="">
<DataArray type="Float64" Name="age_conc" format="ascii">
1.000000000000000e+00 1.000000000000000e+00 1.000000000000000e+00 1.000000000000000e+00 1.000000000000000e+00 1.000000000000000e+00 1.000000000000000e+00 1.000000000000000e+00 1.000000000000000e+00 1.000000000000000e+00 1.000000000000000e+00 1.000000000000000e+00 1.000000000000000e+00 1.000000000000000e+00 1.000000000000000e+00 1.000000000000000e+00 1.000000000000000e+00 1.000000000000000e+00 1.000000000000000e+00 1.000000000000000e+00 1.000000000000000e+00 1.000000000000000e+00 1.000000000000000e+00 1.000000000000000e+00 1.000000000000000e+00 1.000000000000000e+00 1.000000000000000e+00 1.000000000000000e+00 1.000000000000000e+00 1.000000000000000e+00 1.000000000000000e+00 1.000000000000000e+00 1.000000000000000e+00 1.000000000000000e+00 1.000000000000000e+00 1.000000000000000e+00 1.000000000000000e+00 1.000000000000000e+00 1.000000000000000e+00 1.000000000000000e+00 1.000000000000000e+00 1.000000000000000e+00 1.000000000000000e+00 1.000000000000000e+00 1.000000000000000e+00 1.000000000000000e+00 1.000000000000000e+00 1.000000000000000e+00 1.000000000000000e+00 1.000000000000000e+00 1.000000000000000e+00 1.000000000000000e+00 1.000000000000000e+00 1.000000000000000e+00 1.000000000000000e+00 1.000000000000000e+00 1.000000000000000e+00 1.000000000000000e+00 1.000000000000000e+00 1.000000000000000e+00 1.000000000000000e+00 1.000000000000000e+00 1.000000000000000e+00 1.000000000000000e+00 1.000000000000000e+00 1.000000000000000e+00 1.000000000000000e+00 1.000000000000000e+00 1.000000000000000e+00 1.000000000000000e+00 1.000000000000000e+00 1.000000000000000e+00 1.000000000000000e+00 1.000000000000000e+00 1.000000000000000e+00 1.000000000000000e+00 1.000000000000000e+00 1.000000000000000e+00 1.000000000000000e+00 1.000000000000000e+00 1.000000000000000e+00 1.000000000000000e+00 1.000000000000000e+00 1.000000000000000e+00 1.000000000000000e+00 1.000000000000000e+00 1.000000000000000e+00 1.000000000000000e+00 1.000000000000000e+00 1.000000000000000e+00 1.000000000000000e+00 1.000000000000000e+00 1.000000000000000e+00 1.000000000000000e+00 1.000000000000000e+00 1.000000000000000e+00 1.000000000000000e+00 1.000000000000000e+00 1.000000000000000e+00 1.000000000000000e+00 1.000000000000000e+00 1.000000000000000e+00 1.000000000000000e+00 1.000000000000000e+00 1.000000000000000e+00 1.000000000000000e+00 1.000000000000000e+00 1.000000000000000e+00 1.000000000000000e+00 1.000000000000000e+00 1.000000000000000e+00 1.000000000000000e+00 1.000000000000000e+00 1.000000000000000e+00 1.000000000000000e+00 1.000000000000000e+00 1.000000000000000e+00 1.000000000000000e+00 1.000000000000000e+00 1.000000000000000e+00 1.000000000000000e+00 1.000000000000000e+00 1.000000000000000e+00 1.000000000000000e+00 
</DataArray>
<DataArray type="Float64" Name="U235_conc" format="ascii">
9.075225005819438e-01 7.869834262411687e-01 6.671068857480184e-01 5.422643054524838e-01 1.827863089697029e-01 2.405572380700587e-01 3.076670778884690e-01 3.954213423985919e-01 3.818903273236510e-01 2.976113552526896e-01 2.333792607368769e-01 1.778378326008769e-01 3.355236129665477e-03 2.539138911232161e-02 1.008958764699677e-06 7.532749040870521e-01 2.107357207298837e-03 2.870758395843921e-02 4.927773736893372e-05 6.489720277751827e-01 7.594849945347984e-04 3.590568715408994e-01 5.691541456815000e-01 6.538301149146161e-02 2.590024562180646e-01 5.481492889570784e-01 6.465474993977142e-02 7.323038046680218e-06 3.790000735473486e-01 8.959547976301849e-04 6.103317499795619e-01 3.775499471179077e-02 2.505237199121723e-05 8.267284713964209e-03 1.568229206573727e-01 1.673814222833860e-01 9.168893936734773e-02 3.641081861010487e-01 1.364661760943649e-04 1.040170192834586e-03 2.016426635432987e-01 1.392310456497154e-02 4.050050709979949e-01 2.259517434725676e-01 4.201876769525826e-03 8.612684728500467e-03 1.156058987223972e-01 2.387921675568874e-04 1.198284075227337e-01 4.629480717239683e-02 6.386284985784009e-03 1.993791693500182e-02 1.426843970252652e-01 1.278422617768332e-06 4.531506340879386e-02 3.724490618695900e-01 5.067003069676966e-02 1.833998842949619e-01 7.463880721010952e-04 2.919754733292313e-01 4.634204811846155e-01 6.134486941505415e-01 6.128136380202859e-01 3.724650845576324e-03 3.262779469161244e-02 3.603920385228631e-01 7.604850340649608e-01 7.462918473573220e-02 6.266626971819345e-01 6.019687544834015e-02 8.707204480215514e-06 1.612073044156925e-01 6.434918928150781e-01 2.213288642661391e-04 1.620497111272116e-02 8.977371524055269e-03 1.440949681838122e-01 4.569025847009821e-01 6.751073038830169e-01 3.877559818609299e-01 1.016493617460566e-01 3.876548802719319e-01 5.904110825441597e-05 9.462213565660720e-04 6.171698922387399e-01 3.971450524875421e-03 1.520287391300136e-03 4.531328294009963e-03 2.232231209527449e-02 4.898302289529323e-05 2.839438788171719e-02 1.116239195829144e-03 1.454855747420140e-01 2.107936985178368e-01 7.969752993660049e-06 7.452755594535507e-01 4.127145942746034e-01 1.006589403489462e-01 3.500809849546450e-04 1.449853275949570e-06 9.532050039509918e-06 1.143537232913507e-04 5.135330343584207e-01 5.045649831097866e-04 2.016875183007959e-01 1.435942767311138e-02 9.552657634209529e-03 3.061285304520564e-02 1.009877321806815e-01 1.001568891472435e-01 3.337898972994018e-03 4.386508595235764e-02 4.528102037728068e-02 3.243293545969277e-02 3.263455174569705e-02 3.383685048198091e-02 1.410411173778384e-02 9.252354876350159e-02 1.968886319836121e-04 2.277452351017411e-04 1.063809520743897e-02 1.200667961085264e-03 1.051460980184380e-03 8.939248338445115e-04 
</DataArray>
</CellData>
</Piece>
</UnstructuredGrid>
</VTKFile>
