<?xml version="1.0"?>
<VTKFile type="UnstructuredGrid" version="0.1" byte_order="LittleEndian">
<UnstructuredGrid>
<Piece NumberOfPoints="714" NumberOfCells="1306">
<Points>
<DataArray type="Float64" NumberOfComponents="3" format="ascii">
0 0 0 0 0.10000000000041601 0 0.082799035591426873 0.082799035591510806 0 0.099999999999928008 0 0 0.19999999999983389 0 0 0.20669143849501961 0.085546078947938975 0 0.29145143692666958 0.13500804559578439 0 0.29999999999973409 0 0 0.24783073444672249 0.24783073444648379 0 0.21725788110387281 0.17316968768743621 0 0.17318221359491059 0.27409688392309489 0 0.089078158003765312 0.2493007687782936 0 0.140351188660986 0.16130415108589741 0 0 0.20000000000083221 0 0.066361468125430589 0.15903440181097661 0 0 0.30000000000124832 0 0.0632094674441709 0.3449112819864934 0 0 0.40000000000166441 0 0.083393126324559225 0.42307471369029392 0 0.13897501191807771 0.34545639364066222 0 0.070553891733833127 0.57745844360881338 0 0 0.60000000000138687 0 0 0.50000000000205869 0 0.12353277228144981 0.51086097771927308 0 0.16324260003398389 0.62262730759772122 0 0.1946526892501724 0.54636184660733622 0 0.27220668248394869 0.50912429725145214 0 0.27661118526457179 0.58730386222759956 0 0.16486701364709541 0.41592657376307979 0 0.21928696632013719 0.4676461135047027 0 0.29987747321592639 0.43430880093746571 0 0.2371857680100064 0.35865548441110112 0 0.34318159319555042 0.3314386771104964 0 0.38593969585746768 0.44843324941957241 0 0.42544665781957403 0.3726599289372452 0 0.38240158409674341 0.60644575028138747 0 0.34793494568226019 0.52426775179830853 0 0.45232393232070839 0.53082724112931345 0 0.46433624429412901 0.61260020600107856 0 0.55763912874459476 0.49619993861770217 0 0.56379254693201075 0.58472273515948836 0 0.49272830291620878 0.32528628960011152 0 0.47711113382803011 0.43513410852522788 0 0.56509579243166053 0.39588847936247551 0 0.58612580217118482 0.27813894450229909 0 0.49255105193724569 0.22337579986912359 0 0.5565830077206213 0.19095699352548859 0 0.59999999999951659 0 0 0.57505385014294308 0.072457888465917331 0 0.49999999999959438 0 0 0.50264032148191051 0.12292784096123539 0 0.43504744109702559 0.077628892606360606 0 0.39999999999966429 0 0 0.35933948296838258 0.073809900849860513 0 0.33604819894646598 0.23280286076243209 0 0.41589935411558732 0.26752529264016389 0 0.40428440976105728 0.1643886070295453 0 0 1 0 0.099999999999999645 1 0 0.14716362552681639 0.93861610753355362 0 0.19999999999999929 1 0 0.30000000000000071 1 0 0.29792158491427922 0.79537096033156995 0 0.2235202862591317 0.88873896332704583 0 0.1332109546178302 0.87498377138822103 0 0.075231054453351903 0.92314074346405706 0 0 0.89999999999958358 0 0 0.79999999999999982 0 0.074918724681641777 0.83311952320732263 0 0.1533088418661793 0.80370257472597129 0 0.089684836063650353 0.74720097194875412 0 0 0.7000000000006934 0 0.079752623936563252 0.65630726580969023 0 0.16551550920047911 0.70947866912672319 0 0.22047232289835689 0.77501739045979867 0 0.25446499951716589 0.69023946426646743 0 0.32437633398017029 0.65970549827478953 0 0.33985912385126898 0.73174041004507751 0 0.42824324229177341 0.6924957961634054 0 0.5174764925733939 0.65338828204098198 0 0.59670004617370476 0.65981579440137683 0 0.62152629835360762 0.73285157302339954 0 0.52912171753951986 0.73993242892488531 0 0.51076728641122882 0.81691863363193817 0 0.62017612851329729 0.81451802170669263 0 0.56701461556202259 0.86335846433862784 0 0.45907587517201498 0.90165918271477563 0 0.43819239467549531 0.79296936871720936 0 0.36912581253574028 0.83088590731704637 0 0.37337282601342481 0.92616598444216514 0 0.31535921456193688 0.88154045330654418 0 0.39999999999999952 1 0 0.49999999999999911 1 0 0.59999999999999964 1 0 0.5499999999999996 0.93976792513729512 0 0.70000000000000018 1 0 0.79999999999999982 1 0 0.89999999999999947 1 0 0.8793859710393791 0.93083561064221121 0 0.93540888248908083 0.88281232945237675 0 0.91372311269140116 0.80486176357476358 0 0.82192606283926717 0.87651855948129354 0 0.73937541854631073 0.9288754054780668 0 0.64588148000090029 0.91512139508160772 0 0.76404828705430583 0.78174230667165401 0 0.71722872346306721 0.85096302760907838 0 0.69085763855200755 0.76120667115691065 0 0.6754414170471299 0.67700559910555169 0 0.74547688787239819 0.70026419381674654 0 0.81910554849723838 0.69100245438023977 0 0.84477163403336131 0.77519844632340484 0 0.90192269692920224 0.70295054578552552 0 0.9749171938312049 0.68304286407835557 0 0.98491966670915287 0.745702719141624 0 1.0785590511537511 0.75365885686631617 0 1.05 0.67063679245255348 0 1.1595355377629719 0.69612720023346242 0 1.2316049928421089 0.71268197388690568 0 1.130022579458912 0.80264790230838934 0 1.2104878010462079 0.79638517641579154 0 1.246238897717278 0.90016207822659 0 1.1492841477515361 0.89495863909300122 0 1.035017143854235 0.92577305964649748 0 1.039491394416145 0.83402983011495258 0 0.99999999999999911 1 0 0.94997493298435887 0.94717135651053852 0 1.1000000000000001 1 0 1.1999999999999991 1 0 0.8520969719592798 0.19112077159544111 0 0.81051762114363357 0.25355176211442859 0 0.91043121937362004 0.26518856856736223 0 0.87151744524583186 0.1145610820769897 0 0.89999999999870417 0 0 0.8072276847200428 0.07509171132446453 0 0.79999999999899607 0 0 0.75434135135171976 0.12888799631625769 0 0.73796379772146625 0.059893436010741673 0 0.69999999999928797 0 0 0.66267222434682926 0.078497159578092612 0 0.64669101990832323 0.1799054750174742 0 0.75284581776561577 0.20455093921856349 0 0.7545004114404561 0.31098089234202853 0 0.68811979868824935 0.26566684131589419 0 0.65823561246403328 0.35502292901158627 0 0.64897033023755402 0.45530630145656431 0 0.71094001953927277 0.41472992215547572 0 0.65500944633069913 0.60601350811213128 0 0.66278242936710119 0.53985356489900171 0 0.74775703275407246 0.49059679564787018 0 0.74991769371388628 0.60451627361984739 0 0.85383906663538056 0.62014574817393608 0 0.82099888937423493 0.54529350322201742 0 0.89730215834238125 0.56352362508531118 0 0.79315209058920677 0.38802315963964318 0 0.83603391221093415 0.31708941802047369 0 0.84897848255088726 0.46000674997733482 0 0.9184189969982266 0.43608586792060411 0 0.89716106756302072 0.36571612550017968 0 0.97284972811175952 0.32057650487681749 0 0.97803218086495292 0.39957666910545891 0 1.049999999998295 0.45311778235774403 0 1.0499999999982661 0.33749999999944968 0 0.95554667482020261 0.61387123313571723 0 0.95438428234324713 0.50021891445525024 0 1.0610070115193291 0.56187728740506249 0 1.160572984923127 0.60155304747043781 0 1.1544259370261769 0.49580194535795907 0 1.11366617971111 0.39530889117858181 0 1.1787318575418491 0.43180077319900678 0 1.2482752740169289 0.44264463249545388 0 1.193211192060164 0.36417169501775798 0 1.2189485028845071 0.28846717556219142 0 1.225209211892335 0.20648826945283069 0 1.14543293599463 0.16096823716187 0 1.1317936052402791 0.27327200211975772 0 1.0273907165533489 0.25089655084417212 0 1.0673059847957449 0.1861726764986896 0 0.96758455917765662 0.17206502793490561 0 0.99999999999841238 0 0 0.95940036225003311 0.0802667348803804 0 1.0527907183502181 0.1005001786211816 0 1.1494214575391031 0.075340014825429069 0 1.09999999999812 0 0 1.199999999997829 0 0 1.2999999999975369 0 0 1.254652873386052 0.105753482544517 0 1.3681535985071449 0.13698083382674339 0 1.399999999997245 0 0 1.349999999997392 0.060567969661089648 0 1.291408388555241 0.26372433042992383 0 1.316869459340541 0.18778020585802921 0 1.3878996413210389 0.26723502210068018 0 1.473286192129879 0.27883707652097373 0 1.4156792278190771 0.19574754335211339 0 1.4905184776249101 0.20629734327603311 0 1.545236949037224 0.29434567071731399 0 1.456639397274391 0.1016053838939758 0 1.53341268746562 0.14194251306413061 0 1.542152768646126 0.073248247890105089 0 1.4999999999969531 0 0 1.599999999996661 0 0 1.6999999999963691 0 0 1.6799832100487111 0.082202015566833181 0 1.609545399082946 0.1308291592921435 0 1.567491488875842 0.20218805454405439 0 1.6351951680630969 0.23707571199064051 0 1.714493154391862 0.28897291620938281 0 1.7304700827703301 0.17386188770806579 0 1.799219293849516 0.26438879273789773 0 1.8480644103363271 0.19193194889233381 0 1.8299024103288899 0.1151394713368583 0 1.799999999996077 0 0 1.75369588639865 0.074917217572982864 0 1.7537858687071439 0.50406839622489796 0 1.742806034420483 0.6006074591026016 0 1.8544400981153091 0.62488101477716596 0 1.8316048184152021 0.54157006606434721 0 1.850967139686138 0.45738417241574703 0 1.8620515405159661 0.32644761881501039 0 1.787749129254824 0.36176402170097799 0 1.7808296409871709 0.43587276890434401 0 1.71976181471802 0.39635806210359681 0 1.645895854313963 0.45222881216869149 0 1.6419306970571019 0.3436055112169133 0 1.645263810758179 0.55814977621663464 0 1.5386621965636409 0.60828218080060537 0 1.550364457075788 0.50467902559054656 0 1.4795754400412069 0.53983964974648579 0 1.445918816848357 0.6075709531782556 0 1.551956040519719 0.40384519109247291 0 1.4491802319415681 0.4666714614197911 0 1.4507225717793131 0.3561247496431208 0 1.347125314110625 0.32447518420453242 0 1.385017785528226 0.40713366384701549 0 1.3198129865007471 0.39133224900025881 0 1.2615469736996101 0.34090999671933891 0 1.3860523322451299 0.56073196187600105 0 1.3462106466432811 0.48060664220838062 0 1.2709684905841181 0.55537862536316829 0 1.2546738886072291 0.63615646469940468 0 1.3545060270195819 0.65002758689694418 0 1.4000454837723419 0.73943313674757749 0 1.3035852436207409 0.73866974635260263 0 1.2914654457895349 0.81843301378315825 0 1.3255948392482531 0.88328132587465524 0 1.3864786876100039 0.92208751032957958 0 1.386174597084219 0.82350876346868962 0 1.482119963281066 0.782586299849238 0 1.463012078585596 0.89209645917012148 0 1.546104640467868 0.9195568013001878 0 1.535346256113697 0.70153336654872078 0 1.4534042830965781 0.68426123045930609 0 1.2999999999999989 1 0 1.399999999999999 1 0 1.5 1 0 1.599999999999999 1 0 1.6999999999999991 1 0 1.7999999999999989 1 0 1.6597641702579149 0.778
[...]
<CellData Scalars="A_conc,As-lin_conc,Bs-lang_conc,Cs-freund_conc," Vectors="" Tensors="">
<DataArray type="Float64" Name="A_conc" format="ascii">
2.6378389319251856e-06 3.0365906018555668e-06 8.281422792141472e-07 1.2418648476116632e-06 1.2849460609965023e-06 1.3243431818125255e-06 3.0194099947473129e-06 3.1591294890224168e-06 1.3316747261549025e-06 1.3711062273479494e-06 2.3042961487142662e-06 2.8805508610172637e-06 1.7460786466990811e-08 2.5610253437373921e-07 2.6246491211360931e-07 2.9854288891225572e-07 1.8751876588271452e-07 1.2157245735847002e-08 8.046551595667926e-08 2.8876789100458264e-07 3.0371275679113216e-07 2.9316096550671795e-07 7.4872206756560104e-08 1.747723581603345e-07 2.161333372825129e-09 3.3720085999594233e-08 4.9120008453559721e-10 1.8294483088846514e-09 4.9921738678849676e-11 2.260417697744008e-09 7.7666388962377877e-08 4.88663384278454e-09 1.2442521098222145e-09 3.1473010224058065e-11 3.7149980868840959e-10 6.2798642986655016e-10 5.3072517754119711e-09 8.1588948771101533e-10 1.383695441172243e-09 2.1075512494512748e-10 1.5782772447967399e-10 5.784510458069363e-10 1.2199612415418231e-10 9.7787834144338709e-11 4.4892357786706605e-10 2.0993120970867151e-09 1.1644454518485636e-08 3.4177951946720998e-11 6.7864805838899991e-11 4.3001973807664916e-11 3.7105160013785126e-11 1.2577582932840837e-08 6.5453405365818078e-11 5.0553685619726187e-11 1.0291590434372359e-10 9.9351435431615754e-11 5.3267821019783255e-11 4.0225983476498194e-11 8.7041610622280238e-10 3.9480022770786366e-09 1.5034425250453511e-10 2.7908906778425358e-10 2.1451441451270251e-10 1.1408368730291574e-09 1.5908846328858172e-09 1.9379371943836516e-09 5.7789322861848363e-09 3.4808333759979591e-10 7.1425252787448972e-10 7.8856494760090567e-10 8.9953752070783116e-10 7.9335726990497427e-09 1.1892907587472169e-10 2.7884547799680952e-10 1.4878950179169508e-10 3.3842649541016789e-10 7.8662736001260331e-11 1.075030107977497e-10 6.232734157237007e-11 1.0266951171813451e-07 1.0661936043642856e-10 1.5282384882050192e-10 1.5873006376732348e-07 1.9472957776949548e-06 3.0058831156828315e-06 1.7913677217811749e-06 1.7514553198907076e-06 1.5502726969464073e-07 9.3411135250898334e-07 9.8446939107157523e-07 2.8224764726958256e-06 2.7527781168552013e-06 3.6618867223581064e-06 2.3783901433162418e-06 9.4944199775261922e-07 3.1029222020756999e-07 5.320030338688263e-08 1.815223489058547e-08 4.3791660494532656e-11 9.9039646225303503e-08 5.4865745215429249e-08 3.0719671377574208e-06 3.653607196265712e-06 3.6021963321719577e-06 3.9756714986326316e-06 3.3570929153909428e-06 3.4426542183513313e-06 2.9461441651378111e-06 6.1645302887447704e-07 7.6431839936263965e-07 5.971567153665375e-07 5.753898493886805e-07 2.6626913101515515e-06 2.5901867719817626e-06 1.6045975283535846e-06 1.553594410936902e-06 1.1016887434306804e-06 3.0242352272295813e-07 5.5653076533062151e-07 3.1505764997069082e-07 8.941213626036203e-08 2.0736419310088482e-07 1.906883520628972e-07 8.5204264592086464e-08 3.8107866216952802e-08 1.2949890598270428e-08 3.5207932673803485e-09 1.4249374271680341e-08 5.9215532989710316e-08 2.1543339502406473e-07 6.3626359683413468e-08 6.7803222301340573e-08 9.7914964449694333e-09 4.7535797335857554e-09 6.5708282130755976e-09 1.1908718322064334e-08 2.6925463697221105e-08 2.2024827982745554e-08 8.1512082533839106e-09 1.8950626774537801e-08 1.0436830108929489e-08 2.2949068324163384e-08 6.8348650958338598e-09 5.8471090750429836e-08 2.8222307705366483e-08 3.156238107897638e-07 4.5063728909683704e-08 5.2172189956010403e-08 2.0008523849049446e-07 7.6349954582148137e-07 2.2323283574489293e-07 7.2338028940903136e-07 4.123591087147027e-07 1.0256654728081115e-06 2.9884235873904268e-07 1.1923659972435618e-07 1.1310201491995861e-07 6.1510380898334415e-07 3.0501769724896269e-06 9.9994564583214744e-07 4.4082979449645562e-06 3.2829797024666643e-06 3.371768457030867e-06 2.4009845981312569e-06 3.5805636273014348e-06 2.0161731129336799e-06 1.1432003279670426e-06 2.087365853453223e-06 1.3554261133648592e-06 8.6382668031379998e-07 3.7391960371676917e-07 2.8102165261359169e-07 3.2681512324580759e-07 1.6403004155005392e-07 2.1286107463508971e-07 1.4945162507643961e-07 5.7935935704366631e-07 5.4925572138448051e-07 3.8140332433652699e-07 3.5340060938244741e-07 2.3849899222145742e-07 9.4651837200805913e-08 1.0718311471780722e-07 1.3365582111829321e-07 6.8731071053000309e-08 4.5250071917597566e-08 6.2624770770606467e-08 4.0999879061356811e-08 6.8164639594178541e-08 1.3935811101241584e-08 3.0375033085609137e-08 1.2293523716319373e-08 1.6137354907173575e-08 1.792557981130469e-08 1.461128410366155e-08 1.9454853587382711e-08 7.7054219056017965e-08 7.499522182200565e-08 1.0186295123045736e-07 9.4981365613947475e-08 2.1356525537476539e-08 2.3900033291913821e-08 1.6113908764052711e-08 6.309379857186698e-08 5.8361120365653563e-08 6.7204159278099398e-08 1.6332815173339134e-07 1.4501055422983471e-08 1.616715111671536e-08 2.707055842724444e-08 1.2997441035042256e-07 1.0739770874074248e-07 7.3150582317655285e-08 1.1511049953999313e-07 1.0896712453703522e-07 3.6794126002719501e-07 3.4110029690015045e-07 4.1713109196556728e-07 6.1473074021355038e-07 3.896411576621247e-07 3.6915276273192636e-07 1.8741164812270496e-07 1.4773368047691144e-07 2.386617608355993e-07 3.4858335689785822e-07 3.3790476408479694e-07 4.2033025002597401e-07 4.5952034089504848e-07 4.8959029607295092e-07 5.3040300300132097e-07 5.7206177365098159e-07 6.697910255739458e-07 1.1416622177900107e-09 1.0999309691262143e-09 4.8535228051405595e-10 3.5893621013022266e-10 1.5052852900626928e-09 2.0266566719991069e-09 2.5394262439966968e-09 4.0983108300521428e-09 9.3490585932433552e-08 9.0450583503875578e-08 5.9429023801480013e-07 5.8138509994658325e-07 1.743697607618213e-09 6.381557269113246e-08 1.6877498771016516e-07 1.7368155157724699e-07 1.4436627435858932e-06 2.0000929086544683e-06 1.1175251299624205e-06 1.8066960709475497e-07 8.1154730041178389e-08 3.5967034819580299e-10 7.6418376001400245e-10 5.6046484870746778e-10 4.3038541510404241e-10 2.2287470757232455e-10 2.1440227289568484e-10 1.4565695845708039e-10 1.8835246377360235e-10 3.1671737457184052e-10 3.7607885626514439e-10 2.0158871715723427e-10 1.5542374981860629e-10 1.6741971507074195e-09 1.4079372895628033e-09 9.4870628950667687e-10 1.6936549108026355e-09 1.9473123109163607e-09 2.9519067745882909e-09 3.3920399769388805e-09 1.5347714763152884e-09 1.3388770052170721e-09 1.6943887604058572e-09 2.9745602349384917e-09 4.4298368253018691e-09 2.8347361656133657e-10 2.1340402821296559e-10 1.7266265804636991e-10 4.3564930291683336e-10 2.3858304869242014e-10 2.4200283369886284e-10 3.086706163185904e-10 4.9427577160948673e-10 6.2734901556886986e-10 4.7414125456996223e-10 6.1247919393828853e-10 3.1398021355030126e-10 3.686649764251264e-10 7.3274302983042492e-10 5.9254835356206541e-10 3.20321636566284e-09 4.2578702531294085e-10 3.334629102544728e-10 8.4531195332021725e-09 7.5692167241261745e-09 6.038619051407385e-10 4.9433823555667142e-10 7.3761715824793153e-10 1.4705972292988821e-09 1.5907488160103491e-09 1.3166294953246826e-09 5.5370198932663304e-10 4.3735405948590315e-10 8.8318305230873149e-10 4.9021642625131994e-10 1.0567078645930938e-09 1.2224159989290953e-09 2.1817047010494394e-09 6.3981311164836161e-09 5.302923550508032e-09 2.2659117546116252e-09 1.4988404832785408e-08 7.6680171024729045e-09 6.4357515698056775e-09 1.4422112555842259e-09 1.781631976482703e-09 5.1834642529824112e-09 4.2567660191828655e-09 2.7759574420531588e-09 1.0517752387351461e-09 8.8620502156136922e-09 1.3662659461596231e-07 5.3659028533243863e-09 6.3714967017873735e-09 8.1965891096148929e-09 1.1001135004449099e-08 1.877497511238589e-08 1.3992346926703718e-08 1.1529397422635388e-08 1.4306932298024756e-08 2.3060003728759183e-08 2.7381322668585382e-08 3.2678205945853144e-08 2.9615370643990577e-08 2.3750815574523651e-08 3.5157224255728512e-08 4.9491971091585978e-08 4.2651559209892493e-08 3.4770756840478091e-09 3.0547940778500479e-09 1.7986373571953644e-08 9.2432266171571237e-09 2.6414374258318785e-08 1.2711160110173875e-08 1.0827876372926727e-08 4.589286084611471e-09 5.8094172640814801e-09 1.3412422496698994e-08 1.5057887585384151e-08 3.3726524586617791e-08 1.5316886718320376e-08 2.745221664083737e-08 5.5229860787494908e-09 1.4078081232810091e-08 5.5603661562990058e-08 3.0384200248220219e-08 6.080500866730633e-08 3.7137996475046726e-08 6.7028093938898544e-08 7.2389360948746076e-08 6.3251760476894325e-08 8.6646669533596093e-08 8.0983426275966631e-08 1.0517042457462147e-07 1.1575879681209241e-07 7.3629493093565647e-08 3.1122707995097029e-08 3.3796492505341674e-08 9.235478036057127e-09 1.6887067173460693e-08 1.0369995934743114e-08 3.615649371276743e-08 1.8265885960224825e-08 2.5913443201588121e-08 2.0110586455465472e-08 7.410816516185187e-09 1.2474768127333875e-08 2.0547952655706549e-08 6.2297557353194952e-08 1.5284784459320503e-07 1.4759600573969866e-07 1.3951217432486864e-07 1.2782735212494882e-07 8.0985178606593107e-08 8.6671866627641488e-08 2.0865192904917869e-09 3.2328409375818564e-09 1.3173322250674668e-09 2.6893753266012958e-09 3.0090019946667125e-09 8.2227271735220505e-09 5.2901935221474178e-09 1.6484560034797018e-09 1.4652287894246559e-09 2.3999620069476437e-09 1.4078977653266854e-09 2.7394837156674978e-09 4.7935336113353737e-09 4.824579048601963e-09 1.4684017359135482e-09 2.3983083747671657e-09 1.0781099463910698e-09 1.2846006847554198e-09 1.7086026792025776e-09 2.7709161489291388e-09 1.3764374950004344e-09 2.2892685341251139e-09 1.2054748908166014e-09 1.0022314360422695e-09 1.0415086822128314e-09 8.5094309813514376e-10 8.4237591662523107e-10 4.196250140159447e-09 1.2386640194922791e-09 1.9207391847124233e-09 2.1429411343443554e-09 2.6773463596980042e-09 5.0795805831649821e-09 2.400224697355581e-09 1.4255159407444435e-09 1.422088865013501e-09 1.1956565955932715e-09 1.4138958225635496e-09 2.0555675269812516e-09 2.0253551318974478e-09 2.5300277343204477e-09 7.018731308600397e-10 5.5216691731536557e-10 6.3004116091058371e-10 1.7483421162427466e-09 2.9046988776077101e-08 3.0645109504751915e-08 4.1362696212424561e-08 3.8159497277490363e-08 2.1189077234448777e-07 1.8708736617260026e-07 1.9893744497527982e-07 7.1509159360338449e-07 5.0674542256758489e-07 5.3900417620860955e-07 7.5006939193262029e-07 4.8289102827296698e-07 4.2392081043850057e-07 2.277940235210711e-07 5.5983278507222432e-07 1.0463056469664754e-06 6.2495484395977318e-07 4.4757698512201066e-07 2.4379828374668741e-07 7.2309168825826408e-08 9.1564430844619125e-08 6.6743523642610815e-09 5.8206865979563939e-09 5.0780791873895717e-09 6.8513637874590351e-08 9.0397763930352116e-07 9.9065595684282383e-07 9.5813387014924871e-07 1.2460440111825243e-06 1.3590749037713005e-06 1.8011254738913433e-06 1.7207871467681126e-06 1.8551155095850292e-06 1.9373371170683881e-06 2.0095216569619802e-06 2.5398415325797926e-08 4.2812173193412878e-09 7.4695207709247929e-09 2.3280459661587837e-08 2.110698836768724e-08 3.9410821997998972e-07 2.5856963283571336e-07 6.567384394197244e-07 1.3106226239764187e-06 8.7370933430499896e-07 2.4622555653491166e-07 4.1301188783998466e-07 2.9444221534033675e-07 2.3715765875971583e-07 9.0617858328107902e-07 8.0024050955645106e-07 8.2864481253369082e-07 2.498363484138638e-07 2.608136104988674e-07 4.5511296042283492e-08 3.806593909707901e-08 4.089349637471884e-08 3.6943768524929514e-08 5.2233437129348005e-09 7.3204137067895066e-09 1.0300947260381058e-08 8.7770023708778944e-09 1.1522525831239597e-08 1.3083573358243216e-08 2.7851356579911224e-08 3.4320652572798998e-08 4.9802889295741018e-08 5.7882152087062451e-08 3.1358062428530406e-07 6.8888733037386825e-07 7.3234520061713224e-07 1.4077896138615974e-07 1.2844851808822617e-07 2.2289268764144679e-07 7.194076894918122e-07 1.1714591478259078e-06 4.2239767012858065e-07 2.6479061576053033e-07 1.5190556819702625e-07 6.1545299131587375e-08 8.8308532604106343e-08 2.8981900690125152e-08 2.0089133696305431e-08 7.1573347742284224e-08 9.6145989092442389e-08 4.7303996027426189e-08 2.8977912754554456e-06 1.9748594589344917e-06 2.1917688066289199e-06 2.263935205416629e-06 1.1006394321934788e-06 1.5931613467943344e-06 1.202208403241502e-06 1.5881158577401339e-06 3.9136470643110048e-06 7.0453453291018461e-06 1.1872217238179423e-05 1.8148528329517131e-06 1.0400803919750445e-06 6.6210059280889318e-07 1.5801553223592459e-07 2.6230993003242763e-07 3.0081083978766751e-07 6.8402146159177678e-07 5.3259292110118384e-07 5.4509968861665143e-07 1.9682653505305719e-06 2.0474157688659113e-06 1.1619595333442572e-06 9.4317186872043746e-07 4.0958726734164153e-06 9.2491612831769187e-06 7.278045022661867e-06 1.4704197945511419e-05 6.7199852888255412e-06 1.2490278827550023e-05 3.6547571149068735e-06 2.2478215513918207e-06 3.8258428322776153e-06 6.6201697663933684e-06 1.2422823112022352e-05 6.3428982927260267e-06 1.1095959960560935e-05 1.2746423971346169e-05 6.2409098542767267e-06 3.376094981603738e-06 1.8038764292731956e-06 3.0334714481828567e-06 8.0626755337290705e-07 7.7706596096156855e-07 1.894710607007897e-06 4.0143517424401287e-07 1.9864384938874879e-07 2.4130406627965164e-07 4.3097339944450573e-07 1.5824342403248077e-07 3.1495225629209293e-07 5.4913500557684097e-07 1.0170835110923537e-06 6.4182427793527156e-07 1.2590299552001334e-06 1.9812116470019162e-06 3.5493476927661488e-06 6.6938504829435432e-06 1.1137808092247281e-05 1.181702300870674e-05 1.0516209174806241e-05 6.6535392716989637e-06 1.0152399773017946e-05 5.374185511869336e-06 2.9503575298645896e-06 1.4015487990264449e-06 3.9783620367645335e-06 2.1445266813183223e-06 1.1696876643422538e-05 2.1815600770026267e-05 1.1148059378307815e-05 1.8096054434326957e-05 6.2134930168058095e-06 5.0628115328162992e-06 2.8079435890209961e-06 5.9052850362369765e-06 3.1404997810357382e-06 1.7464924134097412e-06 1.4143786028125376e-06 7.8778705198826165e-07 4.2260511333600273e-07 5.6375975723444668e-07 1.009877796325767e-06 7.9980162526669014e-07 4.1400659823607272e-07 2.3302109172209484e-07 1.8771655648112087e-07 3.7996048776179178e-07 9.8211376057697098e-08 1.4330800877895908e-07 6.6755731579209132e-08 2.0609598149897033e-08 4.5244550539206405e-08 4.0197159097636957e-07 2.1693539257983788e-07 1.1397214786100965e-07 3.2117240116170773e-07 2.7316474588073586e-07 1.9600674537317438e-07 9.2253299039344454e-08 1.6566354719172092e-07 6.9247280623803708e-08 1.6623236716918984e-07 1.8152618961464692e-07 2.1327693017428939e-08 1.3960136337251954e-08 3.3263668994529851e-08 6.4977515744352466e-08 2.444228192905463e-08 5.7756290852910586e-08 1.9027519430448243e-08 1.4053691756317052e-08 3.5544927898864935e-09 7.0350187252049609e-09 8.4954629093825422e-09 5.6825412969543273e-09 1.0966218073025849e-08 5.1809747702397931e-09 2.6521689978200921e-09 2.6482809080033911e-09 1.7626658410070129e-09 4.0573986907167183e-09 2.9233328974752989e-09 9.5121093338506439e-09 5.1676189111139653e-09 8.4297626861804826e-09 1.7494975173291944e-08 3.4155406452997e-08 1.8022536963461702e-08 3.48042193287056e-08 1.172417311941441e-07 7.3945771124307057e-08 9.141052263354504e-08 6.5987779608254188e-08 3.2409801073322047e-08 1.8522476186562393e-08 4.3177590194600611e-08 0.39877771638902665 0.38858052028786061 0.41277771356902559 0.43730722733285654 0.44571736314333055 0.42330723159500039 0.45327065497524255 0.46727065528760758 0.45142198985017712 0.45031283846363446 0.46433925216692429 0.4503999813563101 0.43694358185206517 0.43753162425780823 0.42897521529810523 0.46543937070978286 0.45150010543980201 0.46106073029299133 0.43921570579700397 0.41335994124540665 0.41061018138740057 0.42462771734068872 0.41960613412071041 0.3860062230178527 0.39593069522346197 0.39049526022474773 0.40212750002372244 0.41845964706250094 0.40455567953993604 0.40889789490234535 0.3957635280555965 0.38255708438956315 0.38160588828790387 0.35352321306912482 0.37113572906737874 0.36619711626469609 0.34454174282872707 0.37958393915259014 0.36474016513570062 0.37326762102483896 0.35806151699716371 0.3449787042651663 0.33738605808437572 0.35211285368998413 0.31318518034661569 0.32799834265037053 0.31248868084101789 0.31749332597766156 0.3014951668478284 0.30309146985703161 0.33389961835482734 0.31820908187919927 0.3308623332930849 0.30263379693658765 0.29865891622130392 0.30116344746580903 0.30603989165146306 0.3200398839840487 0.33044434541627327 0.37458052742856912 0.3640216186375973 0.354048656129128 0.34004868402432092 0.39013410630092449 0.40073019073035215 0.40422916545120952 0.41944433545906679 0.41473018874267997 0.43748910565510385 0.43801089241673963 0.42401090112332412 0.45327065608729916 0.46727065660540085 0.45195752324894012 0.45173207203806209 0.427257232203066 0.43730815023126146 0.4352548503907856 0.46433925868369619 0.45039999924038659 0.46106074155706728 0.45116575533562997 0.42539730682878407 0.41822362447910455 0.40506428667612104 0.38796948148111343 0.39209990725950622 0.40289424176679622 0.39569415906426786 0.39233482006407394 0.40517064754112808 0.41613959765743475 0.40452268736481828 0.41658452477346536 0.41403508645771958 0.438496779836481 0.43956241011241104 0.46510501118079128 0.45014331094049309 0.460038286408193 0.42775827890174373 0.43147525062607628 0.44535912495757041 0.46032082717873157 0.4507601851647256 0.43808119249887184 0.423490662265744 0.41294232777720163 0.40079353181784227 0.38932443578855069 0.39848907093394792 0.36811281373036109 0.37800981737566453 0.3660630132496025 0.35608381692380137 0.34422697404355096 0.34429914291900149 0.35804500796836064 0.32389907228667125 0.33620237381757989 0.31532085443532576 0.30291903596331549 0.29632141443355547 0.33154681470912012 0.32237421725153814 0.33198505429857228 0.32031003804666192 0.31161411482694601 0.29767102593393358 0.30500977998923895 0.29289597839216053 0.31815717474784661 0.34293502459202041 0.35607776268963048 0.35491178247813199 0.37932057305426109 0.36684818502754102 0.36830332046719894 0.38263300052392796 0.37824859817518042 0.36678633727651505 0.37902313698820622 0.34073949220800698 0.35604713218733208 0.33660923773349016 0.32477165662799534 0.30230468733933075 0.31378012508198316 0.30178238380341582 0.31429420612158332 0.32498688158215039 0.33428186559661527 0.32020141688980308 0.29792524997224995 0.30510993942207365 0.29939739985015762 0.31407607913091035 0.32807584724746935 0.35407302863904183 0.34007312446932314 0.34816140335980944 0.36168053617312768 0.37258722724078719 0.36749925204743022 0.38149924566147542 0.21719557349281476 0.22608870248742258 0.2377404025906274 0.24999021490924564 0.23599181244076928 0.26239796376855867 0.28539753701677872 0.27639762125964701 0.26223196382089575 0.2517183382820859 0.27373221947996007 0.25875546370054497 0.2908931418444371 0.28640062173394293 0.28843602520087269 0.2789436504857421 0.26769842547060413 0.24871200066919721 0.23955760262820303 0.24893959577226815 0.22940223790474923 0.2070106472582221 0.21749778072238293 0.21416051780829815 0.22743886309348715 0.2067186313454594 0.22340262234485492 0.20850325056938374 0.23683835741210965 0.25232557112669673 0.26889668107995829 0.27983943931179789 0.27484977450930792 0.28791719550990691 0.26551512770698676 0.2513132757438033 0.26534252997677865 0.27497161807158055 0.28728056096295895 0.27911363671680067 0.28624770032737085 0.2692555735578217 0.25967551919428339 0.23745827328331448 0.24733312943626451 0.23577745376605969 0.22177831115766597 0.21398914827323404 0.22854601290036086 0.19667714047684176 0.18823638110659197 0.20663185587697447 0.18208658602603531 0.19493100743401737 0.16874025488371558 0.17015890947725371 0.17892868114101859 0.14827278826469953 0.15820062386643827 0.14950236882545012 0.12714917033582038 0.12086925734512824 0.13615318202908788 0.13068997454869857 0.15652266787939986 0.14228313169048681 0.14623196981223735 0.13296301661968285 0.11941886853163355 0.12188073960073539 0.15372608091063847 0.15908352055085087 0.16938822720157634 0.19593647093594141 0.17980115947976946 0.19192161542192943 0.18131325220795833 0.19261709777712932 0.20128958182470061 0.1965090122533