<?xml version="1.0"?>
<VTKFile type="UnstructuredGrid" version="0.1" byte_order="LittleEndian">
<UnstructuredGrid>
<Piece NumberOfPoints="714" NumberOfCells="1306">
<Points>
<DataArray type="Float64" NumberOfComponents="3" format="ascii">
0 0 0 0.099999999999928008 0 0 0.082799035591426873 0.082799035591510806 0 0 0.10000000000041601 0 0.066361468125430589 0.15903440181097661 0 0 0.20000000000083221 0 0 0.30000000000124832 0 0.089078158003765312 0.2493007687782936 0 0.140351188660986 0.16130415108589741 0 0.21725788110387281 0.17316968768743621 0 0.17318221359491059 0.27409688392309489 0 0.24783073444672249 0.24783073444648379 0 0.29145143692666958 0.13500804559578439 0 0.20669143849501961 0.085546078947938975 0 0.19999999999983389 0 0 0.29999999999973409 0 0 0.35933948296838258 0.073809900849860513 0 0.43504744109702559 0.077628892606360606 0 0.39999999999966429 0 0 0.49999999999959438 0 0 0.59999999999951659 0 0 0.57505385014294308 0.072457888465917331 0 0.50264032148191051 0.12292784096123539 0 0.49255105193724569 0.22337579986912359 0 0.5565830077206213 0.19095699352548859 0 0.58612580217118482 0.27813894450229909 0 0.41589935411558732 0.26752529264016389 0 0.40428440976105728 0.1643886070295453 0 0.33604819894646598 0.23280286076243209 0 0.34318159319555042 0.3314386771104964 0 0.38593969585746768 0.44843324941957241 0 0.42544665781957403 0.3726599289372452 0 0.49272830291620878 0.32528628960011152 0 0.56509579243166053 0.39588847936247551 0 0.47711113382803011 0.43513410852522788 0 0.55763912874459476 0.49619993861770217 0 0.56379254693201075 0.58472273515948836 0 0.46433624429412901 0.61260020600107856 0 0.45232393232070839 0.53082724112931345 0 0.34793494568226019 0.52426775179830853 0 0.38240158409674341 0.60644575028138747 0 0.27661118526457179 0.58730386222759956 0 0.16324260003398389 0.62262730759772122 0 0.1946526892501724 0.54636184660733622 0 0.27220668248394869 0.50912429725145214 0 0.29987747321592639 0.43430880093746571 0 0.2371857680100064 0.35865548441110112 0 0.16486701364709541 0.41592657376307979 0 0.21928696632013719 0.4676461135047027 0 0.083393126324559225 0.42307471369029392 0 0.13897501191807771 0.34545639364066222 0 0.0632094674441709 0.3449112819864934 0 0 0.40000000000166441 0 0 0.50000000000205869 0 0.12353277228144981 0.51086097771927308 0 0.070553891733833127 0.57745844360881338 0 0 0.60000000000138687 0 0 0.7000000000006934 0 0.089684836063650353 0.74720097194875412 0 0.079752623936563252 0.65630726580969023 0 0.25446499951716589 0.69023946426646743 0 0.22047232289835689 0.77501739045979867 0 0.16551550920047911 0.70947866912672319 0 0.29792158491427922 0.79537096033156995 0 0.2235202862591317 0.88873896332704583 0 0.1332109546178302 0.87498377138822103 0 0.1533088418661793 0.80370257472597129 0 0.074918724681641777 0.83311952320732263 0 0 0.79999999999999982 0 0 0.89999999999958358 0 0.075231054453351903 0.92314074346405706 0 0 1 0 0.14716362552681639 0.93861610753355362 0 0.099999999999999645 1 0 0.19999999999999929 1 0 0.30000000000000071 1 0 0.39999999999999952 1 0 0.49999999999999911 1 0 0.59999999999999964 1 0 0.5499999999999996 0.93976792513729512 0 0.56701461556202259 0.86335846433862784 0 0.62017612851329729 0.81451802170669263 0 0.51076728641122882 0.81691863363193817 0 0.45907587517201498 0.90165918271477563 0 0.37337282601342481 0.92616598444216514 0 0.31535921456193688 0.88154045330654418 0 0.36912581253574028 0.83088590731704637 0 0.43819239467549531 0.79296936871720936 0 0.33985912385126898 0.73174041004507751 0 0.32437633398017029 0.65970549827478953 0 0.42824324229177341 0.6924957961634054 0 0.5174764925733939 0.65338828204098198 0 0.52912171753951986 0.73993242892488531 0 0.62152629835360762 0.73285157302339954 0 0.59670004617370476 0.65981579440137683 0 0.6754414170471299 0.67700559910555169 0 0.69085763855200755 0.76120667115691065 0 0.74547688787239819 0.70026419381674654 0 0.81910554849723838 0.69100245438023977 0 0.90192269692920224 0.70295054578552552 0 0.84477163403336131 0.77519844632340484 0 0.91372311269140116 0.80486176357476358 0 0.93540888248908083 0.88281232945237675 0 0.8793859710393791 0.93083561064221121 0 0.82192606283926717 0.87651855948129354 0 0.73937541854631073 0.9288754054780668 0 0.76404828705430583 0.78174230667165401 0 0.71722872346306721 0.85096302760907838 0 0.64588148000090029 0.91512139508160772 0 0.70000000000000018 1 0 0.79999999999999982 1 0 0.89999999999999947 1 0 0.94997493298435887 0.94717135651053852 0 0.99999999999999911 1 0 1.1000000000000001 1 0 1.1999999999999991 1 0 1.246238897717278 0.90016207822659 0 1.2104878010462079 0.79638517641579154 0 1.130022579458912 0.80264790230838934 0 1.1492841477515361 0.89495863909300122 0 1.035017143854235 0.92577305964649748 0 1.039491394416145 0.83402983011495258 0 1.0785590511537511 0.75365885686631617 0 0.98491966670915287 0.745702719141624 0 0.9749171938312049 0.68304286407835557 0 1.05 0.67063679245255348 0 1.1595355377629719 0.69612720023346242 0 1.2316049928421089 0.71268197388690568 0 1.160572984923127 0.60155304747043781 0 1.1544259370261769 0.49580194535795907 0 1.2482752740169289 0.44264463249545388 0 1.1787318575418491 0.43180077319900678 0 1.193211192060164 0.36417169501775798 0 1.11366617971111 0.39530889117858181 0 1.049999999998295 0.45311778235774403 0 1.0499999999982661 0.33749999999944968 0 0.97284972811175952 0.32057650487681749 0 0.97803218086495292 0.39957666910545891 0 0.95438428234324713 0.50021891445525024 0 1.0610070115193291 0.56187728740506249 0 0.95554667482020261 0.61387123313571723 0 0.89730215834238125 0.56352362508531118 0 0.82099888937423493 0.54529350322201742 0 0.85383906663538056 0.62014574817393608 0 0.74991769371388628 0.60451627361984739 0 0.65500944633069913 0.60601350811213128 0 0.66278242936710119 0.53985356489900171 0 0.74775703275407246 0.49059679564787018 0 0.71094001953927277 0.41472992215547572 0 0.64897033023755402 0.45530630145656431 0 0.65823561246403328 0.35502292901158627 0 0.83603391221093415 0.31708941802047369 0 0.79315209058920677 0.38802315963964318 0 0.84897848255088726 0.46000674997733482 0 0.9184189969982266 0.43608586792060411 0 0.89716106756302072 0.36571612550017968 0 0.91043121937362004 0.26518856856736223 0 0.8520969719592798 0.19112077159544111 0 0.81051762114363357 0.25355176211442859 0 0.7545004114404561 0.31098089234202853 0 0.68811979868824935 0.26566684131589419 0 0.64669101990832323 0.1799054750174742 0 0.75284581776561577 0.20455093921856349 0 0.75434135135171976 0.12888799631625769 0 0.66267222434682926 0.078497159578092612 0 0.69999999999928797 0 0 0.73796379772146625 0.059893436010741673 0 0.79999999999899607 0 0 0.8072276847200428 0.07509171132446453 0 0.87151744524583186 0.1145610820769897 0 0.89999999999870417 0 0 0.99999999999841238 0 0 1.0527907183502181 0.1005001786211816 0 0.95940036225003311 0.0802667348803804 0 0.96758455917765662 0.17206502793490561 0 1.0273907165533489 0.25089655084417212 0 1.0673059847957449 0.1861726764986896 0 1.14543293599463 0.16096823716187 0 1.1317936052402791 0.27327200211975772 0 1.2189485028845071 0.28846717556219142 0 1.225209211892335 0.20648826945283069 0 1.09999999999812 0 0 1.1494214575391031 0.075340014825429069 0 1.199999999997829 0 0 1.2999999999975369 0 0 1.254652873386052 0.105753482544517 0 1.3681535985071449 0.13698083382674339 0 1.349999999997392 0.060567969661089648 0 1.399999999997245 0 0 1.4999999999969531 0 0 1.542152768646126 0.073248247890105089 0 1.53341268746562 0.14194251306413061 0 1.456639397274391 0.1016053838939758 0 1.4156792278190771 0.19574754335211339 0 1.4905184776249101 0.20629734327603311 0 1.545236949037224 0.29434567071731399 0 1.473286192129879 0.27883707652097373 0 1.3878996413210389 0.26723502210068018 0 1.316869459340541 0.18778020585802921 0 1.291408388555241 0.26372433042992383 0 1.2615469736996101 0.34090999671933891 0 1.347125314110625 0.32447518420453242 0 1.385017785528226 0.40713366384701549 0 1.3198129865007471 0.39133224900025881 0 1.2709684905841181 0.55537862536316829 0 1.3860523322451299 0.56073196187600105 0 1.3462106466432811 0.48060664220838062 0 1.4795754400412069 0.53983964974648579 0 1.445918816848357 0.6075709531782556 0 1.5386621965636409 0.60828218080060537 0 1.550364457075788 0.50467902559054656 0 1.551956040519719 0.40384519109247291 0 1.4491802319415681 0.4666714614197911 0 1.4507225717793131 0.3561247496431208 0 1.6419306970571019 0.3436055112169133 0 1.645895854313963 0.45222881216869149 0 1.645263810758179 0.55814977621663464 0 1.7537858687071439 0.50406839622489796 0 1.742806034420483 0.6006074591026016 0 1.8544400981153091 0.62488101477716596 0 1.8316048184152021 0.54157006606434721 0 1.850967139686138 0.45738417241574703 0 1.7808296409871709 0.43587276890434401 0 1.71976181471802 0.39635806210359681 0 1.787749129254824 0.36176402170097799 0 1.8620515405159661 0.32644761881501039 0 1.799219293849516 0.26438879273789773 0 1.8480644103363271 0.19193194889233381 0 1.7304700827703301 0.17386188770806579 0 1.714493154391862 0.28897291620938281 0 1.6351951680630969 0.23707571199064051 0 1.567491488875842 0.20218805454405439 0 1.6799832100487111 0.082202015566833181 0 1.609545399082946 0.1308291592921435 0 1.599999999996661 0 0 1.6999999999963691 0 0 1.75369588639865 0.074917217572982864 0 1.8299024103288899 0.1151394713368583 0 1.799999999996077 0 0 1.8999999999957851 0 0 1.894432874635162 0.07551835003504323 0 1.9999999999955109 0 0 1.9480526939991849 0.12898730409406539 0 1.949071218763063 0.20551835056699769 0 1.889482378851052 0.25355176211435237 0 1.9370762551310139 0.30659376302738528 0 2.0131266155023031 0.26735551396116869 0 2.0579369465445829 0.18492358211896681 0 2.109175777466048 0.28747319291998968 0 2.1529249143000921 0.20760117016104621 0 2.145863811971962 0.09449602309195497 0 2.0499999999955518 0.089783354580979427 0 2.0999999999955929 0 0 2.1999999999957449 0 0 2.2631085279260659 0.078835433122263737 0 2.2171573042311432 0.14903409558359759 0 2.2999999999958969 0 0 2.3999999999960488 0 0 2.
[...]
<CellData Scalars="A_conc,As-lin_conc,Bs-lang_conc,Cs-freund_conc," Vectors="" Tensors="">
<DataArray type="Float64" Name="A_conc" format="ascii">
1.991001795056739e-07 1.3784183524327425e-07 2.2158549410330215e-07 5.3333242504805137e-08 4.1320764467973594e-08 3.0418055854911693e-08 1.4481279127876966e-08 3.5780935935906724e-09 1.2871442674859944e-09 5.4709557971704556e-10 1.1800724476742934e-09 6.2288221433040195e-09 5.1528518346789067e-09 4.1847408671549442e-09 8.534746910414828e-09 6.3419382510802308e-11 2.5952916784449927e-10 7.630537504900718e-09 9.8900100212932811e-09 8.8750601762805321e-08 7.1570361606891455e-08 2.8512734493997863e-07 2.6599518873174085e-07 1.8693997749611239e-07 2.2838946394777169e-07 4.2183134625530857e-07 6.7923262862119917e-08 8.9443606299127929e-08 9.8432076733105416e-08 3.6433717748426136e-07 3.1605930629125573e-07 2.2235648891173505e-07 2.5394152440427737e-07 4.815444452196125e-07 3.2622890910209467e-07 1.7056897191395798e-08 1.4344803449195945e-08 6.0676635332232104e-18 8.0930361632839855e-09 2.5835694350689655e-17 7.2579805298649252e-19 1.4656611143899766e-19 2.4642873505086656e-09 5.9120551011359866e-09 1.7615326313658073e-09 1.5584480668189491e-08 4.2247277764962261e-10 1.0639180799723883e-21 1.6370930835057316e-22 6.6348987972379807e-21 4.6451485525711044e-20 2.0256851130353119e-20 3.5073068917162252e-21 1.9316629860376597e-19 7.0553127864043924e-18 1.4814710414131808e-18 1.3104228924542768e-19 1.1256134819854219e-18 2.4238412618500218e-20 2.4291757085824772e-21 5.5764368159603443e-22 4.0725952875271742e-21 3.6071302368508799e-20 7.7356700240986178e-20 1.5286551148453646e-22 2.435119577724338e-21 2.776470204082667e-24 2.2444529959909086e-23 4.9519037501178506e-23 3.7930513334954626e-22 9.9677646096183035e-24 2.2564794820461032e-24 3.0031499268030961e-25 8.0965473447533855e-27 4.8749357577681733e-14 1.6898336254457282e-14 1.753347350059628e-27 1.6787468349526678e-26 2.2445200070792124e-25 7.085359383610105e-26 1.5570832731609835e-24 2.0199637504778794e-24 2.0451151392483215e-23 1.0586140487988814e-10 3.2796468598653379e-11 2.8912537152707872e-12 3.0976141015289042e-25 2.0234744563918421e-26 2.1932516692119441e-27 1.2933326690664582e-12 8.1631673447117595e-10 4.4117452989305283e-12 2.6998734173270325e-12 1.7006575297081369e-10 3.5830999416721564e-13 1.4919593411498312e-28 1.7950509673698376e-15 8.3331335655105732e-12 7.0052448362600855e-15 4.3175309479369395e-12 4.8638384390778096e-13 1.9829001792517825e-10 7.2634168866328448e-10 1.1654520030442854e-09 3.9948238063956584e-09 1.1404889116029554e-09 3.8765989862540358e-11 7.1080579475308313e-11 2.6149525495153832e-13 6.2690541272180585e-13 3.6495030097267165e-12 9.0987279790089917e-10 1.3147222699785764e-09 5.67309963361546e-10 5.4598430431787463e-09 1.6131744308451944e-08 2.1888792156253066e-08 4.294922805164423e-08 2.7803920969176722e-08 2.4960274179554012e-07 1.7427393210746009e-07 1.4492172226117938e-07 6.9520118787277639e-08 4.7008128991328253e-09 1.1888338109826302e-08 3.0667877639369374e-09 2.8494958849516909e-08 5.4403466232841281e-08 2.5670705653602001e-07 1.7439127642380683e-07 2.7351137561257918e-07 3.6000013321908867e-07 2.7030196792837492e-07 3.1279549984824502e-07 5.0744389631381543e-07 3.686158978258969e-07 4.2023545927924861e-07 3.0442097138274459e-07 2.8776077117473328e-07 5.2227201780161206e-07 8.4714964843921772e-08 1.1224331558894381e-08 1.6673183275568194e-10 8.0288669144796883e-09 1.170548081242894e-10 1.7937016669646962e-08 6.8365997700912426e-08 2.8217572549236158e-08 8.6774656203667726e-08 3.0387320425462791e-07 7.5556195974186341e-08 3.9203475170598189e-09 3.8319665549814887e-08 3.0096403516704702e-09 1.3868724095612723e-08 2.2308703232672755e-11 3.8052088982017602e-11 6.5057269029258289e-12 2.6668280453525337e-23 2.0221554832417396e-22 1.4168837407276573e-21 1.3735914148984777e-20 7.6974785046681751e-18 5.1547528421034302e-19 1.4521435324920961e-20 9.0682875387439913e-20 5.625283732710744e-19 2.5548673172123724e-18 2.2774157057719162e-18 1.3065500383550164e-17 3.8556849665497743e-17 4.9509709097928081e-17 2.4417544162257194e-16 8.6359839485306732e-16 5.1001017623851198e-17 1.3112338940990004e-17 1.1889192938885209e-16 6.0538923871865668e-16 2.0729117057621991e-15 9.9261175375832805e-14 3.6213608956578412e-14 9.4576888365525416e-15 2.8695038700920789e-15 1.4302960333243002e-14 1.8332924793806018e-13 4.6818583451277163e-14 1.7120442980109133e-13 6.9166056597318803e-13 6.0794368334678963e-08 5.4462391609244955e-08 3.0976844394943931e-08 3.7802377115784039e-15 9.0699439241121111e-16 2.1704645802319882e-16 1.3435937291813589e-08 2.5889259400661262e-08 3.2778585588509315e-07 1.4773896304175853e-07 1.953344157031415e-07 1.189073076411087e-07 1.624131685251256e-08 2.3186304258646157e-08 8.0350672560437108e-12 1.9358820729111548e-11 5.2628304214381724e-11 1.3408455859223296e-10 7.3095276607454821e-10 1.2271405997002096e-10 3.21179083767362e-10 2.8061686064806487e-10 5.7342748056484095e-11 2.2018471739741203e-11 1.0757490688028612e-11 3.5916670950043826e-12 1.7512410030304532e-12 4.6012962987454775e-13 6.7680418106149975e-13 4.752229900658066e-12 1.5634822880345439e-12 3.6943414298526056e-13 5.2190275658588034e-14 1.5034235338691776e-13 8.0403931624373419e-15 1.2298360677161295e-14 1.9794940134291731e-13 1.0708752604967476e-12 9.355218839463223e-12 4.4192617380169985e-12 1.8706817923303201e-11 4.2250920397161359e-11 6.2183393294860714e-13 2.6068031068482553e-12 5.3875164623763197e-16 1.2087698274615947e-15 3.5669156896916686e-16 7.1380803864809106e-15 8.7111995535472788e-15 9.6285777093290952e-14 2.0914713284574485e-13 1.3873820510679938e-12 1.8930102284802829e-13 4.5382960631678546e-13 2.8479458883163563e-15 3.8199836048313706e-14 9.0692117462660746e-15 4.0881366850155756e-14 1.5303107583724494e-14 1.1530056221708903e-14 3.298763759511689e-14 2.5886600182362965e-15 1.0744769792866345e-15 3.5461861401999936e-16 8.7547037178200332e-17 1.1549194436931364e-14 3.8956053491564653e-14 1.4170449304255174e-15 1.7686966241262664e-16 5.4045731850364426e-16 1.2131376876362866e-16 3.686283616502509e-17 8.4695938975821623e-18 9.4237559643356144e-18 4.3115694476751881e-17 1.7069196703046984e-20 9.8679871040622429e-20 2.0829051273478401e-19 2.3142151131037789e-18 4.9144233220096255e-19 8.1274134172457985e-18 1.8906641156521283e-18 5.5046272548593679e-18 1.1347358215675096e-16 2.9432622228311264e-17 5.1539892741978759e-16 1.7471261447983198e-15 1.6375090150792555e-16 2.9365350867547971e-17 6.3725354165589537e-16 3.0645828360375423e-16 2.1429273608609304e-15 2.450766486946266e-14 8.9774767900468377e-15 2.8659526293181383e-13 2.7417513260123055e-13 1.7660065018457892e-14 2.5876776093322036e-14 8.6916891202518323e-14 6.5499443302318037e-15 1.9765603129253402e-15 1.6262673765618069e-15 4.943371255096231e-15 1.1192962820008666e-16 4.7920169644307608e-17 2.2241466253476239e-16 5.6562140967609268e-16 4.1681812523636675e-15 2.7528696602731149e-08 2.3832672231727714e-08 9.6133436732681879e-09 2.312237585344104e-08 3.728194357150183e-07 2.1526690281061776e-07 3.0362822211159906e-07 1.18972737069826e-07 1.0834643961465811e-07 7.4586991586196953e-14 8.6386229213721461e-09 1.2451082835117985e-12 1.5643766289957939e-08 1.401981157432911e-08 1.5200176111072244e-11 2.4813044699576144e-08 3.5509162732051562e-11 7.8408237588110255e-12 2.0500801600085262e-11 3.5389048173330856e-12 8.8663368318729772e-13 1.0787989971375128e-13 3.5063299645116632e-13 8.3837706167675499e-13 8.2628994099999584e-12 3.2223486918539931e-12 1.9391270926246858e-11 3.9370523428005144e-11 1.3993401220312529e-12 1.1696190179275583e-11 2.5854057689283474e-11 1.8236123461943067e-10 1.2776936640914336e-10 5.6437878362894259e-11 2.2437983874091082e-10 8.7074700688781834e-11 4.7945308828531502e-10 1.70999418835165e-09 9.0853043047893408e-10 1.4372747870101416e-09 8.0068978482677869e-10 2.6175303361870812e-09 6.0681261380527018e-09 3.6593762098716213e-09 8.9647404081225392e-09 1.3455816525346734e-08 1.9440680198721198e-08 1.3317722122632882e-08 1.7883609914019563e-08 4.6267925282443416e-09 2.2834522160299739e-09 5.4162419144159216e-10 3.318102221890723e-09 1.5440157827626551e-09 5.9920126920407289e-10 4.2275165903905897e-10 5.5359104143808661e-11 5.5132660529704833e-11 3.3962936932421596e-10 1.3036241201248347e-10 1.7686604769156862e-11 2.487531617551596e-10 1.3796893178259378e-09 3.6526173212186964e-10 6.7362554888335137e-11 7.114883026936201e-12 3.7829422829850299e-12 1.6367153794303786e-12 5.9477916481298959e-12 3.0494520589731446e-11 3.4459360123328314e-12 4.0012865787797108e-13 1.6195039335906324e-13 1.6857465001010029e-13 4.4472284884546859e-13 2.1868577146894281e-14 1.9616931618844577e-15 6.0613618147778276e-15 2.1899120596978701e-14 7.746818726706517e-22 5.1251913717051415e-21 2.7135640874728803e-20 5.281179134148234e-20 1.0804626723415446e-18 2.3694569511388603e-19 1.3688480805345425e-19 1.3307375082144535e-19 4.7511223848780477e-13 8.6938151835751799e-13 4.3770760612116568e-12 8.7069063813586214e-12 1.303880540560927e-21 2.1770297597669616e-20 1.8261381617408766e-19 6.1814680474192102e-19 4.0109999400781553e-21 4.882830007814822e-18 3.6447598512866241e-18 2.7308386007289848e-17 1.4760794990665132e-16 1.134688350458489e-16 1.8902448584852634e-17 5.2893025402978653e-16 2.4877523540193116e-15 2.0294227715890044e-17 1.7562298477381772e-19 3.7685084408911401e-18 8.587552721949179e-19 4.8763790195059723e-20 5.9756928479461929e-21 5.3918931207840653e-19 5.4184158403446152e-20 1.7921917350273132e-22 5.5053519561388006e-11 3.3069331876632812e-09 4.8985260842159925e-10 1.2541382382047972e-20 2.7569922265310316e-10 6.0184615350742934e-11 3.5214233768148436e-11 8.7053478245737223e-10 2.3263690378012865e-09 3.1543107573004722e-09 3.9976395563294327e-09 1.8476223527251491e-10 1.4016222473728114e-08 2.67721154465315e-08 3.2290161750120316e-08 5.4349266969951369e-08 6.8178153890144399e-08 6.2511119145640623e-08 8.494948329207048e-08 1.8598349079268679e-08 2.2451664248651101e-08 7.1348907823454693e-08 1.0813586403582471e-07 3.8810583346869579e-08 8.2049949430990253e-08 4.4351665756435231e-08 1.2368892379643219e-09 4.6019970824120436e-09 3.1395842716674532e-08 5.3728494733949697e-10 8.8285365758582996e-11 7.9358482261837024e-22 2.1290849730305801e-26 1.3049365154160169e-24 9.7489665436227362e-26 2.9214573897914237e-26 7.0588101772476636e-10 1.1570896110959087e-24 7.4372499406578579e-24 2.0136106847294598e-25 7.7695081337560205e-24 6.8857424093204289e-32 9.6568630057638812e-31 1.5117380593334585e-09 7.2419535812617711e-08 3.5666320323314758e-08 4.0750290287508391e-08 1.1411743742145212e-08 8.2217120992942396e-09 1.0966369616905448e-29 2.2015596101776657e-27 1.792406178026978e-28 1.3478840593323647e-26 1.5301101353808745e-25 1.6621341138175788e-24 1.8935968618694123e-23 1.753285404663115e-22 1.2322977197877878e-24 2.6851581270598336e-23 1.0978558563768264e-23 2.8590902154478142e-25 2.8611225337857555e-26 7.515312090934002e-27 1.2720236389469825e-26 3.0962409560806888e-24 1.205283785241914e-25 6.6589456350341665e-25 7.2877829977108668e-24 1.4023336869759153e-24 2.1366615798131894e-25 1.1016794413922668e-27 7.8656283835265614e-29 8.2728913046626168e-30 3.9196085091691262e-23 2.0983430946803447e-22 2.2177111217366633e-21 9.5055094196235754e-21 6.1474007247800835e-20 2.1642223790437993e-19 4.788931840985156e-20 1.6538950403288106e-21 6.7101584723544444e-21 1.5661251957755695e-19 5.2913640115049616e-23 6.0808736926222653e-19 1.6563624789499833e-18 4.7146016779719379e-18 2.6851664376159814e-17 9.2503066449355593e-17 3.9906999085204481e-16 1.4640891590304255e-16 3.3565494796607198e-17 8.2961130908136528e-14 3.5780784477054946e-14 1.5371431391635086e-18 2.3528981051157405e-15 9.2194673907594581e-16 3.7538684436282891e-16 2.5329520261956484e-12 1.3889786086746633e-12 6.2044881416916583e-13 1.63700615956678e-13 2.9487819969833773e-14 3.248722082355801e-14 5.7235102407033473e-15 8.6702219229099782e-14 8.764860775955784e-17 2.983551208874971e-22 5.4600309515838405e-23 3.0708264020895675e-17 6.1624413121457772e-18 4.0305063551757509e-16 2.4054919726934443e-18 3.3910368522396302e-20 6.4935301402475081e-19 1.0077167490787035e-20 1.8555885908740066e-18 9.881074870989516e-17 9.0244567418668155e-18 7.5468990787813181e-17 1.9351910221396416e-15 2.2943182110018795e-15 9.9950771322984437e-15 5.6680495381310725e-16 7.9966528991373843e-15 7.1248587753208742e-14 2.9848064952945338e-14 1.8524858439747538e-13 2.2205718481494218e-14 1.1653282426454312e-12 2.243089010765097e-12 4.3695899211272476e-10 6.6975559513122299e-10 1.8437680692613891e-08 6.2825200724220455e-08 8.1479921162221636e-08 3.3023902600189256e-09 2.5019888840769837e-09 7.471624634095801e-09 8.5772167820564311e-08 1.8543542372542875e-08 1.8108965853216795e-07 9.9962697403668727e-09 4.3098883431004016e-11 2.0912259262447946e-11 1.0886350379635038e-11 4.8971274855988109e-13 2.0998129673692806e-13 6.9349387200754971e-14 1.1823494920968151e-12 3.6512398793093802e-13 2.4149330698806412e-12 5.8453406048832532e-12 8.3095315399369281e-11 9.3285812916435916e-11 1.9673449745636161e-11 1.302122283093161e-11 5.7577018155967572e-13 9.3460330216850725e-13 1.6358182598781095e-14 1.7826516566867484e-12 7.5589288269184201e-11 1.1772684373639179e-10 1.6437288958477596e-10 3.4318284684015621e-09 5.9900016435990697e-10 9.566416338904719e-10 1.1150069331694942e-08 2.8934076508083737e-08 2.1662960727690424e-09 1.4588822051022641e-10 1.5115291515281204e-09 9.8618475226492522e-10 1.705757445472815e-10 2.2073108559098834e-08 1.0226465940707717e-07 1.1863597600904999e-07 4.0695738272185777e-08 2.6294962059350069e-08 4.3217545787025408e-08 2.7179659145630131e-07 1.6040038942123125e-07 4.3332296915647212e-07 3.8573757023380368e-07 5.1387054303351852e-07 2.9526180951483775e-07 8.0251339620016372e-08 1.3292194725480305e-07 1.7790273691678394e-07 2.1238771519394681e-07 3.0088951649062778e-07 2.4964034033776648e-07 7.6759334225069783e-08 6.3011488787903805e-08 6.2550189608554088e-08 1.0373538053445353e-08 6.625013625429619e-09 1.194234015799041e-08 9.2755953656757731e-09 2.891153770247619e-10 1.5290955571573447e-10 9.8038293124538054e-15 2.3180267874222464e-15 1.2899855705365164e-10 2.3046373102395907e-10 4.5880853376033937e-11 5.9033800284927271e-16 1.7789226532261033e-12 1.2780394733391614e-11 2.5443406479015607e-11 9.8348866864695688e-09 4.413024520009283e-09 1.395175599291753e-08 6.2407988368511285e-09 4.9039749520671606e-08 6.0742663149269531e-08 1.8741943037654716e-08 1.2356942726185957e-08 2.3503313790256404e-08 3.2427893066419169e-09 3.1546974244679466e-09 9.2200399178374707e-10 5.2668553465506415e-09 2.718193997516454e-09 5.8261538889580191e-10 2.9111183655711859e-10 8.0155500715497438e-13 3.1555854450363372e-13 1.1566161801297403e-13 1.763938105219942e-10 4.7625099847643443e-10 2.7615476802800869e-11 5.8803872738673973e-11 1.0731004248743835e-11 5.7856760568833352e-12 2.4301049001210029e-10 1.2162530427615084e-10 1.0240088569518477e-09 2.1078234101929076e-09 2.7201050726489034e-09 1.5498471310910258e-09 6.407325174839067e-10 5.5736893538699763e-09 1.0055992300613379e-08 1.4265425130942157e-08 4.0484825381708623e-08 2.0789733031156744e-08 1.6808901132677077e-08 3.4018516106080652e-08 2.2451013133410308e-08 1.8805944363342226e-08 1.1153677481434297e-09 1.6456050951740299e-08 5.2108649228883004e-10 2.8391697244649728e-10 2.0947095476851582e-09 1.6470997799210941e-10 7.2516695757530593e-11 9.0057272498637804e-12 1.0926919371563739e-12 1.5331329468230479e-13 3.8340945876274489e-11 1.3927212645965494e-11 7.0660327267157611e-12 3.5366390598721714e-13 3.0152416227577029e-12 1.7455452175969591e-11 2.4646213627012021e-09 5.9232597996738878e-11 1.0931782294020457e-10 6.2401422453241852e-09 4.7662541029609089e-09 1.8493931211992351e-09 1.3576054770208354e-08 7.0626227808300172e-09 1.0891141762903778e-09 1.4402635941973386e-09 1.5431391772099278e-09 8.1869092498133309e-12 1.9931597184114055e-10 4.2099353861319857e-12 1.3099391032223147e-13 6.1259269143444829e-13 1.4550779178274671e-11 2.245424576262884e-12 9.4980896649576842e-12 1.4294425212626248e-10 9.7330904923913537e-11 1.4938118681646932e-11 1.5119581433229247e-12 8.4644056069297922e-13 8.2069586019560531e-12 4.2760026374337143e-12 2.4990841809830302e-11 8.092533836080136e-10 5.3531868625798427e-11 1.5469732766392745e-10 7.2869449397332902e-10 2.0472694615210278e-09 5.4185016293973607e-09 1.5098936964367749e-09 5.2730112164274626e-09 8.6537987231485068e-09 3.7246226635019045e-09 1.0428926771463627e-08 6.6036127067719554e-09 4.2978166680713101e-08 4.3687569743360552e-09 7.5169279912968582e-08 3.3755293008758431e-08 6.8855660208398417e-08 5.6577022522407429e-08 7.7598528593480848e-08 1.0207533390260966e-07 7.8733253684366357e-08 9.1585394612785836e-08 5.9910011665277675e-08 5.2435610231239605e-10 8.1123823689335767e-10 3.5453137418780844e-11 2.1041600407577959e-11 1.0333104500046576e-09 8.3966015762021956e-12 8.2162792622284586e-09 7.0588994671960451e-09 2.9379581772475195e-09 5.5339678698211672e-09 2.3092806488264147e-09 1.4254783001889801e-08 8.1011496605432523e-10 3.7951911291332377e-10 2.0894952635221691e-13 2.6834380205525979e-10 8.8794636627255483e-14 4.3692841771649545e-14 5.9457867358826666e-14 2.9022630485041767e-14 4.6546978131955679e-13 1.5662613249038045e-12 3.0603817970798058e-12 1.5208474046575724e-13 5.2358051251908026e-13 3.0166566037113017e-13 3.7701739373560852e-12 2.2488900727421469e-12 1.0514853568611397e-11 6.6224554925536792e-12 8.2988480628273031e-11 5.6317668920197244e-11 1.0650001858679356e-09 1.507671766748904e-09 1.8157557809382914e-09 3.4711865449844347e-10 1.1866263684773148e-10 1.0253136767995003e-10 4.6886767464396961e-10 5.8987410601257695e-10 5.0523232207959724e-09 4.378493001900677e-09 1.1106130405618563e-09 8.1132371558820695e-10 3.4133222818702898e-11 1.6967724050666194e-11 1.0770449983377011e-11 1.223201474510732e-13 2.6497534687870266e-13 1.5495605709923794e-12 7.7501536608830628e-13 8.5939775152793579e-14 1.3389521453742951e-14 4.3619583739550195e-14 2.7158850856068986e-14 5.1603764478557517e-15 8.5459649090988397e-16 1.2569106480886781e-14 2.9896128867936436e-15 6.9937350991868325e-16 5.0148667394206436e-16 2.717875486726392e-15 5.1106586972355233e-15 1.0625425618123689e-16 6.2312856791739685e-16 2.2980036199190543e-16 2.3510582506829544e-17 3.5110242815718044e-18 1.6492349416680908e-17 3.909736393429476e-17 1.2839973489759611e-17 1.7148672124558302e-15 4.7682850721241471e-16 2.6910208239206686e-16 1.0378996639578332e-14 3.7003438328991247e-14 5.3571746270531462e-17 3.5314125716603615e-18 8.0001327254198645e-15 2.0773761310637323e-14 1.1140841906466162e-14 5.4801489151583906e-15 2.1698242411101271e-15 9.2186752810715881e-16 5.7557272739226448e-16 1.8844270711659136e-16 1.2128986927952912e-15 4.5707508581967226e-15 8.1189553898876516e-19 6.4121512131400614e-20 1.3154342804923623e-20 6.1926708506954593e-18 1.4784901211808356e-21 2.5479844987358971e-22 1.2278005739463362e-19 2.8889424495974682e-20 5.5594107384410184e-21 8.066910836853159e-19 1.2516293308842213e-17 3.144386648267785e-18 6.9344253413487665e-19 1.5893797072199839e-19 7.7941133088870442e-19 3.0776350834430468e-18 1.205908017430657e-19 2.0247952207856724e-20 1.3857811477045945e-19 2.8716434006377501e-20 9.109887203396555e-22 2.0046792776658648e-22 5.8047556643571966e-24 3.1578104513420566e-23 5.0669400155365502e-23 4.2007863946038306e-22 2.885994374405072e-21 1.5148325854972297e-20 1.7645762356052888e-21 1.8305649661684934e-22 1.1678317673870317e-21 9.3105905546219373e-21 7.3581226244191078e-20 5.0590585279069026e-19 1.0022676808975026e-19 6.7423172265344767e-19 4.0397162873932005e-18 1.8367837684095888e-17 3.0835567805267752e-18 1.0809643530266531e-16 5.5866150097858552e-16 2.6485623675282595e-15 1.1937453988161025e-16 2.2591133461507188e-17 2.0393772927737638e-17 1.5514712955622528e-16 6.2689506685510216e-16 9.6821719082114139e-17 2.3676409370887295e-15 7.0579207695828211e-15 7.2668257084117011e-16 1.4715561719242995e-15 2.7703772638120