<?xml version="1.0"?>
<VTKFile type="UnstructuredGrid" version="0.1" byte_order="LittleEndian">
<UnstructuredGrid>
<Piece NumberOfPoints="570" NumberOfCells="968">
<Points>
<DataArray type="Float64" NumberOfComponents="3" format="ascii">
0.000000000000000e+00 0.000000000000000e+00 0.000000000000000e+00 0.000000000000000e+00 1.000000000000000e+00 0.000000000000000e+00 1.600000000000000e+01 1.000000000000000e+00 0.000000000000000e+00 1.600000000000000e+01 0.000000000000000e+00 0.000000000000000e+00 0.000000000000000e+00 1.999999999995579e-01 0.000000000000000e+00 0.000000000000000e+00 3.999999999989749e-01 0.000000000000000e+00 0.000000000000000e+00 5.999999999989468e-01 0.000000000000000e+00 0.000000000000000e+00 7.999999999994734e-01 0.000000000000000e+00 1.999999999996227e-01 1.000000000000000e+00 0.000000000000000e+00 3.999999999992458e-01 1.000000000000000e+00 0.000000000000000e+00 5.999999999988365e-01 1.000000000000000e+00 0.000000000000000e+00 7.999999999983944e-01 1.000000000000000e+00 0.000000000000000e+00 9.999999999979721e-01 1.000000000000000e+00 0.000000000000000e+00 1.199999999997645e+00 1.000000000000000e+00 0.000000000000000e+00 1.399999999997340e+00 1.000000000000000e+00 0.000000000000000e+00 1.599999999997035e+00 1.000000000000000e+00 0.000000000000000e+00 1.799999999996729e+00 1.000000000000000e+00 0.000000000000000e+00 1.999999999996380e+00 1.000000000000000e+00 0.000000000000000e+00 2.199999999995840e+00 1.000000000000000e+00 0.000000000000000e+00 2.399999999995257e+00 1.000000000000000e+00 0.000000000000000e+00 2.599999999994675e+00 1.000000000000000e+00 0.000000000000000e+00 2.799999999994092e+00 1.000000000000000e+00 0.000000000000000e+00 2.999999999993509e+00 1.000000000000000e+00 0.000000000000000e+00 3.199999999992926e+00 1.000000000000000e+00 0.000000000000000e+00 3.399999999992343e+00 1.000000000000000e+00 0.000000000000000e+00 3.599999999991760e+00 1.000000000000000e+00 0.000000000000000e+00 3.799999999991177e+00 1.000000000000000e+00 0.000000000000000e+00 3.999999999990594e+00 1.000000000000000e+00 0.000000000000000e+00 4.199999999990011e+00 1.000000000000000e+00 0.000000000000000e+00 4.399999999989427e+00 1.000000000000000e+00 0.000000000000000e+00 4.599999999988845e+00 1.000000000000000e+00 0.000000000000000e+00 4.799999999988263e+00 1.000000000000000e+00 0.000000000000000e+00 4.999999999987679e+00 1.000000000000000e+00 0.000000000000000e+00 5.199999999987096e+00 1.000000000000000e+00 0.000000000000000e+00 5.399999999986513e+00 1.000000000000000e+00 0.000000000000000e+00 5.599999999985930e+00 1.000000000000000e+00 0.000000000000000e+00 5.799999999985348e+00 1.000000000000000e+00 0.000000000000000e+00 5.999999999984764e+00 1.000000000000000e+00 0.000000000000000e+00 6.199999999984182e+00 1.000000000000000e+00 0.000000000000000e+00 6.399999999983598e+00 1.000000000000000e+00 0.000000000000000e+00 6.599999999983016e+00 1.000000000000000e+00 0.000000000000000e+00 6.799999999982433e+00 1.000000000000000e+00 0.000000000000000e+00 6.999999999981850e+00 1.000000000000000e+00 0.000000000000000e+00 7.199999999981268e+00 1.000000000000000e+00 0.000000000000000e+00 7.399999999980683e+00 1.000000000000000e+00 0.000000000000000e+00 7.599999999980102e+00 1.000000000000000e+00 0.000000000000000e+00 7.799999999979519e+00 1.000000000000000e+00 0.000000000000000e+00 7.999999999979108e+00 1.000000000000000e+00 0.000000000000000e+00 8.199999999979463e+00 1.000000000000000e+00 0.000000000000000e+00 8.399999999979988e+00 1.000000000000000e+00 0.000000000000000e+00 8.599999999980515e+00 1.000000000000000e+00 0.000000000000000e+00 8.799999999981042e+00 1.000000000000000e+00 0.000000000000000e+00 8.999999999981569e+00 1.000000000000000e+00 0.000000000000000e+00 9.199999999982095e+00 1.000000000000000e+00 0.000000000000000e+00 9.399999999982622e+00 1.000000000000000e+00 0.000000000000000e+00 9.599999999983149e+00 1.000000000000000e+00 0.000000000000000e+00 9.799999999983674e+00 1.000000000000000e+00 0.000000000000000e+00 9.999999999984201e+00 1.000000000000000e+00 0.000000000000000e+00 1.019999999998473e+01 1.000000000000000e+00 0.000000000000000e+00 1.039999999998525e+01 1.000000000000000e+00 0.000000000000000e+00 1.059999999998578e+01 1.000000000000000e+00 0.000000000000000e+00 1.079999999998631e+01 1.000000000000000e+00 0.000000000000000e+00 1.099999999998684e+01 1.000000000000000e+00 0.000000000000000e+00 1.119999999998736e+01 1.000000000000000e+00 0.000000000000000e+00 1.139999999998789e+01 1.000000000000000e+00 0.000000000000000e+00 1.159999999998842e+01 1.000000000000000e+00 0.000000000000000e+00 1.179999999998894e+01 1.000000000000000e+00 0.000000000000000e+00 1.199999999998947e+01 1.000000000000000e+00 0.000000000000000e+00 1.219999999998999e+01 1.000000000000000e+00 0.000000000000000e+00 1.239999999999052e+01 1.000000000000000e+00 0.000000000000000e+00 1.259999999999105e+01 1.000000000000000e+00 0.000000000000000e+00 1.279999999999157e+01 1.000000000000000e+00 0.000000000000000e+00 1.299999999999210e+01 1.000000000000000e+00 0.000000000000000e+00 1.319999999999263e+01 1.000000000000000e+00 0.000000000000000e+00 1.339999999999315e+01 1.000000000000000e+00 0.000000000000000e+00 1.359999999999368e+01 1.000000000000000e+00 0.000000000000000e+00 1.379999999999421e+01 1.000000000000000e+00 0.000000000000000e+00 1.399999999999473e+01 1.000000000000000e+00 0.000000000000000e+00 1.419999999999526e+01 1.000000000000000e+00 0.000000000000000e+00 1.439999999999579e+01 1.000000000000000e+00 0.000000000000000e+00 1.459999999999631e+01 1.000000000000000e+00 0.000000000000000e+00 1.479999999999684e+01 1.000000000000000e+00 0.000000000000000e+00 1.499999999999737e+01 1.000000000000000e+00 0.000000000000000e+00 1.519999999999789e+01 1.000000000000000e+00 0.000000000000000e+00 1.539999999999842e+01 1.000000000000000e+00 0.000000000000000e+00 1.559999999999895e+01 1.000000000000000e+00 0.000000000000000e+00 1.579999999999947e+01 1.000000000000000e+00 0.000000000000000e+00 1.600000000000000e+01 7.999999999999998e-01 0.000000000000000e+00 1.600000000000000e+01 6.000000000013869e-01 0.000000000000000e+00 1.600000000000000e+01 4.000000000016644e-01 0.000000000000000e+00 1.600000000000000e+01 2.000000000008322e-01 0.000000000000000e+00 1.579999999999917e+01 0.000000000000000e+00 0.000000000000000e+00 1.559999999999833e+01 0.000000000000000e+00 0.000000000000000e+00 1.539999999999750e+01 0.000000000000000e+00 0.000000000000000e+00 1.519999999999667e+01 0.000000000000000e+00 0.000000000000000e+00 1.499999999999584e+01 0.000000000000000e+00 0.000000000000000e+00 1.479999999999500e+01 0.000000000000000e+00 0.000000000000000e+00 1.459999999999417e+01 0.000000000000000e+00 0.000000000000000e+00 1.439999999999334e+01 0.000000000000000e+00 0.000000000000000e+00 1.419999999999250e+01 0.000000000000000e+00 0.000000000000000e+00 1.399999999999202e+01 0.000000000000000e+00 0.000000000000000e+00 1.379999999999306e+01 0.000000000000000e+00 0.000000000000000e+00 1.359999999999445e+01 0.000000000000000e+00 0.000000000000000e+00 1.339999999999583e+01 0.000000000000000e+00 0.000000000000000e+00 1.319999999999722e+01 0.000000000000000e+00 0.000000000000000e+00 1.299999999999861e+01 0.000000000000000e+00 0.000000000000000e+00 1.280000000000000e+01 0.000000000000000e+00 0.000000000000000e+00 1.260000000000138e+01 0.000000000000000e+00 0.000000000000000e+00 1.240000000000277e+01 0.000000000000000e+00 0.000000000000000e+00 1.220000000000416e+01 0.000000000000000e+00 0.000000000000000e+00 1.200000000000555e+01 0.000000000000000e+00 0.000000000000000e+00 1.180000000000693e+01 0.000000000000000e+00 0.000000000000000e+00 1.160000000000832e+01 0.000000000000000e+00 0.000000000000000e+00 1.140000000000971e+01 0.000000000000000e+00 0.000000000000000e+00 1.120000000001109e+01 0.000000000000000e+00 0.000000000000000e+00 1.100000000001248e+01 0.000000000000000e+00 0.000000000000000e+00 1.080000000001387e+01 0.000000000000000e+00 0.000000000000000e+00 1.060000000001525e+01 0.000000000000000e+00 0.000000000000000e+00 1.040000000001664e+01 0.000000000000000e+00 0.000000000000000e+00 1.020000000001803e+01 0.000000000000000e+00 0.000000000000000e+00 1.000000000001942e+01 0.000000000000000e+00 0.000000000000000e+00 9.800000000020802e+00 0.000000000000000e+00 0.000000000000000e+00 9.600000000022190e+00 0.000000000000000e+00 0.000000000000000e+00 9.400000000023578e+00 0.000000000000000e+00 0.000000000000000e+00 9.200000000024964e+00 0.000000000000000e+00 0.000000000000000e+00 9.000000000026350e+00 0.000000000000000e+00 0.000000000000000e+00 8.800000000027737e+00 0.000000000000000e+00 0.000000000000000e+00 8.600000000029127e+00 0.000000000000000e+00 0.000000000000000e+00 8.400000000030513e+00 0.000000000000000e+00 0.000000000000000e+00 8.200000000031899e+00 0.000000000000000e+00 0.000000000000000e+00 8.000000000032939e+00 0.000000000000000e+00 0.000000000000000e+00 7.800000000032455e+00 0.000000000000000e+00 0.000000000000000e+00 7.600000000031622e+00 0.000000000000000e+00 0.000000000000000e+00 7.400000000030790e+00 0.000000000000000e+00 0.000000000000000e+00 7.200000000029958e+00 0.000000000000000e+00 0.000000000000000e+00 7.000000000029125e+00 0.000000000000000e+00 0.000000000000000e+00 6.800000000028295e+00 0.000000000000000e+00 0.000000000000000e+00 6.600000000027460e+00 0.000000000000000e+00 0.000000000000000e+00 6.400000000026630e+00 0.000000000000000e+00 0.000000000000000e+00 6.200000000025797e+00 0.000000000000000e+00 0.000000000000000e+00 6.000000000024965e+00 0.000000000000000e+00 0.000000000000000e+00 5.800000000024133e+00 0.000000000000000e+00 0.000000000000000e+00 5.600000000023302e+00 0.000000000000000e+00 0.000000000000000e+00 5.400000000022469e+00 0.000000000000000e+00 0.000000000000000e+00 5.200000000021635e+00 0.000000000000000e+00 0.000000000000000e+00 5.000000000020805e+00 0.000000000000000e+00 0.000000000000000e+00 4.800000000019972e+00 0.000000000000000e+00 0.000000000000000e+00 4.600000000019140e+00 0.000000000000000e+00 0.00000000000000
[...]
<CellData Scalars="conc_conc," Vectors="" Tensors="">
<DataArray type="Float64" Name="conc_conc" format="ascii">
0.000000000000000e+00 1.480397475681041e-02 0.000000000000000e+00 7.668231008812567e-03 0.000000000000000e+00 1.242818545213384e-02 0.000000000000000e+00 1.652379921627286e-02 0.000000000000000e+00 8.254978863112245e-72 0.000000000000000e+00 2.496815601821823e-07 3.638645215730550e-66 1.789499339511130e-05 5.826797240757375e-02 3.331810935179606e-02 8.902122513252778e-02 7.903550773603066e-02 7.141541570146978e-02 8.548118210641424e-02 3.478237214284069e-02 5.271031321724334e-02 1.122619379007536e-02 2.071738938214453e-02 4.230517824191915e-04 2.545341297414563e-03 5.570546075880796e-03 5.158069928311678e-06 1.076090400137243e-03 1.706413825196975e-05 3.951496307633669e-07 1.469727148980745e-06 2.429833478722883e-08 1.006418910170335e-07 1.213795803050535e-09 5.569645124993662e-09 4.979629120868209e-11 2.518234213337445e-10 1.549499689516925e-04 1.693274675396720e-12 9.395653446711208e-12 4.809978146309918e-14 2.917472169119785e-13 1.149117010880013e-15 5.309147006114905e-05 7.594289226543368e-15 2.322228834579036e-17 1.667541287360296e-16 3.989658754391129e-19 3.105349551187652e-18 5.852374025081346e-21 4.927270162602800e-20 7.357221357446031e-23 6.688174855368349e-22 7.951999812956180e-25 7.793244903964512e-24 7.409959822329995e-27 7.818643642498622e-26 5.966913965246080e-29 6.770978257707223e-28 4.160385750976837e-31 0.000000000000000e+00 5.072393326848699e-30 2.515789762882955e-33 3.293029739722144e-32 1.321117802429743e-35 1.855396190899379e-34 6.030815322844013e-38 9.083226694863091e-37 0.000000000000000e+00 2.394952192238209e-40 3.867099200096562e-39 8.277640438393249e-43 1.432624505298851e-41 2.490548837558899e-45 0.000000000000000e+00 4.619842586151258e-44 6.522921311453061e-48 1.296893536851553e-46 0.000000000000000e+00 8.594567082224413e-155 1.486684232382994e-50 0.000000000000000e+00 0.000000000000000e+00 0.000000000000000e+00 1.892545056998657e-92 3.834018584258898e-152 3.168758164375594e-49 0.000000000000000e+00 3.079039264128517e-94 0.000000000000000e+00 2.947047190519119e-53 5.285716297153834e-05 9.002365824921088e-124 1.697977498470494e-05 6.735938865758737e-52 3.037219593340687e-94 0.000000000000000e+00 5.076954946807227e-56 2.232593417760665e-107 4.460496564973341e-82 8.443926801091961e-155 0.000000000000000e+00 1.244913026328145e-54 0.000000000000000e+00 7.593283276560060e-59 1.998536775728949e-57 0.000000000000000e+00 9.851391376072171e-62 0.000000000000000e+00 0.000000000000000e+00 6.092613290087857e-126 0.000000000000000e+00 0.000000000000000e+00 6.193063562123313e-126 2.783699474270936e-60 2.430428769358808e-109 0.000000000000000e+00 2.064413048528835e-80 3.902108822638715e-152 0.000000000000000e+00 2.467480245078685e-109 1.104904678716467e-64 2.089236420336358e-80 0.000000000000000e+00 3.360798613799563e-63 0.000000000000000e+00 0.000000000000000e+00 3.504496676262137e-66 4.723750579249651e-96 1.918220732708837e-92 0.000000000000000e+00 1.635079052751063e-157 3.912899290788460e-128 2.546438318470030e-111 0.000000000000000e+00 0.000000000000000e+00 3.804992621843361e-152 9.286307422130246e-79 0.000000000000000e+00 0.000000000000000e+00 1.297203593919393e-179 0.000000000000000e+00 0.000000000000000e+00 0.000000000000000e+00 1.071364683750146e-67 1.244822844268897e-121 1.513462036347302e-149 1.870354008520255e-172 8.797839303403205e-71 5.368961235489950e-147 1.904157314604742e-172 9.253262415941788e-84 1.264986832849222e-121 0.000000000000000e+00 3.178129222256125e-169 1.233342233494487e-139 1.946431788101873e-105 1.865456288460910e-85 1.636239034136416e-103 9.368824408247832e-84 1.690196255966781e-144 9.149505520552181e-124 0.000000000000000e+00 2.493922145992890e-111 7.143525067118987e-176 0.000000000000000e+00 1.975430629833578e-105 3.826490032991453e-128 9.117285780759703e-79 1.881389581437625e-92 4.793987967734665e-142 1.254626126487791e-139 4.877255140759999e-142 3.088889219694700e-169 0.000000000000000e+00 4.631807976653916e-96 1.593005663804225e-157 9.674948098153927e-100 0.000000000000000e+00 1.830584817608311e-85 8.951170165962532e-124 4.762353765179254e-142 3.539712313744314e-163 1.603484731563398e-103 6.920823948882629e-98 6.520023462082798e-89 0.000000000000000e+00 2.640654342003654e-160 8.986454575890442e-71 1.143066925833955e-90 3.752510952990903e-166 3.516788705857420e-87 1.270829583316860e-101 0.000000000000000e+00 0.000000000000000e+00 1.968581371507236e-117 0.000000000000000e+00 6.229932513356200e-135 1.052772475899110e-67 2.944387282813627e-137 1.255723871081639e-132 1.640515654929182e-119 0.000000000000000e+00 7.272411742678023e-176 3.100832589722013e-69 3.820270622735851e-166 1.230019472238792e-54 3.562274135702142e-87 1.289304191097793e-101 1.416942699836868e-41 1.543589479416428e-04 2.901507141366249e-13 0.000000000000000e+00 7.748335621133783e-26 1.974232369377037e-57 3.825659127401866e-39 1.836441889538348e-34 8.955412509768964e-71 1.020951747005196e-07 9.351400156252916e-12 6.633200867806737e-22 1.656285526996766e-16 6.707785297408537e-28 6.366613192896738e-74 2.301173122776436e-130 1.282141226922474e-46 2.447084732855899e-72 2.403731988769228e-72 3.155980236906044e-69 0.000000000000000e+00 3.121704873415525e-169 7.888333400594637e-02 9.538065081133342e-100 4.515178579461899e-82 6.335952877776665e-135 2.421014794649749e-72 6.435403042451173e-89 1.719734532594173e-144 1.842037395810870e-85 2.296120936075740e-115 1.614604068634347e-119 2.266246273529214e-107 1.612503309860207e-103 1.234865329885712e-132 2.260545469887785e-115 2.894771856696863e-137 2.487331320684296e-113 5.354428382750770e-02 3.477052477629239e-163 1.999871432565281e-117 1.320522820441231e-179 1.611091774291171e-75 5.659554593969601e-03 0.000000000000000e+00 1.629284527750003e-75 0.000000000000000e+00 7.055194486347374e-176 4.431891679798388e-82 2.876624882714066e-137 1.605569895921861e-119 2.220211787477962e-107 3.444114492178199e-66 5.331252382917688e-147 3.966866455143343e-77 6.322035666353172e-74 0.000000000000000e+00 6.436844004858997e-74 8.377202406091026e-155 3.019517275234556e-94 3.167788398584029e-69 1.263678705346050e-101 3.715682314242305e-166 1.678706935899543e-144 6.191722029044070e-135 2.050955352559093e-80 1.957626491533950e-117 2.416980360115555e-109 0.000000000000000e+00 1.279515055140202e-179 6.057583899691505e-126 3.495238335814006e-87 0.000000000000000e+00 4.568260356748016e-44 6.656640128468793e-52 8.988096110276180e-37 4.888948295415447e-20 3.082711080150839e-18 5.553814375579973e-09 7.726045729974845e-24 2.508556456436664e-10 7.547602304978179e-15 2.749123657308935e-60 3.260291785234110e-32 5.023453656518676e-30 3.132073564624679e-49 3.284834860719502e-02 1.849131841339537e-172 0.000000000000000e+00 8.646422879345729e-02 0.000000000000000e+00 0.000000000000000e+00 9.194853001426871e-84 2.106207583159379e-02 1.469326651645068e-50 1.237807362358568e-121 1.091893408446697e-03 5.015692967761114e-56 2.369008623732847e-40 0.000000000000000e+00 1.307448933092045e-35 2.462477123539728e-45 7.342040030952732e-27 3.959576978174004e-19 1.209720394390380e-09 1.684634419373705e-12 9.722077796800720e-62 1.141696963833916e-15 4.119624465773503e-31 4.041312033510896e-07 7.295231818832999e-23 0.000000000000000e+00 1.225420267766364e-139 5.746104966299944e-02 1.551502131524350e-149 1.935598363032988e-105 7.243769609457773e-02 3.848907729686144e-128 9.178136560549239e-79 4.285570594820291e-04 0.000000000000000e+00 1.141056508051649e-02 9.484006151344340e-100 4.658682198091904e-96 1.606308959898643e-157 2.507786764242051e-111 2.912070377292983e-53 6.396505938573388e-89 5.966910781740053e-38 4.781985000958823e-14 8.186114192531153e-43 2.490428297845725e-33 5.805532902645161e-21 2.463903256175268e-08 7.881931188450622e-25 2.305910109049692e-17 7.499701726760903e-59 5.910266970663954e-29 4.958266830310784e-11 1.439773785573344e-02 6.448058440564324e-48 7.393769671659615e-02 0.000000000000000e+00 8.960611987457072e-02 9.018345432265183e-02 5.431720627724861e-02 3.630612348106191e-02 3.535622894621121e-02 0.000000000000000e+00 1.479164550950242e-50 2.482196406986494e-45 4.173173795198468e-31 6.495337697811162e-48 1.322013222847888e-35 8.257530862446092e-43 7.422349971354350e-23 2.584487754565219e-03 1.245485611641300e-09 7.452794951835791e-27 4.038936797199137e-19 1.167904061536043e-15 5.096322154323961e-11 2.355397965458822e-17 1.728694166425662e-12 8.009789029344501e-25 5.914082416406373e-21 6.028294729481646e-38 2.520418549980120e-33 4.899241361577902e-14 2.500139844428945e-08 5.993080358705366e-29 3.444979372247064e-163 5.043407407196072e-56 2.391474286338209e-40 2.929822697782287e-53 4.126557011592171e-07 1.174416832711904e-02 0.000000000000000e+00 0.000000000000000e+00 1.121266600039772e-90 0.000000000000000e+00 7.536723596885317e-59 2.661240085428418e-03 0.000000000000000e+00 0.000000000000000e+00 0.000000000000000e+00 6.785185296241660e-98 1.524559899758058e-149 1.227437372877422e-132 0.000000000000000e+00 0.000000000000000e+00 4.407507909174036e-04 5.386811197827326e-06 5.560362515840249e-05 9.759644505329975e-62 2.571417946384250e-160 0.000000000000000e+00 2.248013109916270e-115 2.435631814464305e-113 2.249857895107611e-130 0.000000000000000e+00 7.456051713247789e-05 0.000000000000000e+00 9.047814654476070e-71 0.000000000000000e+00 5.463331389453652e-147 3.895151416582091e-77 0.000000000000000e+00 3.921612191659256e-77 0.000000000000000e+00 0.000000000000000e+00 0.000000000000000e+00 0.000000000000000e+00 6.824185372827016e-98 7.834640421073572e-02 8.776488815494024e-02 5.485323918374987e-02 0.000000000000000e+00 2.449180711301150e-113 1.127996612132229e-90 0.000000000000000e+00 2.165974813044630e-02 1.600025744106042e-75 0.000000000000000e+00 0.000000000000000e+00 2.594033251019161e-160 2.263239456721098e-130 0.000000000000000e+00 5.827271501002881e-03 0.000000000000000e+00 1.076426719522915e-67 3.863454507602961e-39 0.000000000000000e+00 1.102110988015750e-64 0.000000000000000e+00 3.146654625690838e-18 9.084334092838546e-37 5.091259667989176e-30 4.983602812210509e-20 1.857715818251477e-34 2.975000829219456e-13 6.752945738144390e-22 2.580562218886650e-10 7.855957026876588e-24 9.603825045955265e-12 1.693052946739189e-16 7.726697314841404e-15 5.722809319049540e-09 6.805321166647414e-28 6.699181378424842e-52 3.301089441240541e-32 4.606454420902864e-44 1.037011311831446e-07 1.237165322427927e-54 3.154026160247313e-49 1.291968902630280e-46 0.000000000000000e+00 1.429834198401641e-41 7.869559991938309e-26 1.534310680950591e-06 1.984612002812255e-57 3.481252388011695e-02 1.124125008502160e-03 1.432409465103638e-02 0.000000000000000e+00 1.624189872394943e-04 0.000000000000000e+00 1.122455707094198e-02 2.762017667733718e-60 0.000000000000000e+00 0.000000000000000e+00 0.000000000000000e+00 5.796606013268634e-02 2.542153829352052e-03 1.784717025728825e-05 5.130007529659719e-06 0.000000000000000e+00 8.914542903944228e-02 2.452551911503813e-45 7.152693123458714e-02 0.000000000000000e+00 2.359844836219034e-40 2.481391459969379e-33 5.944312730334091e-38 8.153783300821982e-43 7.855528902314623e-25 1.086002053150341e-64 7.466635537001680e-59 5.786647965454538e-21 2.899642820514787e-53 3.946812728206891e-19 5.889700786379196e-29 2.298503341583714e-17 2.414744661072872e-08 6.421550353091112e-48 4.766380132876448e-14 4.941083573827446e-11 1.205295427448153e-09 1.138017055381909e-15 3.930327768545860e-07 0.000000000000000e+00 1.679007109255487e-12 4.104989545195632e-31 7.271186795228316e-23 7.316991718611786e-27 4.993916325057722e-56 1.463169781492620e-50 1.302602027169988e-35 3.348787213840166e-63 9.678767052745232e-62 1.968749063872013e-117 6.231209818781547e-135 3.522099741645844e-66 2.590719624326396e-160 1.864393434868443e-172 1.524039923803620e-149 2.263798805200753e-130 0.000000000000000e+00 9.232355998263465e-84 3.909500842714828e-77 1.270000982810759e-101 1.233468522500998e-139 1.945616261898381e-105 1.126270585379836e-90 1.245048514090529e-121 6.817937153287346e-98 0.000000000000000e+00 2.449062228004807e-113 3.366366890315289e-02 2.058912918620721e-80 6.094057422893254e-126 2.429900769195784e-109 1.690072552682775e-144 3.033549038652604e-94 2.072532350074864e-02 5.566677523699048e-03 3.510174920530259e-87 0.000000000000000e+00 6.448894495571112e-74 3.744797909440191e-166 5.277765612425109e-02 7.908362130048643e-02 1.182293036277573e-05 0.000000000000000e+00 0.000000000000000e+00 3.545633961470772e-67 2.451714168044630e-72 8.562164774821608e-02 1.290789710894229e-179 1.461008067250037e-06 1.276921683561580e-46 3.248586673358218e-32 1.411404093436235e-41 4.550032509867388e-44 8.437775285774005e-155 3.072799094281116e-18 7.700382189620200e-24 4.873126077342553e-20 3.811015862150946e-39 2.499651711195523e-10 2.736917338154316e-60 7.523154925892178e-15 7.722147899905872e-26 8.954417344161383e-37 5.532804294837681e-09 1.650961537687762e-16 1.000590199144144e-07 1.965590050571974e-57 2.891942449641300e-13 9.319645762903042e-12 5.005793109200342e-30 6.628486527590112e-52 6.684676885516394e-28 1.224723570897700e-54 6.611490797032155e-22 3.119072592841812e-49 1.829706468862603e-34 3.301484995590570e-63 1.235153042171673e-132 1.614826932310652e-119 3.113696293529990e-169 0.000000000000000e+00 6.424450667524820e-89 2.260597363480184e-115 9.530624739556438e-100 4.449527649360958e-82 2.231892066100124e-107 3.832032857846548e-152 1.889960213553019e-92 1.611646024491444e-103 2.895240365174441e-137 5.367918076360100e-147 0.000000000000000e+00 3.849862851439275e-128 0.000000000000000e+00 9.151738361129688e-79 9.004296353917016e-124 4.794105973841390e-142 2.507464332101936e-111 4.653751031846826e-96 3.471376842962274e-163 0.000000000000000e+00 1.838230366437723e-85 1.605765255048302e-75 1.604735320973848e-157 7.115230658858968e-176 4.216785289779122e-04 1.074146375477279e-03 1.592793079111109e-04 0.000000000000000e+00 5.833396148804498e-05 0.000000000000000e+00 3.326701944068679e-67 1.120099191299456e-05 7.412493357682151e-72 0.000000000000000e+00 2.287649359735519e-07 0.000000000000000e+00 3.029693989620947e-70 9.641797571333558e-07 0.000000000000000e+00 0.000000000000000e+00 5.599670390997648e-05 1.157934122615238e-64 1.153161771793012e-65 0.000000000000000e+00 0.000000000000000e+00 3.807741848184893e-05 3.188632823701842e-69 1.502094939110352e-06 1.017689670051761e-03 0.000000000000000e+00 6.406773107267006e-04 0.000000000000000e+00 0.000000000000000e+00 2.323376838692010e-05 1.085918767827181e-03 0.000000000000000e+00 0.000000000000000e+00 0.000000000000000e+00 2.322944644811713e-05 1.086624065163298e-03 2.833405682803721e-70 0.000000000000000e+00 0.000000000000000e+00 9.124334303720466e-07 1.112460989628881e-65 3.689731881891421e-05 1.069320604483885e-68 3.517443827253501e-06 0.000000000000000e+00 0.000000000000000e+00 1.633482525620325e-04 3.519679391978115e-63 0.000000000000000e+00 4.066409609615707e-02 9.974479722357863e-63 3.090027297978941e-04 0.000000000000000e+00 3.204931344225022e-83 1.059003541613081e-93 2.191839980635712e-73 1.351037706068892e-76 7.131834541434961e-80 5.542276190822958e-75 3.166421429148550e-78 1.220985886551953e-86 1.542970994423437e-81 3.924977535372094e-90 2.919957016232900e-61 6.387813499325511e-85 2.245418903308783e-58 8.530372553759319e-109 2.236824600802567e-88 1.496684538359518e-55 8.243948234338655e-60 5.901146444802112e-57 8.658580846088783e-53 6.592202789019666e-92 3.663930952177941e-54 4.352095980241305e-50 2.383923786467941e-97 1.902060922551577e-47 4.447120083208907e-101 1.975522324642646e-51 6.821997669634592e-105 2.147219530271178e-125 9.258387819839242e-49 7.231901780205029e-45 1.625935586722433e-95 2.392767768153063e-42 3.334920970362133e-99 3.773903396207790e-46 5.647303691406924e-103 6.889312111708435e-40 1.338508062286612e-43 7.830632639436455e-107 4.131318604320742e-41 1.725733774532280e-37 8.606986865600834e-113 6.925678268283519e-117 3.759022121877903e-35 1.109546447769367e-38 4.383591228383762e-121 2.983707757539249e-154 8.807582231508003e-111 2.591968726694044e-36 7.114437407586564e-33 7.948608501429001e-115 5.263360349289327e-34 1.168711887171040e-30 5.683158704551654e-119 1.664101611541643e-28 9.282081779990501e-32 2.050312574254315e-26 1.419868469800908e-29 3.171480698772067e-123 7.981666300082279e-130 2.198274707706418e-134 2.181407135700730e-24 1.881074204616004e-27 4.353826584074156e-139 1.999262375425051e-22 2.154298868551264e-25 5.968675550131094e-144 1.356946326170847e-127 4.356189912520069e-132 2.128014171151217e-23 1.573882951396629e-20 5.385416619261737e-149 1.021674667943190e-136 1.692640177322726e-141 1.808259348864979e-21 1.060689915017247e-18 6.095709877602757e-17 1.317698857636830e-19 1.896265800063365e-146 8.204835607562090e-18 2.973817036953427e-15 1.225114048782932e-13 4.347074570800751e-16 1.354551270634406e-151 4.236015389667030e-12 1.950204500777732e-14 9.169694237065736e-160 1.327171400213921e-165 7.366466148446395e-13 0.000000000000000e+00 1.220561697074560e-10 6.619522563936906e-172 0.000000000000000e+00 4.594471048651561e-179 2.327387858364441e-11 2.908270052381287e-09 1.229403849881071e-162 5.677000309386617e-157 5.625272643467210e-08 0.000000000000000e+00 6.103151984167887e-10 2.529195850420210e-175 1.104427127495608e-168 1.300734685421668e-08 0.000000000000000e+00 0.000000000000000e+00 0.000000000000000e+00 0.000000000000000e+00 8.201564192692573e-04 0.000000000000000e+00 4.616048671311190e-03 0.000000000000000e+00 2.022772856914750e-03 1.864794025656263e-02 0.000000000000000e+00 0.000000000000000e+00 5.129812283288568e-02 9.698097837079610e-03 3.258538063925972e-02 0.000000000000000e+00 8.873363951139382e-02 8.440318684226195e-02 0.000000000000000e+00 7.196998661186368e-02 0.000000000000000e+00 0.000000000000000e+00 0.000000000000000e+00 0.000000000000000e+00 9.434300058441146e-02 5.930579900584772e-172 4.112146363104441e-179 0.000000000000000e+00 0.000000000000000e+00 0.000000000000000e+00 2.264913866508631e-175 0.000000000000000e+00 0.000000000000000e+00 1.189937312081130e-165 9.898766356818904e-169 0.000000000000000e+00 0.000000000000000e+00 1.102627442635930e-162 8.226473475503628e-160 2.678143081111177e-154 0.000000000000000e+00 5.094381612148544e-157 0.000000000000000e+00 0.000000000000000e+00 1.216102600493706e-151 0.000000000000000e+00 0.000000000000000e+00 0.000000000000000e+00 0.000000000000000e+00 4.835989081265418e-149 0.000000000000000e+00 5.361818504638693e-144 0.000000000000000e+00 1.703143597110861e-146 3.912546008930357e-139 0.000000000000000e+00 1.520818210974192e-141 9.182778326025988e-137 1.976124903827535e-134 7.177314129920622e-130 3.916589666585957e-132 1.220384688767676e-127 1.931412807257199e-125 2.853148176064478e-123 3.944165269846853e-121 5.114190289013999e-119 6.233195899702901e-117 7.748557251936955e-113 7.154847448350724e-115 7.930245128467059e-111 7.681711968390796e-109 7.052562509198614e-107 6.144997627523851e-105 5.087581515456936e-103 4.006908014132622e-101 3.005222514381046e-99 2.148545009670466e-97 1.465604837732058e-95 9.547133872739625e-94 5.943861458603612e-92 3.539472221868188e-90 1.101388559469675e-86 2.017423261634248e-88 2.891884061745443e-83 5.762984832898667e-85 1.392473177370400e-81 6.437244259863145e-80 1.219835881363279e-76 2.858477382851328e-78 1.954497450924723e-73 4.930022391840464e-75 6.168976033702263e-08 8.302589150772927e-02 8.860969067378408e-04 3.178001936036456e-09 4.657348604846042e-12 9.031908105802516e-02 4.941225301216940e-03 5.341211514761583e-02 1.972660174237348e-02 1.338563265818865e-10 1.350012261380655e-13 2.175898489436430e-03 9.453219743730566e-02 1.437109061415586e-08 1.032406731281507e-02 3.283620803455201e-15 7.417527153137456e-02 3.421976765972500e-02 6.743010001442195e-17 2.555738554428502e-11 6.683925331627394e-10 8.108576956459635e-13 2.221593399362805e-22 1.175261209329337e-18 1.746508439928008e-20 2.283849065608913e-26 2.151255524676721e-14 2.427052934718957e-24 4.804423590451044e-16 9.083772702338468e-18 2.008000205654080e-21 1.855641142176848