<?xml version="1.0"?>
<VTKFile type="UnstructuredGrid" version="0.1" byte_order="LittleEndian">
<UnstructuredGrid>
<Piece NumberOfPoints="567" NumberOfCells="966">
<Points>
<DataArray type="Float64" NumberOfComponents="3" format="ascii">
0.000000000000000e+00 0.000000000000000e+00 0.000000000000000e+00 0.000000000000000e+00 1.000000000000000e+00 0.000000000000000e+00 1.600000000000000e+01 1.000000000000000e+00 0.000000000000000e+00 1.600000000000000e+01 0.000000000000000e+00 0.000000000000000e+00 0.000000000000000e+00 2.499999999993998e-01 0.000000000000000e+00 0.000000000000000e+00 4.999999999990217e-01 0.000000000000000e+00 0.000000000000000e+00 7.499999999993374e-01 0.000000000000000e+00 2.025316455691341e-01 1.000000000000000e+00 0.000000000000000e+00 4.050632911382681e-01 1.000000000000000e+00 0.000000000000000e+00 6.075949367074022e-01 1.000000000000000e+00 0.000000000000000e+00 8.101265822765362e-01 1.000000000000000e+00 0.000000000000000e+00 1.012658227845670e+00 1.000000000000000e+00 0.000000000000000e+00 1.215189873414804e+00 1.000000000000000e+00 0.000000000000000e+00 1.417721518983938e+00 1.000000000000000e+00 0.000000000000000e+00 1.620253164553072e+00 1.000000000000000e+00 0.000000000000000e+00 1.822784810122207e+00 1.000000000000000e+00 0.000000000000000e+00 2.025316455691340e+00 1.000000000000000e+00 0.000000000000000e+00 2.227848101260475e+00 1.000000000000000e+00 0.000000000000000e+00 2.430379746829609e+00 1.000000000000000e+00 0.000000000000000e+00 2.632911392398743e+00 1.000000000000000e+00 0.000000000000000e+00 2.835443037967877e+00 1.000000000000000e+00 0.000000000000000e+00 3.037974683537010e+00 1.000000000000000e+00 0.000000000000000e+00 3.240506329106145e+00 1.000000000000000e+00 0.000000000000000e+00 3.443037974675279e+00 1.000000000000000e+00 0.000000000000000e+00 3.645569620244413e+00 1.000000000000000e+00 0.000000000000000e+00 3.848101265813547e+00 1.000000000000000e+00 0.000000000000000e+00 4.050632911382726e+00 1.000000000000000e+00 0.000000000000000e+00 4.253164556952040e+00 1.000000000000000e+00 0.000000000000000e+00 4.455696202521353e+00 1.000000000000000e+00 0.000000000000000e+00 4.658227848090667e+00 1.000000000000000e+00 0.000000000000000e+00 4.860759493659981e+00 1.000000000000000e+00 0.000000000000000e+00 5.063291139229296e+00 1.000000000000000e+00 0.000000000000000e+00 5.265822784798610e+00 1.000000000000000e+00 0.000000000000000e+00 5.468354430367923e+00 1.000000000000000e+00 0.000000000000000e+00 5.670886075937237e+00 1.000000000000000e+00 0.000000000000000e+00 5.873417721506551e+00 1.000000000000000e+00 0.000000000000000e+00 6.075949367075864e+00 1.000000000000000e+00 0.000000000000000e+00 6.278481012645178e+00 1.000000000000000e+00 0.000000000000000e+00 6.481012658214492e+00 1.000000000000000e+00 0.000000000000000e+00 6.683544303783806e+00 1.000000000000000e+00 0.000000000000000e+00 6.886075949353121e+00 1.000000000000000e+00 0.000000000000000e+00 7.088607594922435e+00 1.000000000000000e+00 0.000000000000000e+00 7.291139240491749e+00 1.000000000000000e+00 0.000000000000000e+00 7.493670886061063e+00 1.000000000000000e+00 0.000000000000000e+00 7.696202531630375e+00 1.000000000000000e+00 0.000000000000000e+00 7.898734177199691e+00 1.000000000000000e+00 0.000000000000000e+00 8.101265822769285e+00 1.000000000000000e+00 0.000000000000000e+00 8.303797468339161e+00 1.000000000000000e+00 0.000000000000000e+00 8.506329113909036e+00 1.000000000000000e+00 0.000000000000000e+00 8.708860759478913e+00 1.000000000000000e+00 0.000000000000000e+00 8.911392405048788e+00 1.000000000000000e+00 0.000000000000000e+00 9.113924050618664e+00 1.000000000000000e+00 0.000000000000000e+00 9.316455696188541e+00 1.000000000000000e+00 0.000000000000000e+00 9.518987341758416e+00 1.000000000000000e+00 0.000000000000000e+00 9.721518987328292e+00 1.000000000000000e+00 0.000000000000000e+00 9.924050632898169e+00 1.000000000000000e+00 0.000000000000000e+00 1.012658227846805e+01 1.000000000000000e+00 0.000000000000000e+00 1.032911392403792e+01 1.000000000000000e+00 0.000000000000000e+00 1.053164556960780e+01 1.000000000000000e+00 0.000000000000000e+00 1.073417721517767e+01 1.000000000000000e+00 0.000000000000000e+00 1.093670886074755e+01 1.000000000000000e+00 0.000000000000000e+00 1.113924050631742e+01 1.000000000000000e+00 0.000000000000000e+00 1.134177215188730e+01 1.000000000000000e+00 0.000000000000000e+00 1.154430379745718e+01 1.000000000000000e+00 0.000000000000000e+00 1.174683544302705e+01 1.000000000000000e+00 0.000000000000000e+00 1.194936708859693e+01 1.000000000000000e+00 0.000000000000000e+00 1.215189873416701e+01 1.000000000000000e+00 0.000000000000000e+00 1.235443037973717e+01 1.000000000000000e+00 0.000000000000000e+00 1.255696202530733e+01 1.000000000000000e+00 0.000000000000000e+00 1.275949367087749e+01 1.000000000000000e+00 0.000000000000000e+00 1.296202531644764e+01 1.000000000000000e+00 0.000000000000000e+00 1.316455696201780e+01 1.000000000000000e+00 0.000000000000000e+00 1.336708860758796e+01 1.000000000000000e+00 0.000000000000000e+00 1.356962025315812e+01 1.000000000000000e+00 0.000000000000000e+00 1.377215189872827e+01 1.000000000000000e+00 0.000000000000000e+00 1.397468354429843e+01 1.000000000000000e+00 0.000000000000000e+00 1.417721518986859e+01 1.000000000000000e+00 0.000000000000000e+00 1.437974683543874e+01 1.000000000000000e+00 0.000000000000000e+00 1.458227848100890e+01 1.000000000000000e+00 0.000000000000000e+00 1.478481012657906e+01 1.000000000000000e+00 0.000000000000000e+00 1.498734177214921e+01 1.000000000000000e+00 0.000000000000000e+00 1.518987341771937e+01 1.000000000000000e+00 0.000000000000000e+00 1.539240506328953e+01 1.000000000000000e+00 0.000000000000000e+00 1.559493670885968e+01 1.000000000000000e+00 0.000000000000000e+00 1.579746835442984e+01 1.000000000000000e+00 0.000000000000000e+00 1.600000000000000e+01 7.500000000003469e-01 0.000000000000000e+00 1.600000000000000e+01 5.000000000013878e-01 0.000000000000000e+00 1.600000000000000e+01 2.500000000010407e-01 0.000000000000000e+00 1.579746835443066e+01 0.000000000000000e+00 0.000000000000000e+00 1.559493670886132e+01 0.000000000000000e+00 0.000000000000000e+00 1.539240506329198e+01 0.000000000000000e+00 0.000000000000000e+00 1.518987341772264e+01 0.000000000000000e+00 0.000000000000000e+00 1.498734177215330e+01 0.000000000000000e+00 0.000000000000000e+00 1.478481012658396e+01 0.000000000000000e+00 0.000000000000000e+00 1.458227848101463e+01 0.000000000000000e+00 0.000000000000000e+00 1.437974683544529e+01 0.000000000000000e+00 0.000000000000000e+00 1.417721518987595e+01 0.000000000000000e+00 0.000000000000000e+00 1.397468354430661e+01 0.000000000000000e+00 0.000000000000000e+00 1.377215189873727e+01 0.000000000000000e+00 0.000000000000000e+00 1.356962025316793e+01 0.000000000000000e+00 0.000000000000000e+00 1.336708860759859e+01 0.000000000000000e+00 0.000000000000000e+00 1.316455696202925e+01 0.000000000000000e+00 0.000000000000000e+00 1.296202531645991e+01 0.000000000000000e+00 0.000000000000000e+00 1.275949367089057e+01 0.000000000000000e+00 0.000000000000000e+00 1.255696202532123e+01 0.000000000000000e+00 0.000000000000000e+00 1.235443037975189e+01 0.000000000000000e+00 0.000000000000000e+00 1.215189873418256e+01 0.000000000000000e+00 0.000000000000000e+00 1.194936708861336e+01 0.000000000000000e+00 0.000000000000000e+00 1.174683544304458e+01 0.000000000000000e+00 0.000000000000000e+00 1.154430379747580e+01 0.000000000000000e+00 0.000000000000000e+00 1.134177215190703e+01 0.000000000000000e+00 0.000000000000000e+00 1.113924050633825e+01 0.000000000000000e+00 0.000000000000000e+00 1.093670886076947e+01 0.000000000000000e+00 0.000000000000000e+00 1.073417721520070e+01 0.000000000000000e+00 0.000000000000000e+00 1.053164556963192e+01 0.000000000000000e+00 0.000000000000000e+00 1.032911392406314e+01 0.000000000000000e+00 0.000000000000000e+00 1.012658227849436e+01 0.000000000000000e+00 0.000000000000000e+00 9.924050632925587e+00 0.000000000000000e+00 0.000000000000000e+00 9.721518987356809e+00 0.000000000000000e+00 0.000000000000000e+00 9.518987341788034e+00 0.000000000000000e+00 0.000000000000000e+00 9.316455696219256e+00 0.000000000000000e+00 0.000000000000000e+00 9.113924050650478e+00 0.000000000000000e+00 0.000000000000000e+00 8.911392405081703e+00 0.000000000000000e+00 0.000000000000000e+00 8.708860759512925e+00 0.000000000000000e+00 0.000000000000000e+00 8.506329113944147e+00 0.000000000000000e+00 0.000000000000000e+00 8.303797468375370e+00 0.000000000000000e+00 0.000000000000000e+00 8.101265822806592e+00 0.000000000000000e+00 0.000000000000000e+00 7.898734177237253e+00 0.000000000000000e+00 0.000000000000000e+00 7.696202531667353e+00 0.000000000000000e+00 0.000000000000000e+00 7.493670886097451e+00 0.000000000000000e+00 0.000000000000000e+00 7.291139240527549e+00 0.000000000000000e+00 0.000000000000000e+00 7.088607594957649e+00 0.000000000000000e+00 0.000000000000000e+00 6.886075949387747e+00 0.000000000000000e+00 0.000000000000000e+00 6.683544303817845e+00 0.000000000000000e+00 0.000000000000000e+00 6.481012658247945e+00 0.000000000000000e+00 0.000000000000000e+00 6.278481012678045e+00 0.000000000000000e+00 0.000000000000000e+00 6.075949367108143e+00 0.000000000000000e+00 0.000000000000000e+00 5.873417721538242e+00 0.000000000000000e+00 0.000000000000000e+00 5.670886075968340e+00 0.000000000000000e+00 0.000000000000000e+00 5.468354430398438e+00 0.000000000000000e+00 0.000000000000000e+00 5.265822784828536e+00 0.000000000000000e+00 0.000000000000000e+00 5.063291139258636e+00 0.000000000000000e+00 0.000000000000000e+00 4.860759493688734e+00 0.000000000000000e+00 0.000000000000000e+00 4.658227848118834e+00 0.000000000000000e+00 0.000000000000000e+00 4.455696202548932e+00 0.000000000000000e+00 0.000000000000000e+00 4.253164556979030e+00 0.000000000000000e+00 0.000000000000000e+00 4.050632911409130e+00 0.000000000000000e+00 0.000000000000000e+00 3.848101265838807e+00 0.000000000000000e+00 0.00000000000000
[...]
<CellData Scalars="conc_conc," Vectors="" Tensors="">
<DataArray type="Float64" Name="conc_conc" format="ascii">
2.391855476548516e-11 1.450216763586886e-11 6.749372909743794e-11 4.469902544374807e-12 4.105450587675980e-11 1.277081246906095e-10 1.706244736482208e-10 6.753191539474407e-11 2.282872386851888e-11 1.489318346537484e-10 1.004236876958199e-10 1.398850397616460e-11 1.140740205238291e-10 5.222474714591562e-11 7.190773030313325e-12 1.522528504325386e-10 8.189445613358577e-11 4.889031115387981e-02 1.444595304235995e-17 4.161852277163840e-11 1.221951822063973e-04 1.506984610679530e-13 2.844614424809083e-10 1.598935765272522e-11 4.677072432214393e-11 2.717983764511250e-11 2.582927861966321e-11 1.064893174819140e-08 2.316835764001597e-10 7.275793544865623e-09 9.185181312494242e-11 2.358027223158355e-10 1.450747193361481e-10 2.103828910030705e-11 6.596324149968443e-11 1.266343722139644e-11 1.028629932447107e-04 9.640689734808248e-11 4.341960016267656e-02 3.281386428945556e-11 2.181357492492626e-12 2.515608465326355e-11 1.081604971570661e-11 6.409789149076293e-11 5.566479983459606e-11 5.775886970004035e-11 4.138633121240585e-14 1.091512298852776e-13 1.415125766099575e-20 1.092727481568168e-01 3.575776972428765e-12 7.431129142958832e-02 7.525442881670185e-11 1.483196024417038e-18 1.099749047498381e-01 1.206366571780264e-01 1.408875576183108e-20 1.653242012344052e-10 7.171952019132083e-12 5.492889503882427e-11 1.255960245549344e-10 2.250739741645181e-12 5.762140246268176e-11 4.278307235129440e-08 1.059397394452132e-11 3.709438121239776e-04 2.662511338421747e-10 3.334511754900645e-11 2.266413004481764e-10 1.326762801502183e-10 1.026451646234373e-10 2.005173468525177e-11 5.765485140590664e-11 1.062408040212123e-10 2.699954786260287e-11 2.139325637847273e-11 8.278898059823127e-12 5.706271322243206e-11 4.549640803866909e-11 5.214335781461933e-11 4.229751257068661e-12 5.093966179441866e-11 1.512151101341110e-10 2.408772016243975e-11 7.534145601911167e-11 1.318311337490745e-10 1.449102128727343e-11 1.148021482355175e-10 4.417451537096649e-11 1.260332518913416e-10 1.773684854481923e-10 7.062299064879330e-11 1.507302628142234e-11 2.877139034214637e-11 3.054202401442258e-10 2.511966117646076e-02 9.660407580728386e-17 4.563592539000920e-13 4.360110160860866e-04 4.538152253332119e-14 3.214948114561151e-05 1.467238480865556e-11 6.211903802168736e-08 5.645832166939529e-11 2.126035189134901e-10 9.183068727192687e-11 1.120423563000663e-10 1.211572136712081e-09 5.799230284511232e-12 9.185848599167795e-11 5.030920794343479e-11 1.469492553357239e-11 1.373582816357858e-11 7.490032824159276e-11 1.371554505737033e-10 2.451782439449264e-11 4.953234235296123e-11 7.973316758365075e-11 2.186584412131888e-11 1.210242560620313e-11 3.910866034812710e-19 1.705543402371563e-18 8.546574525487456e-15 3.190986453618721e-15 2.895421895005317e-11 1.508646377283160e-11 7.583140011108884e-11 4.963143721111016e-12 2.880726183488813e-11 1.580116797737931e-10 8.119388381530555e-02 1.834196985242525e-18 3.936321324078723e-23 6.256584202922097e-02 1.102988503233074e-12 2.761071009899129e-08 3.502800953606079e-15 6.942690934271394e-13 1.192082267963586e-12 2.954895667416848e-13 5.639764344570218e-14 1.359577580108473e-12 1.348155573873403e-13 2.288116039304847e-15 1.871774985634485e-12 4.170435231385225e-14 1.974140338553172e-14 2.436599232126038e-12 6.094470349301425e-09 1.130644982086667e-16 8.337114806815427e-05 5.875096310237621e-11 4.855792434305288e-11 1.718255240899033e-09 6.841854559682900e-11 1.986142853230771e-10 6.967862520462190e-11 1.887732820173377e-11 1.538350621965279e-10 7.088899068351349e-11 3.581164399212329e-11 3.700428545954028e-11 2.620414188729830e-05 2.164545039426662e-02 2.351665701923498e-12 2.420187257625349e-11 1.318693144343852e-11 5.967987957812232e-11 5.937439149573843e-11 4.796178541937048e-11 9.686599715257986e-16 8.461184670611691e-16 9.401253974618108e-16 3.454814271705121e-16 2.411100906838937e-17 2.866188438611632e-17 4.563673837371278e-14 1.963712445462514e-18 1.427153011566234e-16 1.540710229356890e-16 2.852636722584861e-16 2.299412304559955e-16 1.963667062979805e-04 1.339272312883752e-15 2.368024965345493e-13 3.283957655793384e-13 6.550708781434030e-13 1.190540339742101e-13 5.792021107716608e-13 2.937724694173893e-13 5.776139297430026e-15 6.932113168254466e-13 8.877877788103018e-13 1.353091138031823e-13 6.333227316021671e-15 3.851702207573763e-17 2.429639843651817e-04 9.396336651210598e-02 9.207651284836006e-22 1.943433188455201e-14 2.666784952784451e-14 8.924132691188572e-15 8.621702921951809e-15 2.531501071599456e-14 1.082011787267042e-13 1.220909435721446e-13 4.412680617146306e-16 2.578742451083806e-15 7.859461255644927e-14 5.978584225185866e-15 1.369198221405419e-12 1.138308393978937e-04 6.105576645547494e-11 6.433050231333155e-12 7.460654879920117e-12 2.759039595451800e-11 4.201834770168958e-11 1.105977763515395e-10 1.313227223741042e-06 3.573926522016282e-03 1.544708755067196e-10 2.615314139637178e-11 1.319749186590402e-10 1.148543133110249e-10 7.759262842543849e-12 4.620969001268930e-11 1.331401176695725e-11 2.623002454103674e-11 3.925143776259643e-11 4.898660460489000e-11 8.238243516751648e-11 4.175081375797319e-11 8.416795539366696e-11 2.770749578037494e-11 2.090731136566285e-11 4.699691970771638e-11 9.445059443712346e-12 5.933555463925307e-18 1.856531565065159e-14 1.554145674247038e-12 1.867894115810299e-15 7.609439079933927e-09 2.926655028164762e-13 5.485246079939067e-11 7.904564137531846e-12 2.158205563922665e-11 4.845373007325225e-11 5.582669572422388e-12 1.118138528831839e-10 2.762796438859856e-15 4.078793277385036e-16 5.361841879943684e-02 6.496083872187532e-11 1.499165208233511e-10 1.057413563250324e-10 9.870611466612378e-11 3.716807203258686e-11 1.990324258862424e-10 6.966544479136948e-11 7.218106820156617e-11 2.955847574849918e-11 5.471014056866648e-11 1.707976813476334e-11 6.990026494157226e-11 3.428076975738170e-12 4.359147877493008e-03 1.675476100257739e-06 2.756470654677060e-15 1.879469347009427e-16 1.622733788002741e-02 4.496357564824533e-11 9.975621296579514e-12 2.553220581745980e-11 1.101133119109727e-01 7.870824288792024e-22 2.599925279327572e-11 1.198666105402562e-11 1.318489258067979e-12 7.875412661883741e-13 5.466645704467077e-12 7.921363464828533e-11 6.469343781475868e-09 2.437107637022747e-17 1.455689902843571e-11 1.058635947254998e-01 4.946268860148491e-14 4.618741502472432e-02 1.570784830635482e-06 3.910341536926891e-03 1.070675460930735e-12 1.513841550974944e-12 2.636270817362664e-15 2.215850662823940e-12 2.647741398027924e-14 2.828355363034611e-14 1.178645796254316e-13 7.365544562462868e-14 1.013718680432068e-13 2.148816573482252e-11 1.845359964903669e-13 9.962402265163452e-14 2.622558507764673e-13 3.415018782749991e-14 2.055133532367088e-13 2.711956903023625e-13 1.220452173692126e-13 1.256991826139480e-12 6.428764262935708e-14 9.548788158042771e-20 7.455704663458924e-02 1.378599858807192e-16 2.094681784203309e-14 1.865082761785454e-16 2.517976028842123e-14 4.213668526688740e-11 1.061076296372859e-11 2.435817244677200e-12 8.587577986713727e-13 8.415267435576371e-12 2.185616097360043e-11 1.465173729272701e-11 1.366194627027704e-11 2.195041938001301e-11 9.983702551109869e-12 3.061524815396924e-12 1.438573771336579e-12 4.122391021158929e-12 1.334324016721614e-13 3.192791884494594e-11 9.866568379780021e-13 3.876296656722278e-15 1.794093992629514e-16 4.937828464872234e-03 1.041561253831203e-06 7.034933094168616e-12 1.400955821019945e-12 1.307371691115999e-13 3.480352449960951e-18 4.427417616157066e-02 7.487489867870199e-22 9.240551695301014e-02 7.588997140278113e-15 6.266322641496000e-13 1.915065880611392e-13 1.033411478732886e-11 9.247334781716760e-15 1.717282384485458e-20 2.151207934095509e-16 6.194193750563944e-13 2.960344292792094e-11 3.600056966042972e-11 1.204905152469385e-01 1.122012699209284e-14 1.295694900726243e-12 2.591361601886718e-07 9.980455028799409e-12 1.216184353472935e-03 2.289926403998860e-10 1.132442915932278e-10 1.864712848133519e-10 2.299236518504760e-11 9.633417086554762e-11 1.980944694234626e-11 4.726233384383935e-11 9.844711950022806e-11 2.333196385413470e-11 1.466207387140020e-11 8.848273243860479e-12 4.197939780131037e-11 3.800025629997760e-11 4.807771863988738e-11 8.057033738543379e-19 4.626093709063531e-02 1.403980459810043e-17 5.223725108135963e-11 5.731686371699550e-12 1.345097977894879e-10 4.157573952310392e-11 7.173093485637506e-11 1.093927201523410e-10 2.092788507912065e-11 1.111250630057483e-10 3.535332622646228e-11 1.199473680854724e-10 1.728114754124298e-10 5.628383086518114e-11 1.757250437454137e-11 3.325030558523721e-11 2.675722075753245e-10 1.432106215581170e-12 1.111134015318264e-02 1.507650229362160e-03 5.482751750654121e-16 7.400648409290719e-12 7.520110321535975e-06 3.331724482762709e-07 1.168929830381022e-14 1.227493475078708e-10 1.533897547690050e-10 1.886521202213954e-10 1.194705699065855e-11 1.251021628967694e-10 1.051489843226822e-10 7.745977767513126e-12 9.457354372541898e-11 4.057990880722806e-11 2.343166486149697e-11 6.861761961468726e-11 1.045795491190364e-10 3.710933238774919e-11 3.884764925314845e-11 4.941924218601760e-11 1.008557773524044e-11 2.191775585316295e-11 6.103069028057822e-11 8.874782658015662e-12 8.900494705045153e-12 4.200922276615698e-11 3.568034581135462e-11 1.530186970616368e-10 1.064568602077650e-20 1.007828307418399e-01 2.556706105931024e-12 7.573983948852535e-13 1.730652874469798e-12 1.177295225424523e-15 8.516565784867217e-18 8.058020130669532e-16 5.060430445047736e-16 1.930558428188236e-15 1.784981694060055e-17 2.100554656934054e-15 1.143261125336246e-16 7.735697620330647e-16 4.199217710793792e-17 1.719661133952459e-15 3.826624314480715e-15 8.152030173807940e-15 1.550625610929895e-16 1.208964507936944e-19 6.247259222540421e-17 2.559959405332192e-14 1.321271388261108e-14 9.265975257352491e-16 1.825074182236913e-15 4.515702159758316e-16 1.191969491585602e-06 4.563127371212718e-03 3.524003399135957e-15 2.764325168599493e-11 5.041986704673477e-15 1.191968869529815e-15 1.843062923806247e-15 2.573559750447844e-14 3.288857580605936e-14 2.081633397890444e-14 2.828700418609312e-17 1.466816899225820e-15 9.937850335377813e-15 3.456694985247438e-06 5.943209529707043e-03 2.098354825979808e-11 9.140567181861624e-16 6.972851830591381e-11 4.840459689387299e-11 7.417586212911114e-11 4.432142836228350e-11 2.629534885366832e-10 8.333764897790112e-11 4.150878966412404e-11 1.507826755225647e-10 1.435372897166347e-11 3.704527679178716e-12 1.945668027922748e-11 1.673082972774108e-11 4.866305491995867e-11 5.512915302017970e-11 8.320311536671670e-11 7.325468594463496e-11 9.375783908794379e-03 6.074130979179676e-06 3.011690159667159e-11 5.287648598446362e-11 1.087419260825806e-11 2.922135574991429e-11 5.603340766402138e-11 6.443394811256632e-12 1.493841065361625e-10 1.920741367510806e-11 1.465030567849583e-10 1.032040426094862e-01 2.905656880469669e-14 1.607671170280541e-17 3.919882818857439e-11 1.358959076644039e-11 7.092765855440975e-11 5.680128156918486e-12 2.467175818229749e-11 1.659868825936977e-10 1.342867021299609e-11 1.819279903654615e-24 2.330078452196994e-02 3.472553407590215e-12 9.702019919090178e-13 1.824928758558851e-12 3.462184980642547e-13 3.687509510019738e-26 6.826221341037507e-04 2.870900314899723e-22 5.034770288501709e-16 1.010548510661642e-14 4.989629636609133e-13 6.052404096702918e-18 3.143679366689288e-16 2.276120381568053e-14 3.114790693780405e-16 3.968611088026868e-13 3.211978684560965e-16 1.130757463766874e-16 7.758681170990336e-18 6.090258447824218e-18 4.228085604756337e-16 2.786426694651448e-16 8.642117546150498e-16 3.897936538732788e-16 4.206161633805809e-17 2.876968815812134e-13 6.605505776993552e-04 1.700733125156745e-07 1.093906257125532e-01 2.264548212099516e-15 1.141713556274456e-12 1.213549357225852e-01 9.252327495945757e-16 1.977073715207896e-11 1.563968267480719e-03 4.728859465357139e-12 5.871418868732303e-11 6.825698501740495e-12 2.407796562451230e-11 1.022113425148849e-10 6.971685132555374e-11 5.108968608539895e-02 1.872193419564346e-11 9.967318084728437e-02 7.634246457831982e-13 5.929565905726911e-13 2.660032328933548e-14 8.201670722922565e-02 1.476228867430076e-17 1.633424681948005e-17 2.328037007310835e-02 8.139434216873083e-14 1.979787753091061e-05 3.795380221983028e-16 8.073741978797405e-10 3.278018859108282e-14 9.518937030440321e-15 2.693356131936842e-14 7.612279706180943e-15 5.282855437233262e-16 2.448160045214284e-14 3.642484239025924e-14 1.570479674790239e-14 1.344499286982342e-14 7.831584523488653e-14 2.102482141014288e-16 1.457421642962786e-14 3.129937795932954e-13 6.694776813043243e-16 1.047154022976409e-14 3.138308524837954e-16 2.090778143163080e-15 5.054220365407761e-15 9.084030024275796e-14 1.403680241200193e-16 1.659456200933314e-13 2.149099554890338e-13 2.449050131354126e-13 4.188814355014070e-13 3.043505697399252e-18 1.177215046947557e-15 8.969063385406524e-18 5.770969220989058e-16 6.221443897002682e-04 4.467328221304169e-08 1.160555554145683e-14 6.586256032007598e-17 1.599561479748289e-13 1.428433795420524e-13 1.260092027756839e-13 1.459714505476450e-16 8.870585279246202e-16 2.370751716485650e-19 6.514412547320817e-18 1.072089542361945e-01 1.439224424709599e-17 1.050741623007417e-12 6.119007265885829e-13 2.236603619638570e-12 1.091934060521852e-13 3.622841094562144e-12 6.401391237141472e-14 4.141426450606758e-15 1.432776456850463e-15 1.082153484739979e-13 2.011604532368332e-13 6.294812413324759e-12 3.611665806767166e-12 1.115310835659858e-01 1.946529059389628e-19 3.431363002793925e-13 8.267980830091571e-13 8.955331990601861e-13 5.602015153868029e-13 1.927032740088749e-12 9.429389314304573e-13 5.697419152032882e-12 2.628150433444697e-12 8.982899888343660e-13 4.496836057835359e-13 1.260427501359039e-11 1.550216102710498e-11 2.426563800146664e-12 1.151043679264969e-12 6.616429774373414e-14 2.641503345431820e-14 1.995638653890414e-11 2.420703153826257e-11 2.104886056493478e-11 2.571689447629563e-11 3.197672254800611e-11 3.832200805508485e-11 9.317836952578275e-12 1.289751225351248e-11 2.615836345997596e-12 6.267795644415353e-12 3.910498540689519e-12 6.976310799915768e-13 4.828660235636514e-11 6.112890783408790e-11 2.778245319984466e-15 1.867670090927962e-14 8.978008531355309e-15 7.488670298758043e-16 3.812987256030665e-08 6.866590165587514e-04 2.071690487353422e-07 2.043734953792086e-03 7.787181741210529e-02 1.214485712931928e-14 3.665523820168543e-07 4.040767363627698e-13 1.330063714538870e-03 1.390496742000784e-12 1.045832712353875e-14 4.355177974370073e-12 7.300760121771761e-15 1.420539224329890e-14 1.164449334613643e-13 3.531320920525732e-14 5.341243837813310e-14 2.855407933955001e-12 9.521872208130207e-14 2.905428027535155e-13 1.720985868647427e-13 4.176661277826255e-13 4.898666442846235e-14 8.375696293596755e-07 9.798515514746472e-14 2.229850926453860e-03 2.914441881717419e-14 7.410600279578339e-17 7.373232188566964e-15 2.087213038312506e-18 2.327606125605994e-16 3.923991901755903e-16 5.195848567507373e-16 9.336063470277185e-16 3.654182136217932e-12 2.155775628650284e-15 6.192449132225750e-15 3.420359205520484e-15 8.882206146466167e-16 9.073119028280489e-15 3.640634487795171e-15 1.234837413356143e-15 4.829003967773154e-13 6.159384019502204e-14 5.302857891211158e-11 6.105196935146768e-12 1.337108713632816e-10 3.245530596625889e-12 8.654082101779330e-11 7.034480061954793e-11 4.550519710679913e-14 8.300907540441133e-17 8.416890686844011e-02 6.223084312985040e-15 4.209385418865105e-02 9.321413833939749e-12 5.736077811188049e-12 5.424552010038621e-14 3.392576559178824e-13 3.384294316358550e-14 4.652450856440447e-16 1.776478829983684e-13 8.733130201017584e-14 4.357567923016715e-17 1.484796329285951e-16 1.508735608786022e-14 7.430099816952129e-15 2.334866802876740e-14 1.127292535215362e-14 7.616068116226562e-12 1.106957526750541e-11 1.041081760119530e-11 1.130016263390447e-11 2.501120906446635e-15 2.544355751877210e-14 5.233201529971659e-15 1.030706481654589e-16 1.187272001935445e-14 3.341755769234254e-14 4.644199043767167e-16 6.446736197042305e-14 9.125141166741578e-14 8.878435996041685e-14 3.323053266772846e-12 6.256665608341199e-19 3.007582466595527e-16 3.361175513827296e-16 2.123438215307529e-18 2.466634444391353e-07 1.864894592200336e-03 2.518879500201216e-16 4.452568643231847e-15 1.547690435960309e-13 2.110206935350311e-13 1.984982226221054e-13 6.375032327048987e-17 4.213589991140083e-16 2.781712892682001e-15 2.566401345294353e-15 2.248885762584852e-15 9.878405750768508e-16 9.463664706785461e-17 5.642345233335308e-15 1.309777086716830e-16 4.120095318277136e-23 1.273029247798432e-09 4.878594568607154e-19 1.546649140787646e-15 4.556946975596198e-17 5.361931622655234e-15 6.439001351478844e-17 9.022776509719508e-17 2.970276411445450e-02 1.182516413385077e-15 5.594908818433017e-05 1.410853302942804e-15 8.644073102708770e-19 2.103210144440438e-17 2.361249885306832e-02 1.343193889912501e-10 6.978695241330950e-21 3.792972964677510e-15 2.546224418856039e-15 1.066217911116771e-17 9.380485459067814e-12 5.546303771316288e-03 4.400309736869130e-12 2.778175525700605e-12 2.483213965951878e-02 1.829762746640141e-05 5.646374368557190e-18 1.170956965236612e-02 4.836108981018102e-06 5.762822836560502e-16 3.414003716222637e-17 1.668979688207911e-15 1.947100742130414e-11 9.417726613658519e-12 3.713304275423589e-13 1.134990564078370e-13 1.458976677033053e-10 8.127008601545595e-10 1.388399086184257e-11 7.041237481914121e-12 1.859381720796169e-12 2.612792635589696e-12 9.378109840139232e-12 4.886626873012437e-12 8.675918642373407e-12 4.423474615146258e-12 2.564349594804366e-13 4.320531150117023e-13 6.715731233116533e-12 9.108854111881093e-12 5.261203796175185e-12 2.630964877192270e-12 2.169202856933942e-12 2.736680240620546e-12 1.688285374803864e-11 2.377787490645027e-11 5.170071579447251e-14 1.745173187177257e-14 4.412258136612237e-12 5.288361307986097e-12 1.989823732298461e-13 2.113570747518861e-13 4.661796071864963e-14 9.841892357349900e-14 2.238222009248339e-14 4.969945850694892e-14 6.490034390489746e-14 1.384961072024034e-14 1.382183505860093e-13 2.136019753598869e-14 6.206208047419169e-14 1.344049886280428e-13 1.020059449797591e-09 1.543703068914906e-10 1.955220929099923e-13 1.250262251929661e-16 5.933835753054986e-16 1.228149120060292e-13 3.615864526349480e-13 9.375120491251667e-13 2.376864322397820e-13 8.342270840483219e-14 6.950152013771022e-14 4.788216093437979e-14 7.436210427906270e-14 5.919925458634943e-14 2.041334066730170e-13 2.158967988055801e-13 1.317800576752447e-13 1.609836660712975e-13 4.675066562466178e-13 1.695143031536602e-13 1.836152107620939e-12 1.806709640440170e-12 1.013224410054452e-02 2.314520889636310e-02 7.096336849521760e-06 2.903375473556661e-05 5.656652306230924e-11 8.649161058932076e-13 6.651066121648467e-11 9.168676923346297e-12 4.276088229325404e-12 1.017512599051800e-12 4.494712396530975e-02 6.688707890347043e-23 6.911550207837867e-08 1.148113949522927e-12 4.098928381816989e-04 2.238876341945186e-12 1.760043596094615e-13 3.856135876661196e-13 2.601221777268188e-13 5.596484522535128e-13 7.985257397021770e-14 4.289852313821519e-13 3.738276405424820e-14 7.448682855175601e-12 1.892351252813621e-15 6.437042019270300e-15 1.040723833404679e-13 1.541175008480121e-14 2.523392637254466e-14 8.222943946862130e-13 2.744690470309205e-14 1.017308464963049e-14 8.109266725975081e-16 6.304941562053345e-20 5.335626194128564e-06 5.516419156217678e-17 5.200282865299971e-17 1.096378023762196e-02 1.885350019100239e-13 1.356516303400694e-15 1.452434242783156e-10 3.163463906817637e-15 7.696125934877110e-14 6.007675377363441e-14 5.536230967197440e-14 2.555598490843629e-15 1.647075290031070e-16 3.034337751703774e-14 1.314232924200763e-14 5.789974060295509e-15 7.289218305844624e-16 2.799599512246809e-14 2.900013343008261e-14 4.952843852653260e-14 1.552214097916186e-13 5.909832461503136e-17 1.861004366498209e-21 2.131357058147948e-18 6.134649513060024e-19 3.305588432727895e-20 5.447283791559801e-20