<?xml version="1.0"?>
<VTKFile type="UnstructuredGrid" version="0.1" byte_order="LittleEndian">
<UnstructuredGrid>
<Piece NumberOfPoints="360" NumberOfCells="124">
<Points>
<DataArray type="Float64" NumberOfComponents="3" format="ascii">
7.500000000000000e-01 1.000000000000000e+00 0.000000000000000e+00 6.875000000000000e-01 8.750000000000000e-01 0.000000000000000e+00 6.875000000000000e-01 8.750000000000000e-01 0.000000000000000e+00 6.250000000000000e-01 7.500000000000000e-01 0.000000000000000e+00 6.250000000000000e-01 7.500000000000000e-01 0.000000000000000e+00 5.625000000000000e-01 6.250000000000000e-01 0.000000000000000e+00 5.625000000000000e-01 6.250000000000000e-01 0.000000000000000e+00 5.000000000000000e-01 5.000000000000000e-01 -0.000000000000000e+00 0.000000000000000e+00 2.500000000000000e-01 0.000000000000000e+00 1.249999999997599e-01 3.124999999998800e-01 0.000000000000000e+00 1.249999999997599e-01 3.124999999998800e-01 0.000000000000000e+00 2.499999999996086e-01 3.749999999998043e-01 0.000000000000000e+00 2.499999999996086e-01 3.749999999998043e-01 0.000000000000000e+00 3.749999999997349e-01 4.374999999998674e-01 0.000000000000000e+00 3.749999999997349e-01 4.374999999998674e-01 0.000000000000000e+00 5.000000000000000e-01 5.000000000000000e-01 -0.000000000000000e+00 5.000000000000000e-01 5.000000000000000e-01 -0.000000000000000e+00 4.375000000000694e-01 3.750000000001388e-01 0.000000000000000e+00 4.375000000000694e-01 3.750000000001388e-01 0.000000000000000e+00 3.750000000002776e-01 2.500000000005551e-01 0.000000000000000e+00 3.750000000002776e-01 2.500000000005551e-01 0.000000000000000e+00 3.125000000002082e-01 1.250000000004163e-01 0.000000000000000e+00 3.125000000002082e-01 1.250000000004163e-01 0.000000000000000e+00 2.500000000000000e-01 -0.000000000000000e+00 0.000000000000000e+00 3.749999999997349e-01 4.374999999998674e-01 0.000000000000000e+00 4.139414069912184e-01 6.056325264010037e-01 0.000000000000000e+00 2.645244370067465e-01 5.156353158163987e-01 0.000000000000000e+00 3.749999999997349e-01 4.374999999998674e-01 0.000000000000000e+00 5.000000000000000e-01 5.000000000000000e-01 -0.000000000000000e+00 4.139414069912184e-01 6.056325264010037e-01 0.000000000000000e+00 0.000000000000000e+00 2.500000000000000e-01 0.000000000000000e+00 1.249999999997599e-01 3.124999999998800e-01 0.000000000000000e+00 0.000000000000000e+00 4.375000000003469e-01 0.000000000000000e+00 6.875000000000000e-01 8.750000000000000e-01 0.000000000000000e+00 7.500000000000000e-01 1.000000000000000e+00 0.000000000000000e+00 5.625000000008674e-01 1.000000000000000e+00 0.000000000000000e+00 4.139414069912184e-01 6.056325264010037e-01 0.000000000000000e+00 2.758946705068648e-01 6.605885315643570e-01 0.000000000000000e+00 2.645244370067465e-01 5.156353158163987e-01 0.000000000000000e+00 2.798796021293082e-01 8.344274147057053e-01 0.000000000000000e+00 1.390078959961168e-01 7.261831610706000e-01 0.000000000000000e+00 2.758946705068648e-01 6.605885315643570e-01 0.000000000000000e+00 0.000000000000000e+00 4.375000000003469e-01 0.000000000000000e+00 1.492912418697525e-01 4.458279356810638e-01 0.000000000000000e+00 1.392858751591214e-01 5.733980610567744e-01 0.000000000000000e+00 3.750000000006939e-01 1.000000000000000e+00 0.000000000000000e+00 4.492710539671537e-01 8.556512408515589e-01 0.000000000000000e+00 5.625000000008674e-01 1.000000000000000e+00 0.000000000000000e+00 0.000000000000000e+00 4.375000000003469e-01 0.000000000000000e+00 1.392858751591214e-01 5.733980610567744e-01 0.000000000000000e+00 0.000000000000000e+00 6.250000000006939e-01 0.000000000000000e+00 3.750000000006939e-01 1.000000000000000e+00 0.000000000000000e+00 2.798796021293082e-01 8.344274147057053e-01 0.000000000000000e+00 4.492710539671537e-01 8.556512408515589e-01 0.000000000000000e+00 3.750000000006939e-01 1.000000000000000e+00 0.000000000000000e+00 1.875000000005205e-01 1.000000000000000e+00 0.000000000000000e+00 2.798796021293082e-01 8.344274147057053e-01 0.000000000000000e+00 2.798796021293082e-01 8.344274147057053e-01 0.000000000000000e+00 2.758946705068648e-01 6.605885315643570e-01 0.000000000000000e+00 3.813620468049507e-01 7.403859221383123e-01 0.000000000000000e+00 5.625000000008674e-01 1.000000000000000e+00 0.000000000000000e+00 4.492710539671537e-01 8.556512408515589e-01 0.000000000000000e+00 5.677751205718758e-01 8.470224641095303e-01 0.000000000000000e+00 6.875000000000000e-01 8.750000000000000e-01 0.000000000000000e+00 5.625000000008674e-01 1.000000000000000e+00 0.000000000000000e+00 5.677751205718758e-01 8.470224641095303e-01 0.000000000000000e+00 5.625000000000000e-01 6.250000000000000e-01 0.000000000000000e+00 4.139414069912184e-01 6.056325264010037e-01 0.000000000000000e+00 5.000000000000000e-01 5.000000000000000e-01 -0.000000000000000e+00 0.000000000000000e+00 4.375000000003469e-01 0.000000000000000e+00 1.249999999997599e-01 3.124999999998800e-01 0.000000000000000e+00 1.492912418697525e-01 4.458279356810638e-01 0.000000000000000e+00 0.000000000000000e+00 1.000000000000000e+00 0.000000000000000e+00 0.000000000000000e+00 8.125000000010408e-01 0.000000000000000e+00 1.271010713601231e-01 8.709480661820344e-01 0.000000000000000e+00 3.749999999997349e-01 4.374999999998674e-01 0.000000000000000e+00 2.645244370067465e-01 5.156353158163987e-01 0.000000000000000e+00 2.499999999996086e-01 3.749999999998043e-01 0.000000000000000e+00 1.875000000005205e-01 1.000000000000000e+00 0.000000000000000e+00 0.000000000000000e+00 1.000000000000000e+00 0.000000000000000e+00 1.271010713601231e-01 8.709480661820344e-01 0.000000000000000e+00 0.000000000000000e+00 8.125000000010408e-01 0.000000000000000e+00 0.000000000000000e+00 6.250000000006939e-01 0.000000000000000e+00 1.390078959961168e-01 7.261831610706000e-01 0.000000000000000e+00 2.499999999996086e-01 3.749999999998043e-01 0.000000000000000e+00 1.492912418697525e-01 4.458279356810638e-01 0.000000000000000e+00 1.249999999997599e-01 3.124999999998800e-01 0.000000000000000e+00 2.758946705068648e-01 6.605885315643570e-01 0.000000000000000e+00 1.390078959961168e-01 7.261831610706000e-01 0.000000000000000e+00 1.392858751591214e-01 5.733980610567744e-01 0.000000000000000e+00 4.492710539671537e-01 8.556512408515589e-01 0.000000000000000e+00 2.798796021293082e-01 8.344274147057053e-01 0.000000000000000e+00 3.813620468049507e-01 7.403859221383123e-01 0.000000000000000e+00 2.798796021293082e-01 8.344274147057053e-01 0.000000000000000e+00 1.271010713601231e-01 8.709480661820344e-01 0.000000000000000e+00 1.390078959961168e-01 7.261831610706000e-01 0.000000000000000e+00 5.625000000000000e-01 6.250000000000000e-01 0.000000000000000e+00 5.014585693307863e-01 7.367466304650486e-01 0.000000000000000e+00 4.139414069912184e-01 6.056325264010037e-01 0.000000000000000e+00 1.875000000005205e-01 1.000000000000000e+00 0.000000000000000e+00 1.271010713601231e-01 8.709480661820344e-01 0.000000000000000e+00 2.798796021293082e-01 8.344274147057053e-01 0.000000000000000e+00 2.499999999996086e-01 3.749999999998043e-01 0.000000000000000e+00 2.645244370067465e-01 5.156353158163987e-01 0.000000000000000e+00 1.492912418697525e-01 4.458279356810638e-01 0.000000000000000e+00 2.645244370067465e-01 5.156353158163987e-01 0.000000000000000e+00 2.758946705068648e-01 6.605885315643570e-01 0.000000000000000e+00 1.392858751591214e-01 5.733980610567744e-01 0.000000000000000e+00 5.625000000000000e-01 6.250000000000000e-01 0.000000000000000e+00 6.250000000000000e-01 7.500000000000000e-01 0.000000000000000e+00 5.014585693307863e-01 7.367466304650486e-01 0.000000000000000e+00 4.139414069912184e-01 6.056325264010037e-01 0.000000000000000e+00 5.014585693307863e-01 7.367466304650486e-01 0.000000000000000e+00 3.813620468049507e-01 7.403859221383123e-01 0.000000000000000e+00 6.875000000000000e-01 8.750000000000000e-01 0.000000000000000e+00 5.677751205718758e-01 8.470224641095303e-01 0.000000000000000e+00 6.250000000000000e-01 7.500000000000000e-01 0.000000000000000e+00 6.250000000000000e-01 7.500000000000000e-01 0.000000000000000e+00 5.677751205718758e-01 8.470224641095303e-01 0.000000000000000e+00 5.014585693307863e-01 7.367466304650486e-01 0.000000000000000e+00 0.000000000000000e+00 6.250000000006939e-01 0.000000000000000e+00 1.392858751591214e-01 5.733980610567744e-01 0.000000000000000e+00 1.390078959961168e-01 7.261831610706000e-01 0.000000000000000e+00 4.139414069912184e-01 6.056325264010037e-01 0.000000000000000e+00 3.813620468049507e-01 7.403859221383123e-01 0.000000000000000e+00 2.758946705068648e-01 6.605885315643570e-01 0.000000000000000e+00 0.000000000000000e+00 8.125000000010408e-01 0.000000000000000e+00 1.390078959961168e-01 7.261831610706000e-01 0.000000000000000e+00 1.271010713601231e-01 8.709480661820344e-01 0.000000000000000e+00 2.645244370067465e-01 5.156353158163987e-01 0.000000000000000e+00 1.392858751591214e-01 5.733980610567744e-01 0.000000000000000e+00 1.492912418697525e-01 4.458279356810638e-01 0.000000000000000e+00 4.492710539671537e-01 8.556512408515589e-01 0.000000000000000e+00 5.014585693307863e-01 7.367466304650486e-01 0.000000000000000e+00 5.677751205718758e-01 8.470224641095303e-01 0.000000000000000e+00 4.492710539671537e-01 8.556512408515589e-01 0.000000000000000e+00 3.813620468049507e-01 7.403859221383123e-01 0.000000000000000e+00 5.014585693307863e-01 7.367466304650486e-01 0.000000000000000e+00 5.698670717843664e-01 3.776209365087199e-01 0.000000000000000e+00 7.182603949284063e-01 3.456402071721618e-01 0.000000000000000e+00 6.323653418237701e-01 5.029675640633227e-01 0.000000000000000e+00 7.533843026232094e-01 4.929444342317560e-01 0.000000000000000e+00 6.323653418237701e-01 5.029675640633227e-01 0.000000000000000e+00 7.182603949284063e-01 3.456402071721618e-01 0.000000000000000e+00 8.578792739151740e-01 7.535325208825020e-01 0.000000000000000e+00 7.125974780784441e-01 6.384669131570183e-01 0.000000000000000e+00 8.612746697781972e-01 5.794807697879764e-01 0.000000000000000e+00 2.500000000000000e-01 -0.000000000000000e+00 0.0000000
[...]
<PointData Scalars="age_conc,U235_conc," Vectors="" Tensors="">
<DataArray type="Float64" Name="age_conc" format="ascii">
-1.197550726975431e+04 1.197750726975431e+04 -8.859059333735029e+03 8.861059333735033e+03 -5.986964183466203e+03 5.988964183466202e+03 -4.090517445102538e+03 4.092517445102536e+03 5.585337119049655e+02 -5.565337119049507e+02 9.540140521972935e+02 -9.520140521973085e+02 1.758718552149046e+03 -1.756718552149048e+03 3.806172522100242e+03 -3.804172522100242e+03 -3.909850095560134e+03 3.911850095560134e+03 -1.671383875610903e+03 1.673383875610919e+03 -9.059895160931483e+02 9.079895160931483e+02 -5.296125595968188e+02 5.316125595968188e+02 7.046106074117415e+01 2.068652673647449e+02 -2.743263281059335e+02 4.924688772716472e+02 -1.855700138379849e+03 1.366231261108187e+03 1.632754723395919e-01 4.838251250330361e-01 2.352899402641924e+00 3.951918912157361e+04 -2.571544347693922e+04 -1.380074564463441e+04 8.537608698013355e+01 -6.314124919949966e+01 -1.923483778064838e+01 6.923911928400194e+02 6.527213070723535e+01 -7.546633235472394e+02 1.117384635673079e+01 -6.099201846474893e+00 -2.074644510270443e+00 -2.624502438813431e+04 5.123041781689564e+04 -2.498239342876134e+04 2.716712557047140e+01 6.929782633818104e+01 -9.346495190868156e+01 -2.620277808030247e+04 1.079543294173983e+04 1.541034513856264e+04 -2.338705471933826e+04 -2.502496868593525e+04 4.841502340527351e+04 5.638156757821271e+02 -3.157032598256047e+02 -2.451124159565225e+02 -1.677282695876584e+04 1.040247211427441e+04 6.373354844491381e+03 9.185008020610374e+03 -2.606924411596957e+04 1.688723609535921e+04 -3.909827854696821e+03 4.753838187758700e+03 -8.410103330619032e+02 3.662901885298197e+00 3.554316107183682e-01 -1.018333495987463e+00 -2.952525105394783e+04 1.508465257019631e+04 1.444359848375151e+04 1.149841276393854e+02 -8.714076461613875e+01 -2.484336302324666e+01 -2.298553394406046e+04 -2.583659749247921e+04 4.882513143653967e+04 1.530101364890390e+03 -5.352831029117646e+02 -9.918182619786082e+02 -6.872364714363357e+00 7.031134114818988e+00 2.841230599529804e+00 -1.995301916103635e+02 2.657324284508943e+02 -6.320223684053056e+01 1.675405437588852e+03 -1.602722254815011e+02 -1.512133212107349e+03 3.500818493871891e+03 -2.534343406871484e+03 -9.634750870004223e+02 -6.814050981244538e+03 3.712593606039515e+03 3.104457375205035e+03 -2.640162571897398e+04 7.717405730549166e+03 1.868721998842484e+04 -3.373205725773005e+00 -1.414383377783816e+01 2.051703950359660e+01 4.457665712374728e+01 -3.750297001580475e+01 -4.073687107957094e+00 -4.977234966479213e+03 -8.232568034593374e+03 1.321280300107257e+04 7.748292202678567e+01 3.500376235364963e+02 -4.245205455632967e+02 -8.079406655538041e+03 2.049838679554200e+04 -1.241598014000397e+04 -1.292567029705203e+04 7.921120523152545e+03 5.007549773899473e+03 -1.676472351776611e+02 1.665409165810123e+02 4.106318596677700e+00 1.787326253470237e+02 -9.355761780701874e+01 -8.217500754001958e+01 2.293559707335415e+03 -2.458148316179593e+03 1.675886088441757e+02 1.195176799176261e+01 -1.764344712006276e+01 8.691679128300171e+00 -6.768762037750421e+02 1.638450409799407e+03 -9.585742060243646e+02 -6.638982174323755e+02 -1.153939537473048e+02 7.822921711796812e+02 -9.122280415191199e+00 3.329160990660602e+01 -2.116932949141482e+01 5.969651520584011e+01 -7.138695793815708e+01 1.469044273234615e+01 1.812570315516496e+03 -5.375203788444633e+02 -1.272049936672017e+03 5.724771259701811e-02 3.148044116067468e+00 -2.052918286644850e-01 3.452922612537659e+02 -1.912708906874175e+02 -1.510213705663628e+02 1.653269130582141e+04 9.988270195199366e+03 -2.651796150102077e+04 1.769533443974797e+01 4.944734614342450e+01 -6.414268058317249e+01 1.874802253992457e+03 -9.073057373976945e+01 -1.781071680252716e+03 2.274026021308964e+01 -6.663940921833274e+01 4.689914900521399e+01 -1.245058281245263e+03 1.073177149772527e+03 1.748811314727355e+02 -2.948950013827348e+04 1.347085208173303e+04 1.602164805654047e+04 -2.375829895214032e+04 4.923918361271379e+04 -2.547788466057344e+04 -2.562242844683883e+04 -2.363077019717165e+04 4.925619864401045e+04 -7.256445625527704e+01 -7.157128810089488e+01 1.471357443561865e+02 1.103021112461152e+03 -7.114501332282956e+02 -3.885709792328562e+02 -2.608089164089764e+04 1.632543168243759e+04 9.758459958460055e+03 -2.537628215452392e+04 5.075556430904681e+04 -2.537628215452289e+04 4.399662716416642e+02 1.094674195627155e+02 -5.464336912043800e+02 -2.375137042480002e+04 4.978883085636088e+04 -2.603446043156085e+04 -2.422066532601311e+02 2.021957393329065e+02 4.301091392725350e+01 -6.880878377705812e-01 5.240623465026145e+00 -1.552535627255566e+00 -5.837086275548500e+02 -1.643383418399986e+03 2.230092045954851e+03 -2.596888182418358e+04 -2.420870034611328e+04 5.018058217029685e+04 1.422854603632004e+00 -2.414966588214157e+00 3.992111984567600e+00 1.957617859623861e+01 -2.751740162883650e+01 1.094122303256881e+01 1.239983035280602e+00 -1.213484128398704e+00 2.973501093147206e+00 1.238822853632053e+03 -7.235729829692430e+02 -5.122498706628111e+02 1.310771277130851e+04 1.707238380760025e+04 -3.017709657890879e+04 -2.359120878707297e+04 -2.582375356605270e+04 4.941796235312569e+04 -2.727149692307642e+04 1.639961910694559e+04 1.087487781613082e+04 1.703973944754456e+03 8.529394714846065e+00 -1.709503339469316e+03 1.620914128618366e+04 -3.005181078776843e+04 1.384566950158474e+04 6.274423893555650e+00 5.685401591996197e+00 -8.959825485551844e+00 6.562707961653359e+00 -3.531045409792567e+00 -3.166255184623562e-02 -2.286231659250078e+04 4.839060375991396e+04 -2.552528716741314e+04 -1.214301500651345e+01 6.256152611822468e+00 8.886862394690976e+00 -6.496540752850706e+00 -7.239487760860364e+00 1.673602851372561e+01 3.319346343603684e+00 -1.774211757583544e+00 1.454865413994411e+00 -4.737409136017959e+01 5.169159165817833e+01 -1.317500297998778e+00 4.371416043431964e-01 2.158446081026341e+00 4.044123146013587e-01 6.814814327939530e+00 1.380323351477295e-01 -3.952846663072702e+00 -4.294064514309866e+00 -4.299614710034799e-01 7.724025985298790e+00 -6.647595072463737e+02 -1.604603662954177e+02 8.282198735417915e+02 -6.300467719596345e+02 -1.480076098357670e+02 7.810543817954168e+02 1.100237257342087e+00 1.471429991186596e+00 4.283327514567642e-01 -2.555568477707615e+04 -2.547029226351524e+04 5.102897704059138e+04 -2.858787255385514e+04 1.885955794593884e+04 9.731314607916318e+03 -1.964412638903013e+02 8.946574946606412e+01 1.099755144242518e+02 1.841164228710113e+00 -2.192550232430228e-01 1.378090794547461e+00 9.704009044653503e-01 1.020675784980995e+00 1.008923310553655e+00 9.105191298149293e-01 9.303034239856061e-01 1.159177446199465e+00 4.971083916752832e-01 1.412869873267482e+00 1.090021735042682e+00 -3.092491388003918e+04 1.358690129137969e+04 1.734101258865951e+04 3.547683902288554e-01 8.285426026995992e-01 1.816689007071546e+00 2.888237994828087e+03 -5.788910433729237e+03 2.903672438901180e+03 -8.630757150915888e+02 2.582979452661239e+02 6.077777698254358e+02 -5.437830857605877e+02 3.282030994177764e+02 2.185799863428108e+02 -3.915789076561050e+02 -6.398507093858642e+02 1.034429617041955e+03 -2.048836384745940e+03 -1.575427710723280e+03 3.627264095469205e+03 -1.489322998179530e+03 -1.993018306204133e+03 3.485341304383677e+03 -7.437956903761369e+01 1.626648696281918e+02 -8.528530059060719e+01 -6.194526711436483e+02 -1.169293985635828e+03 1.791746656779505e+03 -1.224392683811282e+03 -6.544479321273402e+02 1.881840615938636e+03 -1.801845170709261e+03 8.889225938517936e+02 9.159225768574398e+02 -1.874456519399595e+03 9.353431508553036e+02 9.421133685443049e+02 -6.927989350058051e+02 -4.267887343907063e+02 1.122587669396496e+03 -8.350813960340020e+02 5.731046921634128e+02 2.649767038705906e+02 -8.291842591521709e+02 -8.197770701361289e+02 1.651961329288258e+03 -2.041202924838581e+01 -2.070418330763641e+01 4.411621255603676e+01 -2.049681971668906e+01 4.245460028501113e+01 -1.895778056833660e+01 2.626208171738253e+02 3.456352679693808e+02 -6.052560851431772e+02 3.009804714260099e+01 4.482696607332034e+01 -7.192501321595047e+01 3.723787909482780e+01 -7.092601457156707e+01 3.668813547676835e+01 1.158233443871723e+01 -2.743867467736706e+01 1.885634023866442e+01 
</DataArray>
<DataArray type="Float64" Name="U235_conc" format="ascii">
4.814828205870144e-01 1.940466461128640e-01 3.383191572037942e-01 1.256777331941547e-01 2.283651917488348e-01 8.465405134566607e-02 1.534290610257258e-01 5.523264234326913e-02 4.845255355652254e-03 1.822606444135028e-02 7.801913820247312e-03 3.067425107296862e-02 1.197830932550245e-02 5.416355457708248e-02 1.586523485728920e-02 1.071893753877257e-01 1.068582263993680e-01 1.299782410591432e-02 5.155147414431227e-02 1.141426112964644e-02 2.920462619369862e-02 7.436877807468018e-03 1.735863453332644e-02 4.623933102989686e-03 -8.335327289050929e-04 -2.470383208365617e-03 3.303915937270709e-03 -4.507767970094074e-03 2.367026021771669e-02 -1.499291657611798e-02 1.004069433561101e-05 6.194098500252045e-06 -1.623479283586305e-05 -2.791105089908443e-01 5.037050821913136e-01 3.607287082036623e-01 -1.012513043742148e-03 7.696949903730598e-04 2.428180533690873e-04 -8.296694314085196e-03 -7.712655684771389e-04 9.067959882562326e-03 -1.198958937559071e-04 8.738068466849600e-05 3.908599663646975e-05 4.730864437533618e-01 -4.566188627070034e-01 4.579348722408857e-01 -3.039503545367808e-04 -8.095187637617128e-04 1.143634575194076e-03 3.645803930447745e-01 -7.939813921972935e-02 -1.347770855816103e-01 4.204738355582484e-01 4.401288031574195e-01 -4.411511019370998e-01 -6.753788109390051e-03 3.800439117898340e-03 2.953348991491714e-03 2.493562543093550e-01 -7.674733456713521e-02 -2.839792732973396e-02 -3.789369764693570e-02 3.851573279920220e-01 -1.303204345439445e-01 5.973349818164431e-02 -4.423049432783194e-02 2.290768792198558e-02 -3.195482262531093e-05 7.734820678663833e-06 2.422000194664712e-05 3.953999805575453e-01 -1.399188629321618e-01 -1.322262138948490e-01 -1.367809531683820e-03 1.057689175388444e-03 3.101203562953758e-04 4.333528541810030e-01 4.675656167620013e-01 -4.283751303862293e-01 -1.834921637868277e-02 6.435397234947525e-03 1.191381914373522e-02 1.021692953111193e-04 -6.467269065376972e-05 -1.439384847180794e-05 2.406362299318715e-03 -3.176789141407738e-03 7.704268420890213e-04 -2.009286525106630e-02 1.935266705770436e-03 1.815759854529585e-02 -4.199782192646567e-02 3.042412088246054e-02 1.157370104400513e-02 8.556266941707269e-02 -4.075706563037955e-02 -3.345943086032047e-02 3.705081192156385e-01 -3.892025817866114e-02 -1.705580292731721e-01 1.040388027302889e-04 2.332863393393023e-04 -1.826441400181080e-04 -3.779431748340754e-04 6.070123508154461e-04 2.058609559129098e-04 9.609355224995567e-02 1.351575490672984e-01 -1.221869033606792e-01 -9.177950643203666e-04 -4.188451482427587e-03 5.106246546747957e-03 1.428639374030078e-01 -2.000695840099486e-01 1.949028192166208e-01 1.627236990286345e-01 -8.743779081378253e-02 -5.247494182278054e-02 2.155093460859547e-03 -1.855164360263435e-03 9.405081554396748e-05 -2.069857226281747e-03 1.197625691529343e-03 1.061034368289752e-03 -2.751071648801881e-02 2.950977979414284e-02 -1.999063306124000e-03 -1.089770774455285e-04 2.461655038880134e-04 -6.985601108943730e-05 1.044079441590075e-02 -1.734312494700956e-02 1.382117044287734e-02 8.432637357434962e-03 1.850586193167349e-03 -8.921647305931781e-03 1.214673649925547e-04 -3.874993188823506e-04 2.660319538897960e-04 -7.043581824584275e-04 8.686434952488729e-04 -1.642853127904464e-04 -2.173884378620023e-02 6.462244546137632e-03 1.527659924006259e-02 1.131302745101329e-05 -2.577652939179063e-05 1.446350194077732e-05 -4.131507135035318e-03 2.307250688217366e-03 1.824256446817952e-03 -1.385175752005718e-01 -5.998452187310112e-02 3.780902584815247e-01 -2.003440132786564e-04 -5.813681537077608e-04 7.817121669864174e-04 -2.248562704791410e-02 1.100766884881791e-03 2.138486016303231e-02 -2.289139532326716e-04 8.436420799460686e-04 -5.188206187339519e-04 1.495269937497031e-02 -1.286612579729329e-02 -2.086573577677012e-03 4.202436208016463e-01 -9.528060583841251e-02 -1.258901575361332e-01 4.395867221976989e-01 -4.363830685805646e-01 4.602217506988902e-01 4.625645454217575e-01 4.386646464257546e-01 -4.359789796684335e-01 1.189383303663774e-03 1.177465285811401e-03 -1.447019103668238e-03 -1.322425334952262e-02 8.549401598729571e-03 4.674851750793046e-03 3.693510876122207e-01 -1.395247922677962e-01 -6.072113158005712e-02 4.996970376531178e-01 -4.138851199097007e-01 4.996970376531294e-01 -4.584918351668577e-03 -6.189321267309175e-04 7.251881202508442e-03 4.439352137284207e-01 -4.385472016455289e-01 4.713322938095137e-01 3.461408240716803e-03 -1.871420470369997e-03 3.879743446764201e-05 2.025705404791174e-05 -5.088748157952629e-05 3.063042753161457e-05 7.016503530638690e-03 1.973260102082876e-02 -2.674910455146746e-02 4.739207200999092e-01 4.527985423630526e-01 -4.398728478338740e-01 -2.457304130371071e-06 4.359655014529403e-05 -3.328839273632957e-05 -1.494920556645889e-04 4.156309070321318e-04 -4.587258889845372e-05 -2.879796418524590e-06 2.656180955064481e-05 -2.368201313212022e-05 -1.485387424356775e-02 8.694875795600489e-03 6.158998447967267e-03 -8.645778444774334e-02 -1.340338368832119e-01 4.329599277548716e-01 4.604509250823021e-01 4.872414624300492e-01 -4.156591286000533e-01 3.861287498492793e-01 -1.379246425109674e-01 -7.162774702119996e-02 -2.043568733704129e-02 -9.035273656528387e-05 2.052604007360657e-02 -1.526458238336989e-01 4.024856010536790e-01 -1.242841624185198e-01 -6.329308672394803e-05 -5.622481910380159e-05 1.195179058277496e-04 -6.006806200681675e-05 6.105697846286457e-05 1.906438421680582e-05 4.363678777453398e-01 -4.186671664836120e-01 4.683235246442894e-01 1.577161800967226e-04 -6.307383136288158e-05 -9.464234873384095e-05 8.995848905622471e-05 9.887385311690821e-05 -1.888323421731328e-04 -2.457640736110804e-05 3.654628986806600e-05 -2.202636197683203e-06 5.804890963837478e-04 -6.082990999107683e-04 2.781000352702110e-05 8.961420683728866e-06 -1.169423301186320e-05 9.354172168477080e-06 -5.728124205536880e-05 2.284014189617220e-05 7.193068984544520e-05 6.352877419281281e-05 1.715953764535630e-05 -8.068831183816905e-05 8.137113804003129e-03 2.085524112538312e-03 -9.778638765472067e-03 7.572561263530470e-03 1.788091317986495e-03 -9.360652581516972e-03 -8.188451401320052e-07 -5.273157919388055e-06 7.244008941101257e-06 4.956768798486992e-01 4.946521696859730e-01 -4.233390619633003e-01 4.047476143230114e-01 -1.646215516745389e-01 -5.508263161818040e-02 2.806423984747306e-03 -6.244601756006786e-04 -8.705773550893167e-04 -1.009397072783609e-05 1.463106028629171e-05 -4.537089558455612e-06 3.551891436624884e-07 -2.481094236379568e-07 -1.070797200245318e-07 1.073770433793474e-06 8.363589048488102e-07 -1.910129338642284e-06 6.140861849733390e-06 -4.848275968649667e-06 -9.740982875661669e-07 4.472950813883376e-01 -8.684670066863748e-02 -1.318960362360577e-01 8.603987988164512e-06 2.918697404856872e-06 -8.939059449476533e-06 -7.679121068150080e-03 9.644666007452350e-02 -7.864334397044231e-03 1.126706789532080e-02 -2.189416028954422e-03 -6.383173923680482e-03 7.133193363751898e-03 -3.330640858395254e-03 -2.015163501494092e-03 7.694463576522115e-03 1.067372519728410e-02 -9.417638719865444e-03 3.479055931482718e-02 2.910965522653615e-02 -3.332264644768104e-02 2.781148288407653e-02 3.385582658035416e-02 -3.188448874663905e-02 9.045548284552855e-04 -1.939978435543336e-03 1.035423607088051e-03 1.208262885274599e-02 1.868072462665727e-02 -1.685176308234913e-02 1.960144867338564e-02 1.276211165316862e-02 -1.767335092361627e-02 2.273185651511801e-02 -9.557356659576990e-03 -9.881356455716290e-03 2.365250715090702e-02 -1.006508889212955e-02 -1.014633150428768e-02 1.164362906136342e-02 8.451506653985544e-03 -1.014101019144903e-02 1.078365278130506e-02 -6.114580277070027e-03 -2.417044417548378e-03 1.656976846749386e-02 1.645688219936108e-02 -1.320397859357571e-02 2.569443509816201e-04 2.604501996885994e-04 -5.173945506702195e-04 2.579618366015280e-04 -4.974552034171722e-04 2.394933668156439e-04 -2.504782453088785e-03 -3.500955862640336e-03 7.909740374704058e-03 -3.491765657069085e-04 -5.259235928775923e-04 8.751001585845012e-04 -4.348545491338475e-04 8.631121748522411e-04 -4.282576257183934e-04 -1.269880132608374e-04 3.412640961188770e-04 -2.142760828580400e-04 
</DataArray>
</PointData>
</Piece>
</UnstructuredGrid>
</VTKFile>
