<?xml version="1.0"?>
<VTKFile type="UnstructuredGrid" version="0.1" byte_order="LittleEndian">
<UnstructuredGrid>
<Piece NumberOfPoints="360" NumberOfCells="124">
<Points>
<DataArray type="Float64" NumberOfComponents="3" format="ascii">
0 0 0 0.084352422163911631 0.086451712656266194 0 0 0.12500000000034689 0 0 0 0 0.1249999999997554 0 0 0.084352422163911631 0.086451712656266194 0 0 0.12500000000034689 0 0.1008171452988615 0.18885703697250469 0 0 0.25 0 0 0.12500000000034689 0 0.084352422163911631 0.086451712656266194 0 0.1008171452988615 0.18885703697250469 0 0.1008171452988615 0.18885703697250469 0 0.084352422163911631 0.086451712656266194 0 0.18402761812864499 0.1117324051466445 0 0.1249999999997599 0.31249999999987998 0 0.1008171452988615 0.18885703697250469 0 0.2403886547178353 0.24188814792673841 0 0.18402761812864499 0.1117324051466445 0 0.2403886547178353 0.24188814792673841 0 0.1008171452988615 0.18885703697250469 0 0.31250000000020822 0.12500000000041631 0 0.2403886547178353 0.24188814792673841 0 0.18402761812864499 0.1117324051466445 0 0.25 -0 0 0.18402761812864499 0.1117324051466445 0 0.1249999999997554 0 0 0.25 -0 0 0.31250000000020822 0.12500000000041631 0 0.18402761812864499 0.1117324051466445 0 0.1249999999997554 0 0 0.18402761812864499 0.1117324051466445 0 0.084352422163911631 0.086451712656266194 0 0.31250000000020822 0.12500000000041631 0 0.25 -0 0 0.25 -0 0 0.43749999999913258 0 0 0.31250000000020822 0.12500000000041631 0 0.31250000000020822 0.12500000000041631 0 0.37500000000027761 0.25000000000055511 0 0.2403886547178353 0.24188814792673841 0 0.37500000000027761 0.25000000000055511 0 0.31250000000020822 0.12500000000041631 0 0.31250000000020822 0.12500000000041631 0 0.4287911518546233 0.15455445427966699 0 0.37500000000027761 0.25000000000055511 0 0.37500000000027761 0.25000000000055511 0 0.4287911518546233 0.15455445427966699 0 0.49457493289300231 0.26251703776555491 0 0.54475767668582953 0.1431838882066932 0 0.49457493289300231 0.26251703776555491 0 0.4287911518546233 0.15455445427966699 0 0.31250000000020822 0.12500000000041631 0 0.43749999999913258 0 0 0.4287911518546233 0.15455445427966699 0 0.43749999999913258 0 0 0.54475767668582953 0.1431838882066932 0 0.4287911518546233 0.15455445427966699 0 0.37499999999973488 0.43749999999986738 0 0.5 0.5 -0 0.43750000000006939 0.37500000000013878 0 0.5 0.5 -0 0.37499999999973488 0.43749999999986738 0 0.43750000000006939 0.37500000000013878 0 0.37499999999973488 0.43749999999986738 0 0.33819444444448321 0.33819444444456342 0 0.5 0.5 -0 0.43750000000006939 0.37500000000013878 0 0.37500000000027761 0.25000000000055511 0 0.49457493289300231 0.26251703776555491 0 0.43750000000006939 0.37500000000013878 0 0.43750000000006939 0.37500000000013878 0 0.37500000000027761 0.25000000000055511 0 0.37500000000027761 0.25000000000055511 0 0.43750000000006939 0.37500000000013878 0 0.33819444444448321 0.33819444444456342 0 0.24999999999960859 0.37499999999980432 0 0.2403886547178353 0.24188814792673841 0 0.33819444444448321 0.33819444444456342 0 0.37500000000027761 0.25000000000055511 0 0.33819444444448321 0.33819444444456342 0 0.2403886547178353 0.24188814792673841 0 0.37499999999973488 0.43749999999986738 0 0.24999999999960859 0.37499999999980432 0 0.33819444444448321 0.33819444444456342 0 0.24999999999960859 0.37499999999980432 0 0.37499999999973488 0.43749999999986738 0 0.37499999999973488 0.43749999999986738 0 0.26452443700674649 0.51563531581639865 0 0.24999999999960859 0.37499999999980432 0 0.24999999999960859 0.37499999999980432 0 0.26452443700674649 0.51563531581639865 0 0.14929124186975251 0.44582793568106382 0 0.24999999999960859 0.37499999999980432 0 0.14929124186975251 0.44582793568106382 0 0.1249999999997599 0.31249999999987998 0 0.24999999999960859 0.37499999999980432 0 0.1249999999997599 0.31249999999987998 0 0.2403886547178353 0.24188814792673841 0 0.1249999999997599 0.31249999999987998 0 0.24999999999960859 0.37499999999980432 0 0 0.25 0 0.1249999999997599 0.31249999999987998 0 0 0.43750000000034689 0 0.1249999999997599 0.31249999999987998 0 0 0.25 0 0.1008171452988615 0.18885703697250469 0 0 0.25 0 0.1249999999997599 0.31249999999987998 0 0 0.43750000000034689 0 0.14929124186975251 0.44582793568106382 0 0.13928587515912139 0.57339806105677438 0 0 0.43750000000034689 0 0.1249999999997599 0.31249999999987998 0 0.14929124186975251 0.44582793568106382 0 0 0.43750000000034689 0 0.13928587515912139 0.57339806105677438 0 0 0.62500000000069389 0 0 0.62500000000069389 0 0.13928587515912139 0.57339806105677438 0 0.13900789599611679 0.72618316107059999 0 0 0.81250000000104083 0 0 0.62500000000069389 0 0.13900789599611679 0.72618316107059999 0 0.27589467050686478 0.66058853156435704 0 0.13900789599611679 0.72618316107059999 0 0.13928587515912139 0.57339806105677438 0 0.27987960212930818 0.83442741470570525 0 0.13900789599611679 0.72618316107059999 0 0.27589467050686478 0.66058853156435704 0 0.26452443700674649 0.51563531581639865 0 0.27589467050686478 0.66058853156435704 0 0.13928587515912139 0.57339806105677438 0 0.26452443700674649 0.51563531581639865 0 0.13928587515912139 0.57339806105677438 0 0.14929124186975251 0.44582793568106382 0 0.1875000000005205 1 0 0 1 0 0.12710107136012311 0.87094806618203435 0 0 1 0 0 0.81250000000104083 0 0.12710107136012311 0.87094806618203435 0 0 0.81250000000104083 0 0.13900789599611679 0.72618316107059999 0 0.12710107136012311 0.87094806618203435 0 0.27987960212930818 0.83442741470570525 0 0.12710107136012311 0.87094806618203435 0 0.13900789599611679 0.72618316107059999 0 0.1875000000005205 1 0 0.12710107136012311 0.87094806618203435 0 0.27987960212930818 0.83442741470570525 0 0.37500000000069389 1 0 0.27987960212930818 0.83442741470570525 0 0.44927105396715372 0.85565124085155886 0 0.37500000000069389 1 0 0.1875000000005205 1 0 0.27987960212930818 0.83442741470570525 0 0.44927105396715372 0.85565124085155886 0 0.27987960212930818 0.83442741470570525 0 0.38136204680495073 0.74038592213831234 0 0.44927105396715372 0.85565124085155886 0 0.38136204680495073 0.74038592213831234 0 0.50145856933078625 0.73674663046504862 0 0.37500000000069389 1 0 0.44927105396715372 0.85565124085155886 0 0.56250000000086742 1 0 0.4139414069912184 0.60563252640100373 0 0.27589467050686478 0.66058853156435704 0 0.26452443700674649 0.51563531581639865 0 0.37499999999973488 0.43749999999986738 0 0.4139414069912184 0.60563252640100373 0 0.26452443700674649 0.51563531581639865 0 0.27987960212930818 0.83442741470570525 0 0.27589467050686478 0.66058853156435704 0 0.38136204680495073 0.74038592213831234 0 0.4139414069912184 0.60563252640100373 0 0.38136204680495073 0.74038592213831234 0 0.27589467050686478 0.66058853156435704 0 0.4139414069912184 0.60563252640100373 0 0.50145856933078625 0.73674663046504862 0 0.38136204680495073 0.74038592213831234 0 0.5625 0.625 0 0.50145856933078625 0.73674663046504862 0 0.4139414069912184 0.60563252640100373 0 0.37499999999973488 0.43749999999986738 0 0.5 0.5 -0 0.4139414069912184 0.60563252640100373 0 0.5625 0.625 0 0.4139414069912184 0.60563252640100373 0 0.5 0.5 -0 0.5625 0.625 0 0.5 0.5 -0 0.63236534182377013 0.50296756406332266 0 0.5625 0.625 0 0.5 0.5 -0 0.5625 0.625 0 0.625 0.75 0 0.50145856933078625 0.73674663046504862 0 0.625 0.75 0 0.5625 0.625 0 0.625 0.75 0 0.71259747807844409 0.63846691315701831 0 0.73857795170433571 0.77736788564284653 0 0.5625 0.625 0 0.71259747807844409 0.63846691315701831 0 0.625 0.75 0 0.75338430262320943 0.49294443423175599 0 0.71259747807844409 0.63846691315701831 0 0.63236534182377013 0.50296756406332266 0 0.5625 0.625 0 0.63236534182377013 0.50296756406332266 0 0.71259747807844409 0.63846691315701831 0 0.6875 0.875 0 0.56250000000086742 1 0 0.56777512057187585 0.8470224641095303 0 0.56250000000086742 1 0 0.44927105396715372 0.85565124085155886 0 0.56777512057187585 0.8470224641095303 0 0.44927105396715372 0.85565124085155886 0 0.50145856933078625 0.73674663046504862 0 0.56777512057187585 0.8470224641095303 0 0.625 0.75 0 0.56777512057187585 0.8470224641095303 0 0.50145856933078625 0.73674663046504862 0 0.6875 0.875 0 0.625 0.75 0 0.73857795170433571 0.77736788564284653 0 0.6875 0.875 0 0.73857795170433571 0.77736788564284653 0 0.80552984491000901 0.88711122872127413 0 0.6875 0.875 0 0.625 0.75 0 0.6875 0.875 0 0.56777512057187585 0.8470224641095303 0 0.625 0.75 0 0.6875 0.875 0 0.75 1 0 0.56250000000086742 1 0 0.6875 0.875 0 0.80552984491000901 0.88711122872127413 0 0.75 1 0 0.75 1 0 0.6875 0.875 0 0.875 1 0 0.75 1 0 0.80552984491000901 0.88711122872127413 0 0.875 1 0 0.80552984491000901 0.88711122872127413 0 0.90637953422180084 0.90208583328057301 0 0.80552984491000901 0.88711122872127413 0 0.85787927391517405 0.753532520882502 0 0.90637953422180084 0.90208583328057301 0 0.80552984491000901 0.88711122872127413 0 0.73857795170433571 0.77736788564284653 0 0.85787927391517405 0.753532520882502 0 1 0.83333333333356463 0 0.85787927391517405 0.753532520882502 0 1 0.66666666666736052 0 1 0.83333333333356463 0 0.90637953422180084 0.90208583328057301 0 0.85787927391517405 0.753532520882502 0 1 1 0 0.90637953422180084 0.90208583328057301 0 1 0.83333333333356463 0 1 1 0 0.875 1 0 0.90637953422180084 0.90208583328057301 0 0.86127466977819722 0.57948076978797636 0 0.71259747807844409 0.63846691315701831 0 0.75338430262320943 0.49294443423175599 0 0.85787927391517405 0.753532520882502 0 0.71259747807844409 0.63846691315701831 0 0.86127466977819722 0.57948076978797636 0 0.85787927391517405 0.753532520882502 0 0.73857795170433571 0.77736788564284653 0 0.71259747807844409 0.63846691315701831 0 1 0.66666666666736052 0 0.85787927391517405 0.753532520882502 0 0.86127466977819722 0.57948076978797636 0 1 0.66666666666736052 0 0.86127466977819722 0.57948076978797636 0 1 0.50000000000138767 0 1 0.33333333333448978 0 1 0.50000000000138767 0 0.86569408477091048 0.40983673916766611 0 0.86127466977819722 0.57948076978797636 0 0.86569408477091048 0.40983673916766611 0 1 0.50000000000138767 0 0.86127466977819722 0.57948076978797636 0 0.75338430262320943 0.49294443423175599 0 0.86569408477091048 0.40983673916766611 0 0.75338430262320943 0.49294443423175599 0 0.71826039492840632 0.34564020717216182 0 0.86569408477091048 0.40983673916766611 0 0.71508993406183785 0.15715956854777599 0 0.86087286690217635 0.25206523597959418 0 0.71826039492840632 0.34564020717216182 0 0.86569408477091048 0.40983673916766611 0 0.71826039492840632 0.34564020717216182 0 0.86087286690217635 0.25206523597959418 0 1 0.16666666666736049 0 1 0.33333333333448978 0 0.86087286690217635 0.25206523597959418 0 1 0.33333333333448978 0 0.86569408477091048 0.40983673916766611 0 0.86087286690217635 0.25206523597959418 0 1 0.16666666666736049 0 0.86087286690217635 0.25206523597959418 0 0.87698901648812122 0.1160638338657984 0 0.81249999999947953 0 0 1 0 0 0.87698901648812122 0.1160638338657984 0 1 0.16666666666736049 0 0.87698901648812122 0.1160638338657984 0 1 0 0 0.81249999999947953 0 0 0.87698901648812122 0.1160638338657984 0 0.71508993406183785 0.15715956854777599 0 0.71508993406183785 0.15715956854777599 0 0.87698901648812122 0.1160638338657984 0 0.86087286690217635 0.25206523597959418 0 0.62499999999895905 0 0 0.71508993406183785 0.15715956854777599 0 0.54475767668582953 0.1431838882066932 0 0.81249999999947953 0 0 0.71508993406183785 0.15715956854777599 0 0.62499999999895905 0 0 0.43749999999913258 0 0 0.62499999999895905 0 0 0.54475767668582953 0.1431838882066932 0 0.71508993406183785 0.15715956854777599 0 0.61108462585082757 0.25750599582343231 0 0.54475767668582953 0.1431838882066932 0 0.54475767668582953 0.1431838882066932 0 0.61108462585082757 0.25750599582343231 0 0.49457493289300231 0.26251703776555491 0 0.56986707178436635 0.37762093650871992 0 0.49457493289300231 0.26251703776555491 0 0.61108462585082757 0.25750599582343231 0 0.43750000000006939 0.37500000000013878 0 0.49457493289300231 0.26251703776555491 0 0.56986707178436635 0.37762093650871992 0 0.43750000000006939 0.37500000000013878 0 0.56986707178436635 0.37762093650871992 0 0.5 0.5 -0 0.5 0.5 -0 0.56986707178436635 0.37762093650871992 0 0.63236534182377013 0.50296756406332266 0 0.75338430262320943 0.49294443423175599 0 0.63236534182377013 0.50296756406332266 0 0.71826039492840632 0.34564020717216182 0 0.56986707178436635 0.37762093650871992 0 0.71826039492840632 0.34564020717216182 0 0.63236534182377013 0.50296756406332266 0 0.71508993406183785 0.15715956854777599 0 0.71826039492840632 0.34564020717216182 0 0.61108462585082757 0.25750599582343231 0 0.56986707178436635 0.37762093650871992 0 0.61108462585082757 0.25750599582343231 0 0.71826039492840632 0.34564020717216182 0 
</DataArray>
</Points>
<Cells>
<DataArray type="UInt32" Name="connectivity" format="ascii">
0 1 2 3 4 5 6 7 8 9 10 11 12 13 14 15 16 17 18 19 20 21 22 23 24 25 26 27 28 29 30 31 32 33 34 35 36 37 38 39 40 41 42 43 44 45 46 47 48 49 50 51 52 53 54 55 56 57 58 59 60 61 62 63 64 65 66 67 68 69 70 71 72 73 74 75 76 77 78 79 80 81 82 83 84 85 86 87 88 89 90 91 92 93 94 95 96 97 98 99 100 101 102 103 104 105 106 107 108 109 110 111 112 113 114 115 116 117 118 119 120 121 122 123 124 125 126 127 128 129 130 131 132 133 134 135 136 137 138 139 140 141 142 143 144 145 146 147 148 149 150 151 152 153 154 155 156 157 158 159 160 161 162 163 164 165 166 167 168 169 170 171 172 173 174 175 176 177 178 179 180 181 182 183 184 185 186 187 188 189 190 191 192 193 194 195 196 197 198 199 200 201 202 203 204 205 206 207 208 209 210 211 212 213 214 215 216 217 218 219 220 221 222 223 224 225 226 227 228 229 230 231 232 233 234 235 236 237 238 239 240 241 242 243 244 245 246 247 248 249 250 251 252 253 254 255 256 257 258 259 260 261 262 263 264 265 266 267 268 269 270 271 272 273 274 275 276 277 278 279 280 281 282 283 284 285 286 287 288 289 290 291 292 293 294 295 296 297 298 299 300 301 302 303 304 305 306 307 308 309 310 311 312 313 314 315 316 317 318 319 320 321 322 323 324 325 326 327 328 329 330 331 332 333 334 335 336 337 338 339 340 341 342 343 344 345 346 347 348 349 350 351 352 353 354 355 356 357 358 359 
</DataArray>
<DataArray type="UInt32" Name="offsets" format="ascii">
3 6 9 12 15 18 21 24 27 30 33 35 38 41 43 46 49 52 55 58 60 63 66 68 71 73 76 79 82 85 87 90 93 96 99 101 104 107 109 112 115 118 121 124 127 130 133 136 139 142 145 148 151 154 157 160 163 166 169 172 175 178 181 184 187 190 193 195 198 200 203 206 209 212 215 218 221 224 227 230 232 235 238 241 243 246 249 252 255 258 261 264 267 270 273 276 279 282 285 288 291 294 297 300 303 306 309 312 315 318 321 324 327 330 333 336 339 342 345 348 351 354 357 360 
</DataArray>
<DataArray type="UInt32" Name="types" format="ascii">
5 5 5 5 5 5 5 5 5 5 5 3 5 5 3 5 5 5 5 5 3 5 5 3 5 3 5 5 5 5 3 5 5 5 5 3 5 5 3 5 5 5 5 5 5 5 5 5 5 5 5 5 5 5 5 5 5 5 5 5 5 5 5 5 5 5 5 3 5 3 5 5 5 5 5 5 5 5 5 5 3 5 5 5 3 5 5 5 5 5 5 5 5 5 5 5 5 5 5 5 5 5 5 5 5 5 5 5 5 5 5 5 5 5 5 5 5 5 5 5 5 5 5 5 
</DataArray>
</Cells>
<PointData Scalars="age_conc,U235_conc," Vectors="" Tensors="">
<DataArray type="Float64" Name="age_conc" format="ascii">
249507.61797167122 249816.91342158362 251335.81034475847 249594.4774214855 251275.69414178835 250010.59938219041 252624.68733305356 252525.15630114346 233255.50530932622 251583.63264287685 249737.52579111818 251497.49160130255 251222.2348264156 250211.72797379494 251789.23030897573 227205.96491929033 250895.33619431048 257831.29384316367 251905.17969209838 256485.462063321 251166.66398058765 228731.00458696272 257629.41360882469 252005.48265346789 234791.10949373894 252824.42275452256 251797.72473005101 231745.36976237531 227268.29230907792 254923.68301592866 251457.08633932297 251973.18654650159 249975.94434185419 216916.45649603 226230.74966228491 249994.45538350462 250069.11538595142 249968.95196774547 223643.13793083106 216702.45879022437 261607.09095319267 203797.42511259796 216765.80752121506 249999.49094128032 250000.14207359226 250009.98331919624 250014.25561986046 249996.74147145008 250021.88459327456 250040.45811296115 250001.61427708995 249988.75047741219 249963.72669329459 250070.07260197654 249982.58009505077 250078.26846375101 250012.23856667397 249996.88100632848 177968.6460543875 142830.0242143354 214019.11649787193 153989.49886559605 210987.67342417841 215609.31244381776 213401.76525180839 247767.1352750129 145436.53997969619 183473.51685090971 250007.94792132295 250039.30882965145 249886.93815845516 184045.39453156947 203512.95322233828 207283.38684751862 203103.87336611448 257543.67346316585 213959.06461621574 262912.95311986632 254885.05528788923 216042.4302830353 254244.35541617981 262495.89257090783 200115.33292258685 204569.33941098297 258592.94660029426 200106.57252075418 178815.72352595342 254200.32199962315 248553.5704986238 249996.69740107036 249556.90839798466 249314.55805231459 250173.96433587078 249615.75817455718 250132.24162039018 249999.2256395545 214453.74214119415 221778.20389703679 262247.1238359675 214377.78726509784 200387.92513196857 249993.30664743771 249996.08347420636 250079.71127429459 225133.54445662291 229949.28850008565 254635.44907072242 224579.62440628136 214535.63186413073 250264.32190653883 249743.80065118603 249624.21568198982 250093.45821469856 249990.29079303378 249909.99783178171 250292.41522226375 251102.88502042941 248992.67334982866 248991.21696193231 251211.91167069427 253035.12931103649 251869.51146740388 250561.89477153658 248372.74837839758 248616.99360767993 255564.05624753094 249362.22267110311 239303.00163118177 256437.30840126096 248815.12416721496 250246.41571577464 249533.92893280197 249064.24565800352 250195.83650902548 249174.98348663049 250060.6819447263 20160.318742347801 16769.60470132561 223741.85997204448 39095.357832912363 259383.50435526352 216835.79877474529 249178.99682823804 250319.67507366114 213341.84724092484 239022.13743442166 201209.16337428192 265808.07382349484 40607.692845117002 193413.86867758067 237385.45809109753 38267.480591445863 219437.08504103779 221144.34804371922 23116.234653615957 22906.379887671224 249824.26958493679 224323.27632832559 225418.07593503795 257244.15491741436 212755.99850341189 242762.11745856077 257370.32864945219 13003.326070708399 232693.45180709663 16632.442898522957 252641.20474526839 250306.41408271101 249829.89475936408 255070.98607793028 257358.30431192048 247845.46719698701 231087.22166509434 255610.49902243889 254082.85080331928 253285.50241967294 246801.50095761975 250229.13389830844 258323.37120933816 257169.35986393731 242975.84587111935 162139.59077373188 270180.23554751166 278234.12734338769 253357.3055060239 211190.22606651144 266391.84064970398 169433.03853902678 274046.20323265635 201968.913689685 249152.87496242434 249941.18828147772 252046.75720040142 110635.3717680089 142026.67040942021 144077.26373281021 129384.48217958759 279030.66599374625 73703.460246499089 109091.79400784436 250084.34405009475 250658.30573708529 249345.97696667491 250127.64706330246 250388.68041632127 250260.70518589366 242221.2883310577 258223.77573688081 251670.39341594203 248767.42995063859 252503.36941021285 252788.50282246515 152211.18495864372 45322.936532560729 208195.39634013921 65985.158847758794 212408.38147858743 199307.94087786903 206565.76203553198 262660.47100478341 211207.68768283658 135434.20302017851 251613.4805136279 269977.84594885365 207584.8994653789 248606.68943890091 253340.40903528122 200035.29698422051 258677.88373197796 204487.20119945731 32973.235073650256 72684.238837732875 121127.01037279196 255688.82402678116 123232.6197981904 153632.18709376029 6808.812278770858 35717.480354579886 195857.92666625482 194286.2061416264 25695.051654290404 -1953.8646707353869 32628.91033316532 12900.680138304251 10666.820922900686 201666.1439215173 22423.47428665348 190553.17365405901 184714.27848264875 214232.4021513421 233637.03105304419 186179.36282343871 217140.09696615228 248196.69517515611 233554.43783010519 17943.239487774445 232856.46504489571 16372.560038028099 27220.959826224112 178385.16144710511 220167.12447488046 7524.4941446984103 183169.59208148689 7524.494144700192 8358.1766656127893 8667.8555438746753 190737.83367732447 215606.91042414357 260846.76804533589 240104.56387184447 226979.26002620853 268223.14387206745 208508.47197143256 238086.82427859594 246492.37459507401 252673.34083393842 37603.049828281895 220551.34022324462 200288.55363882505 17971.133591667709 225731.10265587148 15030.584322974728 14229.10296975131 16223.07440944816 222086.02607554151 214215.47322500288 195959.19575482115 35432.95100981756 217835.85784546615 262170.59140385705 201402.27545462339 256356.42306482806 248425.47625574144 209960.84514814732 248855.68576678785 223505.59400146478 253670.74900179304 216612.12189163198 259690.83876746069 215293.59545340922 17227.446754262372 18734.214717359417 229375.22342454753 34413.954276260156 211800.93766201992 203580.14170433182 32721.288004557427 219638.35322589285 192518.23656044083 262784.2610335662 38021.285189610891 210746.70006452064 18395.493847875307 216697.80039285999 16338.268195621542 245678.83818040922 213697.25484433115 255196.59602888607 268030.4448387078 205382.14261226318 224910.69238455314 250273.60139253645 250411.35000868613 249505.96937642168 248915.22050438615 252405.60192060852 251412.56137917028 250012.29497137232 249841.89176730861 249858.60176546648 249556.49527106769 250680.60590954992 250032.90727157806 250063.57933164816 250366.33847798299 249967.79322675301 250063.92029308301 249954.03268052585 250387.85845882419 249855.3424335398 250064.44134234174 249800.4797270316 249943.92434853018 249534.33303103317 250486.95565281366 250624.69536828934 249388.94462916796 250516.13801053475 249844.17121511453 249042.4438337936 251711.07802790773 249901.7110169545 251535.97353838471 249061.59090380985 249106.32737125957 252765.47114190532 251108.32933681941 250015.37831827684 250490.43853401436 251451.91724727704 
</DataArray>
<DataArray type="Float64" Name="U235_conc" format="ascii">
0.0039500605339542949 0.0063553803067710303 -0.0068602220473468227 0.0035328833048976246 -0.0062938672293708494 0.0066260258378359064 -0.016156101661697793 -0.013484328786518521 0.10062294560114857 -0.0082155392213187663 0.0080608380162301967 0.00015470120508856894 0.0066796561010617856 -0.00011039075777638613 0.0046611017579501869 0.13783495823368502 -0.0057506728804200494 -0.047658535403507542 0.013592953663430118 -0.029803462753719277 0.01621050909028916 0.12807183153826718 -0.046197984676666012 -0.012787850994197481 0.091275362704364066 -0.015745265753315984 -0.011085669713704385 0.10739016184129195 0.13415144938129187 -0.02592852357902397 -0.0066111539571704339 -0.0025531631601102001 0.0091643171172806348 0.18311378517861682 0.13562213051040894 0.00016212432230855651 -0.00056111683799409736 0.0003989925156855409 0.1548571912584556 0.1919732680491319 -0.065500286871449695 0.24715911621871184 0.18461151333083192 -7.4893736053026488e-06 8.4360332474095576e-06 2.7834355094411928e-05 6.103535501019095e-05 8.2308078828879227e-05 -0.0001433434338390702 0.00072367551269081907 -9.0946835549462687e-05 -0.00010122285636686758 0.00048676409304377228 -0.00061585647295678433 0.00094766158573931949 -0.0011324710761988117 -0.00016503924433007361 0.0012975103205288853 0.37415268553014014 0.52239657589131849 0.20818627968983355 0.49057697194553446 0.22897868511519903 0.19936507358261785 0.21486590881520065 0.018446936897321325 0.50714560479575388 0.34265424836132308 -6.3796208137266479e-05 -0.00030935696410089026 0.00073892183428249619 0.33804144710831674 0.24967028506571609 0.23583507551037255 0.25699146984568594 -0.0286066642212311 0.20945224388889738 -0.078716410118596397 -0.02327128905444065 0.1962668836260642 -0.019604249258095972 -0.075808714943823435 0.27615964130650078 0.25260398194518774 -0.034317752287288492 0.27033989397709135 0.36838640095516983 -0.014484326238484314 0.027413289468155383 -0.0015289224008135126 0.0068053174597875977 0.013537591951325402 -0.0031566172580407485 0.005480620434539717 -0.0021015132644991909 -0.00025204916561284328 0.2060583428737984 0.16661582499000407 -0.06947173878308506 0.1994860239157778 0.26785090838786335 0.00044602009684163263 0.00020419129251907561 -0.00065021138936070821 0.1471132267873087 0.11812569797498541 -0.023583161356161959 0.14603790287714408 0.19790305640233824 -0.0028614900454546708 0.0021297189376048207 0.0042498141324923376 -0.00081135202676207519 0.00022624814491004996 0.00058510388185202533 -0.0047581980306478835 -0.0057843628897927416 0.01221238635315137 0.012444902823837952 -0.0021467427789854687 -0.0099326269572566368 0.013590405480033922 -0.0022535867461210939 0.0057278715919245222 0.014955272313192294 -0.02430705483810007 0.0095422724058103724 0.091615657711873827 -0.029750171453189179 0.0093692264755501943 -0.0027610692556699862 0.0068045467736437036 0.01027746549554823 -0.0020820343060559015 0.0086630448605833597 -0.001015363366812117 0.98210930893490545 0.98705537740253191 0.30750111488117038 0.95728442406834746 0.023964456347972264 0.29294200756358163 0.05152513061833356 -0.02130979430498018 0.25565756464943212 0.14462418092787585 0.29664138716327221 -0.095953283735746936 0.95304822259173971 0.32874709569835359 0.18890692732832595 0.97050097623468545 0.20791485955217112 0.26352456141056502 0.98239958907451264 0.97533131238278659 0.18813795809225881 0.21628892097103938 0.17447502640304197 -0.044544103132623289 0.24480917048299686 0.047360161456737361 -0.0517084210931349 0.99847049192236437 0.27996771656297281 0.98746436332673981 0.0026182533466404855 -0.00085994748014581103 -6.9781358609136366e-05 -0.011340508591997898 -0.029183839727417889 0.040524348319415787 0.13709509771346656 -0.029385532790311353 -0.022305188297611356 0.0043709275888299745 0.027854662990344989 -0.0036743839572621253 -0.013274253450435675 -0.04323867072109977 0.056512924171535438 0.4845764383156374 -0.09748017054112966 -0.16170969045209488 -0.022514874739696024 0.23509526436172173 -0.099796066392035476 0.45279504405478083 -0.13415373112614509 0.28272030715180624 0.0086343208284048976 -0.00036506168595097215 -0.0062837874461878713 0.64977083378589007 0.52366131982403263 0.55531066677412788 0.59945546119195781 -0.1201327757590793 0.78723935898540587 0.65806976255491922 0.00031805701689335407 -0.00024809395233091433 0.00043993264441647513 -0.00020126011670029023 0.0018740118305541828 -0.0016723723633854605 0.05718550082093448 -0.053273176264399515 -0.0039081822848096191 0.015011062695290817 -0.0046585231553114646 -0.0103509791397688 0.57121560195661492 0.90953297431105407 0.29966522531080647 0.88208088264199114 0.2627485604912036 0.30246848547277616 0.27782621994352158 -0.078065167672804525 0.23968579718110777 0.56460561599430559 0.078308216933758182 -0.090326792451681612 0.27834262577459495 0.006548774586787591 -0.025784889723347634 0.32303523988698069 -0.054783401728656415 0.31450633985053122 0.92193104976852192 0.79320270725265118 0.66227410210856541 0.094939916219670586 0.58610018990548074 0.5837664446373908 1.000175773038996 0.91529042375055214 0.33808539383160058 0.39544601391211776 0.98945015549878335 1.0085358394718262 0.92220146824633387 0.99576086973743705 1.0017008877517908 0.40305637921181031 0.99196272902048732 0.36438732015627684 0.44827197701091476 0.22066766379585201 0.12570465499237779 0.42758948901115446 0.20489120565054009 0.004225615466586936 0.11882425572490576 0.99068464934917966 0.26410292670361629 0.99498469279004842 0.98696830435037108 0.46916167566144501 0.22671460799792578 0.99838812018277856 0.49283431649344439 0.99838812018280187 0.99819109180148768 0.99706623784493897 0.46301308548037468 0.22551041088474166 -0.071541061349855453 0.071558299384020793 0.19272095017298774 -0.11635340296590113 0.26538099888596106 0.082841054380154266 0.018524023631932441 -0.018031253567047864 0.96950809945166228 0.26102068442185627 0.30405715506598052 0.98794050252792809 0.30395777762622173 0.99154557380895503 0.99224198893358551 0.99030723071263071 0.32268705692505723 0.29700147780266917 0.32601219706240753 0.97094229329195514 0.25542691393260175 -0.069146193265784084 0.30203635586142341 -0.040411451271290762 0.013481724902705508 0.25700751850244929 0.0088568823816698086 0.17696020549526559 -0.026159719776398079 0.25252067068722617 -0.063285393134468626 0.22794659928989425 0.98727756161634805 0.98754134725888243 0.28453814765441449 0.9725993580378024 0.31217402886889817 0.28978288093595 0.97157058146632613 0.28052352379347917 0.34069011582571473 0.013835398277712137 0.96000912556144091 0.31987519988058982 0.98684952455714059 0.33482075396221794 0.98850714982831422 0.063358114562088272 0.24840899619884405 -0.05052681022904721 -0.11161177545252489 0.28082717375813415 0.21423331281417254 0.0039685778793952997 -0.0023334703050364109 0.0022803562037522957 0.028707112265938514 -0.022535293436466864 -0.0022894524593264215 -0.0017868094968521676 0.0068393960667143573 -0.00078112563228896904 0.0045112216763156026 0.0038143592958735009 -0.0012485996926821954 0.00071885026393138938 0.0022891691775726178 -6.3623007788269606e-05 0.00076110097669854432 -0.00021725854476390227 0.00160812406103354 0.00093933627840959034 -0.00051883149549421291 0.002104650219774257 0.00017596764978714311 0.0041011410134117838 -0.0025437025507620134 -0.0035738716338345267 0.0052624168372794825 0.0025177246646180735 0.0028534962255891061 0.013158785764780195 -0.0097823646240943959 0.0016502261411796921 -0.0077676552365332973 0.012592068568490641 0.010211350093564581 -0.015898715181637903 0.0056947750256224486 0.0022321653907469517 0.003033277126352831 -0.0052654425170997835 
</DataArray>
</PointData>
</Piece>
</UnstructuredGrid>
</VTKFile>
