<?xml version="1.0"?>
<VTKFile type="UnstructuredGrid" version="0.1" byte_order="LittleEndian">
<UnstructuredGrid>
<Piece NumberOfPoints="360" NumberOfCells="124">
<Points>
<DataArray type="Float64" NumberOfComponents="3" format="ascii">
0.75 1 0 0.6875 0.875 0 0.6875 0.875 0 0.625 0.75 0 0.625 0.75 0 0.5625 0.625 0 0.5625 0.625 0 0.5 0.5 -0 0 0.25 0 0.1249999999997599 0.31249999999987998 0 0.1249999999997599 0.31249999999987998 0 0.24999999999960859 0.37499999999980432 0 0.24999999999960859 0.37499999999980432 0 0.37499999999973488 0.43749999999986738 0 0.37499999999973488 0.43749999999986738 0 0.5 0.5 -0 0.5 0.5 -0 0.43750000000006939 0.37500000000013878 0 0.43750000000006939 0.37500000000013878 0 0.37500000000027761 0.25000000000055511 0 0.37500000000027761 0.25000000000055511 0 0.31250000000020822 0.12500000000041631 0 0.31250000000020822 0.12500000000041631 0 0.25 -0 0 0.37499999999973488 0.43749999999986738 0 0.4139414069912184 0.60563252640100373 0 0.26452443700674649 0.51563531581639865 0 0.37499999999973488 0.43749999999986738 0 0.5 0.5 -0 0.4139414069912184 0.60563252640100373 0 0 0.25 0 0.1249999999997599 0.31249999999987998 0 0 0.43750000000034689 0 0.6875 0.875 0 0.75 1 0 0.56250000000086742 1 0 0.4139414069912184 0.60563252640100373 0 0.27589467050686478 0.66058853156435704 0 0.26452443700674649 0.51563531581639865 0 0.27987960212930818 0.83442741470570525 0 0.13900789599611679 0.72618316107059999 0 0.27589467050686478 0.66058853156435704 0 0 0.43750000000034689 0 0.14929124186975251 0.44582793568106382 0 0.13928587515912139 0.57339806105677438 0 0.37500000000069389 1 0 0.44927105396715372 0.85565124085155886 0 0.56250000000086742 1 0 0 0.43750000000034689 0 0.13928587515912139 0.57339806105677438 0 0 0.62500000000069389 0 0.37500000000069389 1 0 0.27987960212930818 0.83442741470570525 0 0.44927105396715372 0.85565124085155886 0 0.37500000000069389 1 0 0.1875000000005205 1 0 0.27987960212930818 0.83442741470570525 0 0.27987960212930818 0.83442741470570525 0 0.27589467050686478 0.66058853156435704 0 0.38136204680495073 0.74038592213831234 0 0.56250000000086742 1 0 0.44927105396715372 0.85565124085155886 0 0.56777512057187585 0.8470224641095303 0 0.6875 0.875 0 0.56250000000086742 1 0 0.56777512057187585 0.8470224641095303 0 0.5625 0.625 0 0.4139414069912184 0.60563252640100373 0 0.5 0.5 -0 0 0.43750000000034689 0 0.1249999999997599 0.31249999999987998 0 0.14929124186975251 0.44582793568106382 0 0 1 0 0 0.81250000000104083 0 0.12710107136012311 0.87094806618203435 0 0.37499999999973488 0.43749999999986738 0 0.26452443700674649 0.51563531581639865 0 0.24999999999960859 0.37499999999980432 0 0.1875000000005205 1 0 0 1 0 0.12710107136012311 0.87094806618203435 0 0 0.81250000000104083 0 0 0.62500000000069389 0 0.13900789599611679 0.72618316107059999 0 0.24999999999960859 0.37499999999980432 0 0.14929124186975251 0.44582793568106382 0 0.1249999999997599 0.31249999999987998 0 0.27589467050686478 0.66058853156435704 0 0.13900789599611679 0.72618316107059999 0 0.13928587515912139 0.57339806105677438 0 0.44927105396715372 0.85565124085155886 0 0.27987960212930818 0.83442741470570525 0 0.38136204680495073 0.74038592213831234 0 0.27987960212930818 0.83442741470570525 0 0.12710107136012311 0.87094806618203435 0 0.13900789599611679 0.72618316107059999 0 0.5625 0.625 0 0.50145856933078625 0.73674663046504862 0 0.4139414069912184 0.60563252640100373 0 0.1875000000005205 1 0 0.12710107136012311 0.87094806618203435 0 0.27987960212930818 0.83442741470570525 0 0.24999999999960859 0.37499999999980432 0 0.26452443700674649 0.51563531581639865 0 0.14929124186975251 0.44582793568106382 0 0.26452443700674649 0.51563531581639865 0 0.27589467050686478 0.66058853156435704 0 0.13928587515912139 0.57339806105677438 0 0.5625 0.625 0 0.625 0.75 0 0.50145856933078625 0.73674663046504862 0 0.4139414069912184 0.60563252640100373 0 0.50145856933078625 0.73674663046504862 0 0.38136204680495073 0.74038592213831234 0 0.6875 0.875 0 0.56777512057187585 0.8470224641095303 0 0.625 0.75 0 0.625 0.75 0 0.56777512057187585 0.8470224641095303 0 0.50145856933078625 0.73674663046504862 0 0 0.62500000000069389 0 0.13928587515912139 0.57339806105677438 0 0.13900789599611679 0.72618316107059999 0 0.4139414069912184 0.60563252640100373 0 0.38136204680495073 0.74038592213831234 0 0.27589467050686478 0.66058853156435704 0 0 0.81250000000104083 0 0.13900789599611679 0.72618316107059999 0 0.12710107136012311 0.87094806618203435 0 0.26452443700674649 0.51563531581639865 0 0.13928587515912139 0.57339806105677438 0 0.14929124186975251 0.44582793568106382 0 0.44927105396715372 0.85565124085155886 0 0.50145856933078625 0.73674663046504862 0 0.56777512057187585 0.8470224641095303 0 0.44927105396715372 0.85565124085155886 0 0.38136204680495073 0.74038592213831234 0 0.50145856933078625 0.73674663046504862 0 0.56986707178436635 0.37762093650871992 0 0.71826039492840632 0.34564020717216182 0 0.63236534182377013 0.50296756406332266 0 0.75338430262320943 0.49294443423175599 0 0.63236534182377013 0.50296756406332266 0 0.71826039492840632 0.34564020717216182 0 0.85787927391517405 0.753532520882502 0 0.71259747807844409 0.63846691315701831 0 0.86127466977819722 0.57948076978797636 0 0.25 -0 0 0.43749999999913258 0 0 0.31250000000020822 0.12500000000041631 0 0.85787927391517405 0.753532520882502 0 0.73857795170433571 0.77736788564284653 0 0.71259747807844409 0.63846691315701831 0 0.86127466977819722 0.57948076978797636 0 0.86569408477091048 0.40983673916766611 0 1 0.50000000000138767 0 0.71508993406183785 0.15715956854777599 0 0.86087286690217635 0.25206523597959418 0 0.71826039492840632 0.34564020717216182 0 0.86127466977819722 0.57948076978797636 0 0.75338430262320943 0.49294443423175599 0 0.86569408477091048 0.40983673916766611 0 0.43749999999913258 0 0 0.62499999999895905 0 0 0.54475767668582953 0.1431838882066932 0 0.80552984491000901 0.88711122872127413 0 0.85787927391517405 0.753532520882502 0 0.90637953422180084 0.90208583328057301 0 1 0.83333333333356463 0 0.90637953422180084 0.90208583328057301 0 0.85787927391517405 0.753532520882502 0 1 0.83333333333356463 0 0.85787927391517405 0.753532520882502 0 1 0.66666666666736052 0 1 0.16666666666736049 0 1 0.33333333333448978 0 0.86087286690217635 0.25206523597959418 0 0.62499999999895905 0 0 0.71508993406183785 0.15715956854777599 0 0.54475767668582953 0.1431838882066932 0 0.81249999999947953 0 0 0.71508993406183785 0.15715956854777599 0 0.62499999999895905 0 0 1 0.66666666666736052 0 0.85787927391517405 0.753532520882502 0 0.86127466977819722 0.57948076978797636 0 1 1 0 0.90637953422180084 0.90208583328057301 0 1 0.83333333333356463 0 0.75338430262320943 0.49294443423175599 0 0.71826039492840632 0.34564020717216182 0 0.86569408477091048 0.40983673916766611 0 1 0.66666666666736052 0 0.86127466977819722 0.57948076978797636 0 1 0.50000000000138767 0 0.86127466977819722 0.57948076978797636 0 0.71259747807844409 0.63846691315701831 0 0.75338430262320943 0.49294443423175599 0 0.31250000000020822 0.12500000000041631 0 0.43749999999913258 0 0 0.4287911518546233 0.15455445427966699 0 0.71508993406183785 0.15715956854777599 0 0.87698901648812122 0.1160638338657984 0 0.86087286690217635 0.25206523597959418 0 1 0.33333333333448978 0 1 0.50000000000138767 0 0.86569408477091048 0.40983673916766611 0 0.43750000000006939 0.37500000000013878 0 0.56986707178436635 0.37762093650871992 0 0.5 0.5 -0 0.71508993406183785 0.15715956854777599 0 0.71826039492840632 0.34564020717216182 0 0.61108462585082757 0.25750599582343231 0 0.5625 0.625 0 0.71259747807844409 0.63846691315701831 0 0.625 0.75 0 0.86569408477091048 0.40983673916766611 0 0.71826039492840632 0.34564020717216182 0 0.86087286690217635 0.25206523597959418 0 0.6875 0.875 0 0.80552984491000901 0.88711122872127413 0 0.75 1 0 0.875 1 0 0.75 1 0 0.80552984491000901 0.88711122872127413 0 1 0.33333333333448978 0 0.86569408477091048 0.40983673916766611 0 0.86087286690217635 0.25206523597959418 0 0.81249999999947953 0 0 0.87698901648812122 0.1160638338657984 0 0.71508993406183785 0.15715956854777599 0 0.81249999999947953 0 0 1 0 0 0.87698901648812122 0.1160638338657984 0 0.43749999999913258 0 0 0.54475767668582953 0.1431838882066932 0 0.4287911518546233 0.15455445427966699 0 0.5 0.5 -0 0.56986707178436635 0.37762093650871992 0 0.63236534182377013 0.50296756406332266 0 1 0.16666666666736049 0 0.87698901648812122 0.1160638338657984 0 1 0 0 0.5625 0.625 0 0.63236534182377013 0.50296756406332266 0 0.71259747807844409 0.63846691315701831 0 0.56986707178436635 0.37762093650871992 0 0.61108462585082757 0.25750599582343231 0 0.71826039492840632 0.34564020717216182 0 0.71508993406183785 0.15715956854777599 0 0.61108462585082757 0.25750599582343231 0 0.54475767668582953 0.1431838882066932 0 0.75338430262320943 0.49294443423175599 0 0.71259747807844409 0.63846691315701831 0 0.63236534182377013 0.50296756406332266 0 0.43750000000006939 0.37500000000013878 0 0.49457493289300231 0.26251703776555491 0 0.56986707178436635 0.37762093650871992 0 0.625 0.75 0 0.71259747807844409 0.63846691315701831 0 0.73857795170433571 0.77736788564284653 0 0.5625 0.625 0 0.5 0.5 -0 0.63236534182377013 0.50296756406332266 0 0.80552984491000901 0.88711122872127413 0 0.73857795170433571 0.77736788564284653 0 0.85787927391517405 0.753532520882502 0 0.6875 0.875 0 0.73857795170433571 0.77736788564284653 0 0.80552984491000901 0.88711122872127413 0 0.37500000000027761 0.25000000000055511 0 0.49457493289300231 0.26251703776555491 0 0.43750000000006939 0.37500000000013878 0 1 1 0 0.875 1 0 0.90637953422180084 0.90208583328057301 0 1 0.16666666666736049 0 0.86087286690217635 0.25206523597959418 0 0.87698901648812122 0.1160638338657984 0 0.6875 0.875 0 0.625 0.75 0 0.73857795170433571 0.77736788564284653 0 0.56986707178436635 0.37762093650871992 0 0.49457493289300231 0.26251703776555491 0 0.61108462585082757 0.25750599582343231 0 0.31250000000020822 0.12500000000041631 0 0.4287911518546233 0.15455445427966699 0 0.37500000000027761 0.25000000000055511 0 0.37500000000027761 0.25000000000055511 0 0.4287911518546233 0.15455445427966699 0 0.49457493289300231 0.26251703776555491 0 0.54475767668582953 0.1431838882066932 0 0.49457493289300231 0.26251703776555491 0 0.4287911518546233 0.15455445427966699 0 0.875 1 0 0.80552984491000901 0.88711122872127413 0 0.90637953422180084 0.90208583328057301 0 0.54475767668582953 0.1431838882066932 0 0.61108462585082757 0.25750599582343231 0 0.49457493289300231 0.26251703776555491 0 0.43750000000006939 0.37500000000013878 0 0.5 0.5 -0 0.37499999999973488 0.43749999999986738 0 0.1249999999997599 0.31249999999987998 0 0.1008171452988615 0.18885703697250469 0 0.2403886547178353 0.24188814792673841 0 0.25 -0 0 0.18402761812864499 0.1117324051466445 0 0.1249999999997554 0 0 0.25 -0 0 0.31250000000020822 0.12500000000041631 0 0.18402761812864499 0.1117324051466445 0 0.37499999999973488 0.43749999999986738 0 0.24999999999960859 0.37499999999980432 0 0.33819444444448321 0.33819444444456342 0 0.37500000000027761 0.25000000000055511 0 0.43750000000006939 0.37500000000013878 0 0.33819444444448321 0.33819444444456342 0 0.18402761812864499 0.1117324051466445 0 0.2403886547178353 0.24188814792673841 0 0.1008171452988615 0.18885703697250469 0 0.31250000000020822 0.12500000000041631 0 0.37500000000027761 0.25000000000055511 0 0.2403886547178353 0.24188814792673841 0 0.24999999999960859 0.37499999999980432 0 0.1249999999997599 0.31249999999987998 0 0.2403886547178353 0.24188814792673841 0 0.37500000000027761 0.25000000000055511 0 0.33819444444448321 0.33819444444456342 0 0.2403886547178353 0.24188814792673841 0 0.24999999999960859 0.37499999999980432 0 0.2403886547178353 0.24188814792673841 0 0.33819444444448321 0.33819444444456342 0 0.1249999999997599 0.31249999999987998 0 0 0.25 0 0.1008171452988615 0.18885703697250469 0 0.31250000000020822 0.12500000000041631 0 0.2403886547178353 0.24188814792673841 0 0.18402761812864499 0.1117324051466445 0 0.43750000000006939 0.37500000000013878 0 0.37499999999973488 0.43749999999986738 0 0.33819444444448321 0.33819444444456342 0 0 0 0 0.084352422163911631 0.086451712656266194 0 0 0.12500000000034689 0 0 0 0 0.1249999999997554 0 0 0.084352422163911631 0.086451712656266194 0 0 0.12500000000034689 0 0.1008171452988615 0.18885703697250469 0 0 0.25 0 0.1249999999997554 0 0 0.18402761812864499 0.1117324051466445 0 0.084352422163911631 0.086451712656266194 0 0 0.12500000000034689 0 0.084352422163911631 0.086451712656266194 0 0.1008171452988615 0.18885703697250469 0 0.1008171452988615 0.18885703697250469 0 0.084352422163911631 0.086451712656266194 0 0.18402761812864499 0.1117324051466445 0 
</DataArray>
</Points>
<Cells>
<DataArray type="UInt32" Name="connectivity" format="ascii">
0 1 2 3 4 5 6 7 8 9 10 11 12 13 14 15 16 17 18 19 20 21 22 23 24 25 26 27 28 29 30 31 32 33 34 35 36 37 38 39 40 41 42 43 44 45 46 47 48 49 50 51 52 53 54 55 56 57 58 59 60 61 62 63 64 65 66 67 68 69 70 71 72 73 74 75 76 77 78 79 80 81 82 83 84 85 86 87 88 89 90 91 92 93 94 95 96 97 98 99 100 101 102 103 104 105 106 107 108 109 110 111 112 113 114 115 116 117 118 119 120 121 122 123 124 125 126 127 128 129 130 131 132 133 134 135 136 137 138 139 140 141 142 143 144 145 146 147 148 149 150 151 152 153 154 155 156 157 158 159 160 161 162 163 164 165 166 167 168 169 170 171 172 173 174 175 176 177 178 179 180 181 182 183 184 185 186 187 188 189 190 191 192 193 194 195 196 197 198 199 200 201 202 203 204 205 206 207 208 209 210 211 212 213 214 215 216 217 218 219 220 221 222 223 224 225 226 227 228 229 230 231 232 233 234 235 236 237 238 239 240 241 242 243 244 245 246 247 248 249 250 251 252 253 254 255 256 257 258 259 260 261 262 263 264 265 266 267 268 269 270 271 272 273 274 275 276 277 278 279 280 281 282 283 284 285 286 287 288 289 290 291 292 293 294 295 296 297 298 299 300 301 302 303 304 305 306 307 308 309 310 311 312 313 314 315 316 317 318 319 320 321 322 323 324 325 326 327 328 329 330 331 332 333 334 335 336 337 338 339 340 341 342 343 344 345 346 347 348 349 350 351 352 353 354 355 356 357 358 359 
</DataArray>
<DataArray type="UInt32" Name="offsets" format="ascii">
2 4 6 8 10 12 14 16 18 20 22 24 27 30 33 36 39 42 45 48 51 54 57 60 63 66 69 72 75 78 81 84 87 90 93 96 99 102 105 108 111 114 117 120 123 126 129 132 135 138 141 144 147 150 153 156 159 162 165 168 171 174 177 180 183 186 189 192 195 198 201 204 207 210 213 216 219 222 225 228 231 234 237 240 243 246 249 252 255 258 261 264 267 270 273 276 279 282 285 288 291 294 297 300 303 306 309 312 315 318 321 324 327 330 333 336 339 342 345 348 351 354 357 360 
</DataArray>
<DataArray type="UInt32" Name="types" format="ascii">
3 3 3 3 3 3 3 3 3 3 3 3 5 5 5 5 5 5 5 5 5 5 5 5 5 5 5 5 5 5 5 5 5 5 5 5 5 5 5 5 5 5 5 5 5 5 5 5 5 5 5 5 5 5 5 5 5 5 5 5 5 5 5 5 5 5 5 5 5 5 5 5 5 5 5 5 5 5 5 5 5 5 5 5 5 5 5 5 5 5 5 5 5 5 5 5 5 5 5 5 5 5 5 5 5 5 5 5 5 5 5 5 5 5 5 5 5 5 5 5 5 5 5 5 
</DataArray>
</Cells>
<PointData Scalars="age_conc,U235_conc," Vectors="" Tensors="">
<DataArray type="Float64" Name="age_conc" format="ascii">
-4973.3037648044956 18979.71077200408 10183.642507851775 27903.761190440102 21649.431105104664 33625.359469626725 29485.940629020224 37668.975508332049 44698.852670460314 43583.78522351844 44217.484533910843 42311.456459727808 43447.449090066373 39932.01197140992 42255.412282149809 34645.067230160996 34721.452645574078 42543.152807655853 40198.132828548944 43542.900522045282 42461.91034646349 44275.889474535572 43672.678477203342 44733.90359521292 45604.670756394858 45741.074986294436 45259.883374963552 45787.79199322073 43439.62296345472 46661.554381625159 45453.982958268483 45454.303511573649 45456.172579948317 62761.548879396971 -2473.0837210856116 9441.6141087518627 45547.850768641903 45399.333413216271 45443.239781516371 46378.775578147368 45751.65651302741 44931.721057890943 45464.469950823208 45447.196955020561 45451.221425272997 1206.4334686374386 78681.875673673392 2469.0644330360628 45479.567896911241 45521.698596166658 45358.935817260171 13543.362207815393 50541.573226945431 55156.485426464147 6149.618349945009 4511.7043815449324 77951.696472628348 46113.998082447855 45234.479141708842 45305.069978170955 23208.362904130045 50383.66198215216 46354.544702383602 46406.238518679049 11151.986373199456 54108.466579795699 40086.152147635315 48749.818173682834 43154.969620712953 45457.335934031238 45454.028474202241 45452.654734771124 11251.156753059964 55861.060377160364 55220.00629116263 45581.025856724904 45378.900968810085 45441.198367559897 4536.4714137477349 1685.4078690428178 76347.1367984885 47078.110269128832 45012.725802840454 44556.190652298414 45445.796436976161 45459.699957125966 45455.509983775526 45267.435491987308 45732.69811258134 45403.763446982215 47826.589358746933 45990.911703903141 44639.050696517661 49566.389862274205 43531.227960036653 45102.096270213842 38208.942756243574 48735.587334288357 48127.451103613508 12941.341834775405 47060.373314060962 58030.187574546675 45444.30261557323 45433.531913635605 45468.192903356154 45481.617891936148 45399.538316784827 45432.96752901913 36337.66569103393 33082.332622884329 54527.703697092998 45656.397742407062 45928.952252316638 45154.394035368838 32148.962283121 60726.755722244816 27812.388791165708 31662.270454210855 52509.061231474596 49595.490503843306 45270.947916548466 45605.136065202154 45442.701469730862 45625.1136808886 45352.823228291607 45364.206014177595 48162.577733673155 43410.869728900172 46036.606653232127 45462.942201196427 45433.346838988648 45459.682184248442 44514.12099071312 46829.44748627628 44232.422888127498 44737.979721628704 45286.483910066898 46184.169916130057 45447.659568128467 45490.073446981682 45435.612562215945 45536.849737418161 45405.766355200831 45491.843669537076 47679.435578523189 45329.344865555468 44594.815306559598 45453.869974200694 45456.960771068909 45453.607439560459 45887.164537147168 45350.601382679837 45390.850902280363 55171.428383869315 48627.007268265334 12120.775564812539 45471.383757440875 45503.135778891759 45389.545741737595 47710.975195297899 45745.442369440745 44055.101256657363 45472.646325255155 45383.266655368534 45496.805214087588 44307.436074418074 46625.671497178992 45727.375471494248 8409.8537139749897 51370.205966778747 53921.001950906961 4109.7035343000716 77107.186123930835 2390.1178063096377 2176.3282904794178 4167.9865355915754 77054.955390927149 45346.076349072595 45347.069517198077 45565.776550642273 46649.642528583063 44835.171271119645 45158.05042426032 12955.642360883183 55361.965724477064 48794.993956988663 -2140.9681535126947 73990.878320663775 -2140.968146447336 45815.795392594911 45485.296510096989 44829.395425797382 3612.13217565792 77152.33346823242 1329.0421630554119 45149.531502633225 45593.933895992508 45434.749069997255 45452.883079621657 45458.811783081146 45452.018618386915 45340.878816962744 44281.204113702064 48154.679489549824 1010.3666608677195 2770.5481352942224 77159.830656842096 45454.670409772989 45450.83255721513 45457.239606912168 45464.763218275017 45417.669637663443 45456.128262663326 45454.817973920835 45452.364494443573 45456.551490964492 47021.628413886217 45059.23256765867 45270.555699375465 50498.751302143544 54463.422354661554 7213.9419455885291 1673.3404316929118 -559.20433606477673 74682.511625105952 11481.528523778994 55152.644604721354 49627.90334939993 47452.52549560435 45757.080977410791 44039.04818881907 56898.244356175856 10637.292177782096 54534.772576163552 45462.151628361389 45461.562570661146 45446.917362422872 45459.347132264345 45449.253424384515 45452.752915151388 4148.1309690798334 75401.051409579857 1485.1603955299433 45444.889628567827 45463.288885708615 45465.919580393638 45452.462870462972 45451.719980437425 45475.695472632331 45456.494163783907 45451.400605653296 45454.629683976542 45409.677391412428 45508.743336191117 45455.734299750569 45453.731358419776 45455.452610928078 45453.698587357307 45458.937664229183 45452.26086421802 45448.169977394566 45449.990592985872 45453.854657699565 45462.008682661246 44771.937577579956 45276.236708544966 46264.916952839776 44948.5225379943 45430.561355816448 46359.623479917325 45454.601992843105 45454.973125844961 45453.930060094863 -1617.6339292662997 -1532.24141739064 74967.027889430785 9843.8541075427202 57291.284551597688 48163.041407673642 45207.341147071878 45493.248310867239 45513.75783746619 45455.975421730844 45453.914959906899 45455.512490728601 45454.528790955563 45454.579108666338 45454.567361904323 45454.525968210422 45454.545752164006 45454.774534648866 45454.030391531676 45454.946286981911 45454.623407791936 5855.7857725563736 50367.600995119668 54121.712204993215 45453.802041021336 45454.27602618227 45455.264178993646 45271.760135054596 36594.611739644381 45287.194642713694 44488.222776718889 45609.596394463952 45959.07619981053 44841.936558724548 45713.922764348543 45604.299617376593 44722.321205299188 44474.049369636865 46148.329763650181 42244.386039040401 42717.794801766446 47920.486619194737 42834.057560238529 42330.362347188093 47808.722090699979 45450.485423865248 45687.529794444432 45439.579616858769 44306.191473113991 43756.35016521412 46717.390830938697 43671.705334637183 44241.650134277807 46777.938576221219 43526.735806424593 46217.503716087784 46244.503505624365 43448.510644795329 46258.309962462037 46265.080260631818 44383.018623492404 44649.028848340153 46198.405202123045 44533.006671339266 45941.192710223266 45633.064761270383 43872.15290634644 43881.559769796717 46353.29866997058 45435.790468010819 45435.498244715185 45500.318735142122 45436.504097807388 45499.455516157592 45438.043068552717 45643.915368881047 45726.929762994434 44776.038440998847 45508.791475954531 45523.520408969744 45406.768304721925 45512.912495184661 45404.748443523684 45512.362692506358 45480.728529605491 45441.707282930132 45488.002568530443 
</DataArray>
<DataArray type="Float64" Name="U235_conc" format="ascii">
0.48148282059410552 0.19404664608593836 0.33831915716424921 0.12567773326180426 0.2283651917839977 0.08465405139666185 0.15342906108779494 0.055232642337113086 0.0048452553678067882 0.01822606446677473 0.0078019138296505329 0.030674251122246258 0.011978309360607155 0.054163554626409219 0.015865234906969991 0.10718937541369972 0.10685822642198972 0.012997824042459138 0.051551474095045666 0.011414261076243236 0.029204626123815733 0.0074368778137245059 0.017358634512985395 0.0046239330955287171 -0.00083353272956130449 -0.0024703832158324401 0.0033039159453937443 -0.004507767977954158 0.023670260276167098 -0.014992916611645831 1.0040694347917821e-05 6.194098520240201e-06 -1.6234792868158021e-05 -0.27911050902754309 0.50370508219002486 0.36072870823967706 -0.0010125130453936305 0.00076969499186127564 0.00024281805353235493 -0.0082966943187663747 -0.00077126556591066309 0.0090679598846770387 -0.0001198958938632238 8.7380684849055253e-05 3.908599644345254e-05 0.47308644374243725 -0.45661886271757179 0.45793487216953377 -0.00030395035455974478 -0.00080951876423516729 0.0011436345757359304 0.36458039301735701 -0.079398139212201943 -0.13477708560620122 0.42047383554212237 0.44012880316295033 -0.44115110193008533 -0.0067537881210030966 0.0038004391233558161 0.0029533489976472801 0.24935625430333011 -0.076747334613003468 -0.028397927309476982 -0.037893697658117023 0.38515732800705776 -0.13032043453476619 0.059733498241101524 -0.044230494410837554 0.022907687998674708 -3.1954822697963464e-05 7.7348207003402126e-06 2.4220001997623253e-05 0.39539998056438558 -0.13991886292709105 -0.13222621388978784 -0.0013678095344870657 0.0010576891777025262 0.00031012035678453951 0.43335285419339364 0.46756561676591746 -0.42837513038223551 -0.018349216379200391 0.00643539723410908 0.011913819145091313 0.00010216929533378627 -6.4672690629631941e-05 -1.4393848487684573e-05 0.0024063622992881823 -0.0031767891415708542 0.00077042684228267194 -0.020092865258302339 0.0019352666956859443 0.018157598562616395 -0.041997821931410571 0.030424120897159897 0.011573701034250674 0.085562669467657906 -0.040757065687279562 -0.03345943086783696 0.37050811922722954 -0.038920258156884616 -0.17055802928583849 0.00010403880268887909 0.00023328633978829107 -0.00018264414014744029 -0.00037794317507869964 0.00060701235180216377 0.00020586095571711098 0.096093552324873682 0.13515754906681646 -0.1221869034460992 -0.00091779507826161453 -0.0041884514598498233 0.0051062465381114374 0.14286393734706809 -0.20006958394916632 0.19490281915690616 0.16272369908576959 -0.087437790834999224 -0.052474941923681989 0.0021550934617363417 -0.0018551643616164133 9.4050816672053099e-05 -0.002069857229792158 0.0011976256932226745 0.0010610343704462843 -0.027510716493473544 0.029509779794284582 -0.0019990633008110364 -0.00010897707740391815 0.00024616550383434578 -6.9856011065981874e-05 0.010440794317953184 -0.01734312487160004 0.013821170487278212 0.0084326372910126599 0.0018505861772643035 -0.0089216472345458528 0.0001214673651988307 -0.00038749931958531424 0.00026603195438648354 -0.00070435818306093857 0.00086864349658250027 -0.00016428531352156181 -0.021738843757999518 0.0064622445222022561 0.015276599235797265 1.1313027433219718e-05 -2.5776529352475779e-05 1.4463501919256063e-05 -0.0041315071404771321 0.0023072506943376983 0.0018242564461394349 -0.1385175751667829 -0.059984521873094429 0.37809025854696376 -0.00020034401973717815 -0.00058136813845269307 0.00078171215818987119 -0.022485627026338967 0.0011007668412196803 0.021384860185119287 -0.00022891395291147211 0.0008436420787040162 -0.0005188206179837806 0.014952699419288843 -0.012866125820652653 -0.0020865735986361905 0.42024362086590239 -0.095280605803110222 -0.12589015759939598 0.43958672232770218 -0.43638306856331599 0.46022175074155675 0.46256454552678661 0.43866464649035797 -0.43597897966751764 0.0011893833019706963 0.0011774652838503292 -0.001447019101501188 -0.013224253332362415 0.008549401587295306 0.0046748517450671111 0.36935108781178749 -0.13952479226381787 -0.060721131641734809 0.49969703762984913 -0.41388511986757748 0.49969703771091861 -0.0045849183629097044 -0.00061893213333874758 0.0072518812330974614 0.44393521385059687 -0.43854720162550281 0.47133229383419117 0.0034614082485865025 -0.0018714204751400856 3.8797435464284886e-05 2.0257054016891789e-05 -5.0887481502477419e-05 3.063042748558563e-05 0.0070165034929153269 0.0197326011656394 -0.026749104658554727 0.47392072012788528 0.45279854242680456 -0.43987284783315639 -2.457304130098283e-06 4.3596550219051487e-05 -3.3288392799345591e-05 -0.00014949205526844741 0.00041563090602201967 -4.5872588837823997e-05 -2.8797968298192831e-06 2.6561808900831465e-05 -2.368201207101218e-05 -0.014853874234553997 0.0086948757687856908 0.0061589984657683065 -0.086457784556819683 -0.13403383679848943 0.43295992784292348 0.46045092507799512 0.48724146255352641 -0.41565912855460507 0.38612874980850775 -0.13792464248992875 -0.071627746975636161 -0.020435687346731471 -9.0352668332280284e-05 0.020526040015063755 -0.15264582394052878 0.40248560122302668 -0.12428416231311126 -6.3293086621074509e-05 -5.6224819011002575e-05 0.00011951790563207709 -6.0068062111312318e-05 6.1056978567967251e-05 1.9064384238880252e-05 0.43636787789727588 -0.41866716644200247 0.46832352480297718 0.0001577161805797161 -6.3073831628619577e-05 -9.4642348951096499e-05 8.9958489302357117e-05 9.8873853224022441e-05 -0.0001888323425263796 -2.4576407282441933e-05 3.6546289741329676e-05 -2.202636183182508e-06 0.00058048909947897324 -0.00060829910256299312 2.7810003084019889e-05 8.9614206798245591e-06 -1.1694233018975397e-05 9.3541722072744216e-06 -5.7281241334292823e-05 2.2840139885870216e-05 7.1930693997059199e-05 6.3528774346807303e-05 1.7159537674960425e-05 -8.0688312021767728e-05 0.0081371138293339709 0.0020855241156965054 -0.0097786387811927347 0.0075725612161181358 0.0017880913160321838 -0.0093606525321503192 -8.1884514154541633e-07 -5.2731579145711054e-06 7.2440089434715394e-06 0.49567687987269571 0.4946521696877979 -0.42333906192696985 0.40474761478151472 -0.16462155207341306 -0.055082631413905299 0.0028064239666551576 -0.00062446017336422713 -0.00087057734334890636 -1.0093970681150655e-05 1.4631060298668778e-05 -4.5370896175181157e-06 3.5518914761247515e-07 -2.4810941442173803e-07 -1.0707973319073717e-07 1.0737704294554756e-06 8.3635893814789605e-07 -1.9101293676033717e-06 6.1408618266521673e-06 -4.8482759571979945e-06 -9.7409828152566857e-07 0.4472950816219885 -0.086846700573020574 -0.13189603643218206 8.6039879701923412e-06 2.9186973410876642e-06 -8.9390594106131566e-06 -0.0076791209603348162 0.096446660079504976 -0.007864334523106177 0.011267067910216951 -0.0021894160335857709 -0.0063831739314164082 0.0071331933564443544 -0.0033306408547772275 -0.0020151635012642696 0.0076944635710492456 0.010673725181298676 -0.009417638710076481 0.034790559275507373 0.029109655266252039 -0.033322646475065082 0.027811482863832483 0.033855826636388614 -0.031884488717451351 0.000904554830599473 -0.001939978434912687 0.0010354236043132142 0.012082628821912413 0.018680724616703274 -0.016851763057340752 0.019601448681026604 0.012762111677356221 -0.017673350944298859 0.022731856548584877 -0.009557356639431993 -0.0098813564890026778 0.023652507146134875 -0.01006508888154083 -0.010146331516583368 0.011643629069163591 0.0084515066621437037 -0.01014101020261745 0.010783652763818406 -0.0061145802691935248 -0.0024170444134805325 0.016569768546103068 0.016456882061846489 -0.013203978550871319 0.00025694435115422213 0.00026045020002286325 -0.00051739455117708532 0.00025796183622793821 -0.00049745520316890873 0.00023949336694097052 -0.0025047824547591679 -0.0035009558662742 0.0079097403777940029 -0.00034917656623721595 -0.00052592359139216427 0.00087510015762938043 -0.00043485454947576457 0.00086311217572147738 -0.00042825762624571271 -0.00012698801504677803 0.00034126409630489757 -0.00021427608125811943 
</DataArray>
</PointData>
</Piece>
</UnstructuredGrid>
</VTKFile>
