<?xml version="1.0"?>
<VTKFile type="UnstructuredGrid" version="0.1" byte_order="LittleEndian">
<UnstructuredGrid>
<Piece NumberOfPoints="360" NumberOfCells="124">
<Points>
<DataArray type="Float64" NumberOfComponents="3" format="ascii">
0 0.25 0 0.1249999999997599 0.31249999999987998 0 0 0 0 0.1249999999997554 0 0 0.084352422163911631 0.086451712656266194 0 0 0 0 0.084352422163911631 0.086451712656266194 0 0 0.12500000000034689 0 0 0.12500000000034689 0 0.084352422163911631 0.086451712656266194 0 0.1008171452988615 0.18885703697250469 0 0 0.12500000000034689 0 0.1008171452988615 0.18885703697250469 0 0 0.25 0 0.1008171452988615 0.18885703697250469 0 0.084352422163911631 0.086451712656266194 0 0.18402761812864499 0.1117324051466445 0 0.1249999999997599 0.31249999999987998 0 0.1008171452988615 0.18885703697250469 0 0.2403886547178353 0.24188814792673841 0 0.18402761812864499 0.1117324051466445 0 0.2403886547178353 0.24188814792673841 0 0.1008171452988615 0.18885703697250469 0 0.31250000000020822 0.12500000000041631 0 0.2403886547178353 0.24188814792673841 0 0.18402761812864499 0.1117324051466445 0 0.25 -0 0 0.18402761812864499 0.1117324051466445 0 0.1249999999997554 0 0 0.25 -0 0 0.31250000000020822 0.12500000000041631 0 0.18402761812864499 0.1117324051466445 0 0.1249999999997554 0 0 0.18402761812864499 0.1117324051466445 0 0.084352422163911631 0.086451712656266194 0 0.25 -0 0 0.43749999999913258 0 0 0.31250000000020822 0.12500000000041631 0 0.43749999999913258 0 0 0.54475767668582953 0.1431838882066932 0 0.4287911518546233 0.15455445427966699 0 0.31250000000020822 0.12500000000041631 0 0.43749999999913258 0 0 0.4287911518546233 0.15455445427966699 0 0.54475767668582953 0.1431838882066932 0 0.49457493289300231 0.26251703776555491 0 0.4287911518546233 0.15455445427966699 0 0.37500000000027761 0.25000000000055511 0 0.4287911518546233 0.15455445427966699 0 0.49457493289300231 0.26251703776555491 0 0.31250000000020822 0.12500000000041631 0 0.37500000000027761 0.25000000000055511 0 0.2403886547178353 0.24188814792673841 0 0.31250000000020822 0.12500000000041631 0 0.4287911518546233 0.15455445427966699 0 0.37500000000027761 0.25000000000055511 0 0.1249999999997599 0.31249999999987998 0 0.24999999999960859 0.37499999999980432 0 0.24999999999960859 0.37499999999980432 0 0.2403886547178353 0.24188814792673841 0 0.33819444444448321 0.33819444444456342 0 0.37500000000027761 0.25000000000055511 0 0.33819444444448321 0.33819444444456342 0 0.2403886547178353 0.24188814792673841 0 0.37500000000027761 0.25000000000055511 0 0.49457493289300231 0.26251703776555491 0 0.43750000000006939 0.37500000000013878 0 0.37500000000027761 0.25000000000055511 0 0.43750000000006939 0.37500000000013878 0 0.33819444444448321 0.33819444444456342 0 0.43750000000006939 0.37500000000013878 0 0.37499999999973488 0.43749999999986738 0 0.33819444444448321 0.33819444444456342 0 0.43750000000006939 0.37500000000013878 0 0.5 0.5 -0 0.37499999999973488 0.43749999999986738 0 0.37499999999973488 0.43749999999986738 0 0.26452443700674649 0.51563531581639865 0 0.24999999999960859 0.37499999999980432 0 0.37499999999973488 0.43749999999986738 0 0.24999999999960859 0.37499999999980432 0 0.33819444444448321 0.33819444444456342 0 0.24999999999960859 0.37499999999980432 0 0.26452443700674649 0.51563531581639865 0 0.14929124186975251 0.44582793568106382 0 0.24999999999960859 0.37499999999980432 0 0.14929124186975251 0.44582793568106382 0 0.1249999999997599 0.31249999999987998 0 0.24999999999960859 0.37499999999980432 0 0.1249999999997599 0.31249999999987998 0 0.2403886547178353 0.24188814792673841 0 0 0.25 0 0.1249999999997599 0.31249999999987998 0 0 0.43750000000034689 0 0.1249999999997599 0.31249999999987998 0 0 0.25 0 0.1008171452988615 0.18885703697250469 0 0 0.43750000000034689 0 0.1249999999997599 0.31249999999987998 0 0.14929124186975251 0.44582793568106382 0 0 0.43750000000034689 0 0.14929124186975251 0.44582793568106382 0 0.13928587515912139 0.57339806105677438 0 0 0.43750000000034689 0 0.13928587515912139 0.57339806105677438 0 0 0.62500000000069389 0 0.31250000000020822 0.12500000000041631 0 0.25 -0 0 0.37500000000027761 0.25000000000055511 0 0.31250000000020822 0.12500000000041631 0 0.24999999999960859 0.37499999999980432 0 0.37499999999973488 0.43749999999986738 0 0.26452443700674649 0.51563531581639865 0 0.27589467050686478 0.66058853156435704 0 0.13928587515912139 0.57339806105677438 0 0.26452443700674649 0.51563531581639865 0 0.13928587515912139 0.57339806105677438 0 0.14929124186975251 0.44582793568106382 0 0.27987960212930818 0.83442741470570525 0 0.13900789599611679 0.72618316107059999 0 0.27589467050686478 0.66058853156435704 0 0.27589467050686478 0.66058853156435704 0 0.13900789599611679 0.72618316107059999 0 0.13928587515912139 0.57339806105677438 0 0 0.81250000000104083 0 0 0.62500000000069389 0 0.13900789599611679 0.72618316107059999 0 0 0.62500000000069389 0 0.13928587515912139 0.57339806105677438 0 0.13900789599611679 0.72618316107059999 0 0 0.81250000000104083 0 0.13900789599611679 0.72618316107059999 0 0.12710107136012311 0.87094806618203435 0 0.1875000000005205 1 0 0 1 0 0.12710107136012311 0.87094806618203435 0 0 1 0 0 0.81250000000104083 0 0.12710107136012311 0.87094806618203435 0 0.1875000000005205 1 0 0.12710107136012311 0.87094806618203435 0 0.27987960212930818 0.83442741470570525 0 0.27987960212930818 0.83442741470570525 0 0.12710107136012311 0.87094806618203435 0 0.13900789599611679 0.72618316107059999 0 0.43750000000006939 0.37500000000013878 0 0.37500000000027761 0.25000000000055511 0 0.5 0.5 -0 0.43750000000006939 0.37500000000013878 0 0.37499999999973488 0.43749999999986738 0 0.5 0.5 -0 0.44927105396715372 0.85565124085155886 0 0.27987960212930818 0.83442741470570525 0 0.38136204680495073 0.74038592213831234 0 0.37500000000069389 1 0 0.27987960212930818 0.83442741470570525 0 0.44927105396715372 0.85565124085155886 0 0.37500000000069389 1 0 0.1875000000005205 1 0 0.27987960212930818 0.83442741470570525 0 0.37500000000069389 1 0 0.44927105396715372 0.85565124085155886 0 0.56250000000086742 1 0 0.44927105396715372 0.85565124085155886 0 0.38136204680495073 0.74038592213831234 0 0.50145856933078625 0.73674663046504862 0 0.5625 0.625 0 0.50145856933078625 0.73674663046504862 0 0.4139414069912184 0.60563252640100373 0 0.4139414069912184 0.60563252640100373 0 0.50145856933078625 0.73674663046504862 0 0.38136204680495073 0.74038592213831234 0 0.4139414069912184 0.60563252640100373 0 0.38136204680495073 0.74038592213831234 0 0.27589467050686478 0.66058853156435704 0 0.27987960212930818 0.83442741470570525 0 0.27589467050686478 0.66058853156435704 0 0.38136204680495073 0.74038592213831234 0 0.4139414069912184 0.60563252640100373 0 0.27589467050686478 0.66058853156435704 0 0.26452443700674649 0.51563531581639865 0 0.37499999999973488 0.43749999999986738 0 0.4139414069912184 0.60563252640100373 0 0.26452443700674649 0.51563531581639865 0 0.37499999999973488 0.43749999999986738 0 0.5 0.5 -0 0.4139414069912184 0.60563252640100373 0 0.5625 0.625 0 0.4139414069912184 0.60563252640100373 0 0.5 0.5 -0 0.5625 0.625 0 0.5 0.5 -0 0.63236534182377013 0.50296756406332266 0 0.5625 0.625 0 0.5 0.5 -0 0.625 0.75 0 0.5625 0.625 0 0.5625 0.625 0 0.63236534182377013 0.50296756406332266 0 0.71259747807844409 0.63846691315701831 0 0.75338430262320943 0.49294443423175599 0 0.71259747807844409 0.63846691315701831 0 0.63236534182377013 0.50296756406332266 0 0.5625 0.625 0 0.71259747807844409 0.63846691315701831 0 0.625 0.75 0 0.625 0.75 0 0.71259747807844409 0.63846691315701831 0 0.73857795170433571 0.77736788564284653 0 0.5625 0.625 0 0.625 0.75 0 0.50145856933078625 0.73674663046504862 0 0.625 0.75 0 0.56777512057187585 0.8470224641095303 0 0.50145856933078625 0.73674663046504862 0 0.44927105396715372 0.85565124085155886 0 0.50145856933078625 0.73674663046504862 0 0.56777512057187585 0.8470224641095303 0 0.56250000000086742 1 0 0.44927105396715372 0.85565124085155886 0 0.56777512057187585 0.8470224641095303 0 0.6875 0.875 0 0.56250000000086742 1 0 0.56777512057187585 0.8470224641095303 0 0.6875 0.875 0 0.75 1 0 0.56250000000086742 1 0 0.6875 0.875 0 0.80552984491000901 0.88711122872127413 0 0.75 1 0 0.6875 0.875 0 0.73857795170433571 0.77736788564284653 0 0.80552984491000901 0.88711122872127413 0 0.6875 0.875 0 0.56777512057187585 0.8470224641095303 0 0.625 0.75 0 0.6875 0.875 0 0.625 0.75 0 0.73857795170433571 0.77736788564284653 0 0.80552984491000901 0.88711122872127413 0 0.73857795170433571 0.77736788564284653 0 0.85787927391517405 0.753532520882502 0 0.6875 0.875 0 0.625 0.75 0 0.75 1 0 0.6875 0.875 0 0.80552984491000901 0.88711122872127413 0 0.85787927391517405 0.753532520882502 0 0.90637953422180084 0.90208583328057301 0 0.875 1 0 0.75 1 0 0.80552984491000901 0.88711122872127413 0 0.875 1 0 0.80552984491000901 0.88711122872127413 0 0.90637953422180084 0.90208583328057301 0 1 1 0 0.875 1 0 0.90637953422180084 0.90208583328057301 0 1 1 0 0.90637953422180084 0.90208583328057301 0 1 0.83333333333356463 0 1 0.83333333333356463 0 0.85787927391517405 0.753532520882502 0 1 0.66666666666736052 0 1 0.83333333333356463 0 0.90637953422180084 0.90208583328057301 0 0.85787927391517405 0.753532520882502 0 1 0.66666666666736052 0 0.85787927391517405 0.753532520882502 0 0.86127466977819722 0.57948076978797636 0 0.85787927391517405 0.753532520882502 0 0.71259747807844409 0.63846691315701831 0 0.86127466977819722 0.57948076978797636 0 0.85787927391517405 0.753532520882502 0 0.73857795170433571 0.77736788564284653 0 0.71259747807844409 0.63846691315701831 0 0.86127466977819722 0.57948076978797636 0 0.71259747807844409 0.63846691315701831 0 0.75338430262320943 0.49294443423175599 0 1 0.66666666666736052 0 0.86127466977819722 0.57948076978797636 0 1 0.50000000000138767 0 1 0.33333333333448978 0 1 0.50000000000138767 0 0.86569408477091048 0.40983673916766611 0 0.86127466977819722 0.57948076978797636 0 0.86569408477091048 0.40983673916766611 0 1 0.50000000000138767 0 1 0.16666666666736049 0 1 0.33333333333448978 0 0.86087286690217635 0.25206523597959418 0 1 0.33333333333448978 0 0.86569408477091048 0.40983673916766611 0 0.86087286690217635 0.25206523597959418 0 0.86569408477091048 0.40983673916766611 0 0.71826039492840632 0.34564020717216182 0 0.86087286690217635 0.25206523597959418 0 0.71508993406183785 0.15715956854777599 0 0.86087286690217635 0.25206523597959418 0 0.71826039492840632 0.34564020717216182 0 0.86127466977819722 0.57948076978797636 0 0.75338430262320943 0.49294443423175599 0 0.86569408477091048 0.40983673916766611 0 0.75338430262320943 0.49294443423175599 0 0.71826039492840632 0.34564020717216182 0 0.86569408477091048 0.40983673916766611 0 0.56986707178436635 0.37762093650871992 0 0.71826039492840632 0.34564020717216182 0 0.63236534182377013 0.50296756406332266 0 0.75338430262320943 0.49294443423175599 0 0.63236534182377013 0.50296756406332266 0 0.71826039492840632 0.34564020717216182 0 0.43750000000006939 0.37500000000013878 0 0.56986707178436635 0.37762093650871992 0 0.5 0.5 -0 0.5 0.5 -0 0.56986707178436635 0.37762093650871992 0 0.63236534182377013 0.50296756406332266 0 0.43750000000006939 0.37500000000013878 0 0.49457493289300231 0.26251703776555491 0 0.56986707178436635 0.37762093650871992 0 0.56986707178436635 0.37762093650871992 0 0.49457493289300231 0.26251703776555491 0 0.61108462585082757 0.25750599582343231 0 0.71508993406183785 0.15715956854777599 0 0.71826039492840632 0.34564020717216182 0 0.61108462585082757 0.25750599582343231 0 0.56986707178436635 0.37762093650871992 0 0.61108462585082757 0.25750599582343231 0 0.71826039492840632 0.34564020717216182 0 0.71508993406183785 0.15715956854777599 0 0.61108462585082757 0.25750599582343231 0 0.54475767668582953 0.1431838882066932 0 0.54475767668582953 0.1431838882066932 0 0.61108462585082757 0.25750599582343231 0 0.49457493289300231 0.26251703776555491 0 0.43749999999913258 0 0 0.62499999999895905 0 0 0.54475767668582953 0.1431838882066932 0 0.62499999999895905 0 0 0.71508993406183785 0.15715956854777599 0 0.54475767668582953 0.1431838882066932 0 0.81249999999947953 0 0 0.71508993406183785 0.15715956854777599 0 0.62499999999895905 0 0 0.81249999999947953 0 0 0.87698901648812122 0.1160638338657984 0 0.71508993406183785 0.15715956854777599 0 0.71508993406183785 0.15715956854777599 0 0.87698901648812122 0.1160638338657984 0 0.86087286690217635 0.25206523597959418 0 1 0.16666666666736049 0 0.86087286690217635 0.25206523597959418 0 0.87698901648812122 0.1160638338657984 0 0.81249999999947953 0 0 1 0 0 0.87698901648812122 0.1160638338657984 0 1 0.16666666666736049 0 0.87698901648812122 0.1160638338657984 0 1 0 0 
</DataArray>
</Points>
<Cells>
<DataArray type="UInt32" Name="connectivity" format="ascii">
0 1 2 3 4 5 6 7 8 9 10 11 12 13 14 15 16 17 18 19 20 21 22 23 24 25 26 27 28 29 30 31 32 33 34 35 36 37 38 39 40 41 42 43 44 45 46 47 48 49 50 51 52 53 54 55 56 57 58 59 60 61 62 63 64 65 66 67 68 69 70 71 72 73 74 75 76 77 78 79 80 81 82 83 84 85 86 87 88 89 90 91 92 93 94 95 96 97 98 99 100 101 102 103 104 105 106 107 108 109 110 111 112 113 114 115 116 117 118 119 120 121 122 123 124 125 126 127 128 129 130 131 132 133 134 135 136 137 138 139 140 141 142 143 144 145 146 147 148 149 150 151 152 153 154 155 156 157 158 159 160 161 162 163 164 165 166 167 168 169 170 171 172 173 174 175 176 177 178 179 180 181 182 183 184 185 186 187 188 189 190 191 192 193 194 195 196 197 198 199 200 201 202 203 204 205 206 207 208 209 210 211 212 213 214 215 216 217 218 219 220 221 222 223 224 225 226 227 228 229 230 231 232 233 234 235 236 237 238 239 240 241 242 243 244 245 246 247 248 249 250 251 252 253 254 255 256 257 258 259 260 261 262 263 264 265 266 267 268 269 270 271 272 273 274 275 276 277 278 279 280 281 282 283 284 285 286 287 288 289 290 291 292 293 294 295 296 297 298 299 300 301 302 303 304 305 306 307 308 309 310 311 312 313 314 315 316 317 318 319 320 321 322 323 324 325 326 327 328 329 330 331 332 333 334 335 336 337 338 339 340 341 342 343 344 345 346 347 348 349 350 351 352 353 354 355 356 357 358 359 
</DataArray>
<DataArray type="UInt32" Name="offsets" format="ascii">
2 5 8 11 14 17 20 23 26 29 32 35 38 41 44 47 50 53 56 58 61 64 67 70 73 76 79 82 85 88 91 94 97 100 103 106 108 110 112 115 118 121 124 127 130 133 136 139 142 145 147 149 151 154 157 160 163 166 169 172 175 178 181 184 187 190 193 195 197 200 203 206 209 212 215 218 221 224 227 230 233 236 239 242 244 246 249 252 255 258 261 264 267 270 273 276 279 282 285 288 291 294 297 300 303 306 309 312 315 318 321 324 327 330 333 336 339 342 345 348 351 354 357 360 
</DataArray>
<DataArray type="UInt32" Name="types" format="ascii">
3 5 5 5 5 5 5 5 5 5 5 5 5 5 5 5 5 5 5 3 5 5 5 5 5 5 5 5 5 5 5 5 5 5 5 5 3 3 3 5 5 5 5 5 5 5 5 5 5 5 3 3 3 5 5 5 5 5 5 5 5 5 5 5 5 5 5 3 3 5 5 5 5 5 5 5 5 5 5 5 5 5 5 5 3 3 5 5 5 5 5 5 5 5 5 5 5 5 5 5 5 5 5 5 5 5 5 5 5 5 5 5 5 5 5 5 5 5 5 5 5 5 5 5 
</DataArray>
</Cells>
<PointData Scalars="age_conc,U235_conc," Vectors="" Tensors="">
<DataArray type="Float64" Name="age_conc" format="ascii">
224579.62325137964 214535.63136069436 249594.47717083295 251275.69483456798 250010.59916277142 249507.61794535926 249816.91345975667 251335.81043334416 251583.63272899427 249737.52583843216 251497.49181101541 252624.68742573552 252525.1564891951 233255.50462865393 251222.23507763396 250211.72799444303 251789.23035287141 227205.96425985047 250895.33625708698 257831.2947826086 251905.17972610256 256485.46263634742 251166.66425049215 228731.00462410942 257629.4139308052 252005.48272741391 234791.10978958246 252824.42282869943 251797.72474215727 231745.37008328742 227268.2922700725 254923.68308518615 251457.08715298088 251973.18697808299 249975.94406161859 249994.45532035208 250069.11589900951 249968.95195691477 250078.26889580494 250012.23902851815 249996.88194703829 249963.72663539668 250070.07321387701 249982.58070924474 250040.45902863581 250001.61431050886 249988.7510384685 250014.25637211319 249996.74154999215 250021.88557966056 223643.1379619239 216702.45895445262 261607.0913084585 249999.49095129466 250000.14220455269 250009.98396868451 214377.7867782774 200387.92417832866 213959.06367790629 262912.95338110952 254885.05530238186 216042.4305490526 254244.35521225212 262495.89303993457 250007.94843721253 250039.31061693671 249886.9384468807 207283.38682975128 203103.873295689 257543.67359031399 215609.31273085813 213401.76432691549 247767.13519809194 214019.116888005 153989.49848678219 210987.67237609866 254200.3216856861 248553.57097786188 249996.69740251539 200115.33183798997 204569.33832075557 258592.94666157503 249556.90848758869 249314.5583585921 250173.96438782869 249615.75825251531 250132.24166571654 249999.22563514032 214453.74179104218 221778.2030625559 262247.12495724193 249993.30662984936 249996.08336386498 250079.71104307586 225133.54393269835 229949.28770888067 254635.44933137143 250093.4579551534 249990.29068753219 249909.99811022394 250264.32180897574 249743.80080596553 249624.2156903935 250292.41491800142 251102.88491950673 248992.67352349075 216916.45679654295 226230.74994293685 203797.42503166283 216765.80782442115 200106.57156388566 178815.72229158424 250246.41604924508 249533.92949264357 249064.24569833631 250195.83667704253 249174.98357569482 250060.68204895183 239303.0013957044 256437.30802054549 248815.12440844171 248616.99384720906 255564.05585081154 249362.22285604407 251869.51142356865 250561.89473032276 248372.7479482104 248991.21689565768 251211.91172927496 253035.12901839544 249178.99686704465 250319.67453236526 213341.84701990374 20160.319094788036 16769.604540246666 223741.86026063462 39095.357444601286 259383.50509370415 216835.79953889188 40607.694371904414 193413.86855460785 237385.45640134549 239022.13668135597 201209.16300463738 265808.07321316988 184045.39403508886 203512.9532878646 145436.53961687686 183473.51652261533 177968.64481521826 142830.02401753221 224323.27628315979 225418.07590810402 257244.1547734334 38267.480700219683 219437.08490608554 221144.34811965079 23116.234548237466 22906.380950058741 249824.26803799497 13003.326158962616 232693.45191342355 16632.442898132529 212755.99779082875 242762.11705055516 257370.33008334771 162139.58943777831 270180.23683624179 278234.12844342529 258323.3720436038 257169.3607854947 242975.84576575953 253285.50219795917 246801.5019787226 250229.13419206772 231087.22151985977 255610.49918389754 254082.8505568328 252641.20490727061 250306.4149399435 249829.89498795589 255070.98565422822 257358.30439929554 247845.46779253794 253357.30531759787 211190.22478853766 266391.84016604139 169433.03941204853 274046.202785542 201968.91232572115 249152.87472722243 249941.18820033965 252046.75677525098 110635.37145747525 142026.67014617455 73703.460196091721 109091.79379764936 248767.42971332089 252503.36896776472 252788.50195682349 242221.28862030295 258223.77570783425 251670.39330101706 250127.64694674412 250388.67949585605 250260.70525913825 250084.34410002321 250658.30475652547 249345.97714566774 144077.2625151994 129384.4808165179 279030.66725487745 135434.20118664694 251613.48140251581 269977.84807448566 206565.76115602086 262660.47268843825 211207.68888519291 65985.158146909191 212408.38094888837 199307.94200537054 152211.18448075006 45322.936683102263 208195.39707236461 153632.18710116684 6808.8122537355275 35717.480401586312 195857.92672283473 194286.2060127361 25695.05170681245 200035.29688155346 258677.88382806708 204487.20129358865 121127.00987847945 255688.82462287371 123232.61893082054 207584.89979471709 248606.68889151083 253340.40877832496 217140.09732916878 248196.69534223943 233554.43822699768 32973.235130716312 72684.238786438465 -1953.8646609213463 32628.91036984383 214232.4023947441 233637.03133421717 186179.36263032965 12900.680163121035 10666.82098039252 201666.14377591579 22423.474077582519 190553.17350272069 184714.27874404288 8358.1766370913392 8667.8552979916276 190737.8339465044 7524.4941454527552 183169.59233493567 7524.4938964060902 17943.239408844776 232856.46479334802 16372.559958402304 27220.95965624597 178385.16164077257 220167.12440877024 37603.049943575315 220551.34101022707 200288.55372830562 226979.26161163216 268223.14326264104 208508.47187858168 238086.82517598735 246492.37521346935 252673.33890416802 215606.91054724369 260846.76807113757 240104.56407267769 17971.133483857018 225731.10149299516 15030.584925243016 14229.102883576408 16223.074456145398 222086.02614279956 214215.47235902239 195959.19592502314 35432.951504781326 17227.446885179677 18734.214752615437 229375.22340895463 34413.95435393088 211800.93775252908 203580.14116493397 216612.12221661909 259690.83951510899 215293.594761908 248855.68552313902 223505.59344553677 253670.74957089842 217835.85704754028 262170.59094760311 201402.27554952665 256356.42303638093 248425.4763195074 209960.8454761618 249901.71243998836 251535.97501667636 249061.59253173115 249844.17074816008 249042.4442665744 251711.07951354678 249943.92514872982 249534.33488203242 250486.9551788391 250624.69513877711 249388.94647086386 250516.13779627468 249855.34296390071 250064.44312132892 249800.48155100568 250063.92237377935 249954.03372662349 250387.85573993603 249106.32668846427 252765.47291390368 251108.32876239411 250015.38144466939 250490.43506640036 251451.91776623513 249556.49471264353 250680.60544375272 250032.90710786407 250063.5807649362 250366.33732413602 249967.79295938165 250012.29556297642 249841.89153366079 249858.60233114695 250273.60135433136 250411.34881804156 249505.96965936513 248915.22072858768 252405.60081565543 251412.56093454146 245678.83823109776 213697.25388830388 255196.59491621173 268030.4438847584 205382.14131844195 224910.69288671573 32721.287877893672 219638.3533798187 192518.237119439 262784.26112929574 38021.285160390638 210746.70022928243 18395.493964223522 216697.80057885119 16338.268147763665 
</DataArray>
<DataArray type="Float64" Name="U235_conc" format="ascii">
0.14603790138851058 0.19790305501327576 0.0035328833107158876 -0.006293867225667246 0.0066260258632323907 0.0039500605143658061 0.0063553802510877251 -0.0068602220181963412 -0.008215539229252283 0.0080608379002122428 0.0001547013290400408 -0.016156101496674243 -0.013484328499515886 0.1006229448630574 0.0066796562776621519 -0.0001103907650026121 0.0046611015425279817 0.13783495756534447 -0.0057506728033101832 -0.047658534743717187 0.013592953369984702 -0.02980346264973855 0.016210509279753843 0.12807183204910852 -0.046197985065433635 -0.012787851093494599 0.091275363228571063 -0.015745265891174483 -0.011085669743329 0.10739016247316024 0.13415144998160997 -0.025928523790295092 -0.0066111539056293621 -0.0025531632789070596 0.0091643171845364208 0.00016212432290785449 -0.00056111684005914124 0.00039899251715128678 -0.0011324710809695808 -0.00016503924970744609 0.001297510330677027 0.00048676409499538546 -0.00061585647550951189 0.00094766159184956125 0.00072367551073154062 -9.0946830498551162e-05 -0.00010122285626512012 6.1035353857066561e-05 8.2308079411191543e-05 -0.00014334343326825812 0.15485719192573735 0.19197326858186062 -0.065500287387544556 -7.4893736024650935e-06 8.4360338599793534e-06 2.7834354597250324e-05 0.19948602259457157 0.26785090636096365 0.20945224293543097 -0.07871640927818882 -0.023271287917462639 0.19626688410512413 -0.019604249907324893 -0.075808715418047692 -6.3796207497938506e-05 -0.00030935696503943215 0.00073892183488853745 0.23583507587770491 0.25699146941686024 -0.028606664839418268 0.19936507307771439 0.21486590897109789 0.018446937062190017 0.20818627923289473 0.49057697135876488 0.22897868513878242 -0.014484326045225902 0.027413289243289667 -0.0015289223910151814 0.27615964050663333 0.25260398049103566 -0.034317750903846062 0.0068053174128432665 0.013537591836429797 -0.0031566172442686977 0.0054806203930954003 -0.0021015132556223481 -0.00025204916467142614 0.20605834228715716 0.16661582410731546 -0.06947173790950989 0.00044602009948033065 0.00020419129599936971 -0.00065021139547970035 0.14711322601689769 0.11812569706779123 -0.023583160956864621 -0.00081135203642854843 0.00022624814749552249 0.00058510388893302594 -0.0028614900641274112 0.0021297189502284303 0.0042498141865624462 -0.0047581980590542155 -0.0057843629391737253 0.012212386414789653 0.18311378617040022 0.13562213121344327 0.24715911716197128 0.18461151433848627 0.27033989190086916 0.36838639795484079 -0.0027610693374445811 0.0068045469157853302 0.010277465641973973 -0.0020820343548112541 0.0086630449696476122 -0.0010153633784643001 0.091615657147674778 -0.029750172236418952 0.0093692272054413071 0.014955272812097948 -0.024307055401150874 0.0095422724772959502 0.013590405527910771 -0.0022535866522415864 0.0057278716894718015 0.012444903003211508 -0.0021467427890462273 -0.0099326271340310253 0.051525130742393045 -0.021309794350744357 0.25565756439255849 0.98210930940565222 0.98705537715798586 0.30750111537718255 0.95728442524102686 0.02396445618446652 0.29294200864052006 0.95304822502735753 0.32874709560393467 0.18890692094500855 0.14462417592345339 0.29664138665115097 -0.095953283821674965 0.33804144749022136 0.24967028615900211 0.50714560433991862 0.34265424890666973 0.37415268242166022 0.52239657497836978 0.21628892008257333 0.17447502718817151 -0.044544103654476065 0.9705009762105713 0.20791486028949416 0.2635245603994365 0.98239958409640238 0.97533131485831193 0.18813795090881236 0.99847049201795679 0.2799677154231407 0.9874643631649862 0.24480916941573161 0.047360161075091549 -0.051708420220375133 0.48457644018286028 -0.097480169083750942 -0.16170969004572017 -0.013274253811963677 -0.043238670249566159 0.056512924061529836 0.0043709274452758563 0.02785466290536398 -0.0036743839894251384 0.13709509845437473 -0.029385532830822108 -0.022305188757555685 0.0026182532257126058 -0.00085994752838534807 -6.9781345568902285e-05 -0.011340508390765409 -0.029183839593136442 0.040524347983901851 -0.022514874368870636 0.23509526251856133 -0.099796065217830854 0.45279504577343632 -0.13415372958084221 0.2827203047795116 0.0086343208424139572 -0.00036506166775038615 -0.0062837874523502838 0.64977083206595843 0.5236613191854339 0.78723935812442603 0.65806976112319571 0.015011062710288604 -0.0046585231608448014 -0.010350979149234926 0.057185501024462806 -0.05327317650134137 -0.0039081822515325505 -0.00020126008677670481 0.0018740117968755314 -0.0016723723595952755 0.0003180570046221803 -0.00024809401055323209 0.00043993272404578955 0.5553106683412482 0.59945546365733815 -0.12013277400449593 0.56460561866248415 0.078308217352059714 -0.090326791543451149 0.27782621860992823 -0.078065166477849085 0.23968579995554631 0.88208088008014429 0.26274855819139836 0.30246848907125318 0.57121560025368212 0.9095329760206271 0.29966522725326966 0.58376644525645971 1.0001757730165219 0.91529042355613566 0.33808539345488886 0.39544601329920365 0.98945015523583013 0.32303523914001597 -0.054783401503396049 0.31450633983124132 0.66227410230777073 0.094939916894827281 0.58610019186862838 0.27834262498060175 0.0065487744190670764 -0.025784889533384103 0.20489120680512701 0.0042256153917070438 0.11882425631444495 0.92193105022453736 0.79320270651749514 1.00853584045525 0.92220146893169697 0.22066766497583967 0.12570465557444629 0.42758949180163419 0.99576086993565305 1.0017008875335138 0.40305637855171766 0.99196272780950245 0.36438731984481715 0.44827198046738376 0.99819109293891295 0.99706623648158554 0.46301308915111028 0.99838812159467594 0.4928343201919998 0.99838811849217479 0.99068464911548548 0.26410292714914968 0.99498469331284267 0.98696830314253514 0.46916167877768761 0.22671460759236056 0.96950810461872583 0.26102068618596813 0.30405715642420234 0.19272095158533592 -0.11635340329897845 0.26538099959627137 0.08284105467744772 0.018524023686929212 -0.018031253717664612 0.22551041192025517 -0.071541061738030362 0.071558299591534327 0.98794049990870503 0.3039577733757815 0.99154557577474189 0.9922419886192495 0.99030723104303897 0.32268705786014817 0.29700147453324643 0.32601219893845373 0.97094229545425992 0.98727756162400959 0.98754134709062091 0.28453814672304317 0.97259935737778636 0.31217403029540641 0.28978288004102659 0.25252067218602181 -0.063285392444191291 0.22794659899123518 0.0088568823049630513 0.17696020533308721 -0.026159719315079776 0.25542691127730355 -0.069146193962889541 0.3020363570485799 -0.040411451785906764 0.013481725615434259 0.25700751992634252 0.0016502261300338542 -0.0077676551110736243 0.012592068614564852 0.0028534960869258425 0.013158785727683552 -0.0097823644081863684 0.00017596764339176843 0.0041011410158668781 -0.0025437025602676345 -0.0035738716412684023 0.0052624168394433618 0.0025177246338438731 0.0009393362786921292 -0.00051883149608625864 0.0021046502177462538 0.00076110095572934507 -0.00021725853845569557 0.0016081240491449007 0.010211350010374844 -0.015898714930816148 0.0056947748578942935 0.002232165343695889 0.0030332770779080238 -0.0052654424216039128 0.0045112216731095596 0.0038143592234013771 -0.0012485996783538054 0.00071885026087224052 0.0022891691657356346 -6.3622999633460123e-05 -0.0017868095036040299 0.0068393961233516772 -0.00078112564275892662 0.0039685779442040865 -0.0023334702565484628 0.0022803561947798245 0.028707111944754195 -0.02253529325378844 -0.0022894523754160958 0.063358114074411331 0.24840899401565669 -0.050526809998722555 -0.11161177445866101 0.28082717076495595 0.21423331175728394 0.9715705809867673 0.2805235230788386 0.34069011487690315 0.013835397716767544 0.96000912500784152 0.31987519900447237 0.98684952512124524 0.33482075304838932 0.98850714931042249 
</DataArray>
</PointData>
</Piece>
</UnstructuredGrid>
</VTKFile>
