<?xml version="1.0"?>
<VTKFile type="UnstructuredGrid" version="0.1" byte_order="LittleEndian">
<UnstructuredGrid>
<Piece NumberOfPoints="360" NumberOfCells="124">
<Points>
<DataArray type="Float64" NumberOfComponents="3" format="ascii">
0 0 0 0.084352422163911631 0.086451712656266194 0 0 0.12500000000034689 0 0 0 0 0.1249999999997554 0 0 0.084352422163911631 0.086451712656266194 0 0 0.12500000000034689 0 0.1008171452988615 0.18885703697250469 0 0 0.25 0 0 0.12500000000034689 0 0.084352422163911631 0.086451712656266194 0 0.1008171452988615 0.18885703697250469 0 0.1008171452988615 0.18885703697250469 0 0.084352422163911631 0.086451712656266194 0 0.18402761812864499 0.1117324051466445 0 0.1249999999997599 0.31249999999987998 0 0.1008171452988615 0.18885703697250469 0 0.2403886547178353 0.24188814792673841 0 0.18402761812864499 0.1117324051466445 0 0.2403886547178353 0.24188814792673841 0 0.1008171452988615 0.18885703697250469 0 0.31250000000020822 0.12500000000041631 0 0.2403886547178353 0.24188814792673841 0 0.18402761812864499 0.1117324051466445 0 0.25 -0 0 0.18402761812864499 0.1117324051466445 0 0.1249999999997554 0 0 0.25 -0 0 0.31250000000020822 0.12500000000041631 0 0.18402761812864499 0.1117324051466445 0 0.1249999999997554 0 0 0.18402761812864499 0.1117324051466445 0 0.084352422163911631 0.086451712656266194 0 0.31250000000020822 0.12500000000041631 0 0.25 -0 0 0.25 -0 0 0.43749999999913258 0 0 0.31250000000020822 0.12500000000041631 0 0.31250000000020822 0.12500000000041631 0 0.37500000000027761 0.25000000000055511 0 0.2403886547178353 0.24188814792673841 0 0.37500000000027761 0.25000000000055511 0 0.31250000000020822 0.12500000000041631 0 0.31250000000020822 0.12500000000041631 0 0.4287911518546233 0.15455445427966699 0 0.37500000000027761 0.25000000000055511 0 0.37500000000027761 0.25000000000055511 0 0.4287911518546233 0.15455445427966699 0 0.49457493289300231 0.26251703776555491 0 0.54475767668582953 0.1431838882066932 0 0.49457493289300231 0.26251703776555491 0 0.4287911518546233 0.15455445427966699 0 0.31250000000020822 0.12500000000041631 0 0.43749999999913258 0 0 0.4287911518546233 0.15455445427966699 0 0.43749999999913258 0 0 0.54475767668582953 0.1431838882066932 0 0.4287911518546233 0.15455445427966699 0 0.37499999999973488 0.43749999999986738 0 0.5 0.5 -0 0.43750000000006939 0.37500000000013878 0 0.5 0.5 -0 0.37499999999973488 0.43749999999986738 0 0.43750000000006939 0.37500000000013878 0 0.37499999999973488 0.43749999999986738 0 0.33819444444448321 0.33819444444456342 0 0.5 0.5 -0 0.43750000000006939 0.37500000000013878 0 0.37500000000027761 0.25000000000055511 0 0.49457493289300231 0.26251703776555491 0 0.43750000000006939 0.37500000000013878 0 0.43750000000006939 0.37500000000013878 0 0.37500000000027761 0.25000000000055511 0 0.37500000000027761 0.25000000000055511 0 0.43750000000006939 0.37500000000013878 0 0.33819444444448321 0.33819444444456342 0 0.24999999999960859 0.37499999999980432 0 0.2403886547178353 0.24188814792673841 0 0.33819444444448321 0.33819444444456342 0 0.37500000000027761 0.25000000000055511 0 0.33819444444448321 0.33819444444456342 0 0.2403886547178353 0.24188814792673841 0 0.37499999999973488 0.43749999999986738 0 0.24999999999960859 0.37499999999980432 0 0.33819444444448321 0.33819444444456342 0 0.24999999999960859 0.37499999999980432 0 0.37499999999973488 0.43749999999986738 0 0.37499999999973488 0.43749999999986738 0 0.26452443700674649 0.51563531581639865 0 0.24999999999960859 0.37499999999980432 0 0.24999999999960859 0.37499999999980432 0 0.26452443700674649 0.51563531581639865 0 0.14929124186975251 0.44582793568106382 0 0.24999999999960859 0.37499999999980432 0 0.14929124186975251 0.44582793568106382 0 0.1249999999997599 0.31249999999987998 0 0.24999999999960859 0.37499999999980432 0 0.1249999999997599 0.31249999999987998 0 0.2403886547178353 0.24188814792673841 0 0.1249999999997599 0.31249999999987998 0 0.24999999999960859 0.37499999999980432 0 0 0.25 0 0.1249999999997599 0.31249999999987998 0 0 0.43750000000034689 0 0.1249999999997599 0.31249999999987998 0 0 0.25 0 0.1008171452988615 0.18885703697250469 0 0 0.25 0 0.1249999999997599 0.31249999999987998 0 0 0.43750000000034689 0 0.14929124186975251 0.44582793568106382 0 0.13928587515912139 0.57339806105677438 0 0 0.43750000000034689 0 0.1249999999997599 0.31249999999987998 0 0.14929124186975251 0.44582793568106382 0 0 0.43750000000034689 0 0.13928587515912139 0.57339806105677438 0 0 0.62500000000069389 0 0 0.62500000000069389 0 0.13928587515912139 0.57339806105677438 0 0.13900789599611679 0.72618316107059999 0 0 0.81250000000104083 0 0 0.62500000000069389 0 0.13900789599611679 0.72618316107059999 0 0.27589467050686478 0.66058853156435704 0 0.13900789599611679 0.72618316107059999 0 0.13928587515912139 0.57339806105677438 0 0.27987960212930818 0.83442741470570525 0 0.13900789599611679 0.72618316107059999 0 0.27589467050686478 0.66058853156435704 0 0.26452443700674649 0.51563531581639865 0 0.27589467050686478 0.66058853156435704 0 0.13928587515912139 0.57339806105677438 0 0.26452443700674649 0.51563531581639865 0 0.13928587515912139 0.57339806105677438 0 0.14929124186975251 0.44582793568106382 0 0.1875000000005205 1 0 0 1 0 0.12710107136012311 0.87094806618203435 0 0 1 0 0 0.81250000000104083 0 0.12710107136012311 0.87094806618203435 0 0 0.81250000000104083 0 0.13900789599611679 0.72618316107059999 0 0.12710107136012311 0.87094806618203435 0 0.27987960212930818 0.83442741470570525 0 0.12710107136012311 0.87094806618203435 0 0.13900789599611679 0.72618316107059999 0 0.1875000000005205 1 0 0.12710107136012311 0.87094806618203435 0 0.27987960212930818 0.83442741470570525 0 0.37500000000069389 1 0 0.27987960212930818 0.83442741470570525 0 0.44927105396715372 0.85565124085155886 0 0.37500000000069389 1 0 0.1875000000005205 1 0 0.27987960212930818 0.83442741470570525 0 0.44927105396715372 0.85565124085155886 0 0.27987960212930818 0.83442741470570525 0 0.38136204680495073 0.74038592213831234 0 0.44927105396715372 0.85565124085155886 0 0.38136204680495073 0.74038592213831234 0 0.50145856933078625 0.73674663046504862 0 0.37500000000069389 1 0 0.44927105396715372 0.85565124085155886 0 0.56250000000086742 1 0 0.4139414069912184 0.60563252640100373 0 0.27589467050686478 0.66058853156435704 0 0.26452443700674649 0.51563531581639865 0 0.37499999999973488 0.43749999999986738 0 0.4139414069912184 0.60563252640100373 0 0.26452443700674649 0.51563531581639865 0 0.27987960212930818 0.83442741470570525 0 0.27589467050686478 0.66058853156435704 0 0.38136204680495073 0.74038592213831234 0 0.4139414069912184 0.60563252640100373 0 0.38136204680495073 0.74038592213831234 0 0.27589467050686478 0.66058853156435704 0 0.4139414069912184 0.60563252640100373 0 0.50145856933078625 0.73674663046504862 0 0.38136204680495073 0.74038592213831234 0 0.5625 0.625 0 0.50145856933078625 0.73674663046504862 0 0.4139414069912184 0.60563252640100373 0 0.37499999999973488 0.43749999999986738 0 0.5 0.5 -0 0.4139414069912184 0.60563252640100373 0 0.5625 0.625 0 0.4139414069912184 0.60563252640100373 0 0.5 0.5 -0 0.5625 0.625 0 0.5 0.5 -0 0.63236534182377013 0.50296756406332266 0 0.5625 0.625 0 0.5 0.5 -0 0.5625 0.625 0 0.625 0.75 0 0.50145856933078625 0.73674663046504862 0 0.625 0.75 0 0.5625 0.625 0 0.625 0.75 0 0.71259747807844409 0.63846691315701831 0 0.73857795170433571 0.77736788564284653 0 0.5625 0.625 0 0.71259747807844409 0.63846691315701831 0 0.625 0.75 0 0.75338430262320943 0.49294443423175599 0 0.71259747807844409 0.63846691315701831 0 0.63236534182377013 0.50296756406332266 0 0.5625 0.625 0 0.63236534182377013 0.50296756406332266 0 0.71259747807844409 0.63846691315701831 0 0.6875 0.875 0 0.56250000000086742 1 0 0.56777512057187585 0.8470224641095303 0 0.56250000000086742 1 0 0.44927105396715372 0.85565124085155886 0 0.56777512057187585 0.8470224641095303 0 0.44927105396715372 0.85565124085155886 0 0.50145856933078625 0.73674663046504862 0 0.56777512057187585 0.8470224641095303 0 0.625 0.75 0 0.56777512057187585 0.8470224641095303 0 0.50145856933078625 0.73674663046504862 0 0.6875 0.875 0 0.625 0.75 0 0.73857795170433571 0.77736788564284653 0 0.6875 0.875 0 0.73857795170433571 0.77736788564284653 0 0.80552984491000901 0.88711122872127413 0 0.6875 0.875 0 0.625 0.75 0 0.6875 0.875 0 0.56777512057187585 0.8470224641095303 0 0.625 0.75 0 0.6875 0.875 0 0.75 1 0 0.56250000000086742 1 0 0.6875 0.875 0 0.80552984491000901 0.88711122872127413 0 0.75 1 0 0.75 1 0 0.6875 0.875 0 0.875 1 0 0.75 1 0 0.80552984491000901 0.88711122872127413 0 0.875 1 0 0.80552984491000901 0.88711122872127413 0 0.90637953422180084 0.90208583328057301 0 0.80552984491000901 0.88711122872127413 0 0.85787927391517405 0.753532520882502 0 0.90637953422180084 0.90208583328057301 0 0.80552984491000901 0.88711122872127413 0 0.73857795170433571 0.77736788564284653 0 0.85787927391517405 0.753532520882502 0 1 0.83333333333356463 0 0.85787927391517405 0.753532520882502 0 1 0.66666666666736052 0 1 0.83333333333356463 0 0.90637953422180084 0.90208583328057301 0 0.85787927391517405 0.753532520882502 0 1 1 0 0.90637953422180084 0.90208583328057301 0 1 0.83333333333356463 0 1 1 0 0.875 1 0 0.90637953422180084 0.90208583328057301 0 0.86127466977819722 0.57948076978797636 0 0.71259747807844409 0.63846691315701831 0 0.75338430262320943 0.49294443423175599 0 0.85787927391517405 0.753532520882502 0 0.71259747807844409 0.63846691315701831 0 0.86127466977819722 0.57948076978797636 0 0.85787927391517405 0.753532520882502 0 0.73857795170433571 0.77736788564284653 0 0.71259747807844409 0.63846691315701831 0 1 0.66666666666736052 0 0.85787927391517405 0.753532520882502 0 0.86127466977819722 0.57948076978797636 0 1 0.66666666666736052 0 0.86127466977819722 0.57948076978797636 0 1 0.50000000000138767 0 1 0.33333333333448978 0 1 0.50000000000138767 0 0.86569408477091048 0.40983673916766611 0 0.86127466977819722 0.57948076978797636 0 0.86569408477091048 0.40983673916766611 0 1 0.50000000000138767 0 0.86127466977819722 0.57948076978797636 0 0.75338430262320943 0.49294443423175599 0 0.86569408477091048 0.40983673916766611 0 0.75338430262320943 0.49294443423175599 0 0.71826039492840632 0.34564020717216182 0 0.86569408477091048 0.40983673916766611 0 0.71508993406183785 0.15715956854777599 0 0.86087286690217635 0.25206523597959418 0 0.71826039492840632 0.34564020717216182 0 0.86569408477091048 0.40983673916766611 0 0.71826039492840632 0.34564020717216182 0 0.86087286690217635 0.25206523597959418 0 1 0.16666666666736049 0 1 0.33333333333448978 0 0.86087286690217635 0.25206523597959418 0 1 0.33333333333448978 0 0.86569408477091048 0.40983673916766611 0 0.86087286690217635 0.25206523597959418 0 1 0.16666666666736049 0 0.86087286690217635 0.25206523597959418 0 0.87698901648812122 0.1160638338657984 0 0.81249999999947953 0 0 1 0 0 0.87698901648812122 0.1160638338657984 0 1 0.16666666666736049 0 0.87698901648812122 0.1160638338657984 0 1 0 0 0.81249999999947953 0 0 0.87698901648812122 0.1160638338657984 0 0.71508993406183785 0.15715956854777599 0 0.71508993406183785 0.15715956854777599 0 0.87698901648812122 0.1160638338657984 0 0.86087286690217635 0.25206523597959418 0 0.62499999999895905 0 0 0.71508993406183785 0.15715956854777599 0 0.54475767668582953 0.1431838882066932 0 0.81249999999947953 0 0 0.71508993406183785 0.15715956854777599 0 0.62499999999895905 0 0 0.43749999999913258 0 0 0.62499999999895905 0 0 0.54475767668582953 0.1431838882066932 0 0.71508993406183785 0.15715956854777599 0 0.61108462585082757 0.25750599582343231 0 0.54475767668582953 0.1431838882066932 0 0.54475767668582953 0.1431838882066932 0 0.61108462585082757 0.25750599582343231 0 0.49457493289300231 0.26251703776555491 0 0.56986707178436635 0.37762093650871992 0 0.49457493289300231 0.26251703776555491 0 0.61108462585082757 0.25750599582343231 0 0.43750000000006939 0.37500000000013878 0 0.49457493289300231 0.26251703776555491 0 0.56986707178436635 0.37762093650871992 0 0.43750000000006939 0.37500000000013878 0 0.56986707178436635 0.37762093650871992 0 0.5 0.5 -0 0.5 0.5 -0 0.56986707178436635 0.37762093650871992 0 0.63236534182377013 0.50296756406332266 0 0.75338430262320943 0.49294443423175599 0 0.63236534182377013 0.50296756406332266 0 0.71826039492840632 0.34564020717216182 0 0.56986707178436635 0.37762093650871992 0 0.71826039492840632 0.34564020717216182 0 0.63236534182377013 0.50296756406332266 0 0.71508993406183785 0.15715956854777599 0 0.71826039492840632 0.34564020717216182 0 0.61108462585082757 0.25750599582343231 0 0.56986707178436635 0.37762093650871992 0 0.61108462585082757 0.25750599582343231 0 0.71826039492840632 0.34564020717216182 0 
</DataArray>
</Points>
<Cells>
<DataArray type="UInt32" Name="connectivity" format="ascii">
0 1 2 3 4 5 6 7 8 9 10 11 12 13 14 15 16 17 18 19 20 21 22 23 24 25 26 27 28 29 30 31 32 33 34 35 36 37 38 39 40 41 42 43 44 45 46 47 48 49 50 51 52 53 54 55 56 57 58 59 60 61 62 63 64 65 66 67 68 69 70 71 72 73 74 75 76 77 78 79 80 81 82 83 84 85 86 87 88 89 90 91 92 93 94 95 96 97 98 99 100 101 102 103 104 105 106 107 108 109 110 111 112 113 114 115 116 117 118 119 120 121 122 123 124 125 126 127 128 129 130 131 132 133 134 135 136 137 138 139 140 141 142 143 144 145 146 147 148 149 150 151 152 153 154 155 156 157 158 159 160 161 162 163 164 165 166 167 168 169 170 171 172 173 174 175 176 177 178 179 180 181 182 183 184 185 186 187 188 189 190 191 192 193 194 195 196 197 198 199 200 201 202 203 204 205 206 207 208 209 210 211 212 213 214 215 216 217 218 219 220 221 222 223 224 225 226 227 228 229 230 231 232 233 234 235 236 237 238 239 240 241 242 243 244 245 246 247 248 249 250 251 252 253 254 255 256 257 258 259 260 261 262 263 264 265 266 267 268 269 270 271 272 273 274 275 276 277 278 279 280 281 282 283 284 285 286 287 288 289 290 291 292 293 294 295 296 297 298 299 300 301 302 303 304 305 306 307 308 309 310 311 312 313 314 315 316 317 318 319 320 321 322 323 324 325 326 327 328 329 330 331 332 333 334 335 336 337 338 339 340 341 342 343 344 345 346 347 348 349 350 351 352 353 354 355 356 357 358 359 
</DataArray>
<DataArray type="UInt32" Name="offsets" format="ascii">
3 6 9 12 15 18 21 24 27 30 33 35 38 41 43 46 49 52 55 58 60 63 66 68 71 73 76 79 82 85 87 90 93 96 99 101 104 107 109 112 115 118 121 124 127 130 133 136 139 142 145 148 151 154 157 160 163 166 169 172 175 178 181 184 187 190 193 195 198 200 203 206 209 212 215 218 221 224 227 230 232 235 238 241 243 246 249 252 255 258 261 264 267 270 273 276 279 282 285 288 291 294 297 300 303 306 309 312 315 318 321 324 327 330 333 336 339 342 345 348 351 354 357 360 
</DataArray>
<DataArray type="UInt32" Name="types" format="ascii">
5 5 5 5 5 5 5 5 5 5 5 3 5 5 3 5 5 5 5 5 3 5 5 3 5 3 5 5 5 5 3 5 5 5 5 3 5 5 3 5 5 5 5 5 5 5 5 5 5 5 5 5 5 5 5 5 5 5 5 5 5 5 5 5 5 5 5 3 5 3 5 5 5 5 5 5 5 5 5 5 3 5 5 5 3 5 5 5 5 5 5 5 5 5 5 5 5 5 5 5 5 5 5 5 5 5 5 5 5 5 5 5 5 5 5 5 5 5 5 5 5 5 5 5 
</DataArray>
</Cells>
<PointData Scalars="age_conc,U235_conc," Vectors="" Tensors="">
<DataArray type="Float64" Name="age_conc" format="ascii">
83278.878399884779 83274.871580417443 83468.707876852219 83281.73090595963 83466.175043031762 83283.113335034315 83749.566490856654 83977.924918556644 81675.521023088455 83507.366062630783 83205.585489394347 83503.584697291182 83408.837599117818 83308.674246712006 83431.726783446968 80972.161500042144 83613.455679794788 84595.408770266062 83354.716282387919 84044.565499812903 83322.126185581175 81091.505524230015 84553.445885237626 83688.562685068595 81832.72556551687 83953.429956908032 83652.492189867422 81550.898937193313 80930.941153259628 84689.552227768247 83496.866588471807 83538.944665518124 83213.185001741527 79200.200001262318 81163.389933787112 83331.084990960284 83341.997189494956 83330.050288463884 80555.98546433587 79259.909788588819 85891.734571375026 76651.076346225949 79854.971115663546 83333.275493536246 83333.467732890975 83333.425798621203 83333.302159809231 83333.369477612927 83334.283024878197 83331.248265586662 83334.862087221656 83333.66534983975 83327.728933565872 83347.804981343943 83324.227029907372 83359.809053712495 83358.023899640495 83308.944187633926 73620.813086967988 61536.501157139137 81371.552422974259 64864.013183526142 81292.496859817911 79755.089624792949 79713.299288748676 84714.628215716337 61777.808558575052 74289.984705696712 83333.551916535012 83334.966863918089 83330.859946663564 72117.625945132619 77737.879806290744 77332.725375507624 76483.690651605008 87571.286133381553 78638.755991062775 85170.096200172906 85248.764763969113 78838.427940400055 85130.712511050922 85135.697452653912 76254.653092635286 77053.018173227814 87810.02939429559 77441.92341028426 71492.829889476212 83704.840529425186 83102.196506070715 83308.220877795116 83295.103655304949 83259.855646399839 83377.377410397647 83302.423304661483 83352.619283309585 83335.631714401301 79045.876900513729 80395.141036737914 86014.933286386309 79671.082020460759 76288.391383301248 83331.385794442613 83332.695915805103 83339.36595853082 80711.876437437066 81374.340875586815 84768.898044850372 81051.04579114994 78978.496430318744 83367.178654647447 83308.430605645495 83320.549590947237 83342.9607406789 83331.740480582957 83327.250411843241 83409.791435237348 83545.401767166506 83039.651621985337 82799.375693202397 83755.145560131859 83319.173636078238 87273.56368398924 82332.964692196198 81076.450180675412 82756.170820457686 84148.589811126047 83201.373399644392 85654.365270264199 84334.790105224791 82058.685182142697 83416.570131236513 83145.806557691583 83251.381742856567 83365.073593406429 83259.861786698137 83348.548466798122 10556.461374608582 7808.1797325274711 119747.88110981599 20307.071859144366 99420.815603101844 98918.376701684247 89469.374521375648 79109.580137960525 84250.690218961958 93270.251928978527 78533.903072129222 83172.000607883267 22482.493087981158 80829.255100382172 104688.33053003193 22610.870305146076 87912.828333139405 99909.346923048244 12720.215360743499 11533.084441631647 125692.44571315139 89482.059820228853 84212.741275183784 82132.27625518135 81353.679777015102 82843.103991264434 85241.435290157795 5783.1346863410799 124938.03763949298 7624.7582880793198 83604.898699149955 83183.735235442204 83304.500384723753 83782.532756533517 84198.701524339893 82826.304283746809 84584.404005781427 82976.134649584172 83113.096433783299 83784.147170069118 83028.012113815581 83103.540213644388 83930.211657603708 84704.398793019413 82572.405668083404 67847.385663287583 90480.553650107526 88905.157208607401 83925.257764184003 78633.097674478966 86333.924576966296 70997.60036081553 89755.146326142436 77810.399615290749 83313.640042044441 83331.115067443316 83364.703719128331 51738.393410210003 63883.64115325606 64247.908375049679 57424.210318369835 98440.777774517046 38127.166173916237 54701.966048761984 83362.311390800256 83312.86131130888 83316.497998130246 83333.913492677631 83319.894621961896 83350.56006443454 83165.210219379602 83554.480948568584 83336.42077742095 83295.083751555183 83371.397630008127 83381.525208742838 80899.278697986272 21745.159528446769 92572.089629816444 37889.511657655232 88721.975846875881 83241.59863438287 80610.262028095603 86354.770106784126 81362.916399048321 55656.857523382045 97339.502464256613 91308.453490773463 82388.470640744054 83439.298477600503 83567.222107845606 81789.8026113909 83581.131574314262 85450.903486487397 19462.013043382362 42264.073701501999 58881.810406965102 107224.58600642723 49459.224542260796 94939.743188024848 858.88424130934982 18486.226085139249 86043.603042116185 95439.705207673265 14003.74707997081 -2962.0370110360473 24344.748584659279 6203.9314966312959 4607.9545671684718 114338.08678905858 11496.373907083907 85143.800228895838 95011.636819738822 80684.624510556765 85577.163431332636 84717.484645678967 81596.05474342969 82958.179547370164 85072.162777586826 9603.8898228797734 122030.12173386259 8498.8168890403031 15062.052020157542 90713.894051961601 92902.505263626037 1302.1390978664986 111932.11629484012 1302.1390978676463 1956.8332017460762 2096.3014228815373 114372.89861946771 82124.044471044966 83829.434052902245 83224.676886963804 88981.592774194476 83601.843514357257 80887.661108639863 84382.764967490002 83088.750099296463 83264.855125483169 22199.57699239131 99408.763409293402 83927.189155384447 9193.8795395884918 121362.41628654118 6851.0283976259816 6248.239369275947 7955.425871874424 121056.14294946614 98757.554691960191 83260.436454931463 20752.480324557131 89041.861877019808 84607.135642284979 79560.746486315329 84417.53333434934 83400.360006382238 81279.713619777074 83428.788525889293 83194.510553322645 83217.780945225531 87196.955126497589 82784.208527047798 82639.84605222322 8233.1513095176888 9871.5969499373496 121680.64406616843 19810.991122552899 98672.640162271782 85338.243957702696 17855.967558532902 101988.00448901339 82387.528652675814 101293.4548141351 19577.138153430456 97240.611804595552 9835.0580849389262 117372.600938923 7767.4960987315426 87753.932842254915 83693.298868937854 80550.06932847196 83648.080066976967 80422.947350488306 89740.753478016268 83015.605724090579 83024.388137728136 83624.245074693798 86193.075397444787 81852.682422596496 82688.862012339334 83383.627948084104 83121.705196018709 83463.573505144421 83346.107944419127 83321.993698655817 83331.169014920757 83330.355285705766 83332.359606113314 83335.9376957653 83337.610738184696 83331.704013093302 83336.987127433182 83330.178051066207 83336.7224614187 83329.059343613524 83333.600934534901 83317.951422830709 83344.537045389516 83352.345244283424 83311.599653330908 83325.992772988597 83606.040669651702 83180.528349555738 83478.531632921717 83311.754475598253 83459.777659032508 83263.25809784836 83366.492069794374 83234.418943880475 83326.358995256742 83327.537806881883 83326.754450569337 83413.102007799331 
</DataArray>
<DataArray type="Float64" Name="U235_conc" format="ascii">
0.00057334289154759781 0.00080110913242091705 -0.0013744520239685149 0.0005721835496029507 -0.0013314013311600424 0.00075921778155709169 -0.0042531813301693432 -0.00692161024665814 0.015497278259608796 -0.0011634503104246451 0.0021887669736345974 -0.0010253166632099527 -0.0001894231782591373 0.00057366837263973683 -0.00038424519438059942 0.022380814298560824 -0.0028757744820201063 -0.013585067315541394 0.0025477482035347388 -0.005360218997113253 0.0028124707935785146 0.021307342360256325 -0.013043120025838229 -0.0035550020998839976 0.014022512410465274 -0.0066499851224517386 -0.0032899556096431092 0.014958108082266884 0.02138833290105379 -0.014389601580561052 -0.00095644399661173754 -0.001303297698860984 0.002259741695472722 0.033017527854757089 0.015379633475919956 4.0889657635908249e-05 -9.1920060666549232e-05 5.1030403030640983e-05 0.023688298322479977 0.036995501038820919 -0.027170738773887509 0.053670480290055583 0.024779447447514244 9.215133828443318e-07 -8.5099961022535423e-07 -7.0513772618977676e-08 3.51277750514161e-06 2.2063784236386755e-06 -5.7191559287802847e-06 2.5676692169297084e-05 -1.510656504255012e-05 -5.7127126872628762e-06 6.3651528545456796e-05 -0.00017647871030819663 0.00012411207115997335 -0.00021897878060401151 -0.00022204063490207155 0.00044101941550608295 0.068513612692266565 0.1787791621330958 0.0050697959785930766 0.16482532402709191 0.005979512476635182 0.029056415539847703 0.029535610501780024 -0.015326483280943458 0.17713352011171413 0.062921272046146615 -2.6074003681491789e-06 -1.4292590477625079e-05 2.1790702226374837e-05 0.090797016541277295 0.039875814551652622 0.052375096934167344 0.059830331862417534 -0.045694439909387763 0.045348339872362343 -0.018249050061447957 -0.020921342617485093 0.043381981738729959 -0.019668861816951037 -0.017884705456809459 0.061926279907373885 0.054931703347588068 -0.048203381673856398 0.041964005575822763 0.095994815819334833 -0.0035275237273003244 0.0031619124910745242 0.00036561123622580054 0.00043825444351528364 0.00092943538971341708 -0.00066299624022326555 0.00039567640053397147 -0.00026868061728271836 -3.771965605808501e-05 0.038948160787722515 0.025064683932638623 -0.028510481674346042 0.026092805215911362 0.05665135154019188 3.9208882061717193e-05 1.8840030110771538e-05 -5.8048912172488731e-05 0.023286380152083515 0.01641154092880609 -0.015287552673601384 0.016175103724682512 0.034830756615968718 -0.00040708395431685132 0.00029921163986577497 0.00013118785079433516 -0.00010219427985013104 2.6467834501673895e-05 7.5726445348457141e-05 -0.00094232876468267534 -0.0026022751450559436 0.0035950384978826761 0.0061429888742828868 -0.0056122267446497426 0.0014964355064524982 -0.043314817550340848 0.012283488245483401 0.031031329304857445 0.0075655845807306478 -0.0076256260209357427 0.00070668772567004413 -0.021098455321886041 -0.0016735520218675286 0.022772007343753568 -0.0012321472834389267 0.0024357914857840212 0.00071903921820703196 -0.00041192388034023779 0.00083287265368139332 -0.00019446676719395554 0.65043622888024233 0.66801812651954728 -0.41985749104360576 0.60799530923807965 -0.174626303223954 -0.19457734828573864 -0.05873066199575263 0.065547834610182779 -0.0068171726144301507 -0.10173611205504227 0.067591549386961561 0.034144562668080712 0.58080379085987488 0.010146933779306352 -0.26149086201395466 0.58475808892073966 -0.058902581905005975 -0.21582842433083754 0.63813666876183794 0.64223220324363961 -0.47774036238637768 -0.058832620321828816 0.011695044479109105 0.047137575842719714 0.016719840377839881 0.0059359802936407259 -0.020668869827279175 0.69523271806698805 -0.47994523740034317 0.67862057091071148 -0.0026726471427708995 0.0022517556886472549 0.00042089145412364456 -0.0018007744706406694 -0.0068843481590242957 0.008685122629664966 -0.014775587948198252 0.0060195864286118703 0.0087560015195863802 -0.005157233097029798 0.0041093223448960894 0.0027661106692303686 -0.0011032971315754368 -0.011339436164527161 0.012442733296102602 0.151078490685955 -0.077317783663042761 -0.055844870208550917 -0.0055980534922083595 0.045801134509601077 -0.032829555186207345 0.11599918672329979 -0.07109480878603093 0.046623288565196527 7.8356253981342407e-05 -2.1437347833306418e-06 -6.3875857800747217e-05 0.25663833237902756 0.14609949112243015 0.16517566511598378 0.23979568673961443 -0.16524435980820379 0.36905082545897688 0.21728583497184389 -0.00041097875199690051 0.00040036760412789479 0.00068842014208558714 -0.00012485051563899431 0.00038447417320518109 -0.00011218646059892129 0.00082852992365379402 6.5662423550817001e-05 -0.0003599955612703549 4.7170595142169613e-05 -0.00010659408153894969 0.00017810011675757767 -0.030906758773197894 0.57293915453511746 -0.11745954934262334 0.43215864291150319 -0.076690955799745636 -0.032245264324716187 0.024280371459237903 -0.028893691304311783 0.0096239387405950751 0.27430661898336062 -0.15722747206109658 -0.081184160639772823 0.0021205475328688272 -0.00032196923679466804 0.00035191806989257155 0.015695303098084503 0.014851506598780428 -0.030546809696864935 0.52513882148442204 0.31476401253847908 0.20393011272880113 -0.26036896752433925 0.3177899036070837 -0.19374104373770573 0.72688250181114644 0.55432381774957251 -0.051012802519143953 -0.17336653195421542 0.65287093692556664 0.71301049374419212 0.46032913155328647 0.68418726530695417 0.69018934058948012 -0.37121508425220112 0.67806690934871761 -0.042145194712935014 -0.17805213189347879 0.039241782318098717 -0.010291915188024053 -0.028949867130074667 0.014840935314638419 0.0067036181811514625 -0.021293384769116658 0.66175561285674744 -0.44385075462361567 0.66410423018870612 0.64915946299898208 -0.1303010374866832 -0.11666713515019063 0.72298457758563028 -0.36058125488676473 0.72298457758564405 0.7194222384380734 0.71806632010935367 -0.38350782631785063 0.009107149437374347 -0.0014865784948312726 -0.00090502669048498057 -0.059860404741026371 0.022339713826976682 0.037520690914049686 -0.010963959610945928 0.0058900581480851796 0.005073901462860751 0.58236850813156726 -0.20945071741296462 -0.022325732131587679 0.66311657810062807 -0.43890667765805469 0.67914368831841987 0.68459060333840815 0.67364851538917536 -0.43802646507249166 -0.20525039919846022 -0.016801985146298402 0.59518118758058836 -0.0629990586056179 0.011018403096179623 0.051980655509438284 -0.0094547582008808802 -0.0012910165053845748 0.017506865974533332 -0.0015757324028084095 -0.0023169356370889875 0.0045206344317967433 -0.042756402253597156 0.027642372032300657 0.015114030221296496 0.66665600985913831 0.65848785413763644 -0.44059954890095504 0.60522916450912589 -0.20453403497718861 -0.037324480422281966 0.62105479413892006 -0.23677384864589474 -0.0096560123974756551 -0.19420935287314273 0.61380510588808757 -0.17690946074000352 0.65550216483290602 -0.39621179116150129 0.66511517767193995 -0.042062446377389026 -0.0032071391553385783 0.045269585532727592 0.02429919566655081 0.042090653892745515 -0.066389849559296332 0.0037964317524119629 0.0040091376736747847 -0.0042867227384298318 -0.030694168878097457 0.021827245988790819 0.0088669228893066381 -0.00064939249848623237 0.002695183464088524 -0.0017800427145501815 -0.00017945728141254336 0.00017505501844785113 2.2237745602990065e-05 2.7888841238034268e-05 4.0761167511462639e-05 -3.4717444074783354e-05 -1.7222347404402939e-05 7.3278983559143668e-06 9.8944490484885725e-06 2.2402382809181998e-05 -3.2913417549701339e-05 4.6037381420910162e-05 -1.1770327678710997e-05 0.00014160412249375804 -8.9470586194214191e-05 -0.00017548325046365558 0.00016647357147907662 0.00015388831197422757 -0.0016557018051793161 0.0020988705748340043 -0.00044316876965468772 0.00024902309911924072 -0.00099539141188878175 0.00074636831276954092 -0.00084914744038636059 0.0026512403199481127 -0.00024956990310865681 0.00022459063754051798 0.00026746936191521427 -0.00049205999945573214 
</DataArray>
</PointData>
</Piece>
</UnstructuredGrid>
</VTKFile>
