<?xml version="1.0"?>
<VTKFile type="UnstructuredGrid" version="0.1" byte_order="LittleEndian">
<UnstructuredGrid>
<Piece NumberOfPoints="360" NumberOfCells="124">
<Points>
<DataArray type="Float64" NumberOfComponents="3" format="ascii">
0 0.25 0 0.1249999999997599 0.31249999999987998 0 0 0 0 0.1249999999997554 0 0 0.084352422163911631 0.086451712656266194 0 0 0 0 0.084352422163911631 0.086451712656266194 0 0 0.12500000000034689 0 0 0.12500000000034689 0 0.084352422163911631 0.086451712656266194 0 0.1008171452988615 0.18885703697250469 0 0 0.12500000000034689 0 0.1008171452988615 0.18885703697250469 0 0 0.25 0 0.1008171452988615 0.18885703697250469 0 0.084352422163911631 0.086451712656266194 0 0.18402761812864499 0.1117324051466445 0 0.1249999999997599 0.31249999999987998 0 0.1008171452988615 0.18885703697250469 0 0.2403886547178353 0.24188814792673841 0 0.18402761812864499 0.1117324051466445 0 0.2403886547178353 0.24188814792673841 0 0.1008171452988615 0.18885703697250469 0 0.31250000000020822 0.12500000000041631 0 0.2403886547178353 0.24188814792673841 0 0.18402761812864499 0.1117324051466445 0 0.25 -0 0 0.18402761812864499 0.1117324051466445 0 0.1249999999997554 0 0 0.25 -0 0 0.31250000000020822 0.12500000000041631 0 0.18402761812864499 0.1117324051466445 0 0.1249999999997554 0 0 0.18402761812864499 0.1117324051466445 0 0.084352422163911631 0.086451712656266194 0 0.25 -0 0 0.43749999999913258 0 0 0.31250000000020822 0.12500000000041631 0 0.43749999999913258 0 0 0.54475767668582953 0.1431838882066932 0 0.4287911518546233 0.15455445427966699 0 0.31250000000020822 0.12500000000041631 0 0.43749999999913258 0 0 0.4287911518546233 0.15455445427966699 0 0.54475767668582953 0.1431838882066932 0 0.49457493289300231 0.26251703776555491 0 0.4287911518546233 0.15455445427966699 0 0.37500000000027761 0.25000000000055511 0 0.4287911518546233 0.15455445427966699 0 0.49457493289300231 0.26251703776555491 0 0.31250000000020822 0.12500000000041631 0 0.37500000000027761 0.25000000000055511 0 0.2403886547178353 0.24188814792673841 0 0.31250000000020822 0.12500000000041631 0 0.4287911518546233 0.15455445427966699 0 0.37500000000027761 0.25000000000055511 0 0.1249999999997599 0.31249999999987998 0 0.24999999999960859 0.37499999999980432 0 0.24999999999960859 0.37499999999980432 0 0.2403886547178353 0.24188814792673841 0 0.33819444444448321 0.33819444444456342 0 0.37500000000027761 0.25000000000055511 0 0.33819444444448321 0.33819444444456342 0 0.2403886547178353 0.24188814792673841 0 0.37500000000027761 0.25000000000055511 0 0.49457493289300231 0.26251703776555491 0 0.43750000000006939 0.37500000000013878 0 0.37500000000027761 0.25000000000055511 0 0.43750000000006939 0.37500000000013878 0 0.33819444444448321 0.33819444444456342 0 0.43750000000006939 0.37500000000013878 0 0.37499999999973488 0.43749999999986738 0 0.33819444444448321 0.33819444444456342 0 0.43750000000006939 0.37500000000013878 0 0.5 0.5 -0 0.37499999999973488 0.43749999999986738 0 0.37499999999973488 0.43749999999986738 0 0.26452443700674649 0.51563531581639865 0 0.24999999999960859 0.37499999999980432 0 0.37499999999973488 0.43749999999986738 0 0.24999999999960859 0.37499999999980432 0 0.33819444444448321 0.33819444444456342 0 0.24999999999960859 0.37499999999980432 0 0.26452443700674649 0.51563531581639865 0 0.14929124186975251 0.44582793568106382 0 0.24999999999960859 0.37499999999980432 0 0.14929124186975251 0.44582793568106382 0 0.1249999999997599 0.31249999999987998 0 0.24999999999960859 0.37499999999980432 0 0.1249999999997599 0.31249999999987998 0 0.2403886547178353 0.24188814792673841 0 0 0.25 0 0.1249999999997599 0.31249999999987998 0 0 0.43750000000034689 0 0.1249999999997599 0.31249999999987998 0 0 0.25 0 0.1008171452988615 0.18885703697250469 0 0 0.43750000000034689 0 0.1249999999997599 0.31249999999987998 0 0.14929124186975251 0.44582793568106382 0 0 0.43750000000034689 0 0.14929124186975251 0.44582793568106382 0 0.13928587515912139 0.57339806105677438 0 0 0.43750000000034689 0 0.13928587515912139 0.57339806105677438 0 0 0.62500000000069389 0 0.31250000000020822 0.12500000000041631 0 0.25 -0 0 0.37500000000027761 0.25000000000055511 0 0.31250000000020822 0.12500000000041631 0 0.24999999999960859 0.37499999999980432 0 0.37499999999973488 0.43749999999986738 0 0.26452443700674649 0.51563531581639865 0 0.27589467050686478 0.66058853156435704 0 0.13928587515912139 0.57339806105677438 0 0.26452443700674649 0.51563531581639865 0 0.13928587515912139 0.57339806105677438 0 0.14929124186975251 0.44582793568106382 0 0.27987960212930818 0.83442741470570525 0 0.13900789599611679 0.72618316107059999 0 0.27589467050686478 0.66058853156435704 0 0.27589467050686478 0.66058853156435704 0 0.13900789599611679 0.72618316107059999 0 0.13928587515912139 0.57339806105677438 0 0 0.81250000000104083 0 0 0.62500000000069389 0 0.13900789599611679 0.72618316107059999 0 0 0.62500000000069389 0 0.13928587515912139 0.57339806105677438 0 0.13900789599611679 0.72618316107059999 0 0 0.81250000000104083 0 0.13900789599611679 0.72618316107059999 0 0.12710107136012311 0.87094806618203435 0 0.1875000000005205 1 0 0 1 0 0.12710107136012311 0.87094806618203435 0 0 1 0 0 0.81250000000104083 0 0.12710107136012311 0.87094806618203435 0 0.1875000000005205 1 0 0.12710107136012311 0.87094806618203435 0 0.27987960212930818 0.83442741470570525 0 0.27987960212930818 0.83442741470570525 0 0.12710107136012311 0.87094806618203435 0 0.13900789599611679 0.72618316107059999 0 0.43750000000006939 0.37500000000013878 0 0.37500000000027761 0.25000000000055511 0 0.5 0.5 -0 0.43750000000006939 0.37500000000013878 0 0.37499999999973488 0.43749999999986738 0 0.5 0.5 -0 0.44927105396715372 0.85565124085155886 0 0.27987960212930818 0.83442741470570525 0 0.38136204680495073 0.74038592213831234 0 0.37500000000069389 1 0 0.27987960212930818 0.83442741470570525 0 0.44927105396715372 0.85565124085155886 0 0.37500000000069389 1 0 0.1875000000005205 1 0 0.27987960212930818 0.83442741470570525 0 0.37500000000069389 1 0 0.44927105396715372 0.85565124085155886 0 0.56250000000086742 1 0 0.44927105396715372 0.85565124085155886 0 0.38136204680495073 0.74038592213831234 0 0.50145856933078625 0.73674663046504862 0 0.5625 0.625 0 0.50145856933078625 0.73674663046504862 0 0.4139414069912184 0.60563252640100373 0 0.4139414069912184 0.60563252640100373 0 0.50145856933078625 0.73674663046504862 0 0.38136204680495073 0.74038592213831234 0 0.4139414069912184 0.60563252640100373 0 0.38136204680495073 0.74038592213831234 0 0.27589467050686478 0.66058853156435704 0 0.27987960212930818 0.83442741470570525 0 0.27589467050686478 0.66058853156435704 0 0.38136204680495073 0.74038592213831234 0 0.4139414069912184 0.60563252640100373 0 0.27589467050686478 0.66058853156435704 0 0.26452443700674649 0.51563531581639865 0 0.37499999999973488 0.43749999999986738 0 0.4139414069912184 0.60563252640100373 0 0.26452443700674649 0.51563531581639865 0 0.37499999999973488 0.43749999999986738 0 0.5 0.5 -0 0.4139414069912184 0.60563252640100373 0 0.5625 0.625 0 0.4139414069912184 0.60563252640100373 0 0.5 0.5 -0 0.5625 0.625 0 0.5 0.5 -0 0.63236534182377013 0.50296756406332266 0 0.5625 0.625 0 0.5 0.5 -0 0.625 0.75 0 0.5625 0.625 0 0.5625 0.625 0 0.63236534182377013 0.50296756406332266 0 0.71259747807844409 0.63846691315701831 0 0.75338430262320943 0.49294443423175599 0 0.71259747807844409 0.63846691315701831 0 0.63236534182377013 0.50296756406332266 0 0.5625 0.625 0 0.71259747807844409 0.63846691315701831 0 0.625 0.75 0 0.625 0.75 0 0.71259747807844409 0.63846691315701831 0 0.73857795170433571 0.77736788564284653 0 0.5625 0.625 0 0.625 0.75 0 0.50145856933078625 0.73674663046504862 0 0.625 0.75 0 0.56777512057187585 0.8470224641095303 0 0.50145856933078625 0.73674663046504862 0 0.44927105396715372 0.85565124085155886 0 0.50145856933078625 0.73674663046504862 0 0.56777512057187585 0.8470224641095303 0 0.56250000000086742 1 0 0.44927105396715372 0.85565124085155886 0 0.56777512057187585 0.8470224641095303 0 0.6875 0.875 0 0.56250000000086742 1 0 0.56777512057187585 0.8470224641095303 0 0.6875 0.875 0 0.75 1 0 0.56250000000086742 1 0 0.6875 0.875 0 0.80552984491000901 0.88711122872127413 0 0.75 1 0 0.6875 0.875 0 0.73857795170433571 0.77736788564284653 0 0.80552984491000901 0.88711122872127413 0 0.6875 0.875 0 0.56777512057187585 0.8470224641095303 0 0.625 0.75 0 0.6875 0.875 0 0.625 0.75 0 0.73857795170433571 0.77736788564284653 0 0.80552984491000901 0.88711122872127413 0 0.73857795170433571 0.77736788564284653 0 0.85787927391517405 0.753532520882502 0 0.6875 0.875 0 0.625 0.75 0 0.75 1 0 0.6875 0.875 0 0.80552984491000901 0.88711122872127413 0 0.85787927391517405 0.753532520882502 0 0.90637953422180084 0.90208583328057301 0 0.875 1 0 0.75 1 0 0.80552984491000901 0.88711122872127413 0 0.875 1 0 0.80552984491000901 0.88711122872127413 0 0.90637953422180084 0.90208583328057301 0 1 1 0 0.875 1 0 0.90637953422180084 0.90208583328057301 0 1 1 0 0.90637953422180084 0.90208583328057301 0 1 0.83333333333356463 0 1 0.83333333333356463 0 0.85787927391517405 0.753532520882502 0 1 0.66666666666736052 0 1 0.83333333333356463 0 0.90637953422180084 0.90208583328057301 0 0.85787927391517405 0.753532520882502 0 1 0.66666666666736052 0 0.85787927391517405 0.753532520882502 0 0.86127466977819722 0.57948076978797636 0 0.85787927391517405 0.753532520882502 0 0.71259747807844409 0.63846691315701831 0 0.86127466977819722 0.57948076978797636 0 0.85787927391517405 0.753532520882502 0 0.73857795170433571 0.77736788564284653 0 0.71259747807844409 0.63846691315701831 0 0.86127466977819722 0.57948076978797636 0 0.71259747807844409 0.63846691315701831 0 0.75338430262320943 0.49294443423175599 0 1 0.66666666666736052 0 0.86127466977819722 0.57948076978797636 0 1 0.50000000000138767 0 1 0.33333333333448978 0 1 0.50000000000138767 0 0.86569408477091048 0.40983673916766611 0 0.86127466977819722 0.57948076978797636 0 0.86569408477091048 0.40983673916766611 0 1 0.50000000000138767 0 1 0.16666666666736049 0 1 0.33333333333448978 0 0.86087286690217635 0.25206523597959418 0 1 0.33333333333448978 0 0.86569408477091048 0.40983673916766611 0 0.86087286690217635 0.25206523597959418 0 0.86569408477091048 0.40983673916766611 0 0.71826039492840632 0.34564020717216182 0 0.86087286690217635 0.25206523597959418 0 0.71508993406183785 0.15715956854777599 0 0.86087286690217635 0.25206523597959418 0 0.71826039492840632 0.34564020717216182 0 0.86127466977819722 0.57948076978797636 0 0.75338430262320943 0.49294443423175599 0 0.86569408477091048 0.40983673916766611 0 0.75338430262320943 0.49294443423175599 0 0.71826039492840632 0.34564020717216182 0 0.86569408477091048 0.40983673916766611 0 0.56986707178436635 0.37762093650871992 0 0.71826039492840632 0.34564020717216182 0 0.63236534182377013 0.50296756406332266 0 0.75338430262320943 0.49294443423175599 0 0.63236534182377013 0.50296756406332266 0 0.71826039492840632 0.34564020717216182 0 0.43750000000006939 0.37500000000013878 0 0.56986707178436635 0.37762093650871992 0 0.5 0.5 -0 0.5 0.5 -0 0.56986707178436635 0.37762093650871992 0 0.63236534182377013 0.50296756406332266 0 0.43750000000006939 0.37500000000013878 0 0.49457493289300231 0.26251703776555491 0 0.56986707178436635 0.37762093650871992 0 0.56986707178436635 0.37762093650871992 0 0.49457493289300231 0.26251703776555491 0 0.61108462585082757 0.25750599582343231 0 0.71508993406183785 0.15715956854777599 0 0.71826039492840632 0.34564020717216182 0 0.61108462585082757 0.25750599582343231 0 0.56986707178436635 0.37762093650871992 0 0.61108462585082757 0.25750599582343231 0 0.71826039492840632 0.34564020717216182 0 0.71508993406183785 0.15715956854777599 0 0.61108462585082757 0.25750599582343231 0 0.54475767668582953 0.1431838882066932 0 0.54475767668582953 0.1431838882066932 0 0.61108462585082757 0.25750599582343231 0 0.49457493289300231 0.26251703776555491 0 0.43749999999913258 0 0 0.62499999999895905 0 0 0.54475767668582953 0.1431838882066932 0 0.62499999999895905 0 0 0.71508993406183785 0.15715956854777599 0 0.54475767668582953 0.1431838882066932 0 0.81249999999947953 0 0 0.71508993406183785 0.15715956854777599 0 0.62499999999895905 0 0 0.81249999999947953 0 0 0.87698901648812122 0.1160638338657984 0 0.71508993406183785 0.15715956854777599 0 0.71508993406183785 0.15715956854777599 0 0.87698901648812122 0.1160638338657984 0 0.86087286690217635 0.25206523597959418 0 1 0.16666666666736049 0 0.86087286690217635 0.25206523597959418 0 0.87698901648812122 0.1160638338657984 0 0.81249999999947953 0 0 1 0 0 0.87698901648812122 0.1160638338657984 0 1 0.16666666666736049 0 0.87698901648812122 0.1160638338657984 0 1 0 0 
</DataArray>
</Points>
<Cells>
<DataArray type="UInt32" Name="connectivity" format="ascii">
0 1 2 3 4 5 6 7 8 9 10 11 12 13 14 15 16 17 18 19 20 21 22 23 24 25 26 27 28 29 30 31 32 33 34 35 36 37 38 39 40 41 42 43 44 45 46 47 48 49 50 51 52 53 54 55 56 57 58 59 60 61 62 63 64 65 66 67 68 69 70 71 72 73 74 75 76 77 78 79 80 81 82 83 84 85 86 87 88 89 90 91 92 93 94 95 96 97 98 99 100 101 102 103 104 105 106 107 108 109 110 111 112 113 114 115 116 117 118 119 120 121 122 123 124 125 126 127 128 129 130 131 132 133 134 135 136 137 138 139 140 141 142 143 144 145 146 147 148 149 150 151 152 153 154 155 156 157 158 159 160 161 162 163 164 165 166 167 168 169 170 171 172 173 174 175 176 177 178 179 180 181 182 183 184 185 186 187 188 189 190 191 192 193 194 195 196 197 198 199 200 201 202 203 204 205 206 207 208 209 210 211 212 213 214 215 216 217 218 219 220 221 222 223 224 225 226 227 228 229 230 231 232 233 234 235 236 237 238 239 240 241 242 243 244 245 246 247 248 249 250 251 252 253 254 255 256 257 258 259 260 261 262 263 264 265 266 267 268 269 270 271 272 273 274 275 276 277 278 279 280 281 282 283 284 285 286 287 288 289 290 291 292 293 294 295 296 297 298 299 300 301 302 303 304 305 306 307 308 309 310 311 312 313 314 315 316 317 318 319 320 321 322 323 324 325 326 327 328 329 330 331 332 333 334 335 336 337 338 339 340 341 342 343 344 345 346 347 348 349 350 351 352 353 354 355 356 357 358 359 
</DataArray>
<DataArray type="UInt32" Name="offsets" format="ascii">
2 5 8 11 14 17 20 23 26 29 32 35 38 41 44 47 50 53 56 58 61 64 67 70 73 76 79 82 85 88 91 94 97 100 103 106 108 110 112 115 118 121 124 127 130 133 136 139 142 145 147 149 151 154 157 160 163 166 169 172 175 178 181 184 187 190 193 195 197 200 203 206 209 212 215 218 221 224 227 230 233 236 239 242 244 246 249 252 255 258 261 264 267 270 273 276 279 282 285 288 291 294 297 300 303 306 309 312 315 318 321 324 327 330 333 336 339 342 345 348 351 354 357 360 
</DataArray>
<DataArray type="UInt32" Name="types" format="ascii">
3 5 5 5 5 5 5 5 5 5 5 5 5 5 5 5 5 5 5 3 5 5 5 5 5 5 5 5 5 5 5 5 5 5 5 5 3 3 3 5 5 5 5 5 5 5 5 5 5 5 3 3 3 5 5 5 5 5 5 5 5 5 5 5 5 5 5 3 3 5 5 5 5 5 5 5 5 5 5 5 5 5 5 5 3 3 5 5 5 5 5 5 5 5 5 5 5 5 5 5 5 5 5 5 5 5 5 5 5 5 5 5 5 5 5 5 5 5 5 5 5 5 5 5 
</DataArray>
</Cells>
<PointData Scalars="age_conc,U235_conc," Vectors="" Tensors="">
<DataArray type="Float64" Name="age_conc" format="ascii">
203175.89010770147 194841.4396233357 221869.1164834646 223230.78136667062 222102.94857176847 221814.2876363621 221976.15548813643 223267.93150878375 223506.94895703759 221853.5996668984 223426.81480489433 224399.70447196168 224664.5149808155 210040.40967832375 223085.07438233617 222289.61984516765 223448.27490082607 205437.24494794855 223141.69979232296 228744.50344065778 223495.74224392831 227395.06097741745 223015.98093915891 206510.27126907156 228573.21680385098 223924.75228079327 211154.60652548552 224806.04700253208 223761.12288998309 208811.67988156772 205270.80580307954 226686.31974207828 223421.86714997052 223767.25996328 222009.69233950099 222212.49490786466 222293.47185511648 222192.79242952014 222356.21962000025 222279.84435891607 222168.85460726041 222180.7783115551 222308.62058618912 222184.3033089333 222213.67811661208 222236.22021848263 222221.72915293108 222228.63236823239 222222.97682927307 222241.58136489734 202508.50819883199 196685.02979930578 232109.97723607029 222221.47969413226 222224.25535741003 222227.07564472346 194876.42929719994 182988.60068682831 194582.94125647526 232595.1734989559 227820.22339892984 196080.70530842818 227265.11912306678 232298.82246274623 222227.72312402129 222252.5683027237 222152.61425258758 188653.5656473086 185469.80636239846 230880.51481311792 196686.82206763426 195241.44377314308 222360.55171344589 195662.4266114569 143232.80232039522 193628.41854099804 225381.85038533295 220906.40950208402 222161.66149057075 183362.87423007353 186682.50954835425 231794.25775291023 221839.6278059716 221639.93121278082 222427.67620087336 221909.85407244539 222361.73043873141 222228.31416309491 195053.1782825471 201177.71965362682 232627.77290996324 222211.93942779009 222219.07115429669 222290.09493283846 203700.10249693634 207499.07633582433 226581.88628736936 222308.14954048407 222212.48310061957 222161.72597851028 222474.76314215688 222019.59549116911 221938.68563221168 222595.04827553412 223230.51443377041 220983.75449801638 196576.53223699328 204344.8187025926 185525.74322454579 196604.75411544208 182972.93711139637 164560.2832199478 222503.72757575894 221564.94596117345 221353.93943395707 222421.78773200681 221506.49477135946 222311.52593229545 218544.15667588275 228804.46997223489 220370.81412961474 220515.28468873742 227440.62052936119 221350.42203196426 228139.37881587684 221180.88846447316 219881.30440519849 220642.68750012634 223412.03767063632 224550.54133074265 227600.65223563995 221437.30184306804 198357.3053091623 20443.00146188245 17409.608030369585 213674.96006592031 39408.827615699141 239027.53639686623 205532.47660325936 40973.342210497518 180188.47288953949 223509.68747245378 223026.15482668922 186494.47879785448 236321.87000145394 168521.17417198443 185488.41213369658 134841.7224420339 168350.82946859926 164171.66499823247 132875.1489438139 210460.70883715234 207719.76572210065 229716.46784063993 38722.636289152986 202902.41210584925 209909.26740456704 23406.24300903422 23451.599748692148 236821.69343609107 13462.19898976577 222974.09193359563 16811.062839828279 196154.46949304137 217601.73066191378 230440.50040842203 151433.35785644385 242366.10420311496 246262.89475659275 228215.65441834324 229467.50558431339 217415.93376907363 224625.61070461886 220342.84927361703 222207.89504123325 211606.6962976362 225651.44360425379 226556.44637713872 224139.46007694842 222262.70588744097 222037.91428978756 226132.10838741474 228112.35706752219 220195.66536556609 225083.0406382058 192961.09326331428 236222.2121420122 158132.34278534065 243297.99064855903 185605.33123720958 221574.27512463558 222167.96676719963 223507.44001561604 104056.80916619577 132204.25531728467 70536.554297573704 102972.27709798275 221223.8770414147 223835.95753006311 224229.61255373337 217337.85482987252 228797.95326534196 223009.13803039666 222241.55942046017 222365.04393511018 222745.03207391611 222759.12615441249 222439.2944264948 222665.8291260754 135423.2233932825 121569.06031323253 251703.78659318056 126442.23218745861 234137.21601714205 243253.05321104909 191033.69973219221 235459.23321854809 196507.21462895648 65299.384510944466 197272.46656582353 186958.3127116767 147826.91212246032 44628.581105691461 196860.89721305619 149912.38267119703 6987.2067862234471 35028.298162846644 184248.84125481782 185781.09368157346 26526.18980556825 187951.28942525273 231522.33435865043 192532.21152900279 117449.59333424632 239770.15699642763 114800.02267436375 193779.34006366224 222159.64203546877 226583.84435518671 200473.01671411144 221838.24452266321 214466.73298439046 32454.943701232878 69867.427287357423 -1780.8727467033466 32106.696292033303 198567.68346316984 215409.52337888014 178920.52890201405 13196.493933739499 11420.374847551941 194013.73178495764 22810.319014322002 179772.46872436773 178422.5819614894 8528.1614393527998 8817.8025508773917 185395.27143107663 7673.5414732979752 178398.22439636773 7673.5412312279404 18264.624144901201 221874.5570271363 17206.714252403617 27651.715815918833 172388.68481806805 205764.84163529784 38368.398957489524 208529.67791643628 186602.9061385559 211801.6552433921 237767.8532521099 193270.50338118759 216998.55881695493 220489.99043863191 224244.5220354445 198850.98897674627 231410.63980472705 215860.13158087851 18306.664155578608 215913.00050333838 15637.150996958509 14760.117852697169 16523.408519765268 212908.77416456945 203324.56160607879 182942.61589848815 36075.88833790944 17845.639958273387 19061.981560613902 218959.79604544648 34988.294579677204 201485.68602352182 189764.9951969875 202987.75203251725 231019.14699069058 199562.40976953643 221831.58459854865 205494.59112909724 225811.00767321142 205033.15116873803 235352.44941878703 187274.57754378906 229603.70619872032 221454.87046466046 194173.43072261137 222058.83253097135 223730.06800332107 221352.20450285211 223492.95871863046 221138.91385469248 224063.39927630904 222195.34809782667 221875.21223738728 222535.42290628681 222643.92114613179 221748.04577419526 222432.44740445551 222131.76016646708 222274.28495328606 222082.19428817992 222263.57408083737 222190.4459982345 222428.88032386699 221894.39631927854 224613.70987418343 222580.76871209149 222212.39302134552 222468.72472276419 223479.28263953089 222131.77342889417 222443.80049673107 222206.93174518854 222212.13542408519 222366.35872688363 222224.35347615948 222358.57951363863 221676.30060730208 222345.8034178922 221775.98094686723 222276.40061189985 222169.48899742417 225033.85486577687 223319.39029826893 222154.56084535056 223719.72772690529 198599.53898262518 225696.60133076916 237868.01590517338 191015.53652699833 210416.35667680079 33295.900123732441 208350.50328372759 180256.62293336383 242455.40228211152 38391.252019814892 200069.59226409555 18768.015358113837 207242.42044560416 17007.619393268062 
</DataArray>
<DataArray type="Float64" Name="U235_conc" format="ascii">
0.11514760625917698 0.16277358151080898 0.0026920438705907114 -0.0054915264406041235 0.0053854978075209966 0.003016002233525843 0.0052299471889745621 -0.0057892322677055123 -0.0064448744859053522 0.0075101709896851221 -0.0010652965037797693 -0.01465069742897758 -0.015622326735492378 0.076453283069077185 0.0041246316417964737 -0.00067210455516865993 0.0027932363615289467 0.10675650595436315 -0.006647427495419805 -0.044061458794159604 0.011962062086768614 -0.025634960727569191 0.013672898640800577 0.099668958572714697 -0.042699694690975086 -0.011840048194972332 0.069432052488983653 -0.016713985977422081 -0.010453451053296117 0.082385082834420142 0.10559525250121547 -0.027157678793159088 -0.0053302822891525461 -0.0030840092995496112 0.0084142915887021573 0.00021784443617646633 -0.00056144570851799334 0.00034360127234152701 -0.0012745694124198499 -0.0006287081276064887 0.0019032775400263386 0.00040402117975677702 -0.00073317991305267539 0.0010504410955574335 0.0006724039600606162 -0.00025494483488620477 -0.00010693637762631204 0.00010062229781365891 3.476578577939592e-05 -0.00013538808359305483 0.12214162570691262 0.15756176220476345 -0.062264078503552464 -5.1417602630471924e-06 -2.3164353858913211e-05 3.8096079246560027e-05 0.1631611004279985 0.22847835184862628 0.17177263211765612 -0.068767615658290829 -0.036146307301335029 0.16188004967085523 -0.032528416866149018 -0.066598809583485546 -3.3964315288041364e-05 -0.00023037376129190706 0.00042629273236133547 0.19973429280839317 0.21619854549931417 -0.048392752245980379 0.15485678474326248 0.16557441544234147 -0.0016846705486101244 0.16183371255959 0.44476272871184347 0.17655043230849599 -0.012929603657562145 0.022230819651321301 -0.0019288321400213659 0.23032231046473048 0.21236568121503704 -0.054042207040315128 0.0047437216710882763 0.010381045137611906 -0.0030667367337614353 0.0038195825222817423 -0.0019662579785514884 -0.00016926890129594747 0.16822237960078351 0.13078644486098556 -0.065726284305703014 0.00037585444282933121 0.00017815011418997786 -0.00055400455701930902 0.11551370677213585 0.090477185054519876 -0.026222500875899335 -0.00074222395772124148 0.00025108068880265092 0.0004911432689185905 -0.0027525367379860615 0.0018578606949008127 0.0025578866710438079 -0.005086950731792445 -0.008257670680032022 0.014192083403652167 0.15164233754795825 0.10760360607876909 0.21244254236446569 0.15206076011111122 0.22973176202768372 0.32622770528304867 -0.0029985336106500395 0.0090920519848568179 0.0085910545082918226 -0.0020646535438238935 0.0068122381996690937 -0.001107003187944939 0.037561412393795936 -0.033160749528108817 0.017534613183770573 0.018862586749300341 -0.023734870323232325 0.0077997061521992705 -0.031313181121825684 0.01240594956017285 0.02379108691879021 0.017117982308527867 -0.0078856944117800254 -0.003702609992137661 -0.01219240315505039 -0.0032667473459084316 0.17753446493995553 0.97050014100609083 0.97295706116740077 0.20539853708031874 0.93063311113428515 -0.059156290124497093 0.18589267077259095 0.9259709639261513 0.25957294669558612 0.080733464424191062 0.040549565324319213 0.2300635620787789 -0.093509846241448744 0.30188563343784919 0.2138271200053308 0.47077937353494059 0.30536510272004297 0.33074131911287324 0.48297204498518193 0.10919756519774687 0.10743222489788332 -0.050391501353422519 0.9481411558747006 0.13933763071476626 0.14725971300852439 0.96974979871874323 0.957397298978517 0.07942683585466806 0.99089399395738242 0.16425408215723644 0.97916401345552029 0.18040198042415104 0.03058579793673738 -0.068008901517065068 0.42656044296650597 -0.12093462669785672 -0.15491523754148706 -0.0013628915415789117 -0.046173562465960175 0.047536454007539093 0.0020794135790290474 0.020993781833140431 -0.00051179612375068474 0.082212450778132495 -0.014244716092370694 -0.0202272116411891 -0.00012523366115879174 0.0017586665598377754 -0.00048068142998200714 -0.0090657817302273094 -0.027076950617522397 0.036142732347749708 -0.020859240378878537 0.18834536889048684 -0.095978727143572931 0.39205841593605734 -0.13321929067826321 0.22962072442684409 0.0048945404953280331 -0.00013572349905357952 -0.0042366195225010516 0.61615506273259779 0.48675711072274591 0.76052922885168173 0.62521641149003726 0.0095937597127640079 -0.0036050171508510737 -0.005963477024567676 0.037739208403333738 -0.038980035085817211 0.0013078960048119692 -0.00012251635714594826 0.0044062099407642837 -0.0042775473860245375 -0.0021175242232711216 0.0068042290743156354 -0.00466257121238608 0.50204819233906983 0.55610209513253639 -0.15510807643025329 0.52110720845291791 -0.026475494044982052 -0.12498782433411308 0.21202527513508801 -0.10033791744628884 0.15620936768749688 0.84428597233671532 0.19328829377730597 0.21501277847518899 0.47933279330334688 0.88417881933941023 0.19584054882370674 0.50207281075276711 0.99743113070835376 0.89625356918769394 0.25187255213049764 0.29356831046983206 0.97132861167871032 0.22968885942453227 -0.074516080261265077 0.218823852950947 0.58519198607076461 -0.022050082899171944 0.5477581712180033 0.19231647502884258 -0.0025079917291743461 -0.039270178192546634 0.13584040604676556 -0.0031657498029754394 0.052187866535630671 0.90688941826982294 0.7683548353737355 1.0073667786900331 0.91170804239775649 0.14253904521777516 0.048106345336071735 0.30842368014552574 0.99000512920602213 0.99183702044655031 0.30657031807216517 0.98176769596460045 0.27720972804255545 0.33761113321505964 0.99479202757676199 0.99352570701351473 0.36055147014156735 0.99534821897296466 0.3944551419279666 0.99534821600986934 0.98184622163526702 0.15877810713498017 0.98067362358117371 0.97329840738884632 0.36011934706300602 0.13791527427106617 0.94302876087502852 0.15535432515069869 0.2317230173815617 0.096302025622724524 -0.10929034677166521 0.19438636220004979 0.032469470775254111 0.0086813435059694844 -0.01159431927295349 0.16160020684260887 -0.062095285788063746 0.048004293205896317 0.97763479877595816 0.19743136209183343 0.97970252346204489 0.98167808769128684 0.98168070167340538 0.21522547537585252 0.18880511510475154 0.25307301023178991 0.94800409683076148 0.9734049531404606 0.97733303124497872 0.17863251538918107 0.95098860683141184 0.20178957231018865 0.21481033287552526 0.15443972045600352 -0.067467387480966839 0.15260319033405895 0.0034590607374222733 0.11479463220369014 -0.026946658748677299 0.1473160822283934 -0.095523889085778441 0.22883631927188816 -0.05491646666434926 0.0089537606357124652 0.19037760708650348 0.00049265622573706062 -0.0071169627825895974 0.010796996720461164 -0.0073508437532773946 0.015222176044960503 -0.0078713322916831082 6.2551332637198525e-05 0.002617692183779048 -0.0016442057309143665 -0.0025282660881589306 0.0034816679938006719 0.0023801976293681055 0.00054885166640016828 -0.00041289747410010587 0.0012146065999282544 0.00024334408022548776 -0.00021298068264375287 0.0011188482236799311 0.0050907852448921365 -0.012136898634552362 0.0071660865734166947 0.0015486163400675323 0.0027170157637065777 -0.0042656321037741101 0.000221323285637696 0.003503885333673904 -0.00065407684054760165 0.00071572153597123137 0.0017612141333033253 -0.00034521856017787864 -0.0027803965132494721 0.0096651477491059533 -0.0036070414745030198 0.010351177794751712 0.002412242043978911 -0.0023871984902744097 -0.0077155206838044792 -0.0037284882191715813 0.011444008902976061 0.010068273803160756 0.17054495636313577 -0.035298322773904364 -0.10931863969027721 0.20517243390216272 0.11489171213020881 0.94953521992413448 0.17232169878803921 0.2635434920605047 -0.073366628656770835 0.93351649895361777 0.21487067845078781 0.97619078614221311 0.23526576874075403 0.9746859886991166 
</DataArray>
</PointData>
</Piece>
</UnstructuredGrid>
</VTKFile>
