<?xml version="1.0"?>
<VTKFile type="UnstructuredGrid" version="0.1" byte_order="LittleEndian">
<UnstructuredGrid>
<Piece NumberOfPoints="360" NumberOfCells="124">
<Points>
<DataArray type="Float64" NumberOfComponents="3" format="ascii">
0 0.25 0 0.1249999999997599 0.31249999999987998 0 0 0 0 0.1249999999997554 0 0 0.084352422163911631 0.086451712656266194 0 0 0 0 0.084352422163911631 0.086451712656266194 0 0 0.12500000000034689 0 0 0.12500000000034689 0 0.084352422163911631 0.086451712656266194 0 0.1008171452988615 0.18885703697250469 0 0 0.12500000000034689 0 0.1008171452988615 0.18885703697250469 0 0 0.25 0 0.1008171452988615 0.18885703697250469 0 0.084352422163911631 0.086451712656266194 0 0.18402761812864499 0.1117324051466445 0 0.1249999999997599 0.31249999999987998 0 0.1008171452988615 0.18885703697250469 0 0.2403886547178353 0.24188814792673841 0 0.18402761812864499 0.1117324051466445 0 0.2403886547178353 0.24188814792673841 0 0.1008171452988615 0.18885703697250469 0 0.31250000000020822 0.12500000000041631 0 0.2403886547178353 0.24188814792673841 0 0.18402761812864499 0.1117324051466445 0 0.25 -0 0 0.18402761812864499 0.1117324051466445 0 0.1249999999997554 0 0 0.25 -0 0 0.31250000000020822 0.12500000000041631 0 0.18402761812864499 0.1117324051466445 0 0.1249999999997554 0 0 0.18402761812864499 0.1117324051466445 0 0.084352422163911631 0.086451712656266194 0 0.25 -0 0 0.43749999999913258 0 0 0.31250000000020822 0.12500000000041631 0 0.43749999999913258 0 0 0.54475767668582953 0.1431838882066932 0 0.4287911518546233 0.15455445427966699 0 0.31250000000020822 0.12500000000041631 0 0.43749999999913258 0 0 0.4287911518546233 0.15455445427966699 0 0.54475767668582953 0.1431838882066932 0 0.49457493289300231 0.26251703776555491 0 0.4287911518546233 0.15455445427966699 0 0.37500000000027761 0.25000000000055511 0 0.4287911518546233 0.15455445427966699 0 0.49457493289300231 0.26251703776555491 0 0.31250000000020822 0.12500000000041631 0 0.37500000000027761 0.25000000000055511 0 0.2403886547178353 0.24188814792673841 0 0.31250000000020822 0.12500000000041631 0 0.4287911518546233 0.15455445427966699 0 0.37500000000027761 0.25000000000055511 0 0.1249999999997599 0.31249999999987998 0 0.24999999999960859 0.37499999999980432 0 0.24999999999960859 0.37499999999980432 0 0.2403886547178353 0.24188814792673841 0 0.33819444444448321 0.33819444444456342 0 0.37500000000027761 0.25000000000055511 0 0.33819444444448321 0.33819444444456342 0 0.2403886547178353 0.24188814792673841 0 0.37500000000027761 0.25000000000055511 0 0.49457493289300231 0.26251703776555491 0 0.43750000000006939 0.37500000000013878 0 0.37500000000027761 0.25000000000055511 0 0.43750000000006939 0.37500000000013878 0 0.33819444444448321 0.33819444444456342 0 0.43750000000006939 0.37500000000013878 0 0.37499999999973488 0.43749999999986738 0 0.33819444444448321 0.33819444444456342 0 0.43750000000006939 0.37500000000013878 0 0.5 0.5 -0 0.37499999999973488 0.43749999999986738 0 0.37499999999973488 0.43749999999986738 0 0.26452443700674649 0.51563531581639865 0 0.24999999999960859 0.37499999999980432 0 0.37499999999973488 0.43749999999986738 0 0.24999999999960859 0.37499999999980432 0 0.33819444444448321 0.33819444444456342 0 0.24999999999960859 0.37499999999980432 0 0.26452443700674649 0.51563531581639865 0 0.14929124186975251 0.44582793568106382 0 0.24999999999960859 0.37499999999980432 0 0.14929124186975251 0.44582793568106382 0 0.1249999999997599 0.31249999999987998 0 0.24999999999960859 0.37499999999980432 0 0.1249999999997599 0.31249999999987998 0 0.2403886547178353 0.24188814792673841 0 0 0.25 0 0.1249999999997599 0.31249999999987998 0 0 0.43750000000034689 0 0.1249999999997599 0.31249999999987998 0 0 0.25 0 0.1008171452988615 0.18885703697250469 0 0 0.43750000000034689 0 0.1249999999997599 0.31249999999987998 0 0.14929124186975251 0.44582793568106382 0 0 0.43750000000034689 0 0.14929124186975251 0.44582793568106382 0 0.13928587515912139 0.57339806105677438 0 0 0.43750000000034689 0 0.13928587515912139 0.57339806105677438 0 0 0.62500000000069389 0 0.31250000000020822 0.12500000000041631 0 0.25 -0 0 0.37500000000027761 0.25000000000055511 0 0.31250000000020822 0.12500000000041631 0 0.24999999999960859 0.37499999999980432 0 0.37499999999973488 0.43749999999986738 0 0.26452443700674649 0.51563531581639865 0 0.27589467050686478 0.66058853156435704 0 0.13928587515912139 0.57339806105677438 0 0.26452443700674649 0.51563531581639865 0 0.13928587515912139 0.57339806105677438 0 0.14929124186975251 0.44582793568106382 0 0.27987960212930818 0.83442741470570525 0 0.13900789599611679 0.72618316107059999 0 0.27589467050686478 0.66058853156435704 0 0.27589467050686478 0.66058853156435704 0 0.13900789599611679 0.72618316107059999 0 0.13928587515912139 0.57339806105677438 0 0 0.81250000000104083 0 0 0.62500000000069389 0 0.13900789599611679 0.72618316107059999 0 0 0.62500000000069389 0 0.13928587515912139 0.57339806105677438 0 0.13900789599611679 0.72618316107059999 0 0 0.81250000000104083 0 0.13900789599611679 0.72618316107059999 0 0.12710107136012311 0.87094806618203435 0 0.1875000000005205 1 0 0 1 0 0.12710107136012311 0.87094806618203435 0 0 1 0 0 0.81250000000104083 0 0.12710107136012311 0.87094806618203435 0 0.1875000000005205 1 0 0.12710107136012311 0.87094806618203435 0 0.27987960212930818 0.83442741470570525 0 0.27987960212930818 0.83442741470570525 0 0.12710107136012311 0.87094806618203435 0 0.13900789599611679 0.72618316107059999 0 0.43750000000006939 0.37500000000013878 0 0.37500000000027761 0.25000000000055511 0 0.5 0.5 -0 0.43750000000006939 0.37500000000013878 0 0.37499999999973488 0.43749999999986738 0 0.5 0.5 -0 0.44927105396715372 0.85565124085155886 0 0.27987960212930818 0.83442741470570525 0 0.38136204680495073 0.74038592213831234 0 0.37500000000069389 1 0 0.27987960212930818 0.83442741470570525 0 0.44927105396715372 0.85565124085155886 0 0.37500000000069389 1 0 0.1875000000005205 1 0 0.27987960212930818 0.83442741470570525 0 0.37500000000069389 1 0 0.44927105396715372 0.85565124085155886 0 0.56250000000086742 1 0 0.44927105396715372 0.85565124085155886 0 0.38136204680495073 0.74038592213831234 0 0.50145856933078625 0.73674663046504862 0 0.5625 0.625 0 0.50145856933078625 0.73674663046504862 0 0.4139414069912184 0.60563252640100373 0 0.4139414069912184 0.60563252640100373 0 0.50145856933078625 0.73674663046504862 0 0.38136204680495073 0.74038592213831234 0 0.4139414069912184 0.60563252640100373 0 0.38136204680495073 0.74038592213831234 0 0.27589467050686478 0.66058853156435704 0 0.27987960212930818 0.83442741470570525 0 0.27589467050686478 0.66058853156435704 0 0.38136204680495073 0.74038592213831234 0 0.4139414069912184 0.60563252640100373 0 0.27589467050686478 0.66058853156435704 0 0.26452443700674649 0.51563531581639865 0 0.37499999999973488 0.43749999999986738 0 0.4139414069912184 0.60563252640100373 0 0.26452443700674649 0.51563531581639865 0 0.37499999999973488 0.43749999999986738 0 0.5 0.5 -0 0.4139414069912184 0.60563252640100373 0 0.5625 0.625 0 0.4139414069912184 0.60563252640100373 0 0.5 0.5 -0 0.5625 0.625 0 0.5 0.5 -0 0.63236534182377013 0.50296756406332266 0 0.5625 0.625 0 0.5 0.5 -0 0.625 0.75 0 0.5625 0.625 0 0.5625 0.625 0 0.63236534182377013 0.50296756406332266 0 0.71259747807844409 0.63846691315701831 0 0.75338430262320943 0.49294443423175599 0 0.71259747807844409 0.63846691315701831 0 0.63236534182377013 0.50296756406332266 0 0.5625 0.625 0 0.71259747807844409 0.63846691315701831 0 0.625 0.75 0 0.625 0.75 0 0.71259747807844409 0.63846691315701831 0 0.73857795170433571 0.77736788564284653 0 0.5625 0.625 0 0.625 0.75 0 0.50145856933078625 0.73674663046504862 0 0.625 0.75 0 0.56777512057187585 0.8470224641095303 0 0.50145856933078625 0.73674663046504862 0 0.44927105396715372 0.85565124085155886 0 0.50145856933078625 0.73674663046504862 0 0.56777512057187585 0.8470224641095303 0 0.56250000000086742 1 0 0.44927105396715372 0.85565124085155886 0 0.56777512057187585 0.8470224641095303 0 0.6875 0.875 0 0.56250000000086742 1 0 0.56777512057187585 0.8470224641095303 0 0.6875 0.875 0 0.75 1 0 0.56250000000086742 1 0 0.6875 0.875 0 0.80552984491000901 0.88711122872127413 0 0.75 1 0 0.6875 0.875 0 0.73857795170433571 0.77736788564284653 0 0.80552984491000901 0.88711122872127413 0 0.6875 0.875 0 0.56777512057187585 0.8470224641095303 0 0.625 0.75 0 0.6875 0.875 0 0.625 0.75 0 0.73857795170433571 0.77736788564284653 0 0.80552984491000901 0.88711122872127413 0 0.73857795170433571 0.77736788564284653 0 0.85787927391517405 0.753532520882502 0 0.6875 0.875 0 0.625 0.75 0 0.75 1 0 0.6875 0.875 0 0.80552984491000901 0.88711122872127413 0 0.85787927391517405 0.753532520882502 0 0.90637953422180084 0.90208583328057301 0 0.875 1 0 0.75 1 0 0.80552984491000901 0.88711122872127413 0 0.875 1 0 0.80552984491000901 0.88711122872127413 0 0.90637953422180084 0.90208583328057301 0 1 1 0 0.875 1 0 0.90637953422180084 0.90208583328057301 0 1 1 0 0.90637953422180084 0.90208583328057301 0 1 0.83333333333356463 0 1 0.83333333333356463 0 0.85787927391517405 0.753532520882502 0 1 0.66666666666736052 0 1 0.83333333333356463 0 0.90637953422180084 0.90208583328057301 0 0.85787927391517405 0.753532520882502 0 1 0.66666666666736052 0 0.85787927391517405 0.753532520882502 0 0.86127466977819722 0.57948076978797636 0 0.85787927391517405 0.753532520882502 0 0.71259747807844409 0.63846691315701831 0 0.86127466977819722 0.57948076978797636 0 0.85787927391517405 0.753532520882502 0 0.73857795170433571 0.77736788564284653 0 0.71259747807844409 0.63846691315701831 0 0.86127466977819722 0.57948076978797636 0 0.71259747807844409 0.63846691315701831 0 0.75338430262320943 0.49294443423175599 0 1 0.66666666666736052 0 0.86127466977819722 0.57948076978797636 0 1 0.50000000000138767 0 1 0.33333333333448978 0 1 0.50000000000138767 0 0.86569408477091048 0.40983673916766611 0 0.86127466977819722 0.57948076978797636 0 0.86569408477091048 0.40983673916766611 0 1 0.50000000000138767 0 1 0.16666666666736049 0 1 0.33333333333448978 0 0.86087286690217635 0.25206523597959418 0 1 0.33333333333448978 0 0.86569408477091048 0.40983673916766611 0 0.86087286690217635 0.25206523597959418 0 0.86569408477091048 0.40983673916766611 0 0.71826039492840632 0.34564020717216182 0 0.86087286690217635 0.25206523597959418 0 0.71508993406183785 0.15715956854777599 0 0.86087286690217635 0.25206523597959418 0 0.71826039492840632 0.34564020717216182 0 0.86127466977819722 0.57948076978797636 0 0.75338430262320943 0.49294443423175599 0 0.86569408477091048 0.40983673916766611 0 0.75338430262320943 0.49294443423175599 0 0.71826039492840632 0.34564020717216182 0 0.86569408477091048 0.40983673916766611 0 0.56986707178436635 0.37762093650871992 0 0.71826039492840632 0.34564020717216182 0 0.63236534182377013 0.50296756406332266 0 0.75338430262320943 0.49294443423175599 0 0.63236534182377013 0.50296756406332266 0 0.71826039492840632 0.34564020717216182 0 0.43750000000006939 0.37500000000013878 0 0.56986707178436635 0.37762093650871992 0 0.5 0.5 -0 0.5 0.5 -0 0.56986707178436635 0.37762093650871992 0 0.63236534182377013 0.50296756406332266 0 0.43750000000006939 0.37500000000013878 0 0.49457493289300231 0.26251703776555491 0 0.56986707178436635 0.37762093650871992 0 0.56986707178436635 0.37762093650871992 0 0.49457493289300231 0.26251703776555491 0 0.61108462585082757 0.25750599582343231 0 0.71508993406183785 0.15715956854777599 0 0.71826039492840632 0.34564020717216182 0 0.61108462585082757 0.25750599582343231 0 0.56986707178436635 0.37762093650871992 0 0.61108462585082757 0.25750599582343231 0 0.71826039492840632 0.34564020717216182 0 0.71508993406183785 0.15715956854777599 0 0.61108462585082757 0.25750599582343231 0 0.54475767668582953 0.1431838882066932 0 0.54475767668582953 0.1431838882066932 0 0.61108462585082757 0.25750599582343231 0 0.49457493289300231 0.26251703776555491 0 0.43749999999913258 0 0 0.62499999999895905 0 0 0.54475767668582953 0.1431838882066932 0 0.62499999999895905 0 0 0.71508993406183785 0.15715956854777599 0 0.54475767668582953 0.1431838882066932 0 0.81249999999947953 0 0 0.71508993406183785 0.15715956854777599 0 0.62499999999895905 0 0 0.81249999999947953 0 0 0.87698901648812122 0.1160638338657984 0 0.71508993406183785 0.15715956854777599 0 0.71508993406183785 0.15715956854777599 0 0.87698901648812122 0.1160638338657984 0 0.86087286690217635 0.25206523597959418 0 1 0.16666666666736049 0 0.86087286690217635 0.25206523597959418 0 0.87698901648812122 0.1160638338657984 0 0.81249999999947953 0 0 1 0 0 0.87698901648812122 0.1160638338657984 0 1 0.16666666666736049 0 0.87698901648812122 0.1160638338657984 0 1 0 0 
</DataArray>
</Points>
<Cells>
<DataArray type="UInt32" Name="connectivity" format="ascii">
0 1 2 3 4 5 6 7 8 9 10 11 12 13 14 15 16 17 18 19 20 21 22 23 24 25 26 27 28 29 30 31 32 33 34 35 36 37 38 39 40 41 42 43 44 45 46 47 48 49 50 51 52 53 54 55 56 57 58 59 60 61 62 63 64 65 66 67 68 69 70 71 72 73 74 75 76 77 78 79 80 81 82 83 84 85 86 87 88 89 90 91 92 93 94 95 96 97 98 99 100 101 102 103 104 105 106 107 108 109 110 111 112 113 114 115 116 117 118 119 120 121 122 123 124 125 126 127 128 129 130 131 132 133 134 135 136 137 138 139 140 141 142 143 144 145 146 147 148 149 150 151 152 153 154 155 156 157 158 159 160 161 162 163 164 165 166 167 168 169 170 171 172 173 174 175 176 177 178 179 180 181 182 183 184 185 186 187 188 189 190 191 192 193 194 195 196 197 198 199 200 201 202 203 204 205 206 207 208 209 210 211 212 213 214 215 216 217 218 219 220 221 222 223 224 225 226 227 228 229 230 231 232 233 234 235 236 237 238 239 240 241 242 243 244 245 246 247 248 249 250 251 252 253 254 255 256 257 258 259 260 261 262 263 264 265 266 267 268 269 270 271 272 273 274 275 276 277 278 279 280 281 282 283 284 285 286 287 288 289 290 291 292 293 294 295 296 297 298 299 300 301 302 303 304 305 306 307 308 309 310 311 312 313 314 315 316 317 318 319 320 321 322 323 324 325 326 327 328 329 330 331 332 333 334 335 336 337 338 339 340 341 342 343 344 345 346 347 348 349 350 351 352 353 354 355 356 357 358 359 
</DataArray>
<DataArray type="UInt32" Name="offsets" format="ascii">
2 5 8 11 14 17 20 23 26 29 32 35 38 41 44 47 50 53 56 58 61 64 67 70 73 76 79 82 85 88 91 94 97 100 103 106 108 110 112 115 118 121 124 127 130 133 136 139 142 145 147 149 151 154 157 160 163 166 169 172 175 178 181 184 187 190 193 195 197 200 203 206 209 212 215 218 221 224 227 230 233 236 239 242 244 246 249 252 255 258 261 264 267 270 273 276 279 282 285 288 291 294 297 300 303 306 309 312 315 318 321 324 327 330 333 336 339 342 345 348 351 354 357 360 
</DataArray>
<DataArray type="UInt32" Name="types" format="ascii">
3 5 5 5 5 5 5 5 5 5 5 5 5 5 5 5 5 5 5 3 5 5 5 5 5 5 5 5 5 5 5 5 5 5 5 5 3 3 3 5 5 5 5 5 5 5 5 5 5 5 3 3 3 5 5 5 5 5 5 5 5 5 5 5 5 5 5 3 3 5 5 5 5 5 5 5 5 5 5 5 5 5 5 5 3 3 5 5 5 5 5 5 5 5 5 5 5 5 5 5 5 5 5 5 5 5 5 5 5 5 5 5 5 5 5 5 5 5 5 5 5 5 5 5 
</DataArray>
</Cells>
<PointData Scalars="age_conc,U235_conc," Vectors="" Tensors="">
<DataArray type="Float64" Name="age_conc" format="ascii">
111038.59963095631 107926.74742443445 115288.26660483023 115635.1694948621 115294.59180430595 115281.48447897552 115276.90233607533 115640.46709565747 115714.11362091561 115177.32539330218 115700.48028352611 116067.91271598701 116421.54292429591 112486.54945189646 115532.03214979396 115353.15089738937 115581.35880663974 111269.97504518941 115793.12114463747 117518.4788064762 115489.05614726532 116732.07526886226 115420.22538954609 111491.39653191325 117451.64785070032 115943.53195065187 112757.17185929215 116393.85099495047 115898.70377296921 112233.10974089164 111172.27697923154 117378.60271326129 115695.61335900772 115770.4862972268 115195.97754883944 115380.19724417308 115403.08755556449 115377.69404302358 115438.57728555035 115432.54213765355 115339.93858945007 115373.05989435286 115413.7519192631 115365.94402248188 115379.04651387957 115388.57678277265 115385.50087941797 115384.58990470722 115384.81606914962 115387.1276386244 110516.12087205908 108400.01925831697 119259.98669428796 115384.48073801093 115384.98348307246 115384.84768363641 108571.29393848308 103656.93217044861 107520.33713385911 118468.86200378303 118396.63548504171 107874.27595804421 118199.09916602574 118406.34669571625 115385.14635313916 115388.60906351055 115378.30948529652 105402.54166126804 104229.25234803648 121179.32044905142 109211.81032566476 109057.95540259892 117100.92146847592 110554.93715013303 86721.587724184923 110300.88579116562 116090.11569026446 114953.34493314092 115349.63917650418 103800.21586012695 104919.44269580813 121548.09125640789 115301.68955217421 115234.63967530735 115467.39218917827 115319.41317208861 115425.54024769591 115388.13873774976 108017.65296174026 110226.22039788027 119447.67535795354 115380.67237382251 115383.51727519438 115398.00547036939 110789.85719172045 111923.03083081031 117469.5994126774 115404.8997039863 115381.53374017682 115372.37090451544 115454.16406324036 115334.03561884786 115352.86178095826 115529.51057188481 115781.82930025013 114840.57693007626 108325.20668294629 111263.29422976874 104291.7501508025 108931.5083797757 104665.71373609397 96309.953313407736 115532.03863447129 115027.98627885051 115199.28887700273 115451.56646457924 115229.99726089723 115413.6974349392 118670.21398013513 117432.12751763771 113517.65336567778 114362.17818863803 116917.62836251882 115123.03222821219 121369.89760503171 113882.73814052304 112047.74254375587 114442.55574006871 116084.16047969715 115473.74119939508 124154.89848565916 110235.47139616428 115012.5444061477 14896.070772332252 12508.049359326502 148752.90844324097 27512.804886101592 135142.41235275997 131237.53936703809 29641.286326597503 107404.75685294817 139674.37515992674 129048.67616135535 106884.77560455381 117009.05572362694 97379.327827499845 105233.82266092706 82268.383130291724 99125.475037145545 97985.924333834642 81805.736587686421 123423.28168445283 115827.28164212861 115263.63115767737 29048.904788605476 117767.7907981445 133420.15845212078 17372.697040605912 16860.757604638926 158838.57569124023 9384.2751166119779 155966.74466688983 11591.347873905121 111213.22491685857 114548.07937301893 118706.00221236097 91099.406907971003 126080.09080935875 124149.97179005633 116554.25162406596 117874.08237914405 114110.15318356622 116131.33186892392 114855.60606558302 115041.50694865127 116440.6972088078 115140.3645264759 115535.2458494126 115880.92138412675 115153.36539827807 115331.83876378271 116255.21433870464 117002.88994005734 114544.89251699501 116291.77069866435 107469.1409020499 120377.104271759 95115.814839417828 124745.7163240567 105779.15893533808 115324.97159440948 115378.99973118036 115477.6158255319 67649.92597061889 83339.038924767694 49102.511623321778 69488.93686593679 115270.50803466786 115499.58415759892 115545.29840449452 114935.4089477026 116086.61210126519 115371.16981420149 115379.74107319803 115351.74869266193 115457.82747290281 115484.08944292432 115315.17886692668 115432.40632076778 85265.668517754384 75683.755227683447 134977.8241445983 74702.861098721842 133918.25684991118 127079.22723142816 109796.70870677507 120567.64197602055 111942.1939453917 47867.507782508794 118332.8299568146 112123.33780944925 104395.80296409996 30065.049784727657 122362.57099801378 114589.0470418101 3737.4132657152259 24836.6566651662 113502.71901157835 124324.23454746888 19471.193831291203 111332.16307625161 117237.92492099274 116271.84719456326 78673.47906082921 143805.75301623208 67036.649351825428 112434.20348620138 115656.34625180464 116228.53949323503 111947.62983503722 115045.61982463673 117475.7672875709 24930.581009930305 51566.911821854766 -1948.0139147116647 27324.524031175581 111165.56776229173 118526.31332741154 114703.99477734315 9520.2924225136976 8510.9167194615875 139902.33206540105 16119.906187852197 111867.88208016312 123310.46110391662 4972.950966327995 5152.6393560165598 138950.56393746918 4238.8791432724902 135268.75434509921 4238.8789574856073 13532.730204712825 152478.56193001958 13045.20868043197 20179.484873439156 118320.54149038994 123507.52092644596 28928.692610518483 132140.76689766051 111459.22808980472 122709.47138261783 117518.46983539753 110402.9100103536 116772.55270260856 115029.08604413776 115468.75629104291 112266.17745824915 116764.78347861199 114957.69137480861 13285.362968015444 150876.74086722024 11136.198233918822 10349.920037038151 11816.833123822526 150130.17128007003 130791.82699105579 110229.0272249819 27060.592556527758 12867.857702053105 13991.991837069232 151703.18757601664 25983.077073494671 130524.35557600718 113366.57563587671 119609.14044430239 115942.12268642407 113263.62396738016 115583.71279349946 114285.01926823278 115543.33453642536 122271.44858331647 119012.332596464 108235.16216873213 117628.04838519507 115488.70586719933 110766.92515681092 115339.16560590579 115677.42332531489 115216.86638390733 115969.55980939079 115058.07027694328 115742.01880871125 115384.62695858735 115344.77443290321 115414.41102227717 115432.88896199489 115327.67332215734 115370.14551614634 115376.56516967632 115392.67792421527 115372.2590592675 115393.0719150876 115381.38422485816 115394.56854193435 115439.67669589304 115362.01483620814 115329.58052985759 115373.75663394408 115376.90004200442 115577.94430041435 115424.21694937088 115356.93378303059 115376.62389194417 115376.59505114514 115382.35945158354 115391.18945565801 115473.33708468849 115008.36937761617 115612.72231497655 114833.53111119472 114897.90082158428 115818.40016802915 119645.73955685877 113380.30376061385 114449.70191191092 121536.68424676528 114396.59612730582 112371.82194389071 117688.83370095746 109796.40043887892 123375.42499468096 24097.006346276205 134542.16185682573 109134.73990352404 137616.46498111979 26769.369247459043 128617.08534835473 13897.386044441813 145230.75147832505 12481.055913595315 
</DataArray>
<DataArray type="Float64" Name="U235_conc" format="ascii">
0.029867331456065932 0.054139176713545033 0.00085432506462438697 -0.0022022673289768847 0.0014612430671273073 0.00089069073268548311 0.0015299264732678319 -0.0022515808074476239 -0.0019972930633473428 0.0034572733452623277 -0.0014599802819149847 -0.006053481041455297 -0.0097143213156846518 0.023517054401797573 -6.1028729222978469e-05 0.00044613727546527092 -0.0003851085462422925 0.034062873623924551 -0.0035493395793121199 -0.020261219341242288 0.0043381514665260697 -0.0091026411705597311 0.0047644897040336632 0.032279451591039607 -0.019498051544435031 -0.0047981134109981397 0.021323546182868122 -0.0094411991811015217 -0.0045832929225554219 0.023500308905086299 0.03328084308966623 -0.018003075816925007 -0.0016578708531077462 -0.0019650075570769284 0.0036228784101846739 8.4474626544151567e-05 -0.00018674335720090873 0.00010226873065675716 -0.00043448685320021484 -0.00046478342585579976 0.00089927027905601438 0.000115511873614741 -0.00034136584690128293 0.0002847416001932506 8.4676607906602946e-05 -4.6605117807863879e-05 -1.8236635022801114e-05 1.1743515380697835e-05 2.9145550295872812e-06 -1.4658070410285115e-05 0.037066131339577452 0.05634233111089338 -0.035339609990404405 1.9487216311998509e-06 -3.4469319763478323e-06 1.4982103451479809e-06 0.047204661258024555 0.085528663047349643 0.066303507804917491 -0.026952756247998713 -0.029305782501433533 0.063230932763512285 -0.027448167882263813 -0.026370760341843137 -4.0604817402374688e-06 -2.8687116924750801e-05 4.3639434477709588e-05 0.077358274763432711 0.085714959092763665 -0.053485793823178994 0.044300888354381861 0.045838912046974642 -0.016563616226516434 0.026401196409237063 0.22468772427808653 0.028894922599699113 -0.005715533236257877 0.0058285599455920999 -7.9680630913686579e-05 0.089266650608333706 0.081252749560921364 -0.056854486074107612 0.00093223982706413145 0.0020502662936084 -0.0012525882748867698 0.00082006564463092116 -0.00058031971138576739 -4.8476113538684999e-05 0.059474343655169438 0.039294903179086987 -0.037101994370006317 8.5438477858825552e-05 3.6964580329989352e-05 -0.00012240305818881492 0.036235022089924449 0.025773164044917495 -0.018883678538306328 -0.00019961355952383884 5.4247642005089333e-05 0.00014536591751874954 -0.00080214705775858179 0.00060826149129999073 0.00023185239746308838 -0.0016493278950429134 -0.0048949494154402751 0.0065702192155500608 0.051151188753147753 0.028299557846898755 0.080746123847097409 0.044660015285422378 0.074763666661874201 0.13988475188466065 -0.0020025830912180119 0.0048863934866421738 0.0014547764473063711 -0.00081577848581647848 0.001547666902460621 -0.00030187542174975329 -0.026812439195480056 -0.0035389112548366141 0.030351350450316665 0.013266952661752771 -0.010240522590616672 -1.1595146925880411e-05 -0.061303250349778349 0.014392041642239995 0.04825183185946158 0.01038752185442874 -0.0095631340324011174 0.004010722072053205 -0.082282201038000463 0.079735825968456048 0.0025463750695444171 0.7777670631055682 0.78047321979562434 -0.30326801040804091 0.72350723311826204 -0.1828548833812764 -0.17633074402898605 0.70259416599773861 0.060617352998397933 -0.26016708311093395 -0.13211439320820856 0.098633997522477257 0.033480395685731322 0.13174299948634491 0.070756086104965948 0.2441138932089896 0.11364888056957739 0.12234196701723216 0.24735486363486189 -0.075849067348414789 0.023059935817270144 0.052789131531144659 0.71764505911294652 -0.02645150034618567 -0.21351962599850341 0.76762430843652052 0.75709663032093311 -0.39493148670784983 0.81818030680757303 -0.37801926897277366 0.80276255304390309 0.031905962178648162 0.0082539726131115963 -0.032990410885812935 0.20579533915160547 -0.10230659348629177 -0.077087565026714461 -0.00075125510041123243 -0.018750610757024 0.019501865857435234 -0.0073407722506392244 0.0082854616878177152 0.0039859154644604445 -0.011103030502140156 0.0015531119320823725 0.014310082477538047 -0.004158973880466316 0.003643079931097395 0.00051589394936892106 -0.0026460348542456588 -0.011607583224482014 0.014253618078727675 -0.0072894663372579001 0.067637349660011906 -0.048875899628993642 0.16931870400471125 -0.089314692664293205 0.074050449969855381 3.0506562811957956e-05 -1.5436239393446499e-05 3.0109960159348045e-05 0.34981842207065911 0.23002333061368158 0.48579651346152747 0.33211875818622727 -0.00017296380603529086 -8.5535691682302837e-05 0.00091165284729131219 0.0012257233801221733 0.0016640372846483814 -0.00088306966456079203 -0.00026628855068679754 0.0011566456771381207 -0.00049778888957170133 -0.0012484333025073798 0.0013731871637820733 0.0018943361588437532 0.23219014948103123 0.32557488399760698 -0.18099143616759336 0.34854446733295191 -0.18541762780854029 -0.10579592156695042 0.044478078535026125 -0.046205486231860791 0.011310315006565728 0.56193710692948362 -0.043353869434914538 -0.0084013582092878694 0.039389255947723495 0.67728439807495167 -0.080188905779645547 -0.035039507690596092 0.84681532506483248 0.6776923197511322 -0.00087625343057422256 -0.12532168589818646 0.77079504212243799 0.028252840922888368 4.1584567837979871e-05 -0.028294425490726346 0.26419888214938841 -0.26388976935401953 0.3907626213946187 0.015520822360109087 -0.0038715480916246851 -0.0011405087671162485 0.02805250114037525 0.003546356269570684 -0.023107667953847479 0.66270935260525199 0.4654832776420218 0.85475854470327794 0.6493550335780387 0.046371126510781506 -0.019192171588761481 -0.027178954922020025 0.81281807657805327 0.80432116435365164 -0.22857607081400122 0.80173788963657378 0.014265328211949369 -0.12930548516320867 0.84053512355939064 0.83907388484166667 -0.2338708994367264 0.84352929453405467 -0.2024131655325716 0.84352929239834196 0.79169501480328242 -0.33880755231477921 0.78030220413015461 0.77690186920154691 -0.084436462215973077 -0.083753551917764874 0.70826774488488831 -0.19602598402731553 0.025147871534642818 -0.076734584503865749 0.016899451164497845 0.059835133339367907 -0.012908702989806679 0.0074457301500483837 0.0054629728397582993 0.025584670079374108 -0.001683676817726517 -0.0030167657883868578 0.7898360915193674 -0.32540536354782879 0.79478949241026897 0.80131406250117032 0.79991766687195787 -0.32096046050069504 -0.18627862838496528 0.035212206241414246 0.72244397114219572 0.78137619216413179 0.78664597175131312 -0.33183030211940889 0.73193520966906167 -0.18434550982420272 0.0076238356257738032 -0.049968350723366188 0.023487351865966413 0.026480998857399771 -0.0058505954241413697 0.0054108204311492701 0.0072131289487770336 -0.077844066516247146 -0.00094632284933569497 0.078790389365582844 -0.013430206566933767 -0.0052490297470642773 0.038931112845078678 0.0003724300952489823 -0.0017281065954237909 0.0013556765001748088 -0.0020225418487554853 0.0031568191468136554 -0.0011342772980581701 -1.9074193419734453e-05 0.00028177348489225544 -0.00016157573130894115 -0.00030786403693362844 0.0003205043416176659 0.00039053167902185465 4.5969871737444701e-05 -6.1686634610951481e-05 0.00010871087205122535 -1.5355639944320959e-05 -1.9494241545688182e-05 6.521602747071767e-05 -0.0022428464716633817 0.0058615260867029171 0.00015080393343570267 0.00037467847507746758 0.00050105789448894793 -0.00087573636956641545 -0.00081491179632639694 0.00057646109263985034 0.00024764200718220265 0.00010058152108445814 0.00014308131740232852 -0.00010671830134089048 -0.0011154398390774223 0.0049321527804819547 -0.0033823474808443799 0.0068934797699425092 0.0072421774467301457 -0.0069048645615541289 -0.042621847160230472 0.03257303903352296 0.010048808126707508 -0.057856369858099777 0.0061623720390021879 0.051693997819097587 0.016959438383161003 0.063583601757723957 -0.080543040140884967 0.74079863688278058 -0.21456529591848572 0.041002066227318792 -0.20511824064454248 0.72709356545413029 -0.15171292263350072 0.78414998298239702 -0.27201252680622795 0.77723286455854246 
</DataArray>
</PointData>
</Piece>
</UnstructuredGrid>
</VTKFile>
