<?xml version="1.0"?>
<VTKFile type="UnstructuredGrid" version="0.1" byte_order="LittleEndian">
<UnstructuredGrid>
<Piece NumberOfPoints="29" NumberOfCells="40">
<Points>
<DataArray type="Float64" NumberOfComponents="3" format="ascii">
0 0 0 0.14190641534369189 0.14141650744686629 0 0.24999999999941211 0 0 0.49999999999979922 0.1937830687830607 0 0.49999999999869432 0 0 0.27852182539674991 0.27558237801301472 0 0.49983771800902338 0.49985833874651858 0 0.19232253086417919 0.49821285681657179 0 0 0.25000000000104028 0 0 0.50000000000205869 0 0 1 0 0 0.75000000000034661 0 0.14409722222243571 0.85590277777792068 0 0.25000000000104028 1 0 0.27365336566739651 0.72631034485891277 0 0.72147817460319286 0.72147817460312347 0 0.50000000000205869 1 0 0.50146053791920198 0.80767746913577909 0 0.75000000000034661 1 0 0.85809358465621621 0.85809358465591867 0 1 1 0 1 0.74999999999934164 0 1 0.49999999999869432 0 0.80913800705467065 0.49967339473487049 0 1 0.24999999999941211 0 1 0 0 0.85809358465589014 0.14141650744641879 0 0.74999999999934164 0 0 0.72147817460309072 0.27558237801289098 0 
</DataArray>
</Points>
<Cells>
<DataArray type="UInt32" Name="connectivity" format="ascii">
8 0 1 5 8 1 2 5 1 2 1 0 2 3 5 2 4 3 5 6 7 5 3 6 9 8 7 5 7 8 9 7 11 11 7 14 13 12 14 10 12 13 11 14 12 10 11 12 16 13 17 13 14 17 14 6 17 14 7 6 15 17 6 15 6 23 18 17 15 18 16 17 21 20 19 15 21 19 18 15 19 18 19 20 22 21 23 15 23 21 24 22 23 24 23 28 27 26 28 24 28 26 27 25 26 24 26 25 27 28 3 27 3 4 28 6 3 28 23 6 
</DataArray>
<DataArray type="UInt32" Name="offsets" format="ascii">
3 6 9 12 15 18 21 24 27 30 33 36 39 42 45 48 51 54 57 60 63 66 69 72 75 78 81 84 87 90 93 96 99 102 105 108 111 114 117 120 
</DataArray>
<DataArray type="UInt32" Name="types" format="ascii">
5 5 5 5 5 5 5 5 5 5 5 5 5 5 5 5 5 5 5 5 5 5 5 5 5 5 5 5 5 5 5 5 5 5 5 5 5 5 5 5 
</DataArray>
</Cells>
<CellData Scalars="pressure_p0," Vectors="" Tensors="">
<DataArray type="Float64" Name="pressure_p0" format="ascii">
0.047302138353917153 0.14014274621796308 0.22347607869075747 0.13063547136812656 0.34284060539765482 0.41666666114080314 0.32356068804076132 0.42611984475344966 0.064107510283038627 0.15694811837035222 0.064107509604209453 0.15532529691921093 0.22258352819337912 0.13136574040948265 0.13925019512953324 0.048032407239855468 0.41715351146197904 0.34170463250417671 0.42498387177015889 0.32193786719711426 0.57425881119076894 0.67681796716737852 0.65764623816619205 0.58382017895469862 0.95269786160105552 0.85985725348897313 0.77652392122735914 0.86936452910129769 0.93637933610461332 0.84353872763173277 0.93637933650890592 0.84353872787167328 0.77652392010754823 0.85985725358539788 0.86936452821975618 0.95269786160471126 0.65715939314003902 0.58333332879978683 0.57377196565936783 0.67681796675016026 
</DataArray>
</CellData>
</Piece>
</UnstructuredGrid>
</VTKFile>
