<?xml version="1.0"?>
<VTKFile type="UnstructuredGrid" version="0.1" byte_order="LittleEndian">
<UnstructuredGrid>
<Piece NumberOfPoints="2400" NumberOfCells="800">
<Points>
<DataArray type="Float64" NumberOfComponents="3" format="ascii">
0.000000000000000e+00 0.000000000000000e+00 0.000000000000000e+00 0.000000000000000e+00 1.999999999995579e-01 0.000000000000000e+00 2.000000000000000e-01 1.999999999995579e-01 0.000000000000000e+00 0.000000000000000e+00 0.000000000000000e+00 0.000000000000000e+00 2.000000000000000e-01 1.999999999995579e-01 0.000000000000000e+00 2.000000000000000e-01 0.000000000000000e+00 0.000000000000000e+00 2.000000000000000e-01 0.000000000000000e+00 0.000000000000000e+00 2.000000000000000e-01 1.999999999995579e-01 0.000000000000000e+00 4.000000000000000e-01 1.999999999995579e-01 0.000000000000000e+00 2.000000000000000e-01 0.000000000000000e+00 0.000000000000000e+00 4.000000000000000e-01 1.999999999995579e-01 0.000000000000000e+00 4.000000000000000e-01 0.000000000000000e+00 0.000000000000000e+00 4.000000000000000e-01 0.000000000000000e+00 0.000000000000000e+00 4.000000000000000e-01 1.999999999995579e-01 0.000000000000000e+00 6.000000000000000e-01 1.999999999995579e-01 0.000000000000000e+00 4.000000000000000e-01 0.000000000000000e+00 0.000000000000000e+00 6.000000000000000e-01 1.999999999995579e-01 0.000000000000000e+00 6.000000000000000e-01 0.000000000000000e+00 0.000000000000000e+00 6.000000000000000e-01 0.000000000000000e+00 0.000000000000000e+00 6.000000000000000e-01 1.999999999995579e-01 0.000000000000000e+00 8.000000000000000e-01 1.999999999995579e-01 0.000000000000000e+00 6.000000000000000e-01 0.000000000000000e+00 0.000000000000000e+00 8.000000000000000e-01 1.999999999995579e-01 0.000000000000000e+00 8.000000000000000e-01 0.000000000000000e+00 0.000000000000000e+00 8.000000000000000e-01 0.000000000000000e+00 0.000000000000000e+00 8.000000000000000e-01 1.999999999995579e-01 0.000000000000000e+00 1.000000000000000e+00 1.999999999995579e-01 0.000000000000000e+00 8.000000000000000e-01 0.000000000000000e+00 0.000000000000000e+00 1.000000000000000e+00 1.999999999995579e-01 0.000000000000000e+00 1.000000000000000e+00 0.000000000000000e+00 0.000000000000000e+00 1.000000000000000e+00 0.000000000000000e+00 0.000000000000000e+00 1.000000000000000e+00 1.999999999995579e-01 0.000000000000000e+00 1.200000000000000e+00 1.999999999995579e-01 0.000000000000000e+00 1.000000000000000e+00 0.000000000000000e+00 0.000000000000000e+00 1.200000000000000e+00 1.999999999995579e-01 0.000000000000000e+00 1.200000000000000e+00 0.000000000000000e+00 0.000000000000000e+00 1.200000000000000e+00 0.000000000000000e+00 0.000000000000000e+00 1.200000000000000e+00 1.999999999995579e-01 0.000000000000000e+00 1.400000000000000e+00 1.999999999995579e-01 0.000000000000000e+00 1.200000000000000e+00 0.000000000000000e+00 0.000000000000000e+00 1.400000000000000e+00 1.999999999995579e-01 0.000000000000000e+00 1.400000000000000e+00 0.000000000000000e+00 0.000000000000000e+00 1.400000000000000e+00 0.000000000000000e+00 0.000000000000000e+00 1.400000000000000e+00 1.999999999995579e-01 0.000000000000000e+00 1.600000000000000e+00 1.999999999995579e-01 0.000000000000000e+00 1.400000000000000e+00 0.000000000000000e+00 0.000000000000000e+00 1.600000000000000e+00 1.999999999995579e-01 0.000000000000000e+00 1.600000000000000e+00 0.000000000000000e+00 0.000000000000000e+00 1.600000000000000e+00 0.000000000000000e+00 0.000000000000000e+00 1.600000000000000e+00 1.999999999995579e-01 0.000000000000000e+00 1.800000000000000e+00 1.999999999995579e-01 0.000000000000000e+00 1.600000000000000e+00 0.000000000000000e+00 0.000000000000000e+00 1.800000000000000e+00 1.999999999995579e-01 0.000000000000000e+00 1.800000000000000e+00 0.000000000000000e+00 0.000000000000000e+00 1.800000000000000e+00 0.000000000000000e+00 0.000000000000000e+00 1.800000000000000e+00 1.999999999995579e-01 0.000000000000000e+00 2.000000000000000e+00 1.999999999995579e-01 0.000000000000000e+00 1.800000000000000e+00 0.000000000000000e+00 0.000000000000000e+00 2.000000000000000e+00 1.999999999995579e-01 0.000000000000000e+00 2.000000000000000e+00 0.000000000000000e+00 0.000000000000000e+00 2.000000000000000e+00 0.000000000000000e+00 0.000000000000000e+00 2.000000000000000e+00 1.999999999995579e-01 0.000000000000000e+00 2.200000000000000e+00 1.999999999995579e-01 0.000000000000000e+00 2.000000000000000e+00 0.000000000000000e+00 0.000000000000000e+00 2.200000000000000e+00 1.999999999995579e-01 0.000000000000000e+00 2.200000000000000e+00 0.000000000000000e+00 0.000000000000000e+00 2.200000000000000e+00 0.000000000000000e+00 0.000000000000000e+00 2.200000000000000e+00 1.999999999995579e-01 0.000000000000000e+00 2.400000000000000e+00 1.999999999995579e-01 0.000000000000000e+00 2.200000000000000e+00 0.000000000000000e+00 0.000000000000000e+00 2.400000000000000e+00 1.999999999995579e-01 0.000000000000000e+00 2.400000000000000e+00 0.000000000000000e+00 0.000000000000000e+00 2.400000000000000e+00 0.000000000000000e+00 0.000000000000000e+00 2.400000000000000e+00 1.999999999995579e-01 0.000000000000000e+00 2.600000000000000e+00 1.999999999995579e-01 0.000000000000000e+00 2.400000000000000e+00 0.000000000000000e+00 0.000000000000000e+00 2.600000000000000e+00 1.999999999995579e-01 0.000000000000000e+00 2.600000000000000e+00 0.000000000000000e+00 0.000000000000000e+00 2.600000000000000e+00 0.000000000000000e+00 0.000000000000000e+00 2.600000000000000e+00 1.999999999995579e-01 0.000000000000000e+00 2.800000000000000e+00 1.999999999995579e-01 0.000000000000000e+00 2.600000000000000e+00 0.000000000000000e+00 0.000000000000000e+00 2.800000000000000e+00 1.999999999995579e-01 0.000000000000000e+00 2.800000000000000e+00 0.000000000000000e+00 0.000000000000000e+00 2.800000000000000e+00 0.000000000000000e+00 0.000000000000000e+00 2.800000000000000e+00 1.999999999995579e-01 0.000000000000000e+00 3.000000000000000e+00 1.999999999995579e-01 0.000000000000000e+00 2.800000000000000e+00 0.000000000000000e+00 0.000000000000000e+00 3.000000000000000e+00 1.999999999995579e-01 0.000000000000000e+00 3.000000000000000e+00 0.000000000000000e+00 0.000000000000000e+00 3.000000000000000e+00 0.000000000000000e+00 0.000000000000000e+00 3.000000000000000e+00 1.999999999995579e-01 0.000000000000000e+00 3.200000000000000e+00 1.999999999995579e-01 0.000000000000000e+00 3.000000000000000e+00 0.000000000000000e+00 0.000000000000000e+00 3.200000000000000e+00 1.999999999995579e-01 0.000000000000000e+00 3.200000000000000e+00 0.000000000000000e+00 0.000000000000000e+00 3.200000000000000e+00 0.000000000000000e+00 0.000000000000000e+00 3.200000000000000e+00 1.999999999995579e-01 0.000000000000000e+00 3.400000000000000e+00 1.999999999995579e-01 0.000000000000000e+00 3.200000000000000e+00 0.000000000000000e+00 0.000000000000000e+00 3.400000000000000e+00 1.999999999995579e-01 0.000000000000000e+00 3.400000000000000e+00 0.000000000000000e+00 0.000000000000000e+00 3.400000000000000e+00 0.000000000000000e+00 0.000000000000000e+00 3.400000000000000e+00 1.999999999995579e-01 0.000000000000000e+00 3.600000000000000e+00 1.999999999995579e-01 0.000000000000000e+00 3.400000000000000e+00 0.000000000000000e+00 0.000000000000000e+00 3.600000000000000e+00 1.999999999995579e-01 0.000000000000000e+00 3.600000000000000e+00 0.000000000000000e+00 0.000000000000000e+00 3.600000000000000e+00 0.000000000000000e+00 0.000000000000000e+00 3.600000000000000e+00 1.999999999995579e-01 0.000000000000000e+00 3.800000000000000e+00 1.999999999995579e-01 0.000000000000000e+00 3.600000000000000e+00 0.000000000000000e+00 0.000000000000000e+00 3.800000000000000e+00 1.999999999995579e-01 0.000000000000000e+00 3.800000000000000e+00 0.000000000000000e+00 0.000000000000000e+00 3.800000000000000e+00 0.000000000000000e+00 0.000000000000000e+00 3.800000000000000e+00 1.999999999995579e-01 0.000000000000000e+00 4.000000000000000e+00 1.999999999995579e-01 0.000000000000000e+00 3.800000000000000e+00 0.000000000000000e+00 0.000000000000000e+00 4.000000000000000e+00 1.999999999995579e-01 0.000000000000000e+00 4.000000000000000e+00 0.000000000000000e+00 0.000000000000000e+00 4.000000000000000e+00 0.000000000000000e+00 0.000000000000000e+00 4.000000000000000e+00 1.999999999995579e-01 0.000000000000000e+00 4.200000000000000e+00 1.999999999995579e-01 0.000000000000000e+00 4.000000000000000e+00 0.000000000000000e+00 0.000000000000000e+00 4.200000000000000e+00 1.999999999995579e-01 0.000000000000000e+00 4.200000000000000e+00 0.000000000000000e+00 0.000000000000000e+00 4.200000000000000e+00 0.000000000000000e+00 0.000000000000000e+00 4.200000000000000e+00 1.999999999995579e-01 0.000000000000000e+00 4.400000000000000e+00 1.999999999995579e-01 0.000000000000000e+00 4.200000000000000e+00 0.000000000000000e+00 0.000000000000000e+00 4.400000000000000e+00 1.999999999995579e-01 0.000000000000000e+00 4.400000000000000e+00 0.000000000000000e+00 0.000000000000000e+00 4.400000000000000e+00 0.000000000000000e+00 0.000000000000000e+00 4.400000000000000e+00 1.999999999995579e-01 0.000000000000000e+00 4.600000000000000e+00 1.999999999995579e-01 0.000000000000000e+00 4.400000000000000e+00 0.000000000000000e+00 0.000000000000000e+00 4.600000000000000e+00 1.999999999995579e-01 0.000000000000000e+00 4.600000000000000e+00 0.000000000000000e+00 0.000000000000000e+00 4.600000000000000e+00 0.000000000000000e+00 0.000000000000000e+00 4.600000000000000e+00 1.999999999995579e-01 0.000000000000000e+00 4.800000000000000e+00 1.999999999995579e-01 0.000000000000000e+00 4.600000000000000e+00 0.000000000000000e+00 0.000000000000000e+00 4.800000000000000e+00 1.999999999995579e-01 0.000000000000000e+00 4.800000000000000e+00 0.000000000000000e+00 0.000000000000000e+00 4.800000000000000e+00 0.000000000000000e+00 0.000000000000000e+00 4.800000000000000e+00 1.999999999995579e-01 0.000000000000000e+00 5.000000000000000e+00 1.999999999995579e-01 0.000000000000000e+00 4.800000000000000e+00 0.000000000000000e+00 0.0000000000000
[...]
<PointData Scalars="conc_conc," Vectors="" Tensors="">
<DataArray type="Float64" Name="conc_conc" format="ascii">
4.848928739759786e-07 4.848928739760229e-07 3.497265674198939e-05 1.867099237870410e-05 3.136979422118601e-05 3.844243202462141e-05 5.605449674238413e-05 7.435500531056884e-05 -1.041537082096716e-04 1.103771247791337e-04 -6.485429954203146e-05 -3.949969661570859e-04 -6.309565264156227e-04 -1.731868486446013e-04 -1.316347873663500e-04 -1.314203639552976e-03 2.112548671564569e-04 -8.211964553640366e-04 -1.652733408630804e-03 -7.351910182783622e-04 5.326593533404003e-03 -3.852914903365926e-03 6.150004719183622e-03 6.065263472648874e-03 5.112897233870218e-03 4.618576256677720e-03 2.524289997779578e-02 2.939223112147449e-03 2.608529455214913e-02 2.864204950934099e-02 2.845934589111184e-02 2.560898692979448e-02 5.770098502941629e-02 2.866870747716731e-02 5.777495041160875e-02 6.113696833139978e-02 6.192771699977772e-02 5.908357183440059e-02 8.625930697834987e-02 6.454626619273757e-02 8.538245670848371e-02 8.637832573316764e-02 8.759650365450233e-02 8.741383198096486e-02 9.603102404325362e-02 9.069149351846720e-02 9.476746400852881e-02 9.271913117616500e-02 9.372691287270211e-02 9.618584400933108e-02 8.586587805412911e-02 9.567991880905563e-02 8.488060882368087e-02 8.153828813669900e-02 8.203944447459958e-02 8.525700098309280e-02 6.479958504050887e-02 8.252736291071877e-02 6.437429627534023e-02 6.164875247318585e-02 6.168730534685556e-02 6.403509404218254e-02 4.272215039231566e-02 6.121652251705326e-02 4.276726481617307e-02 4.143079057437261e-02 4.120081975310577e-02 4.219418732451097e-02 2.522470389716763e-02 4.039218608139748e-02 2.551128877688458e-02 2.535276695835580e-02 2.503924719741526e-02 2.500605880020068e-02 1.358122591548308e-02 2.428392878458592e-02 1.391665379318772e-02 1.438295966822875e-02 1.409793668005386e-02 1.357564771802497e-02 6.756272522817909e-03 1.354149630926425e-02 7.038568174528127e-03 7.669554976057038e-03 7.455739364780133e-03 6.844744295978760e-03 3.134576893493807e-03 7.099666504020463e-03 3.334626898429279e-03 3.885514454474560e-03 3.743673368419692e-03 3.238270078459270e-03 1.364499504260109e-03 3.536949358129681e-03 1.491091612157352e-03 1.886110220581021e-03 1.800046461763106e-03 1.448630868995300e-03 5.588640645535457e-04 1.688430573900737e-03 6.326034430642077e-04 8.832345508670189e-04 8.345036674708192e-04 6.161324780341740e-04 2.151459455919199e-04 7.775546293120380e-04 2.554255788426124e-04 4.012021667955034e-04 3.751065707993495e-04 2.500314758777359e-04 7.733258902444459e-05 3.473404642826765e-04 9.822631816095806e-05 1.775736580400090e-04 1.642297027348108e-04 9.695988955367217e-05 2.551181098743149e-05 1.511870438359257e-04 3.589710566160383e-05 7.686456165341571e-05 7.030149343541197e-05 3.590266468582173e-05 7.402525856259502e-06 6.436209957871695e-05 1.238279919327196e-05 3.263884537159241e-05 2.951639720446293e-05 1.264276149493630e-05 1.654371614458881e-06 2.688157725872616e-05 3.970813308601551e-06 1.363048135524996e-05 1.218696646676136e-05 4.193811250482734e-06 9.357489640235170e-08 1.104390541239917e-05 1.143018595657359e-06 5.610247654627605e-06 4.959375801471462e-06 1.283790766681817e-06 -1.969002003328794e-07 4.472910168015592e-06 2.677846677911933e-07 2.279958005991022e-06 1.992844663684098e-06 3.453322767343819e-07 -1.713079130521368e-07 1.789230842217064e-06 3.036664868258655e-08 9.162296569919824e-07 7.920026704681994e-07 6.975962968235951e-08 -1.037210160943424e-07 7.080081756009130e-07 -1.772732541430398e-08 3.645637902605839e-07 3.117273179310968e-07 1.204034990366210e-09 -5.441673749323389e-08 2.775177756068780e-07 -1.831940709535160e-08 1.437840891912950e-07 1.216521247476503e-07 -9.588219918071832e-09 -2.635622508218564e-08 1.078756021265054e-07 -1.141388043893738e-08 5.626314972338708e-08 4.711833621230527e-08 -7.514442365345982e-09 -1.211481961364896e-08 4.162580126475347e-08 -6.006305253549606e-09 2.186068427768204e-08 1.812813232766006e-08 -4.309505152845379e-09 -5.363466207451903e-09 1.595787131409584e-08 -2.894142768262958e-09 8.439811222146587e-09 6.933056165271023e-09 -2.171571674247716e-09 -2.307556411974567e-09 6.082395327332963e-09 -1.319396970605179e-09 3.239616982593068e-09 2.637404854554058e-09 -1.017263425129826e-09 -9.705082775002633e-10 2.306387035603430e-09 -5.786724367055872e-10 1.237016636471682e-09 9.984909471781604e-10 -4.543033848127845e-10 -4.006680967229571e-10 8.705243185071023e-10 -2.465760137256873e-10 4.700877385868819e-10 3.763831044140267e-10 -1.960726217634429e-10 -1.628665750281581e-10 3.272069406549207e-10 -1.027237941039327e-10 1.778608434291578e-10 1.413225722994766e-10 -8.245829537468426e-11 -6.533565617047208e-11 1.225270058442849e-10 -4.202229691445906e-11 6.702486264760589e-11 5.287404286497754e-11 -3.397535561696440e-11 -2.591386997615671e-11 4.572574947181105e-11 -1.693330196317815e-11 2.516427371662432e-11 1.971777880293858e-11 -1.376772832863542e-11 -1.017688936074246e-11 1.701147931104699e-11 -6.737254935481360e-12 9.415634121933684e-12 7.331223991707601e-12 -5.502284014221506e-12 -3.962053895498057e-12 6.310903581134315e-12 -2.651550107855822e-12 3.511902560034378e-12 2.718332529508310e-12 -2.173342026135627e-12 -1.530672903333510e-12 2.335130067964109e-12 -1.033773115663997e-12 1.306059500399512e-12 1.005376852971327e-12 -8.498416973165077e-13 -5.873095480948972e-13 8.619666305356807e-13 -3.997356188985051e-13 4.843968846740009e-13 3.709690925393824e-13 -3.294194414066190e-13 -2.239681505332141e-13 3.174746865822072e-13 -1.534498894993265e-13 1.792005639216588e-13 1.365848674500031e-13 -1.267160244224835e-13 -8.493921579250688e-14 1.166910461407173e-13 -5.852765681203326e-14 6.613804171363829e-14 5.018676496186015e-14 -4.841435471675030e-14 -3.205276488066687e-14 4.280933829154875e-14 -2.219508341769893e-14 2.435593381819284e-14 1.840587788317465e-14 -1.838669234369754e-14 -1.204095066146702e-14 1.567718347412543e-14 -8.373559595798463e-15 8.950786688729392e-15 6.738411003758050e-15 -6.945394118509511e-15 -4.504761348944077e-15 5.731602740921250e-15 -3.144431322571467e-15 3.283042079510630e-15 2.462858681472852e-15 -2.610904359579127e-15 -1.679015908184188e-15 2.092219031676215e-15 -1.175829021532933e-15 1.201990550316587e-15 8.987622155826671e-16 -9.772144726821596e-16 -6.236594645887803e-16 7.626067958165482e-16 -4.380086719385841e-16 4.393194279771971e-16 3.274996055805301e-16 -3.643092679752133e-16 -2.309250913080439e-16 2.775819264399238e-16 -1.625932804231509e-16 1.603078306218342e-16 1.191707894793241e-16 -1.353271616580373e-16 -8.525737804818714e-17 1.009039836768824e-16 -6.016303396904119e-17 5.840618907705884e-17 4.330610590642156e-17 -5.010333097128240e-17 -3.139226098643474e-17 3.663333914786488e-17 -2.219590365333477e-17 2.124818332179390e-17 1.571702295461590e-17 -1.849392326487097e-17 -1.152981365093130e-17 1.328356153231126e-17 -8.166284937514717e-18 7.719087405515575e-18 5.697028072289815e-18 -6.807208991962161e-18 -4.224712485783288e-18 4.810991709883320e-18 -2.996827978813125e-18 2.800309752013065e-18 2.062484841383468e-18 -2.499003320731673e-18 -1.544541709508698e-18 1.740368272440122e-18 -1.097098967002228e-18 1.014489752243669e-18 7.457539798300819e-19 -9.151360251329495e-19 -5.634655559335992e-19 6.288239009534619e-19 -4.007013311566321e-19 3.670159310148166e-19 2.693080019460235e-19 -3.343267840687552e-19 -2.051262987007332e-19 2.269243889673822e-19 -1.460200184586727e-19 1.325860570711384e-19 9.712333761102777e-20 -1.218567161554360e-19 -7.451833747040135e-20 8.178343676235278e-20 -5.309148682192803e-20 4.782430226715095e-20 3.497612997875170e-20 -4.431229376312602e-20 -2.701290111545006e-20 2.943269959609774e-20 -1.925915105356734e-20 1.722172825710165e-20 1.257543598542520e-20 -1.607580230784508e-20 -9.770024914742478e-21 1.057545885026040e-20 -6.969431098351940e-21 6.190028263348284e-21 4.513113985827311e-21 -5.817547219477541e-21 -3.524938500391110e-21 3.792843219692037e-21 -2.515450637896312e-21 2.220086446868304e-21 1.616185638457320e-21 -2.099576776698045e-21 -1.268265207780105e-21 1.357308924303817e-21 -9.052233932910223e-22 7.942090340671656e-22 5.772681283797210e-22 -7.554484995791306e-22 -4.548700616151940e-22 4.844403174492647e-22 -3.246544133983270e-22 2.832392789659071e-22 2.055327469761434e-22 -2.708659023252312e-22 -1.625285826810799e-22 1.723386650235588e-22 -1.159689920854388e-22 1.006270864276355e-22 7.288958246281011e-23 -9.671584738965059e-23 -5.780897273204966e-23 6.105961337824297e-23 -4.122421596376214e-23 3.558030962614136e-23 2.572113069217796e-23 -3.436005406111168e-23 -2.044698958336149e-23 2.152252999744860e-23 -1.456691324036957e-23 1.250554456562136e-23 9.019442825040261e-24 -1.213156354494851e-23 -7.181809311742083e-24 7.537022244452649e-24 -5.109144167066554e-24 4.362106424546713e-24 3.137519645323225e-24 -4.250304983155075e-24 -2.500492966791129e-24 2.617535207188707e-24 -1.775240671935904e-24 1.506898174802055e-24 1.080284775616948e-24 -1.474656867611226e-24 -8.609578886133357e-25 8.994078500651044e-25 -6.095377994125654e-25 5.141447007907743e-25 3.670876797749239e-25 -5.053450562300141e-25 -2.922574461070578e-25 3.048390516820382e-25 -2.061323420705128e-25 1.726469440831006e-25 1.226384593469087e-25 -1.704573945846111e-25 -9.741390955323991e-26 1.015090179703605e-25 -6.836119133782406e-26 5.679060038660787e-26 4.008009644261460e-26 -5.633841902632129e-26 -3.171201178730519e-26 3.303512586911805e-26 -2.210498809412459e-26 1.818616556013643e-26 1.272825553440892e-26 -1.813572339886500e-26 -1.001054102326925e-26 1.043359249028894e-26 -6.915489213290256e-27 5.622241493228635e-27 3.892281155891349e-27 -5.639910872263705e-27 -3.034351398222447e-27 3.167584008832626e-27 -2.071043874508190e-27 1.658630126480864e-27 1.131774290858383e-27 -1.675519404784916e-27 -8.711322989162758e-28 9.121635493365965e-28 -5.848927651562256e-28 4.593003849947879e-28 3.073153020980657e-28 -4.680265972499547e-28 -2.321941085882781e-28 2.444138724108992e-28 -1.523860480247032e-28 1.164961470045117e-28 7.584083362524892e-29 -1.200815070534942e-28 -5.573757883999955e-29 5.919607685830719e-29 -3.540540969496811e-29 2.603876182442206e-29 1.628935956495404e-29 -2.728735626109799e-29 -1.146267640999506e-29 1.236733482283968e-29 -6.932587926946122e-30 4.798531223590220e-30 2.821769551595588e-30 -5.165631709695755e-30 -1.842569551721014e-30 2.051278618644461e-30 -1.028494091476175e-30 6.381854565238074e-31 3.368826677164492e-31 -7.250065009729583e-31 -1.881916954871073e-31 2.271599853986965e-31 -8.988646333143615e-32 4.250014662789648e-32 1.737464717166004e-32 -5.717233114853538e-32 -5.216524191019593e-33 1.008268974192561e-32 -1.248348628687105e-33 -6.031567232706863e-34 -3.998561880524516e-34 -6.674546963845931e-34 3.040220226310918e-34 -1.128629011816280e-34 7.681933499071551e-35 1.520601678485554e-35 5.752545493050085e-07 5.752545493050935e-07 3.500749547242917e-05 1.889154595141890e-05 3.136550636149347e-05 3.835364057460401e-05 5.593412305559210e-05 7.432629935036622e-05 -1.048375718465185e-04 1.099058047146992e-04 -6.561071963022076e-05 -3.953344110822558e-04 -6.313135888146133e-04 -1.744559589220617e-04 -1.305293034833560e-04 -1.314374608622190e-03 2.118947152992138e-04 -8.166450448648421e-04 -1.645991192146931e-03 -7.323698534462329e-04 5.324656722739190e-03 -3.839033990860335e-03 6.145286327160655e-03 6.063920916937557e-03 5.117343623367307e-03 4.621282190837206e-03 2.518394778588994e-02 2.957196471547083e-03 2.601967508991214e-02 2.857488308044005e-02 2.839896493688433e-02 2.554838262568599e-02 5.749530568075568e-02 2.861600415939321e-02 5.756177481029612e-02 6.093531935278997e-02 6.172984871693249e-02 5.886507535541556e-02 8.587380952089629e-02 6.434285765319656e-02 8.499379390454422e-02 8.603990492005306e-02 8.725718583085354e-02 8.701288807030229e-02 9.553343784555249e-02 9.033868753729410e-02 9.427257463705724e-02 9.231445410939024e-02 9.331794298198048e-02 9.568058018230595e-02 8.537045287910673e-02 9.525867466103212e-02 8.439116841043599e-02 8.115491087818895e-02 8.165084736696995e-02 8.476380218706299e-02 6.439293891964529e-02 8.213235039095444e-02 6.397358303803245e-02 6.134279409406598e-02 6.137706174019566e-02 6.363624378073506e-02 4.243474500775060e-02 6.090525504911101e-02 4.248394819007415e-02 4.121667112828831e-02 4.098400816979648e-02 4.191516930965281e-02 2.504441264608892e-02 4.017725111188156e-02 2.533308704050160e-02 2.521761522070216e-02 2.490279247973598e-02 2.483210300086771e-02 1.347862326531809e-02 2.415010197130584e-02 1.381475996376441e-02 1.430441958784247e-02 1.401897420383745e-02 1.347688801622943e-02 6.702437663609691e-03 1.346479627407241e-02 6.984742156446573e-03 7.626877444202362e-03 7.413065928393585e-03 6.792863837280754e-03 3.108217932448963e-03 7.058573322390380e-03 3.308034202677966e-03 3.863569269105189e-03 3.721874625941244e-03 3.212744588652226e-03 1.352347318022839e-03 3.516122429362745e-03 1.478688764057880e-03 1.875330959723886e-03 1.789420722892648e-03 1.436759002575610e-03 5.535542568222281e-04 1.678351629461947e-03 6.271033852416620e-04 8.781389419389630e-04 8.295236547756785e-04 6.108756206703413e-04 2.129373208216819e-04 7.728624334969411e-04 2.530941658937527e-04 3.988699051817614e-04 3.728486548321109e-04 2.478033767715677e-04 7.645593953870142e-05 3.452263497318464e-04 9.727805378809792e-05 1.765350275893731e-04 1.632343691166775e-04 9.605237540487562e-05 2.517971714844786e-05 1.502606052321024e-04 3.552614443305481e-05 7.641271338594729e-05 6.987313249101082e-05 3.554652258972201e-05 7.282791388015640e-06 6.396562815202157e-05 1.224309811085953e-05 3.244617619546479e-05 2.933579434081375e-05 1.250792191390918e-05 1.613588396252060e-06 2.671531691034334e-05 3.920212886158423e-06 1.354973642447302e-05 1.211215610103631e-05 4.144565417948575e-06 8.066274200596391e-08 1.097539097357377e-05 1.125450220653093e-06 5.576912822888010e-06 4.928856792143790e-06 1.266477261302756e-06 -2.005616974476297e-07 4.445098195227392e-06 2.619804874177536e-07 2.266375004803271e-06 1.980557951655594e-06 3.395014717162973e-07 -1.721446171510378e-07 1.778087470324905e-06 2.856900005184333e-08 9.107581221349280e-07 7.871126957243143e-07 6.789707072605518e-08 -1.038048673172496e-07 7.035936711938863e-07 -1.823266829680204e-08 3.623819123386575e-07 3.098005965762119e-07 6.508942995846906e-10 -5.435375015250425e-08 2.757861199117035e-07 -1.843775092698030e-08 1.429217843097316e-07 1.208996132098444e-07 -9.734118748386034e-09 -2.629509496193487e-08 1.072021676464187e-07 -1.142944631550552e-08 5.592506423061596e-08 4.682669426523580e-08 -7.544171932476307e-09 -1.207739912206236e-08 4.136587861144310e-08 -6.000840258190316e-09 2.172907353866997e-08 1.801587297235787e-08 -4.310835037715633e-09 -5.343959852845817e-09 1.585821573307009e-08 -2.887773982836749e-09 8.388905436810056e-09 6.890105789334163e-09 -2.168312404495159e-09 -2.298216502344230e-09 6.044410979491564e-09 -1.315394088754858e-09 3.220041041577429e-09 2.621060371897659e-09 -1.014634783505079e-09 -9.662702673479535e-10 2.291984405722410e-09 -5.765794481023229e-10 1.229528212761627e-09 9.923010665966135e-10 -4.528014968946890e-10 -3.988161711159316e-10 8.650885561505874e-10 -2.455779230632028e-10 4.672368989812544e-10 3.740490401943460e-10 -1.953232892019118e-10 -1.620798005286802e-10 3.251639178229262e-10 -1.022739421136528e-10 1.767802886463181e-10 1.404458822179567e-10 -8.211125740005880e-11 -6.500868837459135e-11 1.217620030997095e-10 -4.182723208896468e-11 6.661694909322494e-11 5.254591679812237e-11 -3.382214282237738e-11 -2.578038768655005e-11 4.544026168607863e-11 -1.685108934920430e-11 2.501085634453941e-11 1.959536387692490e-11 -1.370233167408364e-11 -1.012319406351926e-11 1.690526495151315e-11 -6.703357828957785e-12 9.358131392184122e-12 7.285688822548697e-12 -5.475067636357693e-12 -3.940721290737906e-12 6.271497033568493e-12 -2.637817201801997e-12 3.490418350846639e-12 2.701440439089193e-12 -2.162237188811803e-12 -1.522287509981350e-12 2.320547100151785e-12 -1.028289030238652e-12 1.298056264789920e-12 9.991260488525445e-13 -8.453824776561317e-13 -5.840437236142838e-13 8.565826223587019e-13 -3.975718806384376e-13 4.814237411608317e-13 3.686613583968349e-13 -3.276522906692467e-13 -2.227064577926356e-13 3.154912123194195e-13 -1.526049119171440e-13 1.780988964074122e-13 1.357346987103331e-13 -1.260234565675530e-13 -8.445524450309164e-14 1.159617937936947e-13 -5.820058628765683e-14 6.573080903272369e-14 4.987418721023196e-14 -4.814549397578427e-14 -3.186829005641518e-14 4.254171695496680e-14 -2.206945464546846e-14 2.420573774220258e-14 1.829116776091806e-14 -1.828317185230213e-14 -1.197103102191402e-14 1.557914208189516e-14 -8.325631043689594e-15 8.895507838690945e-15 6.696387985706430e-15 -6.905820076605937e-15 -4.478394626030290e-15 5.695744244563025e-15 -3.126255494173873e-15 3.262737266575844e-15 2.447489167450633e-15 -2.595871183684962e-15 -1.669118455606465e-15 2.079123863882735e-15 -1.168973000856899e-15 1.194546169792983e-15 8.931496562617627e-16 -9.715356751114617e-16 -6.199595872504241e-16 7.578314602912502e-16 -4.354349117122212e-16 4.365948908585470e-16 3.254530415441691e-16 -3.621748113547529e-16 -2.295472173635882e-16 2.758429121624565e-16 -1.616312545348555e-16 1.593123530323461e-16 1.184255700614675e-16 -1.345284982650391e-16 -8.474601405123075e-17 1.002715185091764e-16 -5.980485252462302e-17 5.804304447289442e-17 4.303510969421015e-17 -4.980570356351216e-17 -3.120308304985662e-17 3.640360423031560e-17 -2.206302157285454e-17 2.111591187678644e-17 1.561860308401571e-17 -1.838342033194534e-17 -1.146003313458173e-17 1.320021423909455e-17 -8.117148530952369e-18 7.670979818483858e-18 5.661329009232003e-18 -6.766320538509794e-18 -4.199043527162476e-18 4.780789352311063e-18 -2.978713757726321e-18 2.782837977131338e-18 2.049552066144989e-18 -2.483921104818303e-18 -1.535123612372557e-18 1.729436813050474e-18 -1.090440094324559e-18 1.008153356183121e-18 7.410746382698037e-19 -9.095890378782583e-19 -5.600184692624314e-19 6.248720815268731e-19 -3.982600845660747e-19 3.647212408804873e-19 2.676170876297212e-19 -3.322923435006061e-19 -2.038676342149063e-19 2.254975348598272e-19 -1.451273379509814e-19 1.317562774964890e-19 9.651313576286164e-20 -1.211125427084210e-19 -7.405982614176206e-20 8.126892833207233e-20 -5.276589485603372e-20 4.752471658379164e-20 3.475624632982314e-20 -4.404079681927657e-20 -2.684626815434409e-20 2.924743877028340e-20 -1.914070058862976e-20 1.711374920832695e-20 1.249632996575699e-20 -1.597701322152178e-20 -9.709615824832528e-21 1.050885847965995e-20 -6.926453184685952e-21 6.151183790010688e-21 4.484707209249786e-21 -5.781699287253759e-21 -3.503096236578433e-21 3.768945119923063e-21 -2.499901003926666e-21 2.206143182548837e-21 1.606006998174535e-21 -2.086606557751044e-21 -1.260390658992631e-21 1.348752447848259e-21 -8.996150597026576e-22 7.892170611675805e-22 5.736304638165844e-22 -7.507708769903851e-22 -4.520405645208113e-22 4.813848982971305e-22 -3.226388391912063e-22 2.814576413692343e-22 2.042368620094418e-22 -2.691851576237111e-22 -1.615158356108297e-22 1.712511784411899e-22 -1.152476320578625e-22 9.999366055237070e-23 7.242976519879332e-23 -9.611453170907239e-23 -5.744817428609477e-23 6.067413298617609e-23 -4.096733292066051e-23 3.535618330191389e-23 2.555878588864362e-23 -3.414603432648423e-23 -2.031918366251788e-23 2.138659074551933e-23 -1.447599110915061e-23 1.242671746045717e-23 8.962485384753974e-24 -1.205587051369237e-23 -7.136855530551023e-24 7.489395557160319e-24 -5.077205215393698e-24 4.334592891779219e-24 3.117696473365256e-24 -4.223743751440968e-24 -2.484820687572011e-24 2.600987520561705e-24 -1.764127002750524e-24 1.497387772091515e-24 1.073456136124271e-24 -1.465427666274862e-24 -8.555549469338132e-25 8.937194439476005e-25 -6.057166694828645e-25 5.108979045538280e-25 3.647661803050549e-25 -5.021779140021733e-25 -2.904212227346963e-25 3.029102424711777e-25 -2.048384589831163e-25 1.715560660537056e-25 1.218625264677668e-25 -1.69387684