<?xml version="1.0"?>
<VTKFile type="UnstructuredGrid" version="0.1" byte_order="LittleEndian">
<UnstructuredGrid>
<Piece NumberOfPoints="2400" NumberOfCells="800">
<Points>
<DataArray type="Float64" NumberOfComponents="3" format="ascii">
0.000000000000000e+00 0.000000000000000e+00 0.000000000000000e+00 0.000000000000000e+00 1.999999999995579e-01 0.000000000000000e+00 2.000000000000000e-01 1.999999999995579e-01 0.000000000000000e+00 0.000000000000000e+00 0.000000000000000e+00 0.000000000000000e+00 2.000000000000000e-01 1.999999999995579e-01 0.000000000000000e+00 2.000000000000000e-01 0.000000000000000e+00 0.000000000000000e+00 2.000000000000000e-01 0.000000000000000e+00 0.000000000000000e+00 2.000000000000000e-01 1.999999999995579e-01 0.000000000000000e+00 4.000000000000000e-01 1.999999999995579e-01 0.000000000000000e+00 2.000000000000000e-01 0.000000000000000e+00 0.000000000000000e+00 4.000000000000000e-01 1.999999999995579e-01 0.000000000000000e+00 4.000000000000000e-01 0.000000000000000e+00 0.000000000000000e+00 4.000000000000000e-01 0.000000000000000e+00 0.000000000000000e+00 4.000000000000000e-01 1.999999999995579e-01 0.000000000000000e+00 6.000000000000000e-01 1.999999999995579e-01 0.000000000000000e+00 4.000000000000000e-01 0.000000000000000e+00 0.000000000000000e+00 6.000000000000000e-01 1.999999999995579e-01 0.000000000000000e+00 6.000000000000000e-01 0.000000000000000e+00 0.000000000000000e+00 6.000000000000000e-01 0.000000000000000e+00 0.000000000000000e+00 6.000000000000000e-01 1.999999999995579e-01 0.000000000000000e+00 8.000000000000000e-01 1.999999999995579e-01 0.000000000000000e+00 6.000000000000000e-01 0.000000000000000e+00 0.000000000000000e+00 8.000000000000000e-01 1.999999999995579e-01 0.000000000000000e+00 8.000000000000000e-01 0.000000000000000e+00 0.000000000000000e+00 8.000000000000000e-01 0.000000000000000e+00 0.000000000000000e+00 8.000000000000000e-01 1.999999999995579e-01 0.000000000000000e+00 1.000000000000000e+00 1.999999999995579e-01 0.000000000000000e+00 8.000000000000000e-01 0.000000000000000e+00 0.000000000000000e+00 1.000000000000000e+00 1.999999999995579e-01 0.000000000000000e+00 1.000000000000000e+00 0.000000000000000e+00 0.000000000000000e+00 1.000000000000000e+00 0.000000000000000e+00 0.000000000000000e+00 1.000000000000000e+00 1.999999999995579e-01 0.000000000000000e+00 1.200000000000000e+00 1.999999999995579e-01 0.000000000000000e+00 1.000000000000000e+00 0.000000000000000e+00 0.000000000000000e+00 1.200000000000000e+00 1.999999999995579e-01 0.000000000000000e+00 1.200000000000000e+00 0.000000000000000e+00 0.000000000000000e+00 1.200000000000000e+00 0.000000000000000e+00 0.000000000000000e+00 1.200000000000000e+00 1.999999999995579e-01 0.000000000000000e+00 1.400000000000000e+00 1.999999999995579e-01 0.000000000000000e+00 1.200000000000000e+00 0.000000000000000e+00 0.000000000000000e+00 1.400000000000000e+00 1.999999999995579e-01 0.000000000000000e+00 1.400000000000000e+00 0.000000000000000e+00 0.000000000000000e+00 1.400000000000000e+00 0.000000000000000e+00 0.000000000000000e+00 1.400000000000000e+00 1.999999999995579e-01 0.000000000000000e+00 1.600000000000000e+00 1.999999999995579e-01 0.000000000000000e+00 1.400000000000000e+00 0.000000000000000e+00 0.000000000000000e+00 1.600000000000000e+00 1.999999999995579e-01 0.000000000000000e+00 1.600000000000000e+00 0.000000000000000e+00 0.000000000000000e+00 1.600000000000000e+00 0.000000000000000e+00 0.000000000000000e+00 1.600000000000000e+00 1.999999999995579e-01 0.000000000000000e+00 1.800000000000000e+00 1.999999999995579e-01 0.000000000000000e+00 1.600000000000000e+00 0.000000000000000e+00 0.000000000000000e+00 1.800000000000000e+00 1.999999999995579e-01 0.000000000000000e+00 1.800000000000000e+00 0.000000000000000e+00 0.000000000000000e+00 1.800000000000000e+00 0.000000000000000e+00 0.000000000000000e+00 1.800000000000000e+00 1.999999999995579e-01 0.000000000000000e+00 2.000000000000000e+00 1.999999999995579e-01 0.000000000000000e+00 1.800000000000000e+00 0.000000000000000e+00 0.000000000000000e+00 2.000000000000000e+00 1.999999999995579e-01 0.000000000000000e+00 2.000000000000000e+00 0.000000000000000e+00 0.000000000000000e+00 2.000000000000000e+00 0.000000000000000e+00 0.000000000000000e+00 2.000000000000000e+00 1.999999999995579e-01 0.000000000000000e+00 2.200000000000000e+00 1.999999999995579e-01 0.000000000000000e+00 2.000000000000000e+00 0.000000000000000e+00 0.000000000000000e+00 2.200000000000000e+00 1.999999999995579e-01 0.000000000000000e+00 2.200000000000000e+00 0.000000000000000e+00 0.000000000000000e+00 2.200000000000000e+00 0.000000000000000e+00 0.000000000000000e+00 2.200000000000000e+00 1.999999999995579e-01 0.000000000000000e+00 2.400000000000000e+00 1.999999999995579e-01 0.000000000000000e+00 2.200000000000000e+00 0.000000000000000e+00 0.000000000000000e+00 2.400000000000000e+00 1.999999999995579e-01 0.000000000000000e+00 2.400000000000000e+00 0.000000000000000e+00 0.000000000000000e+00 2.400000000000000e+00 0.000000000000000e+00 0.000000000000000e+00 2.400000000000000e+00 1.999999999995579e-01 0.000000000000000e+00 2.600000000000000e+00 1.999999999995579e-01 0.000000000000000e+00 2.400000000000000e+00 0.000000000000000e+00 0.000000000000000e+00 2.600000000000000e+00 1.999999999995579e-01 0.000000000000000e+00 2.600000000000000e+00 0.000000000000000e+00 0.000000000000000e+00 2.600000000000000e+00 0.000000000000000e+00 0.000000000000000e+00 2.600000000000000e+00 1.999999999995579e-01 0.000000000000000e+00 2.800000000000000e+00 1.999999999995579e-01 0.000000000000000e+00 2.600000000000000e+00 0.000000000000000e+00 0.000000000000000e+00 2.800000000000000e+00 1.999999999995579e-01 0.000000000000000e+00 2.800000000000000e+00 0.000000000000000e+00 0.000000000000000e+00 2.800000000000000e+00 0.000000000000000e+00 0.000000000000000e+00 2.800000000000000e+00 1.999999999995579e-01 0.000000000000000e+00 3.000000000000000e+00 1.999999999995579e-01 0.000000000000000e+00 2.800000000000000e+00 0.000000000000000e+00 0.000000000000000e+00 3.000000000000000e+00 1.999999999995579e-01 0.000000000000000e+00 3.000000000000000e+00 0.000000000000000e+00 0.000000000000000e+00 3.000000000000000e+00 0.000000000000000e+00 0.000000000000000e+00 3.000000000000000e+00 1.999999999995579e-01 0.000000000000000e+00 3.200000000000000e+00 1.999999999995579e-01 0.000000000000000e+00 3.000000000000000e+00 0.000000000000000e+00 0.000000000000000e+00 3.200000000000000e+00 1.999999999995579e-01 0.000000000000000e+00 3.200000000000000e+00 0.000000000000000e+00 0.000000000000000e+00 3.200000000000000e+00 0.000000000000000e+00 0.000000000000000e+00 3.200000000000000e+00 1.999999999995579e-01 0.000000000000000e+00 3.400000000000000e+00 1.999999999995579e-01 0.000000000000000e+00 3.200000000000000e+00 0.000000000000000e+00 0.000000000000000e+00 3.400000000000000e+00 1.999999999995579e-01 0.000000000000000e+00 3.400000000000000e+00 0.000000000000000e+00 0.000000000000000e+00 3.400000000000000e+00 0.000000000000000e+00 0.000000000000000e+00 3.400000000000000e+00 1.999999999995579e-01 0.000000000000000e+00 3.600000000000000e+00 1.999999999995579e-01 0.000000000000000e+00 3.400000000000000e+00 0.000000000000000e+00 0.000000000000000e+00 3.600000000000000e+00 1.999999999995579e-01 0.000000000000000e+00 3.600000000000000e+00 0.000000000000000e+00 0.000000000000000e+00 3.600000000000000e+00 0.000000000000000e+00 0.000000000000000e+00 3.600000000000000e+00 1.999999999995579e-01 0.000000000000000e+00 3.800000000000000e+00 1.999999999995579e-01 0.000000000000000e+00 3.600000000000000e+00 0.000000000000000e+00 0.000000000000000e+00 3.800000000000000e+00 1.999999999995579e-01 0.000000000000000e+00 3.800000000000000e+00 0.000000000000000e+00 0.000000000000000e+00 3.800000000000000e+00 0.000000000000000e+00 0.000000000000000e+00 3.800000000000000e+00 1.999999999995579e-01 0.000000000000000e+00 4.000000000000000e+00 1.999999999995579e-01 0.000000000000000e+00 3.800000000000000e+00 0.000000000000000e+00 0.000000000000000e+00 4.000000000000000e+00 1.999999999995579e-01 0.000000000000000e+00 4.000000000000000e+00 0.000000000000000e+00 0.000000000000000e+00 4.000000000000000e+00 0.000000000000000e+00 0.000000000000000e+00 4.000000000000000e+00 1.999999999995579e-01 0.000000000000000e+00 4.200000000000000e+00 1.999999999995579e-01 0.000000000000000e+00 4.000000000000000e+00 0.000000000000000e+00 0.000000000000000e+00 4.200000000000000e+00 1.999999999995579e-01 0.000000000000000e+00 4.200000000000000e+00 0.000000000000000e+00 0.000000000000000e+00 4.200000000000000e+00 0.000000000000000e+00 0.000000000000000e+00 4.200000000000000e+00 1.999999999995579e-01 0.000000000000000e+00 4.400000000000000e+00 1.999999999995579e-01 0.000000000000000e+00 4.200000000000000e+00 0.000000000000000e+00 0.000000000000000e+00 4.400000000000000e+00 1.999999999995579e-01 0.000000000000000e+00 4.400000000000000e+00 0.000000000000000e+00 0.000000000000000e+00 4.400000000000000e+00 0.000000000000000e+00 0.000000000000000e+00 4.400000000000000e+00 1.999999999995579e-01 0.000000000000000e+00 4.600000000000000e+00 1.999999999995579e-01 0.000000000000000e+00 4.400000000000000e+00 0.000000000000000e+00 0.000000000000000e+00 4.600000000000000e+00 1.999999999995579e-01 0.000000000000000e+00 4.600000000000000e+00 0.000000000000000e+00 0.000000000000000e+00 4.600000000000000e+00 0.000000000000000e+00 0.000000000000000e+00 4.600000000000000e+00 1.999999999995579e-01 0.000000000000000e+00 4.800000000000000e+00 1.999999999995579e-01 0.000000000000000e+00 4.600000000000000e+00 0.000000000000000e+00 0.000000000000000e+00 4.800000000000000e+00 1.999999999995579e-01 0.000000000000000e+00 4.800000000000000e+00 0.000000000000000e+00 0.000000000000000e+00 4.800000000000000e+00 0.000000000000000e+00 0.000000000000000e+00 4.800000000000000e+00 1.999999999995579e-01 0.000000000000000e+00 5.000000000000000e+00 1.999999999995579e-01 0.000000000000000e+00 4.800000000000000e+00 0.000000000000000e+00 0.0000000000000
[...]
<PointData Scalars="conc_conc," Vectors="" Tensors="">
<DataArray type="Float64" Name="conc_conc" format="ascii">
1.441082605769331e-04 1.441082605769332e-04 7.835919785705874e-06 3.687763364635572e-04 -2.995932634184206e-05 -2.378511805800206e-04 -4.091023323852716e-04 -3.613337558098795e-05 -1.078168192445658e-03 -1.167227550466865e-03 -6.719016935874448e-04 -2.132219695458910e-03 -3.561718483962513e-03 -2.274230089825425e-03 5.308454745191744e-03 -7.465705027900102e-03 6.724751360092187e-03 7.007563088897450e-03 5.464201546609912e-03 4.134799261811224e-03 3.729866492824224e-02 2.336137731087724e-03 3.861253579145830e-02 4.344870768520641e-02 4.376652140435582e-02 3.889791901178515e-02 8.569630933495485e-02 4.606503745011903e-02 8.519458869849013e-02 8.910800395298012e-02 9.096750727263786e-02 8.845572236873836e-02 1.144580815199381e-01 9.629897174754390e-02 1.124653654441836e-01 1.107389052995924e-01 1.125773525592609e-01 1.153335633743353e-01 1.071363178194143e-01 1.163801156509036e-01 1.052898580085817e-01 1.002645816844575e-01 1.011782353567475e-01 1.060613977719302e-01 7.771303721633425e-02 1.020645133244762e-01 7.693175819007221e-02 7.282955696857284e-02 7.285942071125864e-02 7.626628683313597e-02 4.650479132742491e-02 7.194626460126383e-02 4.663539111687678e-02 4.504850602503079e-02 4.462709742183749e-02 4.565433638428971e-02 2.392133253920923e-02 4.328015372797198e-02 2.443872807666748e-02 2.469415966737678e-02 2.419435022321426e-02 2.370925054393121e-02 1.086726859236263e-02 2.310799294239410e-02 1.138902937266488e-02 1.233635977462068e-02 1.193879644694713e-02 1.098689054505814e-02 4.434023824535667e-03 1.125381422091352e-02 4.812438394794488e-03 5.731041805677690e-03 5.472016374575866e-03 4.632061518879048e-03 1.637499687089940e-03 5.099147615235576e-03 1.867253911702713e-03 2.513220404485767e-03 2.365039255267608e-03 1.799848775223450e-03 5.458028003184196e-04 2.181508951030081e-03 6.697879327617296e-04 1.052154444643952e-03 9.750419702292748e-04 6.494674708908811e-04 1.608051634799213e-04 8.911433920436652e-04 2.222062569464361e-04 4.241655067691220e-04 3.868627371948777e-04 2.181345061962355e-04 3.912976606749933e-05 3.506200197064623e-04 6.759520806492369e-05 1.657722093243243e-04 1.487495610810361e-04 6.788193096348593e-05 5.839678127080217e-06 1.337760664617123e-04 1.836142482263641e-05 6.313846151499093e-05 5.573209537468122e-05 1.925491736781781e-05 -1.155671560986067e-06 4.976387394737618e-05 4.122036968941109e-06 2.353379482591517e-05 2.043661223100116e-05 4.762560926526238e-06 -1.608667470499263e-06 1.812658364781988e-05 5.383275692587900e-07 8.612938764855157e-06 7.360289917475888e-06 8.876107169453595e-07 -9.899504815929401e-07 6.487700143977243e-06 -1.421904877484871e-07 3.103391956618001e-06 2.610950206634105e-06 2.494882368241001e-08 -4.905817171777637e-07 2.288013700970725e-06 -1.642124067839144e-07 1.103299007998769e-06 9.143722578003335e-07 -9.041144198187176e-08 -2.182788839258710e-07 7.969145621404058e-07 -9.533658534645502e-08 3.876992679590095e-07 3.167281969435690e-07 -6.452328568091906e-08 -9.084655968181284e-08 2.746378743257500e-07 -4.539746115711125e-08 1.348591463685812e-07 1.086826919410059e-07 -3.305954700542496e-08 -3.609479391680690e-08 9.379261669291204e-08 -1.956612869342540e-08 4.649226648523657e-08 3.699100759919863e-08 -1.478505322351247e-08 -1.385349142984546e-08 3.178210109296889e-08 -7.928018770497708e-09 1.590162641406189e-08 1.250117183671272e-08 -6.123627064476352e-09 -5.175570446217568e-09 1.069678355232610e-08 -3.077946891778031e-09 5.400572962728469e-09 4.198592432827715e-09 -2.411661916797956e-09 -1.892011114578070e-09 3.578938830449984e-09 -1.157688299035803e-09 1.822623943551209e-09 1.402401945395332e-09 -9.161233863474392e-10 -6.793829296266099e-10 1.191234117344255e-09 -4.248486454854623e-10 6.116311734703105e-10 4.661481833848200e-10 -3.386220113042697e-10 -2.403172546943677e-10 3.946774883911051e-10 -1.528641171870007e-10 2.042005327015146e-10 1.542709434040059e-10 -1.224948603758117e-10 -8.392885681600545e-11 1.302295033534091e-10 -5.411747440115369e-11 6.785904546868822e-11 5.085638819884200e-11 -4.354474077308736e-11 -2.899163431542491e-11 4.281383250759449e-11 -1.890091848596767e-11 2.245565617521264e-11 1.670603824864387e-11 -1.525722389325616e-11 -9.919789602202319e-12 1.402894769314860e-11 -6.525832382200723e-12 7.402409235660000e-12 5.470298151495157e-12 -5.281217483582570e-12 -3.366073436094777e-12 4.583197774462921e-12 -2.231038747232525e-12 2.431610218838880e-12 1.786004944466039e-12 -1.809225276369420e-12 -1.133896853388585e-12 1.493250047403972e-12 -7.562620258454366e-13 7.961908482084669e-13 5.815643040148862e-13 -6.142955568088809e-13 -3.795091651140573e-13 4.853105631742539e-13 -2.544518136476966e-13 2.599311763626601e-13 1.889090681627703e-13 -2.069659745702151e-13 -1.262947820823848e-13 1.573694946806561e-13 -8.505551104593291e-14 8.462948725338220e-14 6.122569120225151e-14 -6.925963533133968e-14 -4.181522654949208e-14 5.092310393699210e-14 -2.826810985510571e-14 2.748535737287054e-14 1.980237129012867e-14 -2.303963028296199e-14 -1.378175336536508e-14 1.644651406698589e-14 -9.347010836275099e-15 8.906002877090607e-15 6.392523837772143e-15 -7.624037135504907e-15 -4.523766586462164e-15 5.302263309809739e-15 -3.076624120759869e-15 2.879676485514058e-15 2.059973052019435e-15 -2.511106481214395e-15 -1.479451713615158e-15 1.706611204016013e-15 -1.008585762139854e-15 9.292974420524327e-16 6.627371432635122e-16 -8.236384918743470e-16 -4.822406671655797e-16 5.484609832946575e-16 -3.294362472503803e-16 2.993508508008490e-16 2.128938546111594e-16 -2.691477604731298e-16 -1.567214010302799e-16 1.760118577429700e-16 -1.072532367627275e-16 9.626754413391624e-17 6.829263626995758e-17 -8.765851805200197e-17 -5.079456496604719e-17 5.641130266196584e-17 -3.481533532551606e-17 3.091054991931032e-17 2.187843977066266e-17 -2.846377174198066e-17 -1.642251928885220e-17 1.805749492860463e-17 -1.127134471939460e-17 9.910831237926341e-18 7.000507443852182e-18 -9.217511871301687e-18 -5.297766845000227e-18 5.773666540902452e-18 -3.640282448401928e-18 3.173471268219367e-18 2.237426718350524e-18 -2.977628446046752e-18 -1.705542411668218e-18 1.844085534236681e-18 -1.173127047613798e-18 1.014893771873108e-18 7.143420443497261e-19 -9.597586369640475e-19 -5.480562959018361e-19 5.884027826869179e-19 -3.773033375464219e-19 3.241935423709693e-19 2.278401301998567e-19 -3.087276636414617e-19 -1.758118651714595e-19 1.875679116219894e-19 -1.211285592012172e-19 1.034470029617093e-19 7.260153115485468e-20 -9.912599059948532e-20 -5.631065072630845e-20 5.973859269533053e-20 -3.882199247477227e-20 3.297530810630266e-20 2.311393790116758e-20 -3.177345850348442e-20 -1.800956047430884e-20 1.901002696580446e-20 -1.242339513827214e-20 1.050122608211096e-20 7.352437791225061e-21 -1.016864982303113e-20 -5.752128008915573e-21 6.044440807017733e-21 -3.969909889247565e-21 3.341093879014805e-21 2.336842824306864e-21 -3.249610488045845e-21 -1.834851370757621e-21 1.920367510211564e-21 -1.266881498154905e-21 1.062051886322510e-21 7.421189829774173e-22 -1.037065010375228e-21 -5.845811140723578e-22 6.096354180039764e-22 -4.037690852717565e-22 3.372983044954947e-22 2.354836460106112e-22 -3.305323388561707e-22 -1.860261607353039e-22 1.933785910369769e-22 -1.285247513455625e-22 1.070254552473774e-22 7.465834543111667e-23 -1.052130421115397e-22 -5.912750820309278e-23 6.128911596657696e-23 -4.085997126159664e-23 3.392697350509102e-23 2.364833774667816e-23 -3.344819147280057e-23 -1.877053559030434e-23 1.940734294239653e-23 -1.297331062015108e-23 1.074367221463325e-23 7.483157767293729e-24 -1.061952735276290e-23 -5.951148924512324e-24 6.139175608921963e-24 -4.113463969235112e-24 3.398236193104355e-24 2.365192834413384e-24 -3.366875915560674e-24 -1.884094014352623e-24 1.939750586148067e-24 -1.302280165144105e-24 1.073405867659921e-24 7.465383851710916e-25 -1.065786554993695e-24 -5.955118656136969e-25 6.120321619690873e-25 -4.115686608936477e-25 3.385049301070473e-25 2.352397164876653e-25 -3.367677535019627e-25 -1.878588313795791e-25 1.927776308499330e-25 -1.298010878061502e-25 1.065348441547098e-25 7.397109560404941e-26 -1.061836560414836e-25 -5.912078036836637e-26 6.059036345276332e-26 -4.083310893796798e-26 3.344407632241999e-26 2.319864319274225e-26 -3.339196821261093e-26 -1.855073937981320e-26 1.899149087681752e-26 -1.280474188268593e-26 1.046514362419213e-26 7.250795648076347e-27 -1.046639055983139e-26 -5.798972150494138e-27 5.931723486215246e-27 -3.999303582339911e-27 3.261118615468479e-27 2.256301987095290e-27 -3.266905068585629e-27 -1.804058601303065e-27 1.844228754913955e-27 -1.242683946542595e-27 1.010764107978249e-27 6.981096530287412e-28 -1.014253007230419e-27 -5.577658557615875e-28 5.699816993754007e-28 -3.835725343240160e-28 3.110939132102734e-28 2.143925364311265e-28 -3.127123907375559e-28 -1.710616106493826e-28 1.747953579926846e-28 -1.173773584129549e-28 9.487827169920864e-29 6.520223720697148e-29 -9.555079485515673e-29 -5.191538084092127e-29 5.306207290207890e-29 -3.551711694617567e-29 2.859296098673902e-29 1.957835654563738e-29 -2.885559539133257e-29 -1.554139660046790e-29 1.589493240360704e-29 -1.059040515832716e-29 8.483293162591007e-30 5.781322937771001e-30 -8.581629724005691e-30 -4.569750083073412e-30 4.678968259340520e-30 -3.097619447220260e-30 2.465783095563867e-30 1.670033802614566e-30 -2.501387715026964e-30 -1.312344085609295e-30 1.346044510048425e-30 -8.833599218186072e-31 6.975569655145458e-31 4.685914252066910e-31 -7.100524287012820e-31 -3.652944231398578e-31 3.756283234884761e-31 -2.435900063596110e-31 1.903544632555589e-31 1.264842851864184e-31 -1.945967861714865e-31 -9.752796002565242e-32 1.006535791993414e-31 -6.421732195125856e-32 4.949049660863576e-32 3.240343578985583e-32 -5.087572223866397e-32 -2.460928388037809e-32 2.553183944050674e-32 -1.592625973287084e-32 1.204345562952325e-32 7.726976878467865e-33 -1.247404325597109e-32 -5.743844703658664e-33 6.005539721068070e-33 -3.628606730773828e-33 2.671444021783639e-33 1.665536368344552e-33 -2.796828815345226e-33 -1.199740917194885e-33 1.269520566194780e-33 -7.320293292077683e-34 5.178972895033823e-34 3.095467257140657e-34 -5.512547781023242e-34 -2.123285124468870e-34 2.292435085344170e-34 -1.229032633677412e-34 8.154798061432660e-35 4.561059371752609e-35 -8.933382223447040e-35 -2.875291757003326e-35 3.228328055304504e-35 -1.525153421669190e-35 8.976882453647423e-36 4.459385751059313e-36 -1.046172364869181e-35 -2.345765226463991e-36 2.919861165646011e-36 -1.042845173377881e-36 4.435583506892359e-37 1.613880218276906e-37 -6.435136944589431e-37 -3.345283634392761e-38 9.105629372697247e-38 -2.510530338220974e-39 -1.032888726061252e-38 -5.006282017149437e-39 -1.908327018528684e-39 2.363697740785313e-39 -1.402595283552843e-39 4.654852374904192e-40 4.005265233995491e-40 1.445465146044290e-04 1.445465146044297e-04 6.441096851117725e-06 3.690908052757625e-04 -3.147651043910310e-05 -2.395404312166282e-04 -4.116544518470648e-04 -3.903051787081541e-05 -1.077610528299216e-03 -1.171651066525510e-03 -6.712955368604502e-04 -2.126232407160865e-03 -3.553147199048514e-03 -2.271003829681249e-03 5.317189836427871e-03 -7.445566955694777e-03 6.729935291182577e-03 7.015152459414691e-03 5.481598173046064e-03 4.154440402290030e-03 3.722364676580563e-02 2.377147723876274e-03 3.852612821369920e-02 4.334883128871152e-02 4.367647062588698e-02 3.881706314841259e-02 8.538061533313129e-02 4.598026803195603e-02 8.486812183851764e-02 8.879814328298574e-02 9.065983789206648e-02 8.811283095423392e-02 1.139038301073577e-01 9.597233960064069e-02 1.119112906965049e-01 1.102741080651083e-01 1.121070529969669e-01 1.147586663427257e-01 1.065216677452223e-01 1.158873213821355e-01 1.046842635150757e-01 9.979346275870354e-02 1.006988739707026e-01 1.054471343539265e-01 7.720980450844453e-02 1.015736154180523e-01 7.643840403827354e-02 7.246031808595427e-02 7.248359962865601e-02 7.577601940244570e-02 4.617360819457125e-02 7.156956600132622e-02 4.631032105319642e-02 4.480727785644580e-02 4.438234994682320e-02 4.533658105970288e-02 2.373661308333657e-02 4.303933333873116e-02 2.425631048026049e-02 2.455637682025980e-02 2.405541343714803e-02 2.353317671063856e-02 1.077684972871978e-02 2.297343127356506e-02 1.129877109736705e-02 1.226529208697749e-02 1.186776010183119e-02 1.090057393330603e-02 4.394260478373677e-03 1.118594816354242e-02 4.772106044582759e-03 5.697170603309378e-03 5.438534466682299e-03 4.593731405696056e-03 1.621547218055408e-03 5.067540971101380e-03 1.850703424925745e-03 2.498051498301793e-03 2.350240312895800e-03 1.784174351735590e-03 5.399135406629360e-04 2.167687425202360e-03 6.634805512962538e-04 1.045690734763025e-03 9.688285265524913e-04 6.434976755145704e-04 1.588004303499625e-04 8.853962741301795e-04 2.199587459428367e-04 4.215197897328920e-04 3.843600712520150e-04 2.160017561328562e-04 3.850487909522435e-05 3.483256837471625e-04 6.684466283543533e-05 1.647243153821755e-04 1.477750688624741e-04 6.716490992045755e-05 5.665509304035237e-06 1.328900371675227e-04 1.812727450407696e-05 6.273455861319708e-05 5.536304630079542e-05 1.902835835243203e-05 -1.196159648938915e-06 4.943090492851966e-05 4.054614506001778e-06 2.338161205460609e-05 2.030002676952859e-05 4.695810391701210e-06 -1.614508010129836e-06 1.800424082367840e-05 5.209606448084220e-07 8.556688699385595e-06 7.310698548918016e-06 8.696468735878019e-07 -9.888648097263078e-07 6.443581811499248e-06 -1.458487066664497e-07 3.082937837730934e-06 2.593231609915044e-06 2.076192518166359e-08 -4.890935193983523e-07 2.272351478203839e-06 -1.646146158904189e-07 1.095965169165247e-06 9.081268997996952e-07 -9.111390961111278e-08 -2.173840500521398e-07 7.914272880072206e-07 -9.517490160095499e-08 3.851016085325676e-07 3.145521447529666e-07 -6.450610637340069e-08 -9.041235132839342e-08 2.727367837878184e-07 -4.524110085343914e-08 1.339488220791238e-07 1.079319653006161e-07 -3.296664943161307e-08 -3.590516021674708e-08 9.314023087264704e-08 -1.947972634844657e-08 4.617624079094904e-08 3.673421557156502e-08 -1.472490174707358e-08 -1.377585008992365e-08 3.156005409247233e-08 -7.888079000815878e-09 1.579282848965637e-08 1.241398499152694e-08 -6.094088322660518e-09 -5.145164819098240e-09 1.062174183035664e-08 -3.061105824675321e-09 5.363395554634567e-09 4.169182833262885e-09 -2.398808994807081e-09 -1.880489158058373e-09 3.553734632570690e-09 -1.150983046018934e-09 1.810004821614792e-09 1.392538517265418e-09 -9.109081402737431e-10 -6.751267677842342e-10 1.182814698366320e-09 -4.222831887474306e-10 6.073736617142683e-10 4.628570521209225e-10 -3.366015872173489e-10 -2.387768734389139e-10 3.918784891084788e-10 -1.519111382076052e-10 2.027719450628865e-10 1.531778041709027e-10 -1.217377769808192e-10 -8.338065039085005e-11 1.293029657885822e-10 -5.377149900584642e-11 6.738206676332540e-11 5.049479690073226e-11 -4.326813735323320e-11 -2.879925483218171e-11 4.250830143959791e-11 -1.877759982221179e-11 2.229712185531070e-11 1.658687470210623e-11 -1.515816227298136e-11 -9.853078727748134e-12 1.392854542574448e-11 -6.482534599781756e-12 7.349934599107597e-12 5.431160084591128e-12 -5.246309284889137e-12 -3.343175726746248e-12 4.550307479226081e-12 -2.216026973521128e-12 2.414306921511835e-12 1.773190069723584e-12 -1.797087653508306e-12 -1.126106811158407e-12 1.482506457725795e-12 -7.511125652059373e-13 7.905049710313204e-13 5.773802113578402e-13 -6.101225655231985e-13 -3.768793228016487e-13 4.818103526723740e-13 -2.527014968789594e-13 2.580687559805285e-13 1.875464942910671e-13 -2.055449785711175e-13 -1.254129814443495e-13 1.562318806492521e-13 -8.446526600067981e-14 8.402123968170299e-14 6.078302161179013e-14 -6.877973651142680e-14 -4.152132166849482e-14 5.055418236046571e-14 -2.807043594777679e-14 2.728724754348013e-14 1.965887520753138e-14 -2.287871738805898e-14 -1.368431438920712e-14 1.632711938963994e-14 -9.281209482040702e-15 8.841638416589810e-15 6.346102980586689e-15 -7.570419495820766e-15 -4.491615139279045e-15 5.263696505197289e-15 -3.054837075584489e-15 2.858813130073195e-15 2.044984340289317e-15 -2.493338909500174e-15 -1.468887710495720e-15 1.694175231561604e-15 -1.001406112206862e-15 9.225491118141414e-16 6.579059666849747e-16 -8.177794101983847e-16 -4.787828134819628e-16 5.444575059048380e-16 -3.270802454160073e-16 2.971723768547110e-16 2.113392025787756e-16 -2.672240082220335e-16 -1.555934223900485e-16 1.747249841788668e-16 -1.064830241990573e-16 9.556557809628419e-17 6.779311409436304e-17 -8.702931508502449e-17 -5.042774146738591e-17 5.599823582517186e-17 -3.456439078020998e-17 3.068473849260804e-17 2.171816578479421e-17 -2.825868814077746e-17 -1.630355847510844e-17 1.792508151991621e-17 -1.118983205547318e-17 9.838304993427263e-18 6.949150458644194e-18 -9.150873676271180e-18 -5.259285106229471e-18 5.731272141880665e-18 -3.613877692581493e-18 3.150211113930535e-18 2.220990492616775e-18 -2.956036005854739e-18 -1.693122750198480e-18 1.830527890304030e-18 -1.164594815494799e-18 1.007444011892620e-18 7.090878625563856e-19 -9.527797881681109e-19 -5.440563162062513e-19 5.840717619596876e-19 -3.745524908607986e-19 3.218105425210990e-19 2.261623336227555e-19 -3.064771991801153e-19 -1.745260549792817e-19 1.861857641959726e-19 -1.202434829285801e-19 1.026856375997332e-19 7.206631176927334e-20 -9.840179382725241e-20 -5.589804493341746e-20 5.929793552960014e-20 -3.853775480321819e-20 3.273232265241267e-20 2.294336665501549e-20 -3.154085567936892e-20 -1.787737242297587e-20 1.886966477755226e-20 -1.233227075752931e-20 1.042376007385213e-20 7.298127777443784e-21 -1.009407123278466e-20 -5.709841933597780e-21 5.999770562914145e-21 -3.940742701203210e-21 3.316421794726589e-21 2.319565857852096e-21 -3.225737314889099e-21 -1.821343362946233e-21 1.906163326979261e-21 -1.257559564877436e-21 1.054201741976266e-21 7.366276782541210e-22 -1.029434599401792e-21 -5.802718385186488e-22 6.051225944402871e-22 -4.007939819463362e-22 3.348029519095740e-22 2.337398202346734e-22 -3.280969920865489e-22 -1.846532094463768e-22 1.919460374550979e-22 -1.275765438996737e-22 1.062330196188357e-22 7.410507302857008e-23 -1.044368504002409e-22 -5.869064107979471e-23 6.083476683697351e-23 -4.055817357852562e-23 3.367557858174016e-23 2.347296621871772e-23 -3.320114566346106e-23 -1.863170786030312e-23 1.926337784672872e-23 -1.287738644868034e-23 1.066400570304898e-23 7.427628474897392e-24 -1.054100868390972e-23 -5.907092946096977e-24 6.093606745801244e-24 -4.083019636018707e-24 3.373020716102510e-24 2.347631203489199e-24 -3.341957564634025e-24 -1.870134220101368e-24 1.925344219599863e-24 -1.292633206241611e-24 1.065436044966693e-24 7.409921917837998e-25 -1.057891555890844e-24 -5.910960580120064e-25 6.074841897838517e-25 -4.085173640594693e-25 3.359901342217551e-25 2.334911474169123e-25 -3.342710296020282e-25 -1.864648141525608e-25 1.913443845518727e-25 -1.288380385139219e-25 1.057429522797643e-25 7.342098584017654e-26 -1.053958353537953e-25 -5.868177534998931e-26 6.013967635528674e-26 -4.052993962453679e-26 3.319535402376694e-26 2.302603869619074e-26 -3.314404584575227e-26 -1.841290368600465e-26 1.885016364687782e-26 -1.270961060339584e-26 1.038727756603857e-26 7.196824010257623e-27 -1.038863141221122e-26 -5.755859652385453e-27 5.887563210368612e-27 -3.969573508096769e-27 3.236843328953761e-27 2.239500153640753e-27 -3.242619338659857e-27 -1.790639080282032e-27 1.830493414802556e-27 -1.233440950019087e-27 1.003236961817163e-27 6.929090681602781e-28 -1.006708996585657e-27 -5.536148189804606e-28 5.657350222251068e-28 -3.807180810453418e-28 3.087762897507394e-28 2.127948312137788e-28 -3.103852363666838e-28 -1.697879302448877e-28 1.734925763683364e-28 -1.165034475572412e-28 9.417117782361738e-29 6.471616914969351e-29 -9.483938077617143e-29 -5.152866432776519e-29 5.266646132635027e-29 -3.525256363025836e-29 2.837979507453570e-29 1.943235793041702e-29 -2.864065828040393e-29 -1.542558234847776e-29 1.577638891634125e-29 -1.051148858552406e-29 8.420028022275036e-