<?xml version="1.0"?>
<VTKFile type="UnstructuredGrid" version="0.1" byte_order="LittleEndian">
<UnstructuredGrid>
<Piece NumberOfPoints="567" NumberOfCells="966">
<Points>
<DataArray type="Float64" NumberOfComponents="3" format="ascii">
0.000000000000000e+00 0.000000000000000e+00 0.000000000000000e+00 0.000000000000000e+00 1.000000000000000e+00 0.000000000000000e+00 1.600000000000000e+01 1.000000000000000e+00 0.000000000000000e+00 1.600000000000000e+01 0.000000000000000e+00 0.000000000000000e+00 0.000000000000000e+00 2.499999999993998e-01 0.000000000000000e+00 0.000000000000000e+00 4.999999999990217e-01 0.000000000000000e+00 0.000000000000000e+00 7.499999999993374e-01 0.000000000000000e+00 2.025316455691341e-01 1.000000000000000e+00 0.000000000000000e+00 4.050632911382681e-01 1.000000000000000e+00 0.000000000000000e+00 6.075949367074022e-01 1.000000000000000e+00 0.000000000000000e+00 8.101265822765362e-01 1.000000000000000e+00 0.000000000000000e+00 1.012658227845670e+00 1.000000000000000e+00 0.000000000000000e+00 1.215189873414804e+00 1.000000000000000e+00 0.000000000000000e+00 1.417721518983938e+00 1.000000000000000e+00 0.000000000000000e+00 1.620253164553072e+00 1.000000000000000e+00 0.000000000000000e+00 1.822784810122207e+00 1.000000000000000e+00 0.000000000000000e+00 2.025316455691340e+00 1.000000000000000e+00 0.000000000000000e+00 2.227848101260475e+00 1.000000000000000e+00 0.000000000000000e+00 2.430379746829609e+00 1.000000000000000e+00 0.000000000000000e+00 2.632911392398743e+00 1.000000000000000e+00 0.000000000000000e+00 2.835443037967877e+00 1.000000000000000e+00 0.000000000000000e+00 3.037974683537010e+00 1.000000000000000e+00 0.000000000000000e+00 3.240506329106145e+00 1.000000000000000e+00 0.000000000000000e+00 3.443037974675279e+00 1.000000000000000e+00 0.000000000000000e+00 3.645569620244413e+00 1.000000000000000e+00 0.000000000000000e+00 3.848101265813547e+00 1.000000000000000e+00 0.000000000000000e+00 4.050632911382726e+00 1.000000000000000e+00 0.000000000000000e+00 4.253164556952040e+00 1.000000000000000e+00 0.000000000000000e+00 4.455696202521353e+00 1.000000000000000e+00 0.000000000000000e+00 4.658227848090667e+00 1.000000000000000e+00 0.000000000000000e+00 4.860759493659981e+00 1.000000000000000e+00 0.000000000000000e+00 5.063291139229296e+00 1.000000000000000e+00 0.000000000000000e+00 5.265822784798610e+00 1.000000000000000e+00 0.000000000000000e+00 5.468354430367923e+00 1.000000000000000e+00 0.000000000000000e+00 5.670886075937237e+00 1.000000000000000e+00 0.000000000000000e+00 5.873417721506551e+00 1.000000000000000e+00 0.000000000000000e+00 6.075949367075864e+00 1.000000000000000e+00 0.000000000000000e+00 6.278481012645178e+00 1.000000000000000e+00 0.000000000000000e+00 6.481012658214492e+00 1.000000000000000e+00 0.000000000000000e+00 6.683544303783806e+00 1.000000000000000e+00 0.000000000000000e+00 6.886075949353121e+00 1.000000000000000e+00 0.000000000000000e+00 7.088607594922435e+00 1.000000000000000e+00 0.000000000000000e+00 7.291139240491749e+00 1.000000000000000e+00 0.000000000000000e+00 7.493670886061063e+00 1.000000000000000e+00 0.000000000000000e+00 7.696202531630375e+00 1.000000000000000e+00 0.000000000000000e+00 7.898734177199691e+00 1.000000000000000e+00 0.000000000000000e+00 8.101265822769285e+00 1.000000000000000e+00 0.000000000000000e+00 8.303797468339161e+00 1.000000000000000e+00 0.000000000000000e+00 8.506329113909036e+00 1.000000000000000e+00 0.000000000000000e+00 8.708860759478913e+00 1.000000000000000e+00 0.000000000000000e+00 8.911392405048788e+00 1.000000000000000e+00 0.000000000000000e+00 9.113924050618664e+00 1.000000000000000e+00 0.000000000000000e+00 9.316455696188541e+00 1.000000000000000e+00 0.000000000000000e+00 9.518987341758416e+00 1.000000000000000e+00 0.000000000000000e+00 9.721518987328292e+00 1.000000000000000e+00 0.000000000000000e+00 9.924050632898169e+00 1.000000000000000e+00 0.000000000000000e+00 1.012658227846805e+01 1.000000000000000e+00 0.000000000000000e+00 1.032911392403792e+01 1.000000000000000e+00 0.000000000000000e+00 1.053164556960780e+01 1.000000000000000e+00 0.000000000000000e+00 1.073417721517767e+01 1.000000000000000e+00 0.000000000000000e+00 1.093670886074755e+01 1.000000000000000e+00 0.000000000000000e+00 1.113924050631742e+01 1.000000000000000e+00 0.000000000000000e+00 1.134177215188730e+01 1.000000000000000e+00 0.000000000000000e+00 1.154430379745718e+01 1.000000000000000e+00 0.000000000000000e+00 1.174683544302705e+01 1.000000000000000e+00 0.000000000000000e+00 1.194936708859693e+01 1.000000000000000e+00 0.000000000000000e+00 1.215189873416701e+01 1.000000000000000e+00 0.000000000000000e+00 1.235443037973717e+01 1.000000000000000e+00 0.000000000000000e+00 1.255696202530733e+01 1.000000000000000e+00 0.000000000000000e+00 1.275949367087749e+01 1.000000000000000e+00 0.000000000000000e+00 1.296202531644764e+01 1.000000000000000e+00 0.000000000000000e+00 1.316455696201780e+01 1.000000000000000e+00 0.000000000000000e+00 1.336708860758796e+01 1.000000000000000e+00 0.000000000000000e+00 1.356962025315812e+01 1.000000000000000e+00 0.000000000000000e+00 1.377215189872827e+01 1.000000000000000e+00 0.000000000000000e+00 1.397468354429843e+01 1.000000000000000e+00 0.000000000000000e+00 1.417721518986859e+01 1.000000000000000e+00 0.000000000000000e+00 1.437974683543874e+01 1.000000000000000e+00 0.000000000000000e+00 1.458227848100890e+01 1.000000000000000e+00 0.000000000000000e+00 1.478481012657906e+01 1.000000000000000e+00 0.000000000000000e+00 1.498734177214921e+01 1.000000000000000e+00 0.000000000000000e+00 1.518987341771937e+01 1.000000000000000e+00 0.000000000000000e+00 1.539240506328953e+01 1.000000000000000e+00 0.000000000000000e+00 1.559493670885968e+01 1.000000000000000e+00 0.000000000000000e+00 1.579746835442984e+01 1.000000000000000e+00 0.000000000000000e+00 1.600000000000000e+01 7.500000000003469e-01 0.000000000000000e+00 1.600000000000000e+01 5.000000000013878e-01 0.000000000000000e+00 1.600000000000000e+01 2.500000000010407e-01 0.000000000000000e+00 1.579746835443066e+01 0.000000000000000e+00 0.000000000000000e+00 1.559493670886132e+01 0.000000000000000e+00 0.000000000000000e+00 1.539240506329198e+01 0.000000000000000e+00 0.000000000000000e+00 1.518987341772264e+01 0.000000000000000e+00 0.000000000000000e+00 1.498734177215330e+01 0.000000000000000e+00 0.000000000000000e+00 1.478481012658396e+01 0.000000000000000e+00 0.000000000000000e+00 1.458227848101463e+01 0.000000000000000e+00 0.000000000000000e+00 1.437974683544529e+01 0.000000000000000e+00 0.000000000000000e+00 1.417721518987595e+01 0.000000000000000e+00 0.000000000000000e+00 1.397468354430661e+01 0.000000000000000e+00 0.000000000000000e+00 1.377215189873727e+01 0.000000000000000e+00 0.000000000000000e+00 1.356962025316793e+01 0.000000000000000e+00 0.000000000000000e+00 1.336708860759859e+01 0.000000000000000e+00 0.000000000000000e+00 1.316455696202925e+01 0.000000000000000e+00 0.000000000000000e+00 1.296202531645991e+01 0.000000000000000e+00 0.000000000000000e+00 1.275949367089057e+01 0.000000000000000e+00 0.000000000000000e+00 1.255696202532123e+01 0.000000000000000e+00 0.000000000000000e+00 1.235443037975189e+01 0.000000000000000e+00 0.000000000000000e+00 1.215189873418256e+01 0.000000000000000e+00 0.000000000000000e+00 1.194936708861336e+01 0.000000000000000e+00 0.000000000000000e+00 1.174683544304458e+01 0.000000000000000e+00 0.000000000000000e+00 1.154430379747580e+01 0.000000000000000e+00 0.000000000000000e+00 1.134177215190703e+01 0.000000000000000e+00 0.000000000000000e+00 1.113924050633825e+01 0.000000000000000e+00 0.000000000000000e+00 1.093670886076947e+01 0.000000000000000e+00 0.000000000000000e+00 1.073417721520070e+01 0.000000000000000e+00 0.000000000000000e+00 1.053164556963192e+01 0.000000000000000e+00 0.000000000000000e+00 1.032911392406314e+01 0.000000000000000e+00 0.000000000000000e+00 1.012658227849436e+01 0.000000000000000e+00 0.000000000000000e+00 9.924050632925587e+00 0.000000000000000e+00 0.000000000000000e+00 9.721518987356809e+00 0.000000000000000e+00 0.000000000000000e+00 9.518987341788034e+00 0.000000000000000e+00 0.000000000000000e+00 9.316455696219256e+00 0.000000000000000e+00 0.000000000000000e+00 9.113924050650478e+00 0.000000000000000e+00 0.000000000000000e+00 8.911392405081703e+00 0.000000000000000e+00 0.000000000000000e+00 8.708860759512925e+00 0.000000000000000e+00 0.000000000000000e+00 8.506329113944147e+00 0.000000000000000e+00 0.000000000000000e+00 8.303797468375370e+00 0.000000000000000e+00 0.000000000000000e+00 8.101265822806592e+00 0.000000000000000e+00 0.000000000000000e+00 7.898734177237253e+00 0.000000000000000e+00 0.000000000000000e+00 7.696202531667353e+00 0.000000000000000e+00 0.000000000000000e+00 7.493670886097451e+00 0.000000000000000e+00 0.000000000000000e+00 7.291139240527549e+00 0.000000000000000e+00 0.000000000000000e+00 7.088607594957649e+00 0.000000000000000e+00 0.000000000000000e+00 6.886075949387747e+00 0.000000000000000e+00 0.000000000000000e+00 6.683544303817845e+00 0.000000000000000e+00 0.000000000000000e+00 6.481012658247945e+00 0.000000000000000e+00 0.000000000000000e+00 6.278481012678045e+00 0.000000000000000e+00 0.000000000000000e+00 6.075949367108143e+00 0.000000000000000e+00 0.000000000000000e+00 5.873417721538242e+00 0.000000000000000e+00 0.000000000000000e+00 5.670886075968340e+00 0.000000000000000e+00 0.000000000000000e+00 5.468354430398438e+00 0.000000000000000e+00 0.000000000000000e+00 5.265822784828536e+00 0.000000000000000e+00 0.000000000000000e+00 5.063291139258636e+00 0.000000000000000e+00 0.000000000000000e+00 4.860759493688734e+00 0.000000000000000e+00 0.000000000000000e+00 4.658227848118834e+00 0.000000000000000e+00 0.000000000000000e+00 4.455696202548932e+00 0.000000000000000e+00 0.000000000000000e+00 4.253164556979030e+00 0.000000000000000e+00 0.000000000000000e+00 4.050632911409130e+00 0.000000000000000e+00 0.000000000000000e+00 3.848101265838807e+00 0.000000000000000e+00 0.00000000000000
[...]
<PointData Scalars="pressure_nodes_[L]," Vectors="">
<DataArray type="Float64" Name="pressure_nodes_[L]" format="ascii">
-7.948444853573669e-02 -7.375503366010276e-02 -1.820782848968213e+01 -1.820793921096208e+01 -7.016025304697353e-02 -9.481529254805640e-02 -1.059959787090856e-01 -2.391504352534668e-01 -4.789139435074047e-01 -7.283998616115593e-01 -9.710990516652677e-01 -1.212166866473579e+00 -1.455554742963118e+00 -1.703144114469942e+00 -1.946486205229721e+00 -2.187521423568803e+00 -2.429855147985437e+00 -2.672659393939260e+00 -2.915613045887328e+00 -3.158702365929972e+00 -3.401139775949608e+00 -3.642294814504450e+00 -3.881641479463749e+00 -4.117869963797691e+00 -4.382880095314186e+00 -4.632997915049805e+00 -4.865295413514584e+00 -5.105477756681244e+00 -5.347485335257178e+00 -5.590178146534038e+00 -5.833240329640308e+00 -6.076068555921135e+00 -6.318942467586050e+00 -6.562149041202899e+00 -6.805205944585010e+00 -7.048211159385454e+00 -7.291448668751690e+00 -7.534590838661444e+00 -7.777711440303088e+00 -8.020863797482118e+00 -8.263652355490073e+00 -8.506655566029163e+00 -8.748443660041254e+00 -8.984122700220615e+00 -9.237922021061577e+00 -9.493502047244508e+00 -9.729614682287927e+00 -9.968784370066025e+00 -1.020843323583697e+01 -1.045156551045664e+01 -1.069840165393766e+01 -1.093958290751247e+01 -1.118151524890917e+01 -1.142790219818310e+01 -1.166903012073535e+01 -1.191103871974137e+01 -1.215744509196056e+01 -1.239852305269693e+01 -1.264045448347352e+01 -1.288674149583608e+01 -1.312767700879134e+01 -1.336962315484104e+01 -1.361618436350763e+01 -1.385793711695250e+01 -1.409690904032359e+01 -1.433521914705756e+01 -1.457085592765108e+01 -1.483500947056076e+01 -1.508243509522656e+01 -1.531312928205572e+01 -1.555034156352184e+01 -1.578694769945579e+01 -1.602501469759759e+01 -1.626369108058266e+01 -1.649338526561348e+01 -1.672006853988486e+01 -1.694537011363275e+01 -1.715906998599079e+01 -1.736180702094410e+01 -1.755308769469680e+01 -1.772876364666819e+01 -1.788494697229763e+01 -1.801709334356524e+01 -1.811896523176842e+01 -1.818305349623669e+01 -1.820907616761274e+01 -1.820727633129691e+01 -1.820571099898478e+01 -1.818548392199718e+01 -1.812060270106596e+01 -1.801567309653694e+01 -1.788417038228335e+01 -1.772959823906119e+01 -1.755445481260111e+01 -1.735928848404154e+01 -1.715406779265682e+01 -1.694171588391860e+01 -1.672080367885857e+01 -1.649385726143543e+01 -1.626246719395958e+01 -1.602746772353471e+01 -1.579025202434239e+01 -1.555209247519257e+01 -1.531509769135116e+01 -1.508276013466498e+01 -1.482883563999640e+01 -1.457147319499336e+01 -1.433585002984725e+01 -1.409693262259107e+01 -1.385625168513529e+01 -1.361431390779910e+01 -1.337146101167541e+01 -1.312856546739621e+01 -1.288563053829815e+01 -1.264233175429882e+01 -1.239914152434556e+01 -1.215599046974075e+01 -1.191266611259041e+01 -1.166954284059068e+01 -1.142653611589182e+01 -1.118337268281398e+01 -1.094040320337903e+01 -1.069739671250615e+01 -1.045418827945318e+01 -1.021156306580126e+01 -9.969999101086895e+00 -9.730001175776097e+00 -9.493484085254579e+00 -9.236794921687782e+00 -8.985844425211742e+00 -8.758577962741997e+00 -8.512931026754719e+00 -8.265811194452303e+00 -8.023665652433046e+00 -7.777186499973128e+00 -7.535430404026543e+00 -7.294150229375293e+00 -7.047871333240719e+00 -6.806243120208675e+00 -6.564916480106699e+00 -6.318567481101892e+00 -6.076929986905828e+00 -5.835580358042481e+00 -5.588796301925667e+00 -5.345886447770861e+00 -5.105916921197592e+00 -4.867142674476939e+00 -4.633122607879592e+00 -4.377172079070614e+00 -4.118725989003938e+00 -3.882603992222629e+00 -3.643822703334652e+00 -3.404482335623889e+00 -3.161911659424846e+00 -2.915045856678431e+00 -2.673305036282120e+00 -2.431589636179293e+00 -2.184398536849733e+00 -1.940800537792267e+00 -1.699267188254900e+00 -1.456417625482794e+00 -1.213291979114889e+00 -9.700519639886798e-01 -7.262526272045516e-01 -4.834679210195654e-01 -2.494260768038412e-01 -1.795697924131697e+01 -8.420931566858759e-01 -1.746249161062642e+01 -1.420133492887253e+01 -1.573932795932233e+00 -1.683538613417847e+01 -1.349669254761333e+01 -1.614714047695342e+01 -2.304568932935029e+00 -1.276756846166622e+01 -1.543462343886914e+01 -1.203719856437109e+01 -3.035084898784464e+00 -1.130702687153765e+01 -3.741507099843985e+00 -1.057686342027127e+01 -4.984757254340280e+00 -9.865084655462212e+00 -5.708970421475094e+00 -6.437766570832623e+00 -7.167090310915306e+00 -7.896752376750803e+00 -8.586191066307958e+00 -9.224222776598163e+00 -1.480717806267621e+01 -4.352315268651068e+00 -1.812585664341028e+01 -4.625792069733936e-01 -8.261330240544627e+00 -7.532542167995143e+00 -6.803342956666947e+00 -1.020148885931688e+01 -6.074308663777662e+00 -5.334818611097347e+00 -1.094069519597183e+01 -1.167042416006020e+01 -1.240094123383263e+01 -1.313003588089823e+01 -1.386690413323011e+01 -1.577884578539666e+01 -1.773873021171446e+01 -1.649467578272834e+01 -1.714892841098204e+01 -3.409427272622029e+00 -1.198180295639819e+00 -2.670273312095499e+00 -1.951731802199574e+00 -1.385849418301583e+01 -1.313299627068914e+01 -1.240333823545691e+01 -1.167243408027495e+01 -1.094318113574178e+01 -1.021416918745032e+01 -1.928360854158538e+00 -1.716931039947186e+01 -1.773360565503865e+01 -1.205693151510051e+00 -1.649659467539000e+01 -2.668617700162985e+00 -1.579231027919162e+01 -3.396630950639805e+00 -5.343752580975822e+00 -6.072657738578520e+00 -6.801056359971922e+00 -7.530812572752883e+00 -8.257913096589066e+00 -8.917728307364504e+00 -8.962556802866274e+00 -1.509314243453472e+01 -1.513380715475577e+01 -4.642198630454775e+00 -4.683532023447220e+00 -9.531122686781831e+00 -4.072978930053654e+00 -1.453024695215518e+01 -4.065477853694215e+00 -9.531218614209411e+00 -1.452307904806621e+01 -5.103253377493956e-01 -1.810869554832275e+01 -1.057518850836711e+01 -8.658675998533294e+00 -7.899184962365448e+00 -1.130540750353179e+01 -7.169652976296675e+00 -6.440398160289160e+00 -1.203535250194732e+01 -5.710797526450878e+00 -4.989705219191070e+00 -1.276496427250170e+01 -1.349438553245324e+01 -1.543410227265567e+01 -8.487483118394002e-01 -3.037538224605671e+00 -1.795366484990215e+01 -1.614516793371631e+01 -1.745984571027910e+01 -1.577635655061175e+00 -1.683503078986545e+01 -2.305900849613180e+00 -1.349519515020018e+01 -1.683279426818662e+01 -1.746160590079321e+01 -2.307342881716612e+00 -1.614727717978134e+01 -1.574831668759050e+00 -1.795634223374015e+01 -1.276646105893200e+01 -1.543827732599923e+01 -3.035136039511366e+00 -1.203612580390145e+01 -8.442633835707333e-01 -1.130652562951255e+01 -1.057734935249104e+01 -4.986914115077232e+00 -5.710133308071223e+00 -6.438353614757454e+00 -7.167675451349984e+00 -7.897519826138078e+00 -8.625977032160815e+00 -1.420990942587298e+01 -1.421084033197738e+01 -3.753111388560060e+00 -9.856718002623079e+00 -3.755775846990836e+00 -9.855021042890424e+00 -9.233535076230794e+00 -9.236034581144233e+00 -4.414128806376715e+00 -1.483395174124785e+01 -1.486751197397390e+01 -4.381251320230152e+00 -1.817093190912869e+01 -3.004460874782406e-01 -1.807451230764960e+01 -5.987790808525062e-01 -3.263212168042985e-01 -1.816543576918276e+01 -2.051913932390140e+00 -1.706228943742771e+01 -1.331512178307247e+00 -1.764537626907458e+01 -1.638052815620188e+01 -1.567379396852777e+01 -1.373709919711172e+01 -2.791867526731306e+00 -1.300984412224535e+01 -1.227983144593864e+01 -5.467185927945676e+00 -6.195216689363559e+00 -1.154979329951732e+01 -6.924349924082226e+00 -7.654042480851071e+00 -1.082080920406804e+01 -8.382019134965583e+00 -1.706025411020111e+01 -1.765425355496262e+01 -2.053506603199731e+00 -1.638807687553371e+01 -1.567099184187647e+01 -1.318923031081906e+00 -5.455494543441786e+00 -6.186867156099525e+00 -6.915766323402097e+00 -7.645412372566601e+00 -1.374788062024166e+01 -8.366752204545911e+00 -1.301830517153605e+01 -1.228864680339762e+01 -2.782950343787209e+00 -1.155782973808532e+01 -3.515772850796255e+00 -1.082832257237830e+01 -1.009379981641411e+01 -3.517425228029465e+00 -1.009393837646583e+01 -8.382884597315998e+00 -7.648575943287294e+00 -1.082582254184184e+01 -6.919377711377872e+00 -6.190069352020371e+00 -1.155549216813656e+01 -5.457965093135137e+00 -1.228542800265221e+01 -1.301464707384038e+01 -1.374579979927511e+01 -2.786426013361128e+00 -1.566783665139942e+01 -1.638564155863460e+01 -1.765122275252026e+01 -1.704811199017903e+01 -1.323656346209355e+00 -1.781161267410272e+01 -1.725129199484246e+01 -1.088275922408209e+00 -2.067612046944749e+00 -1.832313882232635e+00 -1.660162778111784e+01 -1.589796851134032e+01 -2.557765355732777e+00 -3.290597518775138e+00 -1.324284766942896e+01 -1.251375594495301e+01 -5.224574761716853e+00 -1.178393075699409e+01 -5.961840937673351e+00 -6.691136684897079e+00 -1.105418822296156e+01 -7.420225998107528e+00 -8.150417326651567e+00 -1.032177667254228e+01 -1.008885932574925e+01 -3.522982913555676e+00 -1.397761890558406e+01 -9.643166924691835e+00 -4.160201116260247e+00 -1.441750822043706e+01 -1.517706784790551e+01 -4.726087176853916e+00 -8.987693412700581e+00 -1.178592125266809e+01 -1.105625891761961e+01 -1.324600976563547e+01 -1.032414435610314e+01 -1.251683349539467e+01 -1.397611864025148e+01 -5.959407498841649e+00 -8.145349303699239e+00 -5.222467385886422e+00 -6.687800658397500e+00 -7.417267077232786e+00 -1.725692129352975e+01 -1.825398699311620e+00 -1.781456531403355e+01 -1.660311785593700e+01 -1.083142149166545e+00 -1.590044239705329e+01 -2.554993290345798e+00 -3.286925881069571e+00 -1.815752023736542e+01 -3.601495657281005e-01 -1.179254099154236e+01 -1.033438627666387e+01 -1.325225308638552e+01 -1.252288240865994e+01 -1.106330436520566e+01 -3.277765584436789e+00 -2.549449976454349e+00 -5.225933299559137e+00 -8.140275785712252e+00 -6.681603422061383e+00 -5.953086114786339e+00 -7.411129358495837e+00 -1.591084512718172e+01 -1.660910013517513e+01 -1.781151490477829e+01 -1.088394033653366e+00 -1.726529332719249e+01 -1.815842951877668e+00 -1.397584887281067e+01 -1.807594087302171e+01 -5.930557446236538e-01 -6.049036896219997e-01 -1.807133944576646e+01 -9.406513847303676e+00 -1.465569686198988e+01 -9.406941140614006e+00 -1.465757746706138e+01 -4.201040352783362e+00 -4.203523597276898e+00 -8.860549338652325e+00 -4.763537626155820e+00 -8.878119988287322e+00 -1.521271323106595e+01 -4.756246041226688e+00 -1.520548965595142e+01 -8.451407259380142e+00 -7.724199161689022e+00 -1.074940839454282e+01 -6.994762816951303e+00 -6.265559827183118e+00 -1.147919431643441e+01 -5.533997508106075e+00 -1.220958972843968e+01 -1.293905384703262e+01 -1.366985225774265e+01 -2.862056827350780e+00 -1.555169036997317e+01 -1.631288133580042e+01 -1.694370977648567e+01 -1.759615437029894e+01 -2.184762390755263e+00 -1.399021996635103e+00 -3.633683969872004e+00 -9.975803506143658e+00 -1.443804533869224e+01 -1.444007365829212e+01 -9.625116972877118e+00 -3.982514949562481e+00 -3.985033484113786e+00 -9.624703584704813e+00 -1.731822563675279e+01 -1.788705283963586e+01 -1.752144064737111e+00 -9.657176118904164e-01 -1.667465633035934e+01 -1.597462332829836e+01 -2.478758595714698e+00 -3.211653563660079e+00 -1.332154946892256e+01 -1.259251633902518e+01 -5.106093560483728e+00 -1.186221972250619e+01 -5.883253074312087e+00 -1.113231680957644e+01 -6.612137665078167e+00 -7.341330170803462e+00 -1.039995374350835e+01 -8.070728548929049e+00 -1.409081468930283e+01 -1.818998447635285e+01 -2.136229509350794e-01 -8.782570235808453e+00 -1.497957397910844e+01 -4.526997187039960e+00 -8.757858088909952e+00 -2.128632054730230e+00 -1.449577842646302e+00 -1.699404273554734e+01 -1.070112359134689e+01 -1.143042087077962e+01 -1.216071615051026e+01 -1.289113235564892e+01 -1.361922451094324e+01 -1.755829899447297e+01 -8.496130849623601e+00 -7.773414225411014e+00 -7.043470296468405e+00 -6.314296552671632e+00 -5.585997702362948e+00 -2.910978566188737e+00 -1.626665796762537e+01 -1.555692886075619e+01 -9.979176545543027e+00 -3.629559468402597e+00 -1.045523159371887e+01 -1.118490464728325e+01 -1.191457402370963e+01 -1.264562237864629e+01 -1.337464120682871e+01 -8.018488469004494e+00 -7.288931426360279e+00 -6.559348090188895e+00 -5.831553481934126e+00 -5.105422045142812e+00 -3.156594067862970e+00 -2.427581108509398e+00 -1.602934449159680e+01 -1.672197098525008e+01 -1.788848956248548e+01 -9.633160498138166e-01 -1.736590126623046e+01 -1.694424105587554e+00 -4.553632044407186e+00 -9.070838648844802e+00 -4.561775438294255e+00 -1.500438546239108e+01 -1.501251659775523e+01 -9.064937781582183e+00 -1.409033922111077e+01 -9.327993206767450e+00 -9.326714589129063e+00 -4.277637299446835e+00 -1.469390547891063e+01 -1.473278835378296e+01 -4.238081618294801e+00 -1.431375077867676e+01 -1.431553892336634e+01 -9.750123915322046e+00 -3.854842346951800e+00 -9.749160905532635e+00 -3.857724510641585e+00 -4.875687665680609e+00 -1.532559841466770e+01 -4.867400908847970e+00 -1.531682006727056e+01 -1.801561612809869e+01 -7.276209865590321e-01 -1.495245492202295e+01 -4.499907785074496e+00 -7.168055051249977e-01 -1.802107891437265e+01 -9.135224663674096e+00 -9.127037220543015e+00 -1.819814458926041e+01 -1.632135666435753e-01 -1.820117524734522e+01 -1.423526030028912e-01 -9.431583050151438e+00 -1.461756358270399e+01 -3.958449445154264e+00 
</DataArray>
</PointData>
<CellData Scalars="pressure_elements_[L]," Vectors="velocity_elements_[L/T],">
<DataArray type="Float64" Name="pressure_elements_[L]" format="ascii">