<?xml version="1.0"?>
<VTKFile type="UnstructuredGrid" version="0.1" byte_order="LittleEndian">
<UnstructuredGrid>
<Piece NumberOfPoints="567" NumberOfCells="966">
<Points>
<DataArray type="Float64" NumberOfComponents="3" format="ascii">
0.000000000000000e+00 0.000000000000000e+00 0.000000000000000e+00 0.000000000000000e+00 1.000000000000000e+00 0.000000000000000e+00 1.600000000000000e+01 1.000000000000000e+00 0.000000000000000e+00 1.600000000000000e+01 0.000000000000000e+00 0.000000000000000e+00 0.000000000000000e+00 2.499999999993998e-01 0.000000000000000e+00 0.000000000000000e+00 4.999999999990217e-01 0.000000000000000e+00 0.000000000000000e+00 7.499999999993374e-01 0.000000000000000e+00 2.025316455691341e-01 1.000000000000000e+00 0.000000000000000e+00 4.050632911382681e-01 1.000000000000000e+00 0.000000000000000e+00 6.075949367074022e-01 1.000000000000000e+00 0.000000000000000e+00 8.101265822765362e-01 1.000000000000000e+00 0.000000000000000e+00 1.012658227845670e+00 1.000000000000000e+00 0.000000000000000e+00 1.215189873414804e+00 1.000000000000000e+00 0.000000000000000e+00 1.417721518983938e+00 1.000000000000000e+00 0.000000000000000e+00 1.620253164553072e+00 1.000000000000000e+00 0.000000000000000e+00 1.822784810122207e+00 1.000000000000000e+00 0.000000000000000e+00 2.025316455691340e+00 1.000000000000000e+00 0.000000000000000e+00 2.227848101260475e+00 1.000000000000000e+00 0.000000000000000e+00 2.430379746829609e+00 1.000000000000000e+00 0.000000000000000e+00 2.632911392398743e+00 1.000000000000000e+00 0.000000000000000e+00 2.835443037967877e+00 1.000000000000000e+00 0.000000000000000e+00 3.037974683537010e+00 1.000000000000000e+00 0.000000000000000e+00 3.240506329106145e+00 1.000000000000000e+00 0.000000000000000e+00 3.443037974675279e+00 1.000000000000000e+00 0.000000000000000e+00 3.645569620244413e+00 1.000000000000000e+00 0.000000000000000e+00 3.848101265813547e+00 1.000000000000000e+00 0.000000000000000e+00 4.050632911382726e+00 1.000000000000000e+00 0.000000000000000e+00 4.253164556952040e+00 1.000000000000000e+00 0.000000000000000e+00 4.455696202521353e+00 1.000000000000000e+00 0.000000000000000e+00 4.658227848090667e+00 1.000000000000000e+00 0.000000000000000e+00 4.860759493659981e+00 1.000000000000000e+00 0.000000000000000e+00 5.063291139229296e+00 1.000000000000000e+00 0.000000000000000e+00 5.265822784798610e+00 1.000000000000000e+00 0.000000000000000e+00 5.468354430367923e+00 1.000000000000000e+00 0.000000000000000e+00 5.670886075937237e+00 1.000000000000000e+00 0.000000000000000e+00 5.873417721506551e+00 1.000000000000000e+00 0.000000000000000e+00 6.075949367075864e+00 1.000000000000000e+00 0.000000000000000e+00 6.278481012645178e+00 1.000000000000000e+00 0.000000000000000e+00 6.481012658214492e+00 1.000000000000000e+00 0.000000000000000e+00 6.683544303783806e+00 1.000000000000000e+00 0.000000000000000e+00 6.886075949353121e+00 1.000000000000000e+00 0.000000000000000e+00 7.088607594922435e+00 1.000000000000000e+00 0.000000000000000e+00 7.291139240491749e+00 1.000000000000000e+00 0.000000000000000e+00 7.493670886061063e+00 1.000000000000000e+00 0.000000000000000e+00 7.696202531630375e+00 1.000000000000000e+00 0.000000000000000e+00 7.898734177199691e+00 1.000000000000000e+00 0.000000000000000e+00 8.101265822769285e+00 1.000000000000000e+00 0.000000000000000e+00 8.303797468339161e+00 1.000000000000000e+00 0.000000000000000e+00 8.506329113909036e+00 1.000000000000000e+00 0.000000000000000e+00 8.708860759478913e+00 1.000000000000000e+00 0.000000000000000e+00 8.911392405048788e+00 1.000000000000000e+00 0.000000000000000e+00 9.113924050618664e+00 1.000000000000000e+00 0.000000000000000e+00 9.316455696188541e+00 1.000000000000000e+00 0.000000000000000e+00 9.518987341758416e+00 1.000000000000000e+00 0.000000000000000e+00 9.721518987328292e+00 1.000000000000000e+00 0.000000000000000e+00 9.924050632898169e+00 1.000000000000000e+00 0.000000000000000e+00 1.012658227846805e+01 1.000000000000000e+00 0.000000000000000e+00 1.032911392403792e+01 1.000000000000000e+00 0.000000000000000e+00 1.053164556960780e+01 1.000000000000000e+00 0.000000000000000e+00 1.073417721517767e+01 1.000000000000000e+00 0.000000000000000e+00 1.093670886074755e+01 1.000000000000000e+00 0.000000000000000e+00 1.113924050631742e+01 1.000000000000000e+00 0.000000000000000e+00 1.134177215188730e+01 1.000000000000000e+00 0.000000000000000e+00 1.154430379745718e+01 1.000000000000000e+00 0.000000000000000e+00 1.174683544302705e+01 1.000000000000000e+00 0.000000000000000e+00 1.194936708859693e+01 1.000000000000000e+00 0.000000000000000e+00 1.215189873416701e+01 1.000000000000000e+00 0.000000000000000e+00 1.235443037973717e+01 1.000000000000000e+00 0.000000000000000e+00 1.255696202530733e+01 1.000000000000000e+00 0.000000000000000e+00 1.275949367087749e+01 1.000000000000000e+00 0.000000000000000e+00 1.296202531644764e+01 1.000000000000000e+00 0.000000000000000e+00 1.316455696201780e+01 1.000000000000000e+00 0.000000000000000e+00 1.336708860758796e+01 1.000000000000000e+00 0.000000000000000e+00 1.356962025315812e+01 1.000000000000000e+00 0.000000000000000e+00 1.377215189872827e+01 1.000000000000000e+00 0.000000000000000e+00 1.397468354429843e+01 1.000000000000000e+00 0.000000000000000e+00 1.417721518986859e+01 1.000000000000000e+00 0.000000000000000e+00 1.437974683543874e+01 1.000000000000000e+00 0.000000000000000e+00 1.458227848100890e+01 1.000000000000000e+00 0.000000000000000e+00 1.478481012657906e+01 1.000000000000000e+00 0.000000000000000e+00 1.498734177214921e+01 1.000000000000000e+00 0.000000000000000e+00 1.518987341771937e+01 1.000000000000000e+00 0.000000000000000e+00 1.539240506328953e+01 1.000000000000000e+00 0.000000000000000e+00 1.559493670885968e+01 1.000000000000000e+00 0.000000000000000e+00 1.579746835442984e+01 1.000000000000000e+00 0.000000000000000e+00 1.600000000000000e+01 7.500000000003469e-01 0.000000000000000e+00 1.600000000000000e+01 5.000000000013878e-01 0.000000000000000e+00 1.600000000000000e+01 2.500000000010407e-01 0.000000000000000e+00 1.579746835443066e+01 0.000000000000000e+00 0.000000000000000e+00 1.559493670886132e+01 0.000000000000000e+00 0.000000000000000e+00 1.539240506329198e+01 0.000000000000000e+00 0.000000000000000e+00 1.518987341772264e+01 0.000000000000000e+00 0.000000000000000e+00 1.498734177215330e+01 0.000000000000000e+00 0.000000000000000e+00 1.478481012658396e+01 0.000000000000000e+00 0.000000000000000e+00 1.458227848101463e+01 0.000000000000000e+00 0.000000000000000e+00 1.437974683544529e+01 0.000000000000000e+00 0.000000000000000e+00 1.417721518987595e+01 0.000000000000000e+00 0.000000000000000e+00 1.397468354430661e+01 0.000000000000000e+00 0.000000000000000e+00 1.377215189873727e+01 0.000000000000000e+00 0.000000000000000e+00 1.356962025316793e+01 0.000000000000000e+00 0.000000000000000e+00 1.336708860759859e+01 0.000000000000000e+00 0.000000000000000e+00 1.316455696202925e+01 0.000000000000000e+00 0.000000000000000e+00 1.296202531645991e+01 0.000000000000000e+00 0.000000000000000e+00 1.275949367089057e+01 0.000000000000000e+00 0.000000000000000e+00 1.255696202532123e+01 0.000000000000000e+00 0.000000000000000e+00 1.235443037975189e+01 0.000000000000000e+00 0.000000000000000e+00 1.215189873418256e+01 0.000000000000000e+00 0.000000000000000e+00 1.194936708861336e+01 0.000000000000000e+00 0.000000000000000e+00 1.174683544304458e+01 0.000000000000000e+00 0.000000000000000e+00 1.154430379747580e+01 0.000000000000000e+00 0.000000000000000e+00 1.134177215190703e+01 0.000000000000000e+00 0.000000000000000e+00 1.113924050633825e+01 0.000000000000000e+00 0.000000000000000e+00 1.093670886076947e+01 0.000000000000000e+00 0.000000000000000e+00 1.073417721520070e+01 0.000000000000000e+00 0.000000000000000e+00 1.053164556963192e+01 0.000000000000000e+00 0.000000000000000e+00 1.032911392406314e+01 0.000000000000000e+00 0.000000000000000e+00 1.012658227849436e+01 0.000000000000000e+00 0.000000000000000e+00 9.924050632925587e+00 0.000000000000000e+00 0.000000000000000e+00 9.721518987356809e+00 0.000000000000000e+00 0.000000000000000e+00 9.518987341788034e+00 0.000000000000000e+00 0.000000000000000e+00 9.316455696219256e+00 0.000000000000000e+00 0.000000000000000e+00 9.113924050650478e+00 0.000000000000000e+00 0.000000000000000e+00 8.911392405081703e+00 0.000000000000000e+00 0.000000000000000e+00 8.708860759512925e+00 0.000000000000000e+00 0.000000000000000e+00 8.506329113944147e+00 0.000000000000000e+00 0.000000000000000e+00 8.303797468375370e+00 0.000000000000000e+00 0.000000000000000e+00 8.101265822806592e+00 0.000000000000000e+00 0.000000000000000e+00 7.898734177237253e+00 0.000000000000000e+00 0.000000000000000e+00 7.696202531667353e+00 0.000000000000000e+00 0.000000000000000e+00 7.493670886097451e+00 0.000000000000000e+00 0.000000000000000e+00 7.291139240527549e+00 0.000000000000000e+00 0.000000000000000e+00 7.088607594957649e+00 0.000000000000000e+00 0.000000000000000e+00 6.886075949387747e+00 0.000000000000000e+00 0.000000000000000e+00 6.683544303817845e+00 0.000000000000000e+00 0.000000000000000e+00 6.481012658247945e+00 0.000000000000000e+00 0.000000000000000e+00 6.278481012678045e+00 0.000000000000000e+00 0.000000000000000e+00 6.075949367108143e+00 0.000000000000000e+00 0.000000000000000e+00 5.873417721538242e+00 0.000000000000000e+00 0.000000000000000e+00 5.670886075968340e+00 0.000000000000000e+00 0.000000000000000e+00 5.468354430398438e+00 0.000000000000000e+00 0.000000000000000e+00 5.265822784828536e+00 0.000000000000000e+00 0.000000000000000e+00 5.063291139258636e+00 0.000000000000000e+00 0.000000000000000e+00 4.860759493688734e+00 0.000000000000000e+00 0.000000000000000e+00 4.658227848118834e+00 0.000000000000000e+00 0.000000000000000e+00 4.455696202548932e+00 0.000000000000000e+00 0.000000000000000e+00 4.253164556979030e+00 0.000000000000000e+00 0.000000000000000e+00 4.050632911409130e+00 0.000000000000000e+00 0.000000000000000e+00 3.848101265838807e+00 0.000000000000000e+00 0.00000000000000
[...]
<PointData Scalars="pressure_nodes_[L]," Vectors="">
<DataArray type="Float64" Name="pressure_nodes_[L]" format="ascii">
-3.976138819325438e-02 -3.689022497030656e-02 -9.249287478761042e+00 -9.249120506326930e+00 -3.508069743073518e-02 -4.740852722489756e-02 -5.302601754425772e-02 -1.195818810889017e-01 -2.394694826536067e-01 -3.642302586158014e-01 -4.856212717937814e-01 -6.062015065852099e-01 -7.279641088810778e-01 -8.517940707664902e-01 -9.734716778203617e-01 -1.094022290265643e+00 -1.215215588692226e+00 -1.336639752979867e+00 -1.458138443945403e+00 -1.579699951347261e+00 -1.700932543874071e+00 -1.821529708699592e+00 -1.941233699514929e+00 -2.059413151079826e+00 -2.192050006602188e+00 -2.317001755717796e+00 -2.433212789191448e+00 -2.553342186953328e+00 -2.674373526833493e+00 -2.795748139506746e+00 -2.917302172544222e+00 -3.038738379157335e+00 -3.160205157379505e+00 -3.281834097656026e+00 -3.403385914729972e+00 -3.524917552320160e+00 -3.646563173579140e+00 -3.768158064313919e+00 -3.889746398144609e+00 -4.011343636050321e+00 -4.132758770697457e+00 -4.254295404835919e+00 -4.375185968940734e+00 -4.493012833380440e+00 -4.620005053188574e+00 -4.747868207522476e+00 -4.865939399188412e+00 -4.985549535231895e+00 -5.105416003559951e+00 -5.227202984611620e+00 -5.350639534555819e+00 -5.471078348582680e+00 -5.592266874164860e+00 -5.715484931820630e+00 -5.835888245372230e+00 -5.957128280778062e+00 -6.080361646195144e+00 -6.200730673554954e+00 -6.321944615193539e+00 -6.445120298194404e+00 -6.565416954587889e+00 -6.686677929839629e+00 -6.810023025830463e+00 -6.930731063477880e+00 -7.050322852366474e+00 -7.169684779670353e+00 -7.287895090612239e+00 -7.420716076397669e+00 -7.544575895054580e+00 -7.660928531517268e+00 -7.780874285843191e+00 -7.901024880060260e+00 -8.022895697008872e+00 -8.145737145542640e+00 -8.264899918088853e+00 -8.384528921042410e+00 -8.505041353818761e+00 -8.621251751370444e+00 -8.734196899586376e+00 -8.843466240570280e+00 -8.946655144012436e+00 -9.041231500757652e+00 -9.123864150387034e+00 -9.189638780531688e+00 -9.232213925521309e+00 -9.250298647969688e+00 -9.249719578657810e+00 -9.248492714975235e+00 -9.233768836798518e+00 -9.190879793550407e+00 -9.122923935902838e+00 -9.040730120349028e+00 -8.947179853068123e+00 -8.844575520131855e+00 -8.733110772916499e+00 -8.618523540455538e+00 -8.502790015725276e+00 -8.384632587869417e+00 -8.265115430443084e+00 -8.144805759152534e+00 -8.023841649409198e+00 -7.902675312114127e+00 -7.781749185332001e+00 -7.661923174737379e+00 -7.544911711186973e+00 -7.417386399512533e+00 -7.288147739462885e+00 -7.169993397260990e+00 -7.050331069577795e+00 -6.929862452229663e+00 -6.808819540051752e+00 -6.687334712687399e+00 -6.565830672405346e+00 -6.444327448400429e+00 -6.322642730720640e+00 -6.201008549772340e+00 -6.079406472366787e+00 -5.957715732852077e+00 -5.836119118722379e+00 -5.714591871226747e+00 -5.592985092050824e+00 -5.471469531454810e+00 -5.349947372639196e+00 -5.228317724698921e+00 -5.106968388192458e+00 -4.986154505946114e+00 -4.866127949338011e+00 -4.747855959018658e+00 -4.619438025484076e+00 -4.493760714809678e+00 -4.380390400421605e+00 -4.257732915746625e+00 -4.133892419124696e+00 -4.012905157162039e+00 -3.889638549938182e+00 -3.768595612087200e+00 -3.648046922602255e+00 -3.524883422908541e+00 -3.403918220816406e+00 -3.283334286595012e+00 -3.160135811819968e+00 -3.039179244514990e+00 -2.918573348487096e+00 -2.795162922579879e+00 -2.673582097633715e+00 -2.553562734439847e+00 -2.434140134617282e+00 -2.317118587434659e+00 -2.189127690816024e+00 -2.059824585850107e+00 -1.941719030119341e+00 -1.822302929939174e+00 -1.702614834651229e+00 -1.581367787877852e+00 -1.457916073769959e+00 -1.336965543422344e+00 -1.216114598438398e+00 -1.092491987667431e+00 -9.706205072481013e-01 -8.498172446900871e-01 -7.283606712605598e-01 -6.067621686172983e-01 -4.851063192644421e-01 -3.631777625711525e-01 -2.417667947515028e-01 -1.247337707212282e-01 -9.085863616031473e+00 -4.210955647030243e-01 -8.791451840460564e+00 -7.102427358260456e+00 -7.871476425928875e-01 -8.445724012490919e+00 -6.750047986914145e+00 -8.085383851069622e+00 -1.152565654857115e+00 -6.385334578451069e+00 -7.722348868184207e+00 -6.020051588913896e+00 -1.517905534616527e+00 -5.654872284360993e+00 -1.871107882372767e+00 -5.289717571158943e+00 -2.492969081065121e+00 -4.933569129342358e+00 -2.855182373713079e+00 -3.219656727195023e+00 -3.584404575177254e+00 -3.949309535150555e+00 -4.294039061949173e+00 -4.612962048141304e+00 -7.406009345381730e+00 -2.176557367858378e+00 -9.194458538634018e+00 -2.313066936880138e-01 -4.131375485306461e+00 -3.766934013961152e+00 -3.402273443686818e+00 -5.101759419641054e+00 -3.037694569550638e+00 -2.667951227250873e+00 -5.471320315116392e+00 -5.836248555886877e+00 -6.201578422001320e+00 -6.566220372889807e+00 -6.934966340985842e+00 -7.896628733931281e+00 -8.952333576035100e+00 -8.265062305111664e+00 -8.615384604909117e+00 -1.705030054246907e+00 -5.991838853433552e-01 -1.335376209886792e+00 -9.760678747938587e-01 -6.930914567444682e+00 -6.568001403310268e+00 -6.203067359679523e+00 -5.837527946993125e+00 -5.472821014110470e+00 -5.108225909666504e+00 -9.643686648746906e-01 -8.626611656534930e+00 -8.949497318283813e+00 -6.029609493618026e-01 -8.266481350671143e+00 -1.334612246045511e+00 -7.903676103530771e+00 -1.698664858737478e+00 -2.672490409828800e+00 -3.037013235831570e+00 -3.401292992908884e+00 -3.766247130508708e+00 -4.129841334227694e+00 -4.459772217835029e+00 -4.482067738805598e+00 -7.549922183376751e+00 -7.570297048653138e+00 -2.321587452257879e+00 -2.342232370379940e+00 -4.766486755378782e+00 -2.036868808514237e+00 -7.267167141049956e+00 -2.033084254927006e+00 -4.766536667700574e+00 -7.263457460403496e+00 -2.551571397614700e-01 -9.182930388938965e+00 -5.288941243744498e+00 -4.330462958885808e+00 -3.950579338357991e+00 -5.654129033616425e+00 -3.585726200558799e+00 -3.221008917679047e+00 -6.019196775976619e+00 -2.856127362155856e+00 -2.495418505033361e+00 -6.384106739533288e+00 -6.748977892313260e+00 -7.722016042381448e+00 -4.244232843824851e-01 -1.519149264591840e+00 -9.083793130998457e+00 -8.084462943555646e+00 -8.790041319930406e+00 -7.890106017061710e-01 -8.445630597606064e+00 -1.153240736419943e+00 -6.749247131435540e+00 -8.444283835624518e+00 -8.790854601094617e+00 -1.153949136961973e+00 -8.085398289331520e+00 -7.875863548245573e-01 -9.085541825190468e+00 -6.384743653547448e+00 -7.724100808369226e+00 -1.517915069877009e+00 -6.019479892237787e+00 -4.221950499027277e-01 -5.654591194111875e+00 -5.289926888965885e+00 -2.494035969169772e+00 -2.855746177317507e+00 -3.219934092494624e+00 -3.584675677052161e+00 -3.949673387457209e+00 -4.314005258066033e+00 -7.106840815612284e+00 -7.107315694881644e+00 -1.876938645517966e+00 -4.929464753668786e+00 -1.878276243409528e+00 -4.928611520245756e+00 -4.617581662466793e+00 -4.618811778217651e+00 -2.207566918341001e+00 -7.419652034530579e+00 -7.436643142689421e+00 -2.191083092655240e+00 -9.224986599320559e+00 -1.502223732084996e-01 -9.160708804626204e+00 -2.994269561122518e-01 -1.631680580568901e-01 -9.220833506832847e+00 -1.026187559026987e+00 -8.568138518046970e+00 -6.658930773967215e-01 -8.897304934011263e+00 -8.206021161670680e+00 -7.843450842980000e+00 -6.870242955467226e+00 -1.396258693328430e+00 -6.506455655725633e+00 -6.141346203977195e+00 -2.734240990272528e+00 -3.098330999639316e+00 -5.776236564727592e+00 -3.462978217975365e+00 -3.827903415853561e+00 -5.411665768704954e+00 -4.191958996846863e+00 -8.566885800251471e+00 -8.902388677550327e+00 -1.026973643409692e+00 -8.209739624831487e+00 -7.841943727479732e+00 -6.595866348740702e-01 -2.728346206647189e+00 -3.094082974559029e+00 -3.458606982272738e+00 -3.823499953203815e+00 -6.875513403348528e+00 -4.184155125281580e+00 -6.510533160526863e+00 -6.145609398311161e+00 -1.391771150686306e+00 -5.780117663142461e+00 -1.758228283674715e+00 -5.415290577562772e+00 -5.047963498584391e+00 -1.759078852822760e+00 -5.048121428818988e+00 -4.192427982755939e+00 -3.825132177032696e+00 -5.414111344256481e+00 -3.460454886424404e+00 -3.095722790926693e+00 -5.779023061495771e+00 -2.729612047857279e+00 -6.144077407716185e+00 -6.508789134985347e+00 -6.874568166474842e+00 -1.393524523868382e+00 -7.840398780966478e+00 -8.208585428109252e+00 -8.900702426383587e+00 -8.560428271783085e+00 -6.619613735938722e-01 -8.996384001529059e+00 -8.672271492642713e+00 -5.442269517601396e-01 -1.034049100609650e+00 -9.163630885928677e-01 -8.321566072594152e+00 -7.957562248747715e+00 -1.279162747245877e+00 -1.645652127344760e+00 -6.622938856897624e+00 -6.258274895756468e+00 -2.612881921496636e+00 -5.893274774127278e+00 -2.981578734644137e+00 -3.346303028229204e+00 -5.528322026728684e+00 -3.710925946208812e+00 -4.076106736180798e+00 -5.162064433179221e+00 -5.045556595791214e+00 -1.761858252927063e+00 -6.990546135889172e+00 -4.822536153796274e+00 -2.080438899153815e+00 -7.210621254979063e+00 -7.592372007634708e+00 -2.363600128439566e+00 -4.494781457867396e+00 -5.894193858581441e+00 -5.529284953050464e+00 -6.624432265673345e+00 -5.163182918047701e+00 -6.259733778511918e+00 -6.989700719824503e+00 -2.980324837003183e+00 -4.073486473109468e+00 -2.611808887120360e+00 -3.344594412301482e+00 -3.709399991219382e+00 -8.675248999046989e+00 -9.128850385539805e-01 -8.998113128868786e+00 -8.322238761115306e+00 -5.416565318981622e-01 -7.958730824766242e+00 -1.277764333445536e+00 -1.643793910127087e+00 -9.215120779997887e+00 -1.800940639081351e-01 -5.897641686919772e+00 -5.168399968805629e+00 -6.627705715781578e+00 -6.262904298108450e+00 -5.532939135601725e+00 -1.639239310875001e+00 -1.275025198043428e+00 -2.613578748686268e+00 -4.071059576132758e+00 -3.341576325875697e+00 -2.977237335778634e+00 -3.706418940450075e+00 -7.964175460293987e+00 -8.325593731267929e+00 -8.996387474273661e+00 -5.442950685046352e-01 -8.680051876668550e+00 -9.081176166750383e-01 -6.989685605056776e+00 -9.161718338764098e+00 -2.965416944556430e-01 -3.024646034112952e-01 -9.158634712106794e+00 -4.704223998790152e+00 -7.330347382267388e+00 -4.704435178762798e+00 -7.331181034158196e+00 -2.100993548423614e+00 -2.102202788967039e+00 -4.431178229432951e+00 -2.382267536886652e+00 -4.439926454855895e+00 -7.610120018371001e+00 -2.378629652872826e+00 -7.606505564238629e+00 -4.226516795064216e+00 -3.862868033546449e+00 -5.375785846780512e+00 -3.498083447022551e+00 -3.133410592475108e+00 -5.740745890211616e+00 -2.767580420988810e+00 -6.106023401292293e+00 -6.470847949248860e+00 -6.836430685951952e+00 -1.431319343870306e+00 -7.781480704374125e+00 -8.170608268274123e+00 -8.503888135724898e+00 -8.868228005114577e+00 -1.092650340940211e+00 -6.996412819842067e-01 -1.817197966758006e+00 -4.988958079141129e+00 -7.221115610013356e+00 -7.222135989420231e+00 -4.813608887395502e+00 -1.991664504854361e+00 -1.992927072975584e+00 -4.813402409028637e+00 -8.709426561442523e+00 -9.042392692844421e+00 -8.762488698169233e-01 -4.829233461668704e-01 -8.359874343845354e+00 -7.996556667407047e+00 -1.239627261139621e+00 -1.606144414802017e+00 -6.662165493904349e+00 -6.297532650028367e+00 -2.553609265029412e+00 -5.932303631052718e+00 -2.942217215205206e+00 -5.567277178706726e+00 -3.306727302668598e+00 -3.671394163651450e+00 -5.201058188135081e+00 -4.036153590611951e+00 -7.047122325153678e+00 -9.237347010603241e+00 -1.068134929259310e-01 -4.392281045306957e+00 -7.492774013849034e+00 -2.263966329413714e+00 -4.379938412433193e+00 -1.064536403931104e+00 -7.249522199380649e-01 -8.530808601182514e+00 -5.351858299738727e+00 -5.716586939184388e+00 -6.081828074342367e+00 -6.447136046139819e+00 -6.811338810042311e+00 -8.846567519421408e+00 -4.249040148672985e+00 -3.887637539202860e+00 -3.522586499263509e+00 -3.157913683114341e+00 -2.793688516902301e+00 -1.455841521298569e+00 -8.147040127322187e+00 -7.784140406277757e+00 -4.990669586790384e+00 -1.815136923264153e+00 -5.228890141768898e+00 -5.593803246896090e+00 -5.958729476807654e+00 -6.324349114983995e+00 -6.688988517043233e+00 -4.010185888649616e+00 -3.645338994769800e+00 -3.280463002581596e+00 -2.916483472381075e+00 -2.553297197499213e+00 -1.578663365820484e+00 -1.214086774622573e+00 -8.024885618045793e+00 -8.385311125278427e+00 -9.043367471896094e+00 -4.817323525653142e-01 -8.736551110361242e+00 -8.474008759017162e-01 -2.277308812629270e+00 -4.536224596895764e+00 -2.281388881280034e+00 -7.505327017270379e+00 -7.509444336758140e+00 -4.533284799581366e+00 -7.046914947536611e+00 -4.664771120595343e+00 -4.664147904086748e+00 -2.139214874169863e+00 -7.349026419106384e+00 -7.368704744957452e+00 -2.119384650013580e+00 -7.158721327074347e+00 -7.159642653850581e+00 -4.876079101678955e+00 -1.927783501827607e+00 -4.875594587156654e+00 -1.929232649329568e+00 -2.438375091777664e+00 -7.667121699323324e+00 -2.434278654387937e+00 -7.662836854039044e+00 -9.122739958022708e+00 -3.638333343691823e-01 -7.479149938387718e+00 -2.250419018250908e+00 -3.584419296030736e-01 -9.126424753357943e+00 -4.568344742198320e+00 -4.564341636369933e+00 -9.242517687468411e+00 -8.161430697330337e-02 -9.244567705533665e+00 -7.118887158837750e-02 -4.716648838788432e+00 -7.310753504439580e+00 -1.979577258798916e+00 
</DataArray>
</PointData>
<CellData Scalars="pressure_elements_[L]," Vectors="velocity_elements_[L/T],">
<DataArray type="Float64" Name="pressure_elements_[L]" format="ascii">