<?xml version="1.0"?>
<VTKFile type="UnstructuredGrid" version="0.1" byte_order="LittleEndian">
<UnstructuredGrid>
<Piece NumberOfPoints="6" NumberOfCells="3">
<Points>
<DataArray type="Float64" NumberOfComponents="3" format="ascii">
0.000000000000000e+00 0.000000000000000e+00 0.000000000000000e+00 3.000000000000000e+00 0.000000000000000e+00 0.000000000000000e+00 0.000000000000000e+00 3.000000000000000e+00 0.000000000000000e+00 0.000000000000000e+00 0.000000000000000e+00 3.000000000000000e+00 3.000000000000000e+00 0.000000000000000e+00 3.000000000000000e+00 0.000000000000000e+00 3.000000000000000e+00 3.000000000000000e+00 
</DataArray>
</Points>
<Cells>
<DataArray type="Int32" Name="connectivity" format="ascii">
0 1 2 4 0 2 3 4 2 3 4 5 
</DataArray>
<DataArray type="Int32" Name="offsets" format="ascii">
4 8 12 
</DataArray>
<DataArray type="UInt8" Name="types" format="ascii">
10 10 10 
</DataArray>
</Cells>
<CellData Scalars="A_conc,B_conc," Vectors="" Tensors="">
<DataArray type="Float64" Name="A_conc" format="ascii">
9.090909090884792e-01 9.090909090884663e-01 9.090909090884821e-01 
</DataArray>
<DataArray type="Float64" Name="B_conc" format="ascii">
9.090909090884387e-02 9.090909090884258e-02 9.090909090884418e-02 
</DataArray>
</CellData>
</Piece>
</UnstructuredGrid>
</VTKFile>
