<?xml version="1.0"?>
<VTKFile type="UnstructuredGrid" version="0.1" byte_order="LittleEndian">
<UnstructuredGrid>
<Piece NumberOfPoints="69" NumberOfCells="124">
<Points>
<DataArray type="Float64" NumberOfComponents="3" format="ascii">
0.000000000000000e+00 1.000000000000000e+00 0.000000000000000e+00 1.000000000000000e+00 1.000000000000000e+00 0.000000000000000e+00 1.000000000000000e+00 0.000000000000000e+00 0.000000000000000e+00 0.000000000000000e+00 0.000000000000000e+00 0.000000000000000e+00 2.500000000000000e-01 -0.000000000000000e+00 0.000000000000000e+00 0.000000000000000e+00 2.500000000000000e-01 0.000000000000000e+00 5.000000000000000e-01 5.000000000000000e-01 -0.000000000000000e+00 7.500000000000000e-01 1.000000000000000e+00 0.000000000000000e+00 6.875000000000000e-01 8.750000000000000e-01 0.000000000000000e+00 6.250000000000000e-01 7.500000000000000e-01 0.000000000000000e+00 5.625000000000000e-01 6.250000000000000e-01 0.000000000000000e+00 1.249999999997599e-01 3.124999999998800e-01 0.000000000000000e+00 2.499999999996086e-01 3.749999999998043e-01 0.000000000000000e+00 3.749999999997349e-01 4.374999999998674e-01 0.000000000000000e+00 4.375000000000694e-01 3.750000000001388e-01 0.000000000000000e+00 3.750000000002776e-01 2.500000000005551e-01 0.000000000000000e+00 3.125000000002082e-01 1.250000000004163e-01 0.000000000000000e+00 1.000000000000000e+00 8.333333333335646e-01 0.000000000000000e+00 1.000000000000000e+00 6.666666666673605e-01 0.000000000000000e+00 1.000000000000000e+00 5.000000000013877e-01 0.000000000000000e+00 1.000000000000000e+00 3.333333333344898e-01 0.000000000000000e+00 1.000000000000000e+00 1.666666666673605e-01 0.000000000000000e+00 8.750000000000000e-01 1.000000000000000e+00 0.000000000000000e+00 5.625000000008674e-01 1.000000000000000e+00 0.000000000000000e+00 3.750000000006939e-01 1.000000000000000e+00 0.000000000000000e+00 1.875000000005205e-01 1.000000000000000e+00 0.000000000000000e+00 0.000000000000000e+00 8.125000000010408e-01 0.000000000000000e+00 0.000000000000000e+00 6.250000000006939e-01 0.000000000000000e+00 0.000000000000000e+00 4.375000000003469e-01 0.000000000000000e+00 0.000000000000000e+00 1.250000000003469e-01 0.000000000000000e+00 1.249999999997554e-01 0.000000000000000e+00 0.000000000000000e+00 4.374999999991326e-01 0.000000000000000e+00 0.000000000000000e+00 6.249999999989591e-01 0.000000000000000e+00 0.000000000000000e+00 8.124999999994795e-01 0.000000000000000e+00 0.000000000000000e+00 2.798796021293082e-01 8.344274147057053e-01 0.000000000000000e+00 2.645244370067465e-01 5.156353158163987e-01 0.000000000000000e+00 4.139414069912184e-01 6.056325264010037e-01 0.000000000000000e+00 4.492710539671537e-01 8.556512408515589e-01 0.000000000000000e+00 2.758946705068648e-01 6.605885315643570e-01 0.000000000000000e+00 1.390078959961168e-01 7.261831610706000e-01 0.000000000000000e+00 1.492912418697525e-01 4.458279356810638e-01 0.000000000000000e+00 5.014585693307863e-01 7.367466304650486e-01 0.000000000000000e+00 1.392858751591214e-01 5.733980610567744e-01 0.000000000000000e+00 3.813620468049507e-01 7.403859221383123e-01 0.000000000000000e+00 1.271010713601231e-01 8.709480661820344e-01 0.000000000000000e+00 5.677751205718758e-01 8.470224641095303e-01 0.000000000000000e+00 5.698670717843664e-01 3.776209365087199e-01 0.000000000000000e+00 7.125974780784441e-01 6.384669131570183e-01 0.000000000000000e+00 8.608728669021763e-01 2.520652359795942e-01 0.000000000000000e+00 8.578792739151740e-01 7.535325208825020e-01 0.000000000000000e+00 5.447576766858295e-01 1.431838882066932e-01 0.000000000000000e+00 7.150899340618379e-01 1.571595685477760e-01 0.000000000000000e+00 8.612746697781972e-01 5.794807697879764e-01 0.000000000000000e+00 7.533843026232094e-01 4.929444342317560e-01 0.000000000000000e+00 8.055298449100090e-01 8.871112287212741e-01 0.000000000000000e+00 8.656940847709105e-01 4.098367391676661e-01 0.000000000000000e+00 7.182603949284063e-01 3.456402071721618e-01 0.000000000000000e+00 6.323653418237701e-01 5.029675640633227e-01 0.000000000000000e+00 6.110846258508276e-01 2.575059958234323e-01 0.000000000000000e+00 4.945749328930023e-01 2.625170377655549e-01 0.000000000000000e+00 7.385779517043357e-01 7.773678856428465e-01 0.000000000000000e+00 8.769890164881212e-01 1.160638338657984e-01 0.000000000000000e+00 9.063795342218008e-01 9.020858332805730e-01 0.000000000000000e+00 4.287911518546233e-01 1.545544542796670e-01 0.000000000000000e+00 2.403886547178353e-01 2.418881479267384e-01 0.000000000000000e+00 1.840276181286450e-01 1.117324051466445e-01 0.000000000000000e+00 3.381944444444832e-01 3.381944444445634e-01 0.000000000000000e+00 1.008171452988615e-01 1.888570369725047e-01 0.000000000000000e+00 8.435242216391163e-02 8.645171265626619e-02 0.000000000000000e+00 
</DataArray>
</Points>
<Cells>
<DataArray type="Int32" Name="connectivity" format="ascii">
7 8 8 9 9 10 10 6 5 11 11 12 12 13 13 6 6 14 14 15 15 16 16 4 13 36 35 13 6 36 5 11 28 8 7 23 36 38 35 34 39 38 28 40 42 24 37 23 28 42 27 24 34 37 24 25 34 34 38 43 23 37 45 8 23 45 10 36 6 28 11 40 0 26 44 13 35 12 25 0 44 26 27 39 12 40 11 38 39 42 37 34 43 34 44 39 10 41 36 25 44 34 12 35 40 35 38 42 10 9 41 36 41 43 8 45 9 9 45 41 27 42 39 36 43 38 26 39 44 35 42 40 37 41 45 37 43 41 46 56 57 53 57 56 49 47 52 4 31 16 49 60 47 52 55 19 51 48 56 52 53 55 31 32 50 54 49 62 17 62 49 17 49 18 21 20 48 32 51 50 33 51 32 18 49 52 1 62 17 53 56 55 18 52 19 52 47 53 16 31 63 51 61 48 20 19 55 14 46 6 51 56 58 10 47 9 55 56 48 8 54 7 22 7 54 20 55 48 33 61 51 33 2 61 31 50 63 6 46 57 21 61 2 10 57 47 46 58 56 51 58 50 53 47 57 14 59 46 9 47 60 10 6 57 54 60 49 8 60 54 15 59 14 1 22 62 21 48 61 8 9 60 46 59 58 16 63 15 15 63 59 50 59 63 22 54 62 50 58 59 14 6 13 11 67 64 4 65 30 4 16 65 13 12 66 15 14 66 65 64 67 16 15 64 12 11 64 15 66 64 12 64 66 11 5 67 16 64 65 14 13 66 3 68 29 3 30 68 29 67 5 30 65 68 29 68 67 67 68 65 
</DataArray>
<DataArray type="Int32" Name="offsets" format="ascii">
2 4 6 8 10 12 14 16 18 20 22 24 27 30 33 36 39 42 45 48 51 54 57 60 63 66 69 72 75 78 81 84 87 90 93 96 99 102 105 108 111 114 117 120 123 126 129 132 135 138 141 144 147 150 153 156 159 162 165 168 171 174 177 180 183 186 189 192 195 198 201 204 207 210 213 216 219 222 225 228 231 234 237 240 243 246 249 252 255 258 261 264 267 270 273 276 279 282 285 288 291 294 297 300 303 306 309 312 315 318 321 324 327 330 333 336 339 342 345 348 351 354 357 360 
</DataArray>
<DataArray type="UInt8" Name="types" format="ascii">
3 3 3 3 3 3 3 3 3 3 3 3 5 5 5 5 5 5 5 5 5 5 5 5 5 5 5 5 5 5 5 5 5 5 5 5 5 5 5 5 5 5 5 5 5 5 5 5 5 5 5 5 5 5 5 5 5 5 5 5 5 5 5 5 5 5 5 5 5 5 5 5 5 5 5 5 5 5 5 5 5 5 5 5 5 5 5 5 5 5 5 5 5 5 5 5 5 5 5 5 5 5 5 5 5 5 5 5 5 5 5 5 5 5 5 5 5 5 5 5 5 5 5 5 
</DataArray>
</Cells>
<CellData Scalars="age_conc,U235_conc," Vectors="" Tensors="">
<DataArray type="Float64" Name="age_conc" format="ascii">
3.940617182716518e+04 8.289347422089285e+04 1.233163041569680e+05 1.623905918841186e+05 2.661920394244555e+05 2.521936346057438e+05 2.336579601376595e+05 2.074370123157001e+05 2.103458177801801e+05 2.356873990764553e+05 2.535579230150685e+05 2.670876294711533e+05 2.993681133628669e+05 2.952197722682015e+05 2.999997137676898e+05 1.086980099168633e+05 2.995816332484609e+05 2.946065641358545e+05 2.999888011279230e+05 1.384148004847011e+05 2.998469600110264e+05 2.227617491418740e+05 1.597086397091922e+05 2.876921458111852e+05 2.486079124599050e+05 1.779627987348878e+05 2.871702118611953e+05 2.999981540425463e+05 2.173940549374376e+05 2.998256803389189e+05 1.473596327745631e+05 2.929042225720645e+05 2.999941724504018e+05 2.984281170685773e+05 2.691394017318402e+05 2.670096300647360e+05 2.823253578632951e+05 2.209372053826910e+05 2.999711444219432e+05 2.997903935750915e+05 2.578157311461690e+05 2.973549749149429e+05 2.126109848853266e+05 2.554674367979789e+05 2.991928204846090e+05 2.983548581379410e+05 2.775544162525564e+05 2.999485924032324e+05 2.774625480520991e+05 2.913995507512598e+05 2.987699323402978e+05 2.962626422707612e+05 2.719494836296334e+05 2.999996564361776e+05 2.915717690647987e+05 2.192214575426579e+05 2.904585983525524e+05 2.637726697008425e+05 2.998499516329943e+05 2.416301128753851e+05 1.985678451551167e+05 1.477251974186498e+05 1.473774793288313e+05 2.992845746467526e+05 2.938731868700933e+05 2.220565038493443e+05 1.059160747398750e+05 2.859508123322722e+05 1.433742236104857e+05 2.886637089630199e+05 2.999978944100752e+05 2.681247974213951e+05 1.390339921805608e+05 2.999505595572749e+05 2.969580896396841e+05 2.982731265083431e+05 2.716261296572459e+05 1.990321931613131e+05 1.297513244498527e+05 2.158060435301613e+05 2.803637457643570e+05 2.152893585172773e+05 2.999869104959856e+05 2.998045724290233e+05 1.454090819029035e+05 2.992205126410597e+05 2.996903840463422e+05 2.991239431247369e+05 2.958229509225031e+05 2.999879868192311e+05 2.946846388131675e+05 2.997678932720628e+05 2.725329255699767e+05 2.580117447557530e+05 2.999977989058553e+05 1.107620743765052e+05 2.094526132642316e+05 2.809730025903129e+05 2.999229633500138e+05 2.999995882193422e+05 2.999975930711086e+05 2.999743528224839e+05 1.863173816951831e+05 2.998952928254910e+05 2.604681525344820e+05 2.973933923500738e+05 2.982455964013829e+05 2.945895260305341e+05 2.812022408113367e+05 2.813501070578223e+05 2.993524783621236e+05 2.920846429906337e+05 2.918292865630637e+05 2.941355202265579e+05 2.940963924541206e+05 2.940227131426017e+05 2.974410310165282e+05 2.831085541007580e+05 2.999538240343618e+05 2.999469059902614e+05 2.980473412280600e+05 2.997543821983750e+05 2.997836426462020e+05 2.998088790218902e+05 
</DataArray>
<DataArray type="Float64" Name="U235_conc" format="ascii">
9.493609309013434e-01 8.545737883517799e-01 7.511727474871635e-01 6.305853706168197e-01 2.032787155361349e-01 2.838413371887107e-01 3.724524782064111e-01 4.751135924881098e-01 4.600189624695787e-01 3.612895090972880e-01 2.761478532506709e-01 1.983130666422053e-01 2.767128364749510e-03 2.402333100297508e-02 4.773782981334175e-07 8.419997385068112e-01 1.513698186169997e-03 2.558808989975867e-02 2.901981895614975e-05 7.220857253306698e-01 5.307223939717904e-04 3.955815370575922e-01 6.311202116490879e-01 6.166904044982868e-02 2.733737264077685e-01 6.192569440888245e-01 6.667893198461500e-02 3.838243913149104e-06 4.205100881687475e-01 6.533886421855601e-04 6.769860648311202e-01 3.438444593656628e-02 1.395720140156697e-05 6.616492510932433e-03 1.619019231311998e-01 1.734610352910530e-01 9.269791013261784e-02 4.030014542688468e-01 8.608637924109265e-05 7.249700733997146e-04 2.182122269003997e-01 1.098226740543578e-02 4.487562802110823e-01 2.367839341092452e-01 3.291264457850664e-03 6.888781543428759e-03 1.163764051961210e-01 1.495510808683300e-04 1.155750249293774e-01 4.006935236816452e-02 4.814892736448225e-03 1.677429332221054e-02 1.467609577456642e-01 6.361230158298798e-07 3.936317410503741e-02 4.122310054084459e-01 4.741573652752406e-02 1.909541152105744e-01 5.239142517414687e-04 3.109196615726104e-01 5.170600890833470e-01 6.799331348888730e-01 6.800364321109275e-01 2.923386338927934e-03 2.941770462079735e-02 3.976077734726252e-01 8.475117807224420e-01 7.078397439155139e-02 6.959499030395998e-01 5.667136761125275e-02 4.793818179586526e-06 1.677966576466481e-01 7.151788317858113e-01 1.308723937986335e-04 1.361277361067408e-02 6.782057746866191e-03 1.486470417977282e-01 5.107372248776305e-01 7.483610110296305e-01 4.296875934334101e-01 1.014574135839067e-01 4.304445806328145e-01 3.594957158768515e-05 6.247122315987317e-04 6.837934505493384e-01 2.886525891012942e-03 1.023076196974894e-03 3.397677600400328e-03 1.896457090176969e-02 2.610928831474466e-05 2.396884818245471e-02 7.286886487098866e-04 1.422841208049201e-01 2.213917932989408e-01 3.815498505490175e-06 8.307004020442710e-01 4.597998238254192e-01 9.736629724164950e-02 2.104045313103943e-04 6.828156046868764e-07 4.979666160654409e-06 6.751159024628953e-05 5.768110396677988e-01 3.322202151649384e-04 2.226814726433052e-01 1.156559036487426e-02 7.086920544437903e-03 2.731711085464710e-02 1.039418652563772e-01 1.033322129711739e-01 2.267120539814089e-03 4.203797206480241e-02 4.336082495938083e-02 2.841700914818653e-02 2.854358386191356e-02 3.020653383060293e-02 1.137555902205584e-02 8.948143429774449e-02 1.032732031064316e-04 1.199739519004319e-04 7.895172949304639e-03 7.391597415990057e-04 6.437108479418837e-04 5.231338344513784e-04 
</DataArray>
</CellData>
</Piece>
</UnstructuredGrid>
</VTKFile>
