<?xml version="1.0"?>
<VTKFile type="UnstructuredGrid" version="0.1" byte_order="LittleEndian">
<UnstructuredGrid>
<Piece NumberOfPoints="1896" NumberOfCells="677">
<Points>
<DataArray type="Float64" NumberOfComponents="3" format="ascii">
0.000000000000000e+00 3.750000000000000e+00 0.000000000000000e+00 5.624999999964863e-01 3.999999999998438e+00 0.000000000000000e+00 5.624999999964863e-01 3.999999999998438e+00 0.000000000000000e+00 1.124999999995812e+00 4.249999999998138e+00 0.000000000000000e+00 1.124999999995812e+00 4.249999999998138e+00 0.000000000000000e+00 1.687499999998485e+00 4.499999999999327e+00 0.000000000000000e+00 1.687499999998485e+00 4.499999999999327e+00 0.000000000000000e+00 2.250000000000000e+00 4.750000000000000e+00 0.000000000000000e+00 2.250000000000000e+00 4.750000000000000e+00 0.000000000000000e+00 1.750000000000000e+00 5.000000000000000e+00 0.000000000000000e+00 2.250000000000000e+00 4.750000000000000e+00 0.000000000000000e+00 2.875000000000000e+00 4.375000000000000e+00 0.000000000000000e+00 2.875000000000000e+00 4.375000000000000e+00 0.000000000000000e+00 3.500000000000000e+00 4.000000000000000e+00 0.000000000000000e+00 3.500000000000000e+00 4.000000000000000e+00 0.000000000000000e+00 2.750000000000000e+00 4.000000000000000e+00 0.000000000000000e+00 2.250000000000000e+00 4.750000000000000e+00 0.000000000000000e+00 2.687500000002093e+00 5.000000000001196e+00 0.000000000000000e+00 2.687500000002093e+00 5.000000000001196e+00 0.000000000000000e+00 3.125000000002093e+00 5.250000000001196e+00 0.000000000000000e+00 3.125000000002093e+00 5.250000000001196e+00 0.000000000000000e+00 3.562500000002093e+00 5.500000000001196e+00 0.000000000000000e+00 3.562500000002093e+00 5.500000000001196e+00 0.000000000000000e+00 4.000000000000000e+00 5.750000000000000e+00 0.000000000000000e+00 4.000000000000000e+00 5.750000000000000e+00 0.000000000000000e+00 3.500000000000000e+00 5.000000000000000e+00 0.000000000000000e+00 4.000000000000000e+00 5.750000000000000e+00 0.000000000000000e+00 3.250000000000000e+00 6.250000000000000e+00 0.000000000000000e+00 4.000000000000000e+00 5.750000000000000e+00 0.000000000000000e+00 4.500000000000000e+00 6.000000000000000e+00 0.000000000000000e+00 4.500000000000000e+00 6.000000000000000e+00 0.000000000000000e+00 5.000000000000000e+00 6.250000000000000e+00 0.000000000000000e+00 4.750000000000000e+00 7.250000000000000e+00 0.000000000000000e+00 4.500000000005181e+00 6.750000000010362e+00 0.000000000000000e+00 4.500000000005181e+00 6.750000000010362e+00 0.000000000000000e+00 4.250000000005181e+00 6.250000000010362e+00 0.000000000000000e+00 4.250000000005181e+00 6.250000000010362e+00 0.000000000000000e+00 4.000000000000000e+00 5.750000000000000e+00 0.000000000000000e+00 4.000000000000000e+00 5.750000000000000e+00 0.000000000000000e+00 4.625000000000000e+00 5.375000000000000e+00 0.000000000000000e+00 4.625000000000000e+00 5.375000000000000e+00 0.000000000000000e+00 5.250000000000000e+00 5.000000000000000e+00 0.000000000000000e+00 5.250000000000000e+00 5.000000000000000e+00 0.000000000000000e+00 4.750000000000000e+00 4.750000000000000e+00 0.000000000000000e+00 3.500000000000000e+00 4.000000000000000e+00 0.000000000000000e+00 4.250000000000000e+00 3.500000000000000e+00 0.000000000000000e+00 4.250000000000000e+00 4.750000000000000e+00 0.000000000000000e+00 4.750000000000000e+00 4.375000000000000e+00 0.000000000000000e+00 4.750000000000000e+00 4.375000000000000e+00 0.000000000000000e+00 5.250000000000000e+00 4.000000000000000e+00 0.000000000000000e+00 4.250000000000000e+00 1.500000000000000e+00 0.000000000000000e+00 4.624999999997918e+00 1.874999999997918e+00 0.000000000000000e+00 4.624999999997918e+00 1.874999999997918e+00 0.000000000000000e+00 5.000000000000000e+00 2.250000000000000e+00 0.000000000000000e+00 5.000000000000000e+00 2.250000000000000e+00 0.000000000000000e+00 5.250000000000000e+00 1.750000000000000e+00 0.000000000000000e+00 5.250000000000000e+00 1.750000000000000e+00 0.000000000000000e+00 5.500000000000000e+00 1.250000000000000e+00 0.000000000000000e+00 5.500000000000000e+00 1.250000000000000e+00 0.000000000000000e+00 5.750000000000000e+00 7.500000000000000e-01 0.000000000000000e+00 5.000000000000000e+00 2.250000000000000e+00 0.000000000000000e+00 4.750000000000000e+00 2.750000000000000e+00 0.000000000000000e+00 5.000000000000000e+00 2.250000000000000e+00 0.000000000000000e+00 5.500000000000000e+00 2.750000000000000e+00 0.000000000000000e+00 5.500000000000000e+00 2.750000000000000e+00 0.000000000000000e+00 5.750000000000000e+00 2.500000000000000e+00 0.000000000000000e+00 3.500000000000000e+00 4.000000000000000e+00 0.000000000000000e+00 4.125000000008327e+00 4.000000000000000e+00 0.000000000000000e+00 4.125000000008327e+00 4.000000000000000e+00 0.000000000000000e+00 4.750000000000000e+00 4.000000000000000e+00 0.000000000000000e+00 4.750000000000000e+00 4.000000000000000e+00 0.000000000000000e+00 5.250000000000000e+00 4.000000000000000e+00 0.000000000000000e+00 5.500000000000000e+00 2.750000000000000e+00 0.000000000000000e+00 5.125000000000000e+00 3.375000000000000e+00 0.000000000000000e+00 5.125000000000000e+00 3.375000000000000e+00 0.000000000000000e+00 4.750000000000000e+00 4.000000000000000e+00 0.000000000000000e+00 6.000000000000000e+00 3.750000000000000e+00 0.000000000000000e+00 6.750000000000000e+00 4.000000000000000e+00 0.000000000000000e+00 5.250000000000000e+00 5.000000000000000e+00 0.000000000000000e+00 5.749999999991033e+00 4.666666666672645e+00 0.000000000000000e+00 5.749999999991033e+00 4.666666666672645e+00 0.000000000000000e+00 6.249999999991033e+00 4.333333333339311e+00 0.000000000000000e+00 6.249999999991033e+00 4.333333333339311e+00 0.000000000000000e+00 6.750000000000000e+00 4.000000000000000e+00 0.000000000000000e+00 5.500000000000000e+00 2.750000000000000e+00 0.000000000000000e+00 5.916666666666667e+00 3.166666666666667e+00 0.000000000000000e+00 5.916666666666667e+00 3.166666666666667e+00 0.000000000000000e+00 6.333333333333333e+00 3.583333333333333e+00 0.000000000000000e+00 6.333333333333333e+00 3.583333333333333e+00 0.000000000000000e+00 6.750000000000000e+00 4.000000000000000e+00 0.000000000000000e+00 5.250000000000000e+00 5.000000000000000e+00 0.000000000000000e+00 5.750000000000000e+00 5.250000000000000e+00 0.000000000000000e+00 5.750000000000000e+00 5.250000000000000e+00 0.000000000000000e+00 6.250000000000000e+00 5.500000000000000e+00 0.000000000000000e+00 6.250000000000000e+00 5.500000000000000e+00 0.000000000000000e+00 6.750000000000000e+00 5.750000000000000e+00 0.000000000000000e+00 6.750000000000000e+00 5.750000000000000e+00 0.000000000000000e+00 7.250000000000000e+00 6.000000000000000e+00 0.000000000000000e+00 7.250000000000000e+00 6.000000000000000e+00 0.000000000000000e+00 6.875000000000000e+00 5.625000000000000e+00 0.000000000000000e+00 6.875000000000000e+00 5.625000000000000e+00 0.000000000000000e+00 6.500000000000000e+00 5.250000000000000e+00 0.000000000000000e+00 7.250000000000000e+00 6.000000000000000e+00 0.000000000000000e+00 7.600000000000000e+00 6.400000000000000e+00 0.000000000000000e+00 7.600000000000000e+00 6.400000000000000e+00 0.000000000000000e+00 7.950000000000000e+00 6.800000000000000e+00 0.000000000000000e+00 7.950000000000000e+00 6.800000000000000e+00 0.000000000000000e+00 8.300000000000001e+00 7.200000000000000e+00 0.000000000000000e+00 8.300000000000001e+00 7.200000000000000e+00 0.000000000000000e+00 8.650000000000000e+00 7.600000000000000e+00 0.000000000000000e+00 8.650000000000000e+00 7.600000000000000e+00 0.000000000000000e+00 9.000000000000000e+00 8.000000000000000e+00 0.000000000000000e+00 7.250000000000000e+00 6.000000000000000e+00 0.000000000000000e+00 7.750000000000000e+00 6.250000000000000e+00 0.000000000000000e+00 6.750000000000000e+00 4.000000000000000e+00 0.000000000000000e+00 7.249999999991033e+00 4.333333333327355e+00 0.000000000000000e+00 7.249999999991033e+00 4.333333333327355e+00 0.000000000000000e+00 7.749999999991033e+00 4.666666666660689e+00 0.000000000000000e+00 7.749999999991033e+00 4.666666666660689e+00 0.000000000000000e+00 8.250000000000000e+00 5.000000000000000e+00 0.000000000000000e+00 8.250000000000000e+00 5.000000000000000e+00 0.000000000000000e+00 7.500000000000000e+00 4.750000000000000e+00 0.000000000000000e+00 7.750000000000000e+00 5.500000000000000e+00 0.000000000000000e+00 8.250000000000000e+00 5.000000000000000e+00 0.000000000000000e+00 8.250000000000000e+00 5.000000000000000e+00 0.000000000000000e+00 9.000000000000000e+00 5.500000000000000e+00 0.000000000000000e+00 8.250000000000000e+00 5.000000000000000e+00 0.000000000000000e+00 8.750000000000000e+00 5.166666666666667e+00 0.000000000000000e+00 8.750000000000000e+00 5.166666666666667e+00 0.000000000000000e+00 9.250000000000000e+00 5.333333333333333e+00 0.000000000000000e+00 9.250000000000000e+00 5.333333333333333e+00 0.000000000000000e+00 9.750000000000000e+00 5.500000000000000e+00 0.000000000000000e+00 8.250000000000000e+00 5.000000000000000e+00 0.000000000000000e+00 8.750000000000000e+00 4.666666666666667e+00 0.000000000000000e+00 8.750000000000000e+00 4.666666666666667e+00 0.000000000000000e+00 9.250000000000000e+00 4.333333333333333e+00 0.000000000000000e+00 9.250000000000000e+00 4.333333333333333e+00 0.000000000000000e+00 9.750000000000000e+00 4.000000000000000e+00 0.000000000000000e+00 8.250000000000000e+00 3.750000000000000e+00 0.000000000000000e+00 8.750000000000000e+00 3.833333333333334e+00 0.000000000000000e+00 8.750000000000000e+00 3.833333333333334e+00 0.000000000000000e+00 9.250000000000000e+00 3.916666666666667e+00 0.000000000000000e+00 9.250000000000000e+00 3.916666666666667e+00 0.000000000000000e+00 9.750000000000000e+00 4.000000000000000e+00 0.000000000000000e+00 9.750000000000000e+00 4.000000000000000e+00 0.000000000000000e+00 1.025000000000000e+01 4.083333333333333e+00 0.000000000000000e+00 1.025000000000000e+01 4.083333333333333e+00 0.000000000000000e+00 1.075000000000000e+01 4.166666666666667e+00 0.0000000000000
[...]
<PointData Scalars="A_conc,B_conc,region_id," Vectors="" Tensors="">
<DataArray type="Float64" Name="A_conc" format="ascii">
3.002745392665410e-01 2.891012032647024e-01 2.896702535637236e-01 2.857492916927917e-01 2.860562235025753e-01 2.844218081376284e-01 2.845287485444168e-01 2.839218904124590e-01 2.827215598792310e-01 2.902435233561103e-01 2.348701171014705e-01 2.196105555994559e-01 2.202591351511960e-01 2.142921398455891e-01 2.115559219829643e-01 2.308895827779554e-01 3.617218214913912e-01 3.442263721055673e-01 3.448429145471232e-01 3.309829888296200e-01 3.295877550649928e-01 3.195465122631365e-01 3.202463729757369e-01 3.166672714265986e-01 4.253519028116484e-01 4.221403911254598e-01 3.144570152377679e-01 3.292502613527075e-01 4.660418127535455e-01 4.715453639178088e-01 4.711499995410114e-01 4.820689539566919e-01 1.204922527573775e-01 4.215274428579250e-01 4.161959881402320e-01 4.275036453735340e-01 4.039161503641860e-01 3.192696270298386e-01 2.272208971225385e-01 2.164019722875366e-01 2.158609862999247e-01 2.144920391968195e-01 3.096652586865175e-01 5.855278813117628e-01 3.555328464723295e-01 4.446656954479662e-01 1.826758811386348e-01 1.567422680459441e-01 1.614020261028134e-01 1.541538958717962e-01 2.683214753094416e-01 2.420682286552058e-01 2.465140149418832e-01 2.390174529318397e-01 3.826574982179896e-01 2.924166867485777e-01 2.582159514411820e-01 -2.841096897584489e-02 3.762121066030831e-03 6.383418266345602e-02 2.079291640295121e-01 3.632088520814474e-01 2.177608194203918e-01 2.058706504353375e-01 1.677941050352862e-01 1.613388009126634e-01 2.021568107754200e-01 2.011216878507905e-01 2.011057523421259e-01 1.999813538376325e-01 1.694477250961838e-01 1.553512273502177e-01 2.082186929298795e-01 2.140195256929613e-01 2.145863550519518e-01 2.273737450869738e-01 1.443370978405523e-01 1.406094696238769e-01 1.625964964930836e-01 1.480273124967859e-01 1.484656797457154e-01 1.432680448752368e-01 1.435938970066696e-01 1.404244629428840e-01 4.273354650576421e-01 3.850758535891978e-01 3.781040944698854e-01 3.053530536241478e-01 3.044324635608240e-01 1.916689251621123e-01 5.573953607383354e-01 5.284181994393605e-01 5.285063048311466e-01 4.985337066095225e-01 5.081791947954735e-01 5.046201002573335e-01 5.001680174716663e-01 4.878744964871659e-01 2.935399958515341e-01 3.192007824387955e-01 3.228533962613341e-01 3.435963426900056e-01 6.125210358883866e-01 6.168919408769232e-01 6.160563819071122e-01 6.195585393357620e-01 6.151091969701122e-01 5.841205654620912e-01 5.766159100726244e-01 5.250567586294500e-01 5.254822671596587e-01 4.960271994193453e-01 4.110178349402580e-01 5.388840302388228e-01 1.408295100329762e-01 1.178349015496113e-01 1.182682956832669e-01 1.035528824535501e-01 1.047606404905726e-01 8.908148623873258e-02 8.151767312982730e-02 1.218968161687873e-01 1.207971583220267e-01 8.180259918853293e-02 2.406334874226537e-02 3.777836532342543e-01 5.551613116785749e-01 5.167571991430771e-01 5.155309818679955e-01 4.763595339291357e-01 4.856382852291944e-01 5.022659145725027e-01 3.562351698098116e-02 2.603111391088491e-02 2.653466205997735e-02 2.302787982318454e-02 2.329802278951332e-02 2.184869169690454e-02 8.805876336320445e-02 1.621051295818799e-02 3.279995438673600e-02 2.493367481553945e-02 2.586114466489805e-02 2.181994659934041e-02 2.203136805639406e-02 1.979766910726998e-02 2.011514189218432e-02 1.984173311345413e-02 1.984049100665608e-02 1.956034400352216e-02 5.489793720250451e-03 6.130018150244863e-02 1.607036125783395e-01 5.993198473129556e-02 2.095013379407914e-03 -1.690350138696288e-04 1.966796766686884e-04 -6.862299584373969e-05 1.116388887670708e-06 -3.016286953943005e-06 1.248779688103640e-01 1.125224208182360e-01 1.118182131263377e-01 8.862738867423428e-02 8.784562167318966e-02 5.511450928591477e-02 5.437524705748337e-02 1.997099286911416e-02 2.489925758012884e-01 1.712088648362408e-01 1.862954224141660e-01 1.524949639828653e-01 1.583905514171981e-01 1.573221203497397e-01 1.573169077137160e-01 1.562189410556115e-01 1.375672246879088e-01 2.324118881684460e-01 1.727299377630757e-01 1.637954647861596e-01 1.630284909766380e-01 1.574145250932683e-01 3.449680094344051e-01 7.924940735568081e-02 7.984812732779073e-02 2.810388414963166e-01 2.980779146072932e-01 5.116553779325455e-01 1.543924913492025e-01 1.444302240204693e-01 2.868260195517075e-01 3.069880652766988e-01 2.685336383484724e-01 3.876969036483233e-01 5.143204709668461e-01 3.449456707990959e-01 2.676195038546381e-01 2.547240796921530e-01 2.546265302543610e-01 2.472602314674398e-01 2.473233865535351e-01 2.435057585444575e-01 2.435760356794110e-01 2.419427486032858e-01 2.419619525597663e-01 2.405895034657568e-01 2.405973783915385e-01 2.394116479343061e-01 2.660604026778371e-01 2.727223845079584e-01 2.691799568535682e-01 2.988805244288375e-01 2.975340645998720e-01 3.536748889232122e-01 3.614526268317720e-01 4.033830200855170e-01 4.829618412822623e-01 1.279131746200810e-01 3.167589023796472e-01 3.175920525667096e-01 3.176002939382934e-01 3.182485159947907e-01 3.182532910788569e-01 3.188651513660480e-01 3.188649365010213e-01 3.194672055304852e-01 3.194489122052465e-01 3.201248607075718e-01 3.198341879838611e-01 3.217262897910697e-01 1.573942812015591e-01 1.510127615991460e-01 1.511334065466627e-01 1.475230584444726e-01 1.020100217917467e-01 7.550191140943228e-02 7.565551251477153e-02 5.097310899902246e-02 5.214581917718394e-02 3.385556046720331e-02 3.315095306450316e-02 1.866617937375731e-02 3.426567772089033e-01 2.636007961971280e-01 2.629706519085982e-01 1.937486130102425e-01 1.971472300832113e-01 1.328713460385300e-01 1.107275469922418e-01 1.468525867864947e-01 1.513283783118601e-01 1.999771326152822e-01 1.983135311662428e-01 2.330545191060974e-01 2.304293717028735e-01 2.775265478281512e-01 2.748590334750589e-01 3.172905173144857e-01 4.829162229472413e-01 4.908338107831546e-01 4.908799055122204e-01 4.951176901413193e-01 4.946545859254803e-01 4.926666127462647e-01 4.924831748379491e-01 4.896978215229923e-01 1.616092714875392e-01 1.595760655424414e-01 1.596676021782029e-01 1.584008859949818e-01 2.961943995482835e-01 2.877108208615601e-01 3.271231490110409e-01 2.951009677091021e-01 2.829558568888575e-01 2.941091952185676e-01 4.679551385963123e-01 4.987076137106895e-01 4.767678156362493e-01 3.193600468228644e-01 2.975752293838512e-01 3.902519620475604e-01 4.811514645231008e-01 4.954725101372072e-01 4.930619202872742e-01 4.789488677566556e-01 5.602174479949562e-01 4.214316945160957e-01 7.411912152382637e-02 6.646936293414625e-03 -5.827441386812254e-03 5.785258823933044e-01 5.566941536850537e-01 7.260120161886447e-01 6.361933557214651e-01 4.218452809065337e-01 1.578315112177535e-01 4.943192401575838e-02 -1.141828935608551e-02 -1.375017994697938e-02 3.215726476940782e-01 3.109826111137940e-01 4.511398751347202e-01 3.846135774429805e-01 3.262487565127020e-01 3.255918652541989e-01 2.910554499139275e-01 3.205710201990560e-01 3.321046015146403e-01 3.792887876334053e-01 2.944399342121142e-01 4.151356709603276e-01 4.149711371265318e-01 2.944431525868007e-01 3.546628801310946e-01 -1.172218566183189e-01 -1.232315529784192e-01 4.099117851206994e-01 4.235100216374613e-01 -3.659009548878594e-02 5.578981115186048e-01 2.939703750443144e-01 3.130117005398186e-01 2.949873808952724e-01 2.909498525607246e-01 3.204579756871717e-01 2.915640090991152e-01 2.887122132074553e-01 3.336895363275820e-01 2.878036361800749e-01 2.872321140578571e-01 3.340135467491026e-01 3.301803785771096e-01 4.459827845956129e-01 3.235301949496640e-01 4.501550883366905e-01 4.220452293418781e-01 3.694020794778155e-01 4.363511997623871e-01 4.347572236412540e-01 3.981311376927477e-01 3.165501175890605e-01 3.231162604619908e-01 4.367292490204858e-01 3.144856584068552e-01 4.436924091885249e-01 4.070525971707311e-01 2.990633261079992e-01 -1.114147500438826e-01 -1.184402530448134e-01 4.127332919668421e-01 -1.121852992148265e-01 4.146285243757890e-01 3.519780938546319e-01 1.078710327533463e-01 4.854322790990880e-01 4.478679530858817e-02 3.586900646989719e-02 -1.504672791271310e-02 5.720141798347998e-02 7.627858231697354e-02 4.233376563329638e-03 8.098622873261258e-02 6.033398513719884e-02 2.936052466630765e-03 1.597901030420320e-01 8.608527841118220e-02 1.658520839899901e-02 -6.403316270720332e-03 9.699424976972805e-02 7.264536655871953e-02 1.465963340140753e-01 1.132708252534670e-02 8.655488977203640e-02 8.981316815206676e-02 3.521569854710980e-01 3.277611326583197e-01 3.810238213364033e-01 3.592634358206464e-01 3.112965146645230e-01 3.198066078745490e-01 4.443151711522592e-01 2.980765991167910e-01 3.775647851353973e-01 4.026159839857822e-01 3.547136894602652e-01 3.657896353947565e-01 3.526390118058880e-01 3.803184256514731e-01 3.967936515529507e-01 3.266342533542990e-01 1.762602440480681e-01 3.545746177583487e-02 5.879208100375433e-02 1.755359446564795e-01 3.087093000513503e-01 -4.300112130731075e-02 -4.497561592044756e-02 1.223632081742999e-01 1.690548669174446e-01 -1.020148827887639e-01 3.442321942039786e-01 6.192627348271096e-01 1.788242379997274e-01 3.480427994336818e-01 1.509420161552239e-01 1.396622878287097e-02 9.667880449597628e-02 1.547082556588906e-01 8.208990375996733e-02 1.589566087312622e-01 3.953726361820080e-01 3.228727783770361e-01 3.848897902940387e-01 1.528707895571559e-01 4.754024403897951e-01 4.578563795999442e-01 6.694165331860460e-02 -4.726261797210363e-02 1.313354488293040e-01 4.203610862707312e-01 4.354480240874697e-01 4.141697349960364e-01 1.108990472152110e-01 -6.946717013764862e-03 2.851288114991110e-01 3.150622304865016e-01 4.731901777970755e-02 4.830988311506839e-01 6.369683475123735e-01 6.488419578115737e-01 5.291300369824299e-01 5.087420517718240e-01 5.930794050959012e-01 5.277605956494931e-01 -9.347291742330811e-04 3.982408103053786e-02 6.984005035629907e-02 -4.984927530773007e-03 3.557708625704928e-02 6.265839715533316e-04 2.787907754898894e-01 3.697201025657710e-01 4.637852387251530e-01 2.128599748267224e-01 4.853167961373015e-01 1.459009776120272e-01 2.857826550154123e-01 4.557781582695404e-01 4.432725038023839e-01 5.019388319484184e-01 5.104873351590513e-01 5.117007351924515e-01 1.021648051447177e-01 5.693130162064109e-01 2.475930680292140e-01 5.361859530822344e-01 5.481746711588853e-01 2.701652951304340e-01 2.962129561437850e-01 5.422692168665572e-01 5.186884916489848e-01 5.025477103048822e-01 4.395710763193277e-01 5.323159533840934e-01 4.487292435919916e-01 6.251162847651057e-02 1.585583722646170e-01 1.438104684079605e-01 4.255094414364594e-01 4.673158987447201e-01 5.402787718921819e-01 6.757043625002784e-01 5.723102061760610e-01 3.152406685697892e-01 3.382609699316125e-01 3.786486946582403e-01 4.093623002830077e-01 4.306393491383959e-01 4.222699930754921e-01 3.917448512272348e-01 3.543395390164299e-01 4.031017019739973e-01 3.192900615945186e-01 1.572188581618650e-01 1.627506425250904e-01 3.340224200735381e-01 3.355007749761571e-01 1.465684058165420e-01 5.092751693922251e-01 5.110149040847982e-01 5.171699465139532e-01 9.161664574931223e-02 5.364042031261237e-02 5.823131736680481e-01 4.585224357781361e-01 5.900194622902132e-01 5.556732263513594e-02 7.211556357205976e-01 6.319984794850750e-01 5.791298357370959e-01 6.401330769031923e-01 6.698575508309570e-01 5.891608122028544e-01 6.348546260875142e-01 3.281993901461266e-01 5.849508302360552e-01 5.464465184869637e-01 5.706747172099520e-01 3.127186269554734e-01 3.393662299897223e-01 5.780278267486695e-01 3.445969069870626e-01 6.561956370744139e-01 6.610833265000724e-01 6.632755327121007e-01 7.142736162063712e-01 6.252072431135961e-01 6.805860431706759e-01 7.107862425006501e-01 6.928689881025869e-01 4.324753517261587e-01 4.296640624388925e-01 6.406118329523695e-01 7.310355637444518e-01 5.641244328854464e-01 7.252678980512060e-01 5.977512581636807e-01 6.814545035835698e-01 6.845126782398460e-01 6.520028920024890e-01 3.142775750527717e-01 3.349312050125142e-01 3.292924364341155e-01 3.326286961222117e-01 3.455077614837471e-01 3.349766241443488e-01 3.454847704072099e-01 3.629989173900124e-01 3.344677518215890e-01 3.319663732672055e-01 3.177106819235182e-01 3.769283420492073e-01 3.168919036523021e-01 3.378206610888238e-01 3.780085536207506e-01 3.187913783197431e-01 3.194055335795055e-01 3.354959132752468e-01 3.193949426505662e-01 3.236222495263092e-01 3.342383637948624e-01 3.194517841378350e-01 3.201261088440870e-01 3.249438019069619e-01 3.198819386337481e-01 3.213019245207628e-01 3.229579419362010e-01 3.326365486659632e-01 4.036541469515718e-01 3.938354383780333e-01 3.185163505892830e-01 3.216673381479089e-01 3.862271408097390e-01 4.429328642868871e-01 3.478217244995789e-01 4.132884296033031e-01 4.393179650219061e-01 4.177957438693358e-01 3.426317225067707e-01 4.178114387663980e-01 3.037451739308319e-01 1.259772763455355e-01 3.321710923269472e-01 3.257403388156492e-01 3.406180206420022e-01 3.423809727873385e-01 3.365756567460605e-01 3.520076301181660e-01 3.309369066147326e-01 3.164721989358831e-01 3.329324737511603e-01 3.714293502933917e-01 3.135978365575240e-01 3.056298944742605e-01 4.221721779100663e-01 4.515277864426792e-01 3.111140297960154e-01 3.418911195476978e-01 3.278061875984371e-01 4.257274604865253e-01 4.209302964541259e-01 2.915072068889281e-01 3.332015838722033e-01 3.425784040661344e-01 3.655512534013370e-01 3.589153649533965e-01 3.956589675344093e-01 3.594848872032539e-01 3.650348398143797e-01 3.064665715003551e-01 3.969875463397170e-01 3.236360723766198e-01 3.275516307084612e-01 4.051581347330796e-01 4.262396877650647e-01 3.413681693073157e-01 3.329812095193794e-01 3.699834736679108e-01 3.730921999165283e-01 3.414773725107067e-01 3.525526209323475e-01 3.872929206733105e-01 3.456685778585729e-01 3.469843290400615e-01 3.491109989507190e-01 4.153350495343509e-01 3.862813539505937e-01 3.982065832565018e-01 3.710745457659752e-01 4.079326838129394e-01 5.149403499265796e-01 5.021527765044388e-01 5.201709875158426e-01 4.498758979374455e-01 3.055685051586518e-01 4.946384120674724e-01 4.988238185010166e-01 5.269373397016236e-01 5.348419580836623e-01 4.838014523715511e-01 5.453988761076302e-01 4.515734048692659e-01 4.476927610386084e-01 1.899645033401026e-01 3.036469245000720e-01 4.617964636631094e-01 1.889041167426423e-01 4.757813597740059e-01 4.542127259309505e-01 2.045876987628489e-01 1.934049390582643e-01 4.613037869117551e-01 2.525131565321438e-01 6.421072329007560e-01 2.226913051968045e-01 4.387976034509327e-01 5.497519079083065e-01 4.325764755105700e-01 6.245166179548332e-01 5.445929634114289e-01 5.900797394881291e-01 4.480483732153415e-01 4.957990366869547e-01 5.084191667192215e-01 5.220126694648703e-01 5.499986801351873e-01 5.761746871684726e-01 5.478324877435002e-01 5.565310494645952e-01 2.998346259789078e-01 2.241217574401946e-01 5.492669996582771e-01 3.659027749271304e-01 4.466030351638726e-01 6.083312751150515e-01 1.569582619256163e-01 5.541631370280137e-01 5.358687139434125e-01 1.846936717446189e-01 4.770396133353211e-01 5.376113220678246e-01 2.105393184204508e-01 3.872896558260091e-01 4.264530270884082e-01 5.253834370214555e-01 3.974802848694540e-01 3.416476378033161e-01 2.615270599725547e-01 1.960923574059678e-01 1.994917728182800e-01 2.774301517596040e-01 1.711546771060928e-01 1.709353403176601e-01 2.698881612514165e-01 3.256667706095229e-01 1.905293222957323e-01 2.031158993590949e-01 1.741093151393255e-01 1.503164865077892e-01 3.168454539847047e-01 3.273462987791152e-01 1.873751017338256e-01 3.140519455977675e-01 4.234910356063092e-01 3.318194338283818e-01 4.203986947427427e-01 4.662730724158837e-01 3.360087777451350e-01 4.217072173298873e-01 5.194792061167305e-01 4.687528439551629e-01 4.632407270640928e-01 5.211049917053583e-01 4.362825266802564e-01 3.672017110454405e-01 4.433447580682559e-01 5.100537739013453e-01 4.523791293851001e-01 4.153412980119607e-01 4.417917734611167e-01 1.975504550691954e-01 1.246454010835659e-01 2.337529435723254e-01 2.351069785745916e-01 2.195480733585703e-01 3.733613024831383e-01 2.336054593938595e-01 4.302133061406069e-01 4.400398915107829e-01 2.465078811974029e-01 5.504038375391473e-01 6.219023407230531e-02 5.523564902860548e-01 4.758333389246007e-01 5.917364701816127e-01 6.251384256751741e-01 3.944671918181129e-01 4.205333812443230e-01 4.412196029082276e-01 4.435425985004064e-01 5.588935756233802e-01 5.772902452183222e-01 5.926220739573435e-01 5.512010080557145e-01 4.075144090113261e-01 6.288441768036613e-01 6.261540310834600e-01 5.527303962489455e-01 5.460050516896944e-01 5.761898918369385e-01 5.223538838993645e-01 2.181144728120576e-01 1.678712455401660e-01 5.181122973305667e-01 4.994999575644909e-01 2.255529792736388e-01 2.092002014788927e-01 2.308329899977124e-01 2.616931305149034e-01 2.283510761070211e-01 2.877767540411452e-01 2.619679914734969e-01 3.119128581802096e-01 3.296761951164596e-01 2.524596652841239e-01 3.132360587638532e-01 3.149506614945692e-01 2.851616060945933e-01 4.044673153453142e-01 3.362569448902154e-01 3.185053551856351e-01 4.272686797386272e-01 3.783207344086507e-01 3.387458428924193e-01 3.200193957229602e-01 2.978499777665443e-01 3.523951449882170e-01 3.294148444766036e-01 3.182527989132173e-01 3.848802581231439e-01 3.116075204145992e-01 3.403879895272652e-01 3.215387210187184e-01 3.541353575857787e-01 4.286811236102452e-01 3.379366297814062e-01 3.225036244348651e-01 2.818367931202387e-01 3.110917006545731e-01 4.752419176510651e-01 4.348502056800070e-01 3.738874748355750e-01 4.822805495590717e-01 2.967408382139233e-01 3.548913609581142e-01 4.115136220054414e-01 5.138899945896606e-01 3.454819600118898e-01 2.701408426436550e-01 3.852852246107353e-01 3.473749945102689e-01 3.687182818537328e-01 4.550517942737001e-01 4.805187352413769e-01 2.370017000502296e-01 3.744311314449599e-01 2.888085052248033e-01 2.386706684199321e-01 2.987697262291872e-01 3.721216726638382e-01 4.846792322567233e-01 4.152389026504746e-01 2.950942158287022e-01 3.528386420712126e-01 3.188479888148401e-01 3.403918975483817e-01 3.207232186675631e-01 3.000430927242957e-01 3.376669717518194e-01 2.598090029805207e-01 2.983342090388250e-01 2.771100495971024e-01 2.978150988785909e-01 3.240754674831519e-01 2.775065629286228e-01 3.554860996571703e-01 3.945450638323558e-01 3.201780467375489e-01 3.937252390610146e-01 3.896957699898300e-01 3.213299372448888e-01 4.027796468740868e-01 3.905212274818002e-01 3.621311944517204e-01 4.840467910398158e-01 1.274203791097655e-01 1.292360292451953e-01 4.453537882420427e-01 3.796402157481342e-01 4.266994257507624e-01 3.627008851979033e-01 4.824390556082958e-01 4.777148255593383e-01 3.805618832308783e-01 4.442884053887589e-01 4.206248235170472e-01 4.237695642665829e-01 4.815194173407506e-01 3.636832100433297e-01 4.607667831912389e-01 4.568775946062569e-01 4.348323934704107e-01 1.913174008529930e-01 4.817153545577895e-01 4.599746826284355e-01 2.221431112077348e-01 4.765383113683417e-01 4.674414564621235e-01 2.105715002885592e-01 3.652415372971627e-01 2.565736635910518e-01 5.334484978071035e-01 5.839870386193519e-01 5.380861962944872e-01 4.245407559457827e-01 5.333026372510967e-01 5.144371987606515e-01 6.218823646404391e-01 1.542389289303594e-01 5.568339463561027e-01 5.842521008407456e-01 5.307633581150715e-01 5.750614921105413e-01 3.521518549343735e-01 1.450982149086892e-01 6.266976924496479e-01 5.387161626299189e-01 5.731555092073689e-01 5.213830753115738e-01 5.608667097418940e-01 5.350258043449254e-01 5.150097816384996e-01 5.116751439110484e-01 5.602254651722117e-01 5.124828906344353e-01 5.212309333330037e-01 4.805077709290665e-01 5.025958024435865e-01 4.846165697028622e-01 4.208030414844480e-01 3.902557637057762e-01 3.836257556801524e-01 4.224441776634107e-01 3.520776261272157e-01 3.979045336376257e-01 4.987442441507545e-01 4.793265461675706e-01 3.541334955955493e-01 3.795953517817336e-01 3.787958912670001e-01 -1.768057516553952e-01 4.109316920291585e-01 -1.738196999225714e-01 3.558733639984522e-02 4.757467240735479e-03 5.808936574287336e-02 3.432971565650919e-02 2.101495665678740e-02 4.948827370082357e-03 -3.631488665336728e-02 9.906113153436560e-02 -3.773