<?xml version="1.0"?>
<VTKFile type="UnstructuredGrid" version="0.1" byte_order="LittleEndian">
<UnstructuredGrid>
<Piece NumberOfPoints="568" NumberOfCells="1054">
<Points>
<DataArray type="Float64" NumberOfComponents="3" format="ascii">
0 0 0.45000000000187229 0.028862206535002891 0 0.97113779346499696 0 0 0.050000000000207989 0 0 0.10000000000041601 0 0 0.15000000000062411 0 0 0.20000000000083221 0 0 0.25000000000104028 0 0 0.30000000000124832 0 0 0.35000000000145642 0.029444907164209121 0 0.47500000000196552 0 0 0.40000000000166441 0 0 1 0 0 0.50000000000205869 0 0 0.55000000000173355 0 0 0.60000000000138687 0 0 0.65000000000104008 0 0 0.7000000000006934 0 0 0.75000000000034661 0 0 0.79999999999999982 0 0 0.94999999999979179 0 0 0.89999999999958358 0 0 0.84999999999965292 0 0 0 0.03009768781606036 0 0.67524082072853464 0.05377533243853682 0 0.1325005004430061 0.05219762359067761 0 0.5531927155492542 0.050000000000207989 0 1 0.041139877312483759 0 0.59314418172763006 0.040058458469322267 0 0.9055421444207985 0.03379823124261027 0 0.32804723569673411 0.053537423120311442 0 0.28721465904708382 0.053775332438596377 0 0.86749949955697336 0.03725404360008934 0 0.1750000000007281 0.043978856409119048 0 0.82622323758840599 0.040058458469319463 0 0.094457855579157701 0.049999999999899652 0 0 0.036425730597433051 0 0.51708936604870748 0.056452228708379938 0 0.23456580837661581 0.043754219318799227 0 0.63683882794126723 0.047626564331035043 0 0.71795613324807461 0.054822505822594972 0 0.77294726536028102 0.033928849768172148 0 0.36303967476065702 0.032369857048753323 0 0.032369857048862027 0.058433525112254137 0 0.94156647488774581 0.043903581319822103 0 0.4396595897603241 0.060355908961946793 0 0.39369310381996869 0.058433525112266523 0 0.058433525112214509 0.086115928109652365 0 0.56837912409408997 0.08840803250064784 0 0.8167343782900045 0.089842803725715389 0 0.1381841208714272 0.082790869735775666 0 0.17901245275062619 0.07995820376651902 0 0.60839637110479639 0.075118110585058809 0 0.33967192637290311 0.068965415216487885 0 0.67701313904840732 0.065269678217979632 0 0.48498822282228249 0.087041706119416723 0 0.85382799508926122 0.077153639863740284 0 0.52470415214291699 0.082998851304375773 0 0.64463261395538374 0.1185585700790238 0 0.33658228590826972 0.094457855579188094 0 0.95994154153068711 0.11204624114220529 0 0.53467953954882874 0.094457855579284628 0 0.040058458469418377 0.096965320197620039 0 0.74104762854241624 0.1007821570193273 0 0.30431615859651262 0.099999999999814668 0 0 0.11010057308181009 0 0.381520439012282 0.11360538362221111 0 0.66811887725827612 0.12294765968567151 0 0.14825146416195439 0.1089627379823233 0 0.48695581311184433 0.097383986943543624 0 0.70355094053906031 0.1229476596857174 0 0.85174853583809695 0.11248826759772219 0 0.77983574802489353 0.10000000000041601 0 1 0.097089465249167464 0 0.43605177560980668 0.10018038848459949 0 0.1001803884845984 0.1001803884846082 0 0.89981961151539203 0.095543037456985586 0 0.22193261929963179 0.11270669021257319 0 0.63000825594510479 0.1104903431171893 0 0.26289419189694579 0.15401470087117619 0 0.36030748482174652 0.15323582203069341 0 0.63981657248070856 0.1342911074706678 0 0.94707364910921299 0.13429110747043921 0 0.052926350890909732 0.14920367104265289 0 0.30541547055433838 0.12653846297942931 0 0.19158732753109589 0.14848268557938529 0 0.88843177122954842 0.14812922079575311 0 0.1116768372643608 0.1304176489881354 0 0.58651857060295165 0.15391300986165241 0 0.53654079415226863 0.14372581841487611 0 0.45307699983828398 0.14821922925614839 0 0.40625311789773111 0.14999999999970359 0 0 0.14061748895574719 0 0.73947221107699668 0.15000000000062411 0 1 0.13239538025803521 0 0.81266846858835617 0.1603561053936241 0 0.77953441488698894 0.16689695045977859 0 0.60272705316749031 0.18179111300269241 0 0.66919832404888691 0.18172590289758209 0 0.08161197406129285 0.18172590289763871 0 0.91838802593888857 0.17821487671629599 0 0.43120055987028061 0.1696816851668107 0 0.16900770769873369 0.18205680965398621 0 0.56759263990989739 0.1750000000007281 0 0.96274595639990435 0.17499999999963081 0 0.037254043600333922 0.16670639615124161 0 0.26639914963125938 0.1586365872515651 0 0.49489972778326169 0.15680076146852781 0 0.69635265234488475 0.158053632507308 0 0.2268013581628531 0.17101873536300011 0 0.82898126463696109 0.2185156616679583 0 0.10294584553875399 0.19870171725042279 0 0.38861432954547492 0.21057947097242491 0 0.2417469648948872 0.2032632821164122 0 0.79385691262883484 0.2067805405838698 0 0.28584838460408118 0.2023565658151025 0 0.53740864757326146 0.20370391303007379 0 0.73982803480989456 0.20000000000083221 0 1 0.1895140536721657 0 0.12788918147180439 0.19325512052991989 0 0.33306663985341661 0.20207600866639899 0 0.69780840871788796 0.19198133915115559 0 0.46586026795645807 0.20439155789589819 0 0.61701301615519477 0.20651120576393109 0 0.20199905954595571 0.19999999999955789 0 0 0.19135818652811201 0 0.8750993226370769 0.2418205499035132 0 0.78945677162818884 0.2213113933109479 0 0.90414494371983267 0.22230199397202771 0 0.66820316019503145 0.22683128543362971 0 0.84172681150157402 0.23291809223701501 0 0.4656974769237659 0.22213230492347791 0 0.35847848963573758 0.22080734197452281 0 0.57394110129209475 0.2247830792460255 0 0.1529153910504554 0.2208071321930753 0 0.43163039621411609 0.24094941244017279 0 0.32436008629998692 0.2196864111498267 0 0.50000000000003153 0.23456580837633481 0 0.056452228708538207 0.24384901136620149 0 0.70653312659592993 0.24999999999941211 0 0 0.23456580837661739 0 0.9435477712916257 0.27246158638121948 0 0.6750205175510442 0.2631894976960133 0 0.14610173397257309 0.25770010742238642 0 0.74917861927655227 0.25601550987287242 0 0.10272615176133371 0.26283502751709098 0 0.88947994080442971 0.25082138072344978 0 0.25770010742236849 0.25620366572361508 0 0.59643995959580165 0.25725688379080608 0 0.29271415021599467 0.25000000000104028 0 1 0.25449651740659451 0 0.38808141346477132 0.2662575355486172 0 0.83330611590114367 0.26364085314390329 0 0.44783523059915831 0.26017196519013502 0 0.20370391303005 0.26226050147839369 0 0.49110019321786108 0.25302125601950293 0 0.54364526317501916 0.25789549086352409 0 0.6383426470632434 0.2927141502160035 0 0.74274311620918698 0.31019453158398091 0 0.39329859738987311 0.30134135312955679 0 0.46879574451330441 0.29644905946097272 0 0.09738398694351863 0.28936363433567769 0 0.34096001733818271 0.29796045116672282 0 0.43015960494410788 0.29346687340408079 0 0.24384901136619991 0.30422801261678278 0 0.89924115595732923 0.29285714285711661 0 0.2928571428571638 0.3032982946489643 0 0.64528131001637279 0.28721465904709748 0 0.94646257687969082 0.30000000000124832 0 1 0.29285714285716302 0 0.70714285714288294 0.29999999999926641 0 0 0.30419081820493699 0 0.51483952590966875 0.29503699292854352 0 0.60837901228818947 0.28535811392300559 0 0.79338456836766535 0.30400243631011881 0 0.56974589033104717 0.28250371532178009 0 0.048314439960346241 0.30487287272460611 0 0.85097433246823206 0.30329479422196592 0 0.15713877348901781 0.30250773648392321 0 0.20267924172263391 0.33179683980498331 0 0.2223019939720309 0.3309763547272474 0 0.54059368287686527 0.33237048665962382 0 0.1136581284495253 0.32323905878352971 0 0.068797554874606648 0.32267250342477011 0 0.27158624156492173 0.33651319436468952 0 0.4783441239363237 0.33182385463445552 0 0.60852439827987592 0.32407664412868242 0 0.03147990422237483 0.33352531839774341 0 0.18597734890393791 0.33382663527330159 0 0.44130125047503488 0.32436008629997848 0 0.75905058755983823 0.33652295326979631 0 0.88146798981329788 0.31719361902834919 0 0.67769906722022732 0.34041680462853652 0 0.7110230621744984 0.32804723569674149 0 0.96620176875739028 0.33967192637291899 0 0.92488188941494798 0.3223485407613903 0 0.31729940920074262 0.33396039052739851 0 0.80593701218898539 0.37104651296145419 0 0.60545170748311095 0.35468905333555628 0 0.30354850823225432 0.3629341086827127 0 0.043743067292809718 0.35984320557492089 0 0.56698606271778884 0.3630513871256042 0 0.96607369371360685 0.35385289791388408 0 0.40159277289475548 0.37006613921504228 0 0.1127114780999451 0.3558533770855537 0 0.25608022367925543 0.35000000000145642 0 1 0.34999999999912063 0 0 0.35819074639024667 0 0.5110224551202992 0.35750068079405661 0 0.65195242733772407 0.35862980323599852 0 0.77779163353773428 0.34804757266227387 0 0.35750068079406028 0.36030748482174152 0 0.84598529912882436 0.35543598582779579 0 0.082982015632305867 0.36018342751929311 0 0.15323582203070049 0.3816180420534469 0 0.88992062259966964 0.39390843907269701 0 0.53206239335212424 0.38861432954547009 0 0.80129828274957859 0.3999999999989749 0 0 0.39378094655702861 0 0.93966316715138498 0.39120887188745579 0 0.33407577688404289 0.38758073301099838 0 0.69351428372445756 0.38053974351486231 0 0.20482643591764671 0.39686507344417149 0 0.16696943013009691 0.40318055958881172 0 0.25603502111398402 0.38809554439237598 0 0.74585498064175659 0.40000000000166441 0 1 0.37702386074717242 0 0.45819417564476822 0.39019247057184381 0 0.37859653529062909 0.39496273408169691 0 0.41776538878733838 0.3916036288951929 0 0.079958203766499356 0.40104077914537972 0 0.57697967140249784 0.39162098771181331 0 0.29503699292854579 0.40287184050857239 0 0.65517225581466687 0.4316208759059188 0 0.086115928109670392 0.431200559870276 0 0.82178512328370668 0.42511586293556319 0 0.221781893189434 0.4107495277344459 0 0.49037725997835019 0.40685581827241168 0 0.041139877312511758 0.40643353551703632 0 0.85177299153708175 0.43171291966674152 0 0.30453214969181508 0.43684236024326312 0 0.90308221977077352 0.4316008401347704 0 0.77926776228961703 0.43310622989047221 0 0.55385122336644688 0.42922464544284911 0 0.40630340531121673 0.43301393728221038 0 0.3598432055749215 0.41348142939699623 0 0.1304176489881628 0.43240736009008829 0 0.18205680965402779 0.42561102959584413 0 0.70035777348166506 0.40681159423013669 0 0.61539384096090688 0.42316408760146962 0 0.4480
[...]
<CellData Scalars="pressure_p0,piezo_head_p0," Vectors="velocity_p0," Tensors="">
<DataArray type="Float64" Name="pressure_p0" format="ascii">
0.12295766310280908 0.53402611912826026 0.18659604061486268 0.43788435556117905 0.075834238858083214 0.64438710506422181 0.69514892592147115 0.33186500986139467 0.42060735564756613 0.81988840191453405 0.74094046445915951 0.15270070308765166 0.25833593569564661 0.59660973214539215 0.51235030294023243 0.78592303343974823 0.38030229092356616 0.24118887490053548 0.095990008801526513 0.55329747204034752 0.29369608836313843 0.71669182308976342 0.36528604181303326 0.40136180004831779 0.34431224183180476 0.57242780672484861 0.45981908017243156 0.065880474965445121 0.83930925950789903 0.22305624219446796 0.30847828186773785 0.27416511138294586 0.056930714330143822 0.85580674074033936 0.66807013643609969 0.40529952856071449 0.1115970954013252 0.51683079864448167 0.42744648253354928 0.39079961380478445 0.75889965449636199 0.79941635849805759 0.087676505503611113 0.47620263285996683 0.37176713762600844 0.20535652545085689 0.266763970156638 0.13796676175206782 0.53687233058446737 0.30559578561401274 0.70708574228868715 0.13607186578032848 0.3386024449267544 0.16439239660869362 0.55993160488474369 0.67443998761556001 0.83627192489839297 0.61685664255771866 0.066454813772903007 0.49906668393922582 0.16918260169721372 0.24631677448390377 0.63243768549397017 0.14617202218087613 0.084453050044092356 0.78259521869300641 0.80016172821904397 0.65916975240958597 0.095729843605699014 0.27393571391144517 0.23837187363688739 0.71864063621204177 0.59017921542733964 0.11977487756465302 0.39855899541950368 0.85261000199513681 0.3233338831618176 0.75845223976750331 0.36133514301651254 0.17341772744362402 0.19055635447400243 0.24956565593641311 0.06741596474964269 0.26477763102837376 0.22214988359334509 0.61224381153489138 0.56676761293817746 0.20629735511379191 0.46494986370998143 0.29156874308799374 0.51065462326461897 0.056273292250619805 0.74400119793911768 0.29226625412498808 0.11021941291903575 0.43819075464651069 0.3570157738273545 0.42376159323214746 0.4815416085823454 0.83348181717808179 0.063166803259841003 0.081332919030011427 0.834479217269678 0.55099427727855388 0.12125855209708283 0.58353913891267872 0.52731582870145388 0.16256609731909705 0.74647796927833188 0.24264919591246764 0.80143082422518708 0.27603886487822604 0.67226501800502469 0.38380301754573742 0.69558114206381949 0.19627338731210667 0.30671180715107021 0.21487870572347384 0.73839237602354602 0.63391127998314567 0.13891357728175582 0.32376343567572013 0.47666357815275606 0.56065645226698546 0.43187497815664766 0.71306592449655093 0.34333215168367615 0.14642322539509028 0.11224854396677836 0.15545190347060259 0.37581042469827941 0.25733919763890523 0.14096743678754425 0.39083584362585977 0.057606306519585093 0.78267794039783256 0.33990394350468378 0.83416043778196747 0.52002808540199397 0.77745566871592042 0.29672170773460849 0.35077924626282281 0.086080789615761863 0.054326870222840183 0.84729961546353438 0.18524721949087411 0.67233866143909959 0.45489725035370404 0.49848249660305521 0.27569134222564995 0.61904987964182923 0.41367484664288501 0.30253373824462437 0.22406970709361029 0.16866691133202111 0.69791471140544992 0.59450738713301654 0.12418531938462871 0.54271284347918258 0.09298612385275315 0.72344040888374594 0.65632643312231143 0.41799034754628661 0.35158317327302979 0.29202188035662702 0.32129073979095663 0.72922400167420642 0.25485287972250464 0.54257884295260717 0.47289328180007628 0.070789172372698245 0.23817492403983037 0.56464203487232933 0.75750712414756849 0.21148799382737937 0.66791567131584895 0.45481516566905927 0.62426569945917065 0.85094565619952123 0.045159456076813445 0.097540445886261123 0.19125068022424949 0.51612102314625363 0.37276279459261524 0.80682285605756965 0.58588809081545001 0.11631373981018317 0.43622395967320515 0.15661239855688031 0.49474470953486993 0.31064151709828763 0.27382668493945345 0.090524191594295714 0.21934433869774891 0.51521159314209464 0.55692437582360221 0.78214076593591964 0.12211018321395342 0.73549774690653347 0.40238533700011975 0.75940035612635581 0.17565369602742059 0.16916816640063648 0.074434256825711198 0.46359494035298698 0.60483775238124793 0.38132339373508728 0.31666621697384911 0.050256763781628772 0.13924936785240896 0.71478110504238224 0.8043695000041331 0.40879561813931442 0.42897047324650717 0.83109875518575826 0.066099021493443447 0.33893588700408284 0.10343756601852058 0.26366718158277852 0.69059342320138561 0.21276447665543341 0.6440524468384482 0.44070157283612471 0.24267550367531976 0.45484826913202325 0.3243040374190399 0.51557130497108106 0.47462135459687615 0.074689724610736544 0.14421414250173126 0.37552320861219468 0.23241435681626652 0.63102278258937106 0.095873469676050857 0.60600222675879223 0.64964664420922058 0.1766789946016879 0.39910150001626188 0.72777556756697093 0.23014744116438368 0.53403134230066041 0.36424379117776456 0.43217190575859871 0.67789687504683327 0.28641441958008385 0.77403819466150758 0.30580451737134984 0.26851475614119091 0.3431189868254283 0.1312701919286719 0.69490891020492818 0.74263298069677708 0.56813684010515808 0.84236447234638723 0.49688591154481326 0.038963323646573358 0.19696877215067815 0.58890646718789452 0.24966844560408039 0.84253691149359966 0.21822513948634745 0.28444480052700311 0.061554131496366953 0.41305862666670012 0.77630274880451111 0.099790472479907327 0.041938815421094344 0.40966599980075535 0.25141212240518762 0.36789453057541754 0.79091340365726359 0.18757733100782686 0.58473263298529554 0.45283171437229619 0.6285731658347764 0.54889991894599577 0.69199991775164693 0.74456681855887175 0.55747242064665969 0.51922661220168631 0.82496453924566948 0.13820732767085342 0.16659214566288694 0.32181017969021086 0.10770006405806798 0.59936319210576006 0.19995613577140503 0.026511173566051371 0.15866075123471876 0.15931970344470775 0.27246298224130899 0.46793790162551152 0.26838078694791984 0.83066016024129141 0.63737264360428914 0.19155833806761771 0.73501569920056264 0.30134778986448491 0.050117718975939717 0.80738642287346574 0.064367448573050948 0.025087708674752365 0.67282887760152299 0.22124633371508928 0.082474137570417078 0.1201191512993392 0.49579585706302221 0.64506230461071645 0.11937942788942134 0.34310653529660962 0.72586375880015208 0.42668966225962307 0.42600177901983444 0.2372071711465259 0.78615891539507543 0.54789278524081331 0.59311911802163542 0.3880507789749188 0.29385191843147118 0.17582759600750303 0.53562195037268001 0.30212266758074713 0.44876522291117449 0.10098979534507033 0.23799695438323298 0.3734022793349514 0.61470540492014825 0.058354363763280015 0.7153045923249951 0.76361412238458937 0.14048607434524751 0.5689370260490072 0.25633622266555689 0.67690115318514998 0.80723869323790143 0.4554805654028285 0.4811214196636045 0.52582698090273405 0.083536357871318273 0.5023221721267711 0.38872237022695832 0.034818431121061831 0.35497312984748897 0.34026067753104106 0.32204020287800733 0.65509448691031869 0.40973654891060401 0.76709678233369494 0.0092364353562477686 0.69164524523411708 0.023031421870342305 0.60912075740035043 0.077404454608597947 0.20705877262694938 0.84536492905071769 0.5637477242103679 0.21738140540665152 0.13799724077795028 0.16719704138949398 0.72834612719985459 0.78951887326441728 0.20771627357444605 0.65245108132176743 -0.0063841084177293358 0.78430066596047432 0.33655648114072428 0.12139344378720229 0.43265384964982179 0.33566937052392243 0.033236554038423856 0.26324229826627082 0.58235540890747728 0.0081798171799256202 0.38717673855447082 0.76133538794112188 0.6742225103061863 0.838320647306948 0.14824909308086218 0.28774076465940296 0.17934398028021198 0.48279746931944323 0.066852428056157653 0.57276185382552802 0.52801005619551089 0.40969094340908774 0.8295038587971717 0.052069065944712521 0.10444530488861828 0.0203777872286613 0.62912519955233392 0.75157655608580543 0.21841961405185595 0.27519518904707518 0.35615548984399736 0.19898584967744365 0.13126931258180358 0.82334909027604808 0.54655054372562351 0.58659937260792816 0.62535066030270026 0.45729689748165514 0.70240616298360503 -0.0012767247124620107 0.67883196970563886 0.085624105845661436 0.49889877199519916 0.12336518486989673 0.74430778757143834 0.66748342638550384 0.065535753354617018 0.25188133431336146 0.72090965156571452 0.50282923320434969 0.025328491496008718 0.43740221878680363 0.61619439891415306 0.37981924380790699 0.54362769515043585 0.24487750368276345 0.17471216657726596 0.29267368074165351 0.31322724471299496 0.39614488400936021 0.4197110537960147 0.46194093398946989 0.79699098485275632 0.23908926991336504 0.60767566127729444 0.56849076068776339 0.69105975689532151 0.25677574688730009 0.32851367527688924 0.34960320487085206 0.22065294685844106 0.13435162181406943 0.083232351247551989 0.0033529739253555803 0.27596038658727873 0.061447928694675281 0.73913207474763154 0.69259384748224018 0.58041024130867036 0.47421206928955606 0.38698370407399285 0.8173938540785779 0.040945226161840424 0.20158270656012611 0.098654055829872106 -0.029519735811035376 0.52120743038629747 0.43375136288413185 0.042931381421919448 0.15686623828147103 0.31265446304757599 -0.0099928763309438465 0.78133099123251926 0.78921177891428407 0.64872847571643499 0.75159938333756848 0.83587538175783194 0.29290093216642182 0.019681338913721372 0.66740346159279818 -0.030434367945993836 0.42594614194202318 0.46779316743713117 0.53422222469670688 0.51594972635613046 0.62339752146955063 0.21135020519094933 0.25790999004981813 -0.010010318070690825 0.11928677492212938 -0.036747596054574935 0.77555688545134294 0.75521894692895719 0.81710610833242758 0.063517967289949989 0.79080029409843122 0.096331559458644883 0.71486740864235088 0.64709621408538398 0.18260952504206968 0.16198975773939911 0.18834358740003487 0.36414889371556908 0.44305435378840763 0.29628478182280216 0.31787053228883766 0.48721848938117285 0.56396241223344079 0.4028135715343894 0.086470652895212621 0.10480287295967058 0.063059307147305704 0.52220444941338529 0.70245036530107074 0.48053657012878698 0.43870571953101534 0.83318661455682386 0.65064295728883903 0.62181723556575208 0.3731303009228174 0.60082952810970991 0.45680378468171712 0.57543711904095995 0.71698206343608839 0.39755796154311074 -0.046431041900662967 -0.062263799135809025 -0.023956294638686967 0.41641414310747388 0.23533890431796289 0.74547735011359073 0.67249938102557272 0.33029349312592532 0.14849266344306969 0.78472411527341468 0.14378207604073867 0.2806807775381544 0.049259335793159872 0.21342245397197784 -0.0037638076883644836 0.08725422599747143 0.17260765865397598 0.35549201945843323 0.12376845970590424 0.28697605627961692 0.49726670217921615 -0.055629431711643369 0.025468553471389745 0.53464569794085448 0.32323208780781182 -0.022202577582810034 0.75091008421076699 0.17878570748291026 0.23889247731453603 0.41521344944493138 0.31510213401837439 0.077661454485584536 0.26797331484784243 0.18636948384464569 0.67589830248965987 0.0321114587568797 0.48174168817346941 0.37050682935905116 0.0069544244096232501 0.58900183564215558 0.60500424191199986 0.627353573200223 0.56748412591582253 0.70417172769579839 0.83200274698034149 0.65199565910495272 0.056767693800857763 0.10143799038698256 0.79937917225124955 0.821521547063919 0.0037506313625751964 0.75974836691620828 0.12523545183140025 -0.083962405213894947 -0.04625718528811737 0.55806713375490902 0.45653435972300782 0.22820529621272567 0.12942583146184991 0.51989806130982119 -0.017601600092008507 0.19235332161390079 0.35062678301404482 0.62492173046144428 0.39380991156409989 0.041709536864479382 0.52904991419979597 0.30237639458896293 0.64183253677625773 0.5532077092092349 0.66816215678214641 -0.086605854466368828 0.15505815997406841 -0.063634769447049974 -0.044311715366732882 0.16851854603118652 0.81587794242678735 0.60077670885442835 0.79495827233662131 0.067564455539414009 0.27520221615209506 0.771490006063831 0.43731082209133465 0.49191568584295031 0.027022980357459401 -0.063799203279660224 0.21688937637170261 0.34858223854699677 0.72384336595449328 -0.10493635958121114 -0.011352474709789973 0.52177739679244373 0.56466451715145094 0.029650600855034688 -0.04299603207357889 0.50298856189189878 0.80234397558540671 0.59076523199059006 0.66103272048764217 -0.068414297519017953 0.10954757983829827 0.68123069131080061 0.26420173941764158 -0.0031851293832481304 0.77086480192077222 -0.13029775253282441 0.37125870741148537 0.43818494508332673 0.46051233329267621 0.33017528233206689 0.2574067021742138 0.30730807069121052 0.8238487256476863 0.21692917025368941 0.48219440921900458 0.70863283073679428 0.71810651089357802 0.076146491188484003 -0.095805317855645777 -0.088961241306661207 0.39249911856868991 0.10377245584829999 0.16211327714981474 0.63737185447012079 0.41477920861331907 0.66724027278648235 0.60778323323711692 -0.015747271322354612 0.052066129903831901 0.32640612091175059 0.33841336158078683 0.49482988284765839 0.61047596029912254 0.6969308370627163 0.29770449048941772 0.12545633535894493 0.049425750767153831 0.80382636012282871 0.46671470587434843 0.17741144439927681 0.18753576759227325 0.37817589821091507 0.54683087554777143 0.28692474380163951 0.0069565977953189835 0.74726889778817185 -0.14748021688313956 0.13464520615274067 -0.074853535570867769 -0.12697315910213269 0.3651380465241128 0.24089063658919049 -0.034519284533516936 -0.058126084678917625 0.084662399866274954 0.40666971906156502 0.094965924730412654 0.34019474121724935 0.70515996373144296 -0.15125953795797747 -0.12845579281222785 -0.10787035210323359 -0.10431219437875097 -0.19411139223148394 0.078263597939538299 0.82295743941455313 -0.082159457119994922 0.81001941838913261 0.36525034927112188 0.42032160685896969 0.029313346377009199 0.77728008840565388 0.14266161623543086 0.59149314140440845 0.23105619789171875 0.65004243572123577 0.27858054062452692 0.73124893039077554 0.56798086657122493 0.51344033606809214 -0.023237381102403705 0.19715979802063396 0.24420611829634634 -0.0032768140969992423 0.62688912192305468 -0.17840951549563355 0.75219019684701127 0.54667904564093306 0.44971768146965513 -0.13517374441061974 0.70677035180568981 0.13592134137277095 0.6900782406441186 0.095125081664294148 -0.055710316787695835 0.50635853391018926 0.61068271936202501 0.66466660233359498 0.030249281219618701 0.56398903246535836 0.083637857581175784 0.12908912989341786 0.48229793586223269 0.40223793255966089 0.33071609295282445 0.81995545796894964 0.78465332485102768 0.52329156710372016 0.35366745692278334 0.37560816262077956 0.16320524536155639 0.61391635390647825 -0.080891075573029575 -0.14535235240234978 0.28272598705648899 0.45892719238040985 -0.17862295544075835 0.73257156655702393 0.22002688230574258 0.30677737532323224 0.19075063932255615 -0.018003250985012327 0.22665086269518434 0.045392888986532348 0.77635029230570463 -0.23129770615992851 0.25477909421232225 0.80066957068732869 0.25231844632419625 -0.11630255246892504 0.44863368721976565 0.35329665195692617 0.20066566593349755 0.051901429901844473 0.10558734773299566 0.65227775117202691 0.48732432563159822 0.44112549105363347 -0.048114483375809994 0.73980009087408261 0.54510498712820121 0.64480848026189963 -0.23647066160908881 -0.20233309097303998 -0.052386415244765477 -0.00031945826178566086 0.5908426428691449 0.41395279199747137 -0.12178811664694325 0.2999904883365544 0.16618547900290126 0.70788357637737287 -0.18474561824289176 0.75333327556093466 0.40627124517980751 -0.019190036359479464 0.50861027487692212 0.75334346778327621 0.27341926779771952 0.42947687962982373 0.81036841963928019 0.38119492000683153 -0.27471674086596526 0.58562418839073049 0.13310810642266641 0.32368638766803171 0.68467083606889501 -0.0044613171102179964 -0.085214228688588051 0.54200551862100854 0.036155401354531561 -0.15733740115015446 0.095637509724595351 0.088763737627583286 0.60051505477020384 0.67996355567576927 -0.27529150166063027 0.47684726462466343 0.62974638081236045 0.51642417741870728 0.051279900166380496 0.47142134585908502 0.79021595053829286 -0.22894625665446161 0.55598473368427248 0.2176010921386094 -0.19117770146914081 0.26748605694743199 0.064665034287374953 -0.16905600296742962 -0.21638647242358464 0.63011294843296717 0.13405181324587212 0.24178256036816667 0.55111101631981507 0.64518726629030032 0.80663457608930833 0.32846924637492875 -0.081730240002341331 -0.14878869707022907 0.45398464641591851 -0.046932536496813684 0.50059606846656213 0.42930588814941606 -0.32506252872605712 0.37972913588098589 0.50671890894116778 0.73798143358351942 0.011172900101360338 0.3560366413856505 -0.017008667523487411 0.58002434155114124 0.70334008881562438 0.03825983310230726 0.18536171037376892 0.3144584769985096 0.40468241266317906 0.10652987643801312 0.21283807715119177 0.15641171610931034 -0.099975735338490676 0.28473353201628893 0.0051173857385633202 0.12939988293018759 0.19751618875186194 -0.16769867353926471 -0.2108285246254584 0.69653435725202928 0.59421076455995414 0.72138770158484089 -0.050913272143770213 -0.32840394521886218 -0.14873267691710271 0.28033614137413859 0.79296520456171471 0.22793554852645931 0.52600767924048186 -0.11149776991718524 0.46286225490824129 0.27106911213242463 0.5316548290420362 0.64286976793484807 0.36217190323751175 -0.23993779096948875 0.76481923522350503 0.24486361164648607 -0.28718730405005838 0.67025068375736763 0.39146984496670378 0.74586366597850251 0.075065135234528624 0.49179044351826168 0.30811431782871812 -0.29179667215256738 0.81065283228620544 0.47836348511692101 0.32181485694367862 0.1527608240920014 0.42611603657212083 -0.2210899167104397 0.18317497977148484 -0.08949879261016154 0.12509752592471404 0.34807562505997225 0.58743508203911132 0.61837915036574453 0.50029529359758573 0.53872894838878826 0.38690357178204487 0.058631207055416246 0.68106632612691431 0.40033185284151662 0.23276581939312446 -0.18069463260400931 0.56652280019435053 0.76428588720878321 -0.38337769740679983 0.25908585296626063 0.71093535864621527 0.086363345062670141 -0.25434785304431778 -0.026755925693989595 0.20666772366132374 0.45078297162220948 0.027035064541842291 0.36404881482417745 -0.18563640285537658 0.715864826692448 0.74604392997498215 0.65061802925274204 0.67361364996679707 0.79176661948242943 -0.37476652550980594 -0.3093288105427926 -0.10647610696990298 0.47655126709439244 0.5663288363039104 -0.089846057972232052 0.2948511240396347 0.11365808233712532 -0.42543549397243069 0.80338705749470929 0.20537842605321166 0.52392318033281737 0.0080173073856666804 0.26414630071992606 -0.32456810936285529 0.45152449857536492 0.60558550526770638 0.41294357516433677 0.31749565104829508 -0.26544269787108909 0.082762904026632472 -0.15268183928491982 0.42180338998364358 0.34960481938811455 0.14491600615998734 0.62338773383607016 0.72272654679104398 -0.027501391096627994 0.45212319283789182 -0.15807989741843217 0.38505472960847936 0.73924318261900823 0.40875835020020967 0.78944494637757112 0.49868631666963303 0.69670690146792824 -0.23635478636656299 -0.41663701703849182 0.35770011275618668 0.10074514009013402 0.065984110933895432 0.75566442728336947 0.58166251414010683 -0.12071140688159644 0.23676989669477094 0.17430803199736367 -0.05556464618591897 0.054652444605521405 0.61990979133899815 -0.35037277597888683 0.64546906895491718 0.54013929915839198 0.30223493125292283 0.020633731774088365 -0.059872612816115063 0.45648503587815498 -0.10362654126733964 0.55386425389964988 0.42958896679298836 0.2815844654266092 0.43124733948522931 0.24696496466123499 0.6031866722244531 0.53210290019647832 0.12341621250534207 0.5771892906797087 0.33293324038298483 -0.0291340093983616 0.040714263951311558 0.22608749538175005 0.80684405554024141 0.0066627483912597325 -0.44902261833819485 0.49042596580379277 0.78697631153782011 0.50761111118195823 0.70882594868173121 -0.28550942463996665 0.16572150317936249 -0.33566735774241668 0.75350003015339961 0.73473700848056889 -0.364815