<?xml version="1.0"?>
<VTKFile type="UnstructuredGrid" version="0.1" byte_order="LittleEndian">
<UnstructuredGrid>
<Piece NumberOfPoints="568" NumberOfCells="1054">
<Points>
<DataArray type="Float64" NumberOfComponents="3" format="ascii">
0 0 0 0 0 1 1 0 1 1 0 0 0.049999999999899652 0 0 0.099999999999814668 0 0 0.14999999999970359 0 0 0.19999999999955789 0 0 0.24999999999941211 0 0 0.29999999999926641 0 0 0.34999999999912063 0 0 0.3999999999989749 0 0 0.44999999999882923 0 0 0.49999999999869432 0 0 0.5499999999988151 0 0 0.59999999999894682 0 0 0.64999999999907843 0 0 0.69999999999921003 0 0 0.74999999999934175 0 0 0.79999999999947335 0 0 0.84999999999960507 0 0 0.89999999999973679 0 0 0.94999999999986839 0 0 1 0 0.049999999999899652 1 0 0.099999999999814668 1 0 0.14999999999970359 1 0 0.19999999999955789 1 0 0.24999999999941211 1 0 0.29999999999926641 1 0 0.34999999999912063 1 0 0.3999999999989749 1 0 0.44999999999882923 1 0 0.49999999999869432 1 0 0.5499999999988151 1 0 0.59999999999894682 1 0 0.64999999999907843 1 0 0.69999999999921003 1 0 0.74999999999934175 1 0 0.79999999999947335 1 0 0.84999999999960507 1 0 0.89999999999973679 1 0 0.94999999999986839 0.94999999999979179 0 1 0.89999999999958358 0 1 0.84999999999965292 0 1 0.79999999999999982 0 1 0.75000000000034661 0 1 0.7000000000006934 0 1 0.65000000000104008 0 1 0.60000000000138687 0 1 0.55000000000173355 0 1 0.50000000000205869 0 1 0.45000000000187229 0 1 0.40000000000166441 0 1 0.35000000000145642 0 1 0.30000000000124832 0 1 0.25000000000104028 0 1 0.20000000000083221 0 1 0.15000000000062411 0 1 0.10000000000041601 0 1 0.050000000000207989 0 1 0 0 0.94999999999979179 0 0 0.89999999999958358 0 0 0.84999999999965292 0 0 0.79999999999999982 0 0 0.75000000000034661 0 0 0.7000000000006934 0 0 0.65000000000104008 0 0 0.60000000000138687 0 0 0.55000000000173355 0 0 0.50000000000205869 0 0 0.45000000000187229 0 0 0.40000000000166441 0 0 0.35000000000145642 0 0 0.30000000000124832 0 0 0.25000000000104028 0 0 0.20000000000083221 0 0 0.15000000000062411 0 0 0.10000000000041601 0 0 0.050000000000207989 0.50222665369959163 0 0.5007981052797934 0.70714285714287517 0 0.70714285714283998 0.29285714285716302 0 0.70714285714288294 0.70714285714283931 0 0.2928571428571245 0.29285714285711661 0 0.2928571428571638 0.50000000000002653 0 0.7803135888501761 0.2196864111498267 0 0.50000000000003153 0.78031358885017388 0 0.49999999999997591 0.49999999999997102 0 0.21968641114982909 0.82898126463698141 0 0.82898126463698818 0.17101873536300011 0 0.82898126463696109 0.83099229230126881 0 0.16968168516679721 0.1696816851668107 0 0.16900770769873369 0.56610545821567193 0 0.63785536461775449 0.35984320557492089 0 0.56698606271778884 0.64015679442508122 0 0.43301393728221732 0.43301393728221038 0 0.3598432055749215 0.63981657248070667 0 0.84676417796930659 0.15323582203069341 0 0.63981657248070856 0.84676417796929926 0 0.36018342751929511 0.36018342751929311 0 0.15323582203070049 0.84598529912884157 0 0.63969251517827153 0.36030748482174152 0 0.84598529912882436 0.63969251517826664 0 0.15401470087115929 0.15401470087117619 0 0.36030748482174652 0.44491076427418602 0 0.66695816499044247 0.66617336472669764 0 0.55869874952497378 0.33382663527330159 0 0.44130125047503488 0.55869874952496712 0 0.33382663527330642 0.53467953954882375 0 0.88795375885779659 0.11204624114220529 0 0.53467953954882874 0.88795375885775163 0 0.46532046045115849 0.46532046045115349 0 0.1120462411422502 0.74104762854242312 0 0.9030346798023724 0.096965320197620039 0 0.74104762854241624 0.89727384823865741 0 0.25601550987286392 0.25601550987287242 0 0.10272615176133371 0.88960789053596501 0 0.73709391668585433 0.73703475230600179 0 0.11036239338565321 0.26283502751709098 0 0.88947994080442971 0.1104903431171893 0 0.26289419189694579 0.59652506358395696 0 0.74387288499806337 0.25620366572361508 0 0.59643995959580165 0.74387288499805526 0 0.40347493641604848 0.40318055958881172 0 0.25603502111398402 0.74585498064175615 0 0.61190445560763951 0.38809554439237598 0 0.74585498064175659 0.6119044556076344 0 0.25414501935824879 0.25449651740659451 0 0.38808141346477132 0.89981961151539436 0 0.89981961151539414 0.89981961151540379 0 0.1001803884845969 0.1001803884846082 0 0.89981961151539203 0.10018038848459949 0 0.1001803884845984 0.43684236024326312 0 0.90308221977077352 0.097089465249167464 0 0.43605177560980668 0.90308221977070158 0 0.56315763975672306 0.56315763975672206 0 0.096917780229301378 0.73982803480991577 0 0.79629608696991716 0.20370391303007379 0 0.73982803480989456 0.79629608696994103 0 0.26017196519011448 0.26017196519013502 0 0.20370391303005 0.79321945941613403 0 0.71415161539593774 0.28535811392300559 0 0.79338456836766535 0.71415161539593597 0 0.20678054058386669 0.2067805405838698 0 0.28584838460408118 0.49113537144559472 0 0.59032267345451228 0.57056972888206714 0 0.54971700200897211 0.4107495277344459 0 0.49037725997835019 0.5487649968682462 0 0.42273278605230202 0.65195242733771719 0 0.64249931920594583 0.35750068079405661 0 0.65195242733772407 0.64249931920594172 0 0.34804757266228042 0.34804757266227387 0 0.35750068079406028 0.81673437829000739 0 0.91159196749935079 0.08840803250064784 0 0.8167343782900045 0.91838802593870938 0 0.18172590289757809 0.18172590289758209 0 0.08161197406129285 0.91838802593884239 0 0.81827409710237242 0.82098754724941847 0 0.082790869735818007 0.18172590289763871 0 0.91838802593888857 0.082790869735775666 0 0.17901245275062619 0.51459806384274132 0 0.69605217918691109 0.30419081820493699 0 0.51483952590966875 0.70093392681741462 0 0.48596826265374382 0.48451522907125188 0 0.2979898765740453 0.60839637110479039 0 0.92004179623348181 0.07995820376651902 0 0.60839637110479639 0.92004179623350146 0 0.39160362889519851 0.3916036288951929 0 0.079958203766499356 0.92500983914643364 0 0.66025701783003521 0.66030873543186752 0 0.075132732429877641 0.33967192637291899 0 0.92488188941494798 0.075118110585058809 0 0.33967192637290311 0.431200559870276 0 0.82178512328370668 0.8217851232836566 0 0.56879944012975925 0.17821487671629599 0 0.43120055987028061 0.56879944012975414 0 0.17821487671634589 0.46102425708533712 0 0.43254199134332599 0.56759263990989151 0 0.81794319034601648 0.18205680965398621 0 0.56759263990989739 0.81794319034597418 0 0.43240736009009378 0.43240736009008829 0 0.18205680965402779 0.66820316019504011 0 0.77769800602796879 0.22230199397202771 0 0.66820316019503145 0.77769800602796613 0 0.33179683980497487 0.33179683980498331 0 0.2223019939720309 0.67701313904841143 0 0.93103458478350676 0.068965415216487885 0 0.67701313904840732 0.93103458478352463 0 0.32298686095159768 0.32323905878352971 0 0.068797554874606648 0.43310622989047221 0 0.55385122336644688 0.58457744135451362 0 0.47965822781101802 0.49950852667988122 0 0.37177384892568449 0.44755509495747903 0 0.73668169915195836 0.73639820219480168 0 0.55216319929779778 0.26364085314390329 0 0.44783523059915831 0.55176714003520688 0 0.26264793645511891 0.39496273408169691 0 0.41776538878733838 0.48478030721056259 0 0.9346896108158036 0.065269678217979632 0 0.48498822282228249 0.93468961081575108 0 0.51521969278952129 0.51521969278951962 0 0.065310389184250167 0.40681159423013669 0 0.61539384096090688 0.50008805899412023 0 0.83906636096980147 0.1586365872515651 0 0.49489972778326169 0.83906636096977749 0 0.49991194100589609 0.49991194100589043 0 0.16093363903022459 0.69635265234488986 0 0.8431992385314645 0.15680076146852781 0 0.69635265234488475 0.84319923853148182 0 0.30364734765512569 0.30329479422196592 0 0.15713877348901781 0.84173899719030454 0 0.77316194734760135 0.22683128543362971 0 0.84172681150157402 0.77319187461838601 0 0.1580414468185819 0.158053632507308 0 0.2268013581628531 0.75905058755985211 0 0.6756399137000344 0.32436008629997848 0 0.75905058755983823 0.67563991370002585 0 0.24094941244015911 0.24094941244017279 0 0.32436008629998692 0.64531094666444244 0 0.69645149176775079 0.3032982946489643 0 0.64528131001637279 0.69645149176774834 0 0.35468905333556078 0.35468905333555628 0 0.30354850823225432 0.612270857309967 0 0.60795375554511499 0.60317301798432987 0 0.39228863993079988 0.9396773837881669 0 0.60621115835447625 0.60621690475468748 0 0.060338457498094439 0.39378094655702861 0 0.93966316715138498 0.060355908961946793 0 0.39369310381996869 0.64455163611866506 0 0.50369301794551069 0.94156647488778245 0 0.058433525112256669 0.058433525112266523 0 0.058433525112214509 0.9415664748877558 0 0.94156647488774292 0.058433525112254137 0 0.94156647488774581 0.77294726536028246 0 0.94517749417740304 0.054822505822594972 0 0.77294726536028102 0.94354777129145917 0 0.23456580837633551 0.23456580837633481 0 0.056452228708538207 0.94354777129158485 0 0.76543419162344439 0.7654341916234465 0 0.056452228708420919 0.23456580837661739 0 0.9435477712916257 0.056452228708379938 0 0.23456580837661581 0.77953441488700559 0 0.83964389460636513 0.1603561053936241 0 0.77953441488698894 0.84746345792040523 0 0.22492258526225159 0.2247830792460255 0 0.1529153910504554 0.55319271554924931 0 0.94780237640932263 0.05219762359067761 0 0.5531927155492542 0.94773676853527633 0 0.44695800743040898 0.44680728445084528 0 0.052197623590655128 0.8508056845433658 0 0.69458339692975268 0.69457776222691059 0 0.1491914853539334 0.30487287272460611 0 0.85097433246823206 0.14920367104265289 0 0.30541547055433838 0.51156439552124844 0 0.64043840374706795 0.35819074639024667 0 0.5110224551202992 0.56907804405666307 0 0.6956413107310857 0.30400243631011881 0 0.56974589033104717 0.69573605525800952 0 0.43160553488103942 0.43171291966674152 0 0.30453214969181508 0.54364526317501372 0 0.74697874398049957 0.25302125601950293 0 0.54364526317501916 0.7469787439804928 0 0.45635473682499073 0.45370534537989432 0 0.25219241102783818 0.86749949955697625 0 0.94622466756140533 0.053775332438596377 0 0.86749949955697336 0.9470736491090942 0 0.13429110747043591 0.13429110747043921 0 0.052926350890909732 0.94707364910918357 0 0.86570889252938832 0.
[...]
<CellData Scalars="pressure_p0,piezo_head_p0," Vectors="velocity_p0," Tensors="">
<DataArray type="Float64" Name="pressure_p0" format="ascii">
0.15686461552399325 0.21760114046721629 0.4528318728133518 0.56466434411805166 0.18753541091071918 0.17741116243034089 0.42032165953910272 0.44971771869415389 -0.2289465339258992 0.20629848726163874 0.55386465895541603 0.79091334384585121 0.61106873114918758 0.83109830177767408 -0.32840407043807662 0.16918383154983974 -0.12593190270297361 0.7929642006041171 0.05025666118917297 0.66806970469794191 0.056766087760023357 0.38132394013782744 0.30811492492771797 0.6506429002395151 -0.32506262146503839 0.18659728879017529 0.58456285202953118 0.84236415899720007 -0.086149566252788939 0.80663353202790655 0.038963071975088671 0.64438682966352046 -0.03994315742008319 0.7902148756673939 0.041938381061504604 0.61685653362800652 -0.15268176036264414 0.11631398313878928 0.13434984250311088 0.21283827511509068 0.45484846164365766 0.59076488190692455 0.63391121221984315 0.70333926041161132 -0.055564286763034536 0.095873104254379948 -0.19117802202543263 0.2221509750132647 0.53210340746070128 0.77630285213267425 0.75218942364610597 0.12341718529275061 0.51065493044821464 0.033235354876002592 0.032109901022311732 0.37276341532226531 0.32181563541902447 0.67249936578424097 -0.1856363099908484 0.12418577714248068 0.67361325550635387 0.72344001621046172 0.65632631611609904 0.69653357333531196 0.65061784191091965 0.72922365369929742 0.061553606088423904 0.61224377720189005 -0.02913353459170117 0.7533424016142708 0.10343741871085299 -0.089845870292991709 0.17128772669209322 0.80234338227507407 -0.0099940847325146655 0.47620305112491823 -0.010011605880146865 0.43819129824595787 0.22608849438183537 0.77148959105828396 -0.0085492112173567655 0.81036730152149716 0.026510650890575221 0.59660966925428838 0.68931771939234121 0.84729872502148651 -0.42543554325067007 0.12295877902901173 -0.25972343219484595 0.80338646609394015 0.054327329316856424 0.74093958191689335 0.20537920981172486 0.70863235921172163 0.040943762994295557 0.45489766286207073 0.17430883754064486 0.71810589335667641 0.042929985058758363 0.47666394981067117 0.17471068251691219 0.20066558722745087 0.54683073010620753 0.46793803111178028 0.12942472984139158 0.34310684362713229 0.35329667762772704 0.56396276903171749 0.61783753196809821 0.8043690595438604 -0.28718750080370786 0.16439349595169356 -0.13237785526582807 0.76481818022514125 0.066098963907046684 0.67443961385495754 0.10377146656531469 0.32181051342785605 0.38119499178693261 0.58041065515874202 0.16320495940865981 0.20771517268126891 0.51344018647664513 0.50232231432795715 0.13310800013562785 0.16719573157671766 0.56798038653195937 0.51922673036647105 0.23533803773727913 0.43731135391350306 -0.0037651051355857001 0.42376217083179973 0.24696591602275664 0.75090983544698342 0.23889187201589787 0.21688878774235965 0.73124803458749976 0.10074594214613702 0.52731607971306138 0.052067823592526256 -0.089498593348774969 0.13924935804673599 0.64286942876353259 0.66791558273547813 0.70845511047019238 0.83447823476418437 -0.41663707403024397 0.11159815048166455 -0.29490720358315603 0.78944448284076063 0.06316739821454477 0.75889871686604526 0.1250979574504191 0.10444385667520978 0.65004173644075702 0.51612121783459819 0.23105612918213472 -0.21638680923816284 0.19055734715841638 -0.23993806467001033 0.17341871643772511 -0.081730515689910743 -0.11149782503717509 0.17565384497658049 0.15661260219001896 0.58743515539611346 0.61837905849586772 0.67789693067524048 0.690593338329339 -0.36481579371526002 0.73473679770573386 0.75349972742735383 0.095730767890764693 -0.33566736658466745 0.80016072892702961 0.78259424718987169 0.084453855917432971 0.16572246004218877 0.025327207201184435 0.74726826265243362 0.48154199782299478 0.14266126084093486 0.25633575381766549 0.45892705560993652 0.52801040037819225 0.19445914581048934 0.82384813778103416 -0.029521002907286532 0.45981955116680728 0.75135915224588434 0.83348060078041375 0.78697607081837018 -0.38436395597909778 -0.44902273982505336 0.087677551323797578 0.79941524676687437 0.067416824703717459 -0.10493695337832892 0.34431324260066454 0.35717881246662964 0.81739414437949676 0.67025013865229721 0.67233851840806191 -0.085214838240298713 0.21148844751936269 0.53872929715696916 0.69200015947144655 0.0037491950713579988 0.39083648364273776 0.29485203229095297 0.71698206355102823 0.59017926210928273 0.064366700453083958 0.73979903572377115 0.0066633126741058469 0.075065342665292689 0.14048500084206381 0.6139157943077922 0.55692448814810258 -0.080891965178074732 0.25733995696929007 0.47655195067441608 0.71530493939651296 -0.1064759481994615 0.12211019445359053 0.28272597659314358 0.30677735765930847 0.064665044780688921 0.1593187911017048 0.5908421970467258 0.56813696653128098 -0.35037285859292466 0.11022037527878792 0.70882580924584604 -0.28550929979218204 0.75566398784493405 0.80142993280469854 0.081333572060762915 0.75845134599529396 0.13405196438724321 0.14824765425216271 0.59149253644827615 0.51557142236258269 0.43818535494699473 0.45653490939367913 0.24420606452914811 0.063057583344730717 0.402385791424276 0.28033672633961271 0.65199545809003912 -0.1217886831363886 0.22407046798142932 0.52392370024632273 0.72586402488665258 0.16618526390055152 0.1793426305607648 0.54667875233861596 0.49579597804471198 -0.027500882958636924 0.67996286982493337 0.10769953646492758 0.61904985800280055 0.27520212541157207 0.24089057142117615 0.3285136643977099 0.34960334548558081 0.22065177275408418 0.23908828139481292 0.5816628259976292 0.74263293540171227 0.37981950622174299 -0.27529171713630335 0.20535779493721773 0.55538268747716646 0.82496438363648772 0.18844173595057737 0.77086425611406262 0.0033517118823636486 0.46495031938872328 -0.055711349313774056 0.25485351307745807 0.47836406498984874 0.69164560364568972 0.27595971464540914 0.51595017752949901 0.53422263552828742 -0.17840970394179223 0.29369723939276177 0.42902643481539016 0.83832101138244641 0.17667875638195424 -0.017008937176771419 0.58002430140336836 0.63102291948628197 0.77230447906477417 0.83627062275261876 0.78928625076408543 0.81988715966104841 -0.43454195248799049 -0.46951267733015384 0.066455789146740274 0.075835293656165537 -0.24361582765905571 0.092986713072627111 -0.19793252691234381 0.6636872128669129 0.08608114731810021 0.78267730529761814 0.69194890943489373 0.777454920563593 0.26420177219333907 0.46051269034732534 0.12139197713283534 0.1294002426370634 0.51521175830426857 0.62688846655071773 0.43740253486180769 0.43265408668484234 0.0069529671688234899 0.37581109077734354 0.31749654404160504 0.70245040483796872 0.13592099663105459 0.21738050806316128 0.50635827812892154 0.52582715618192988 -0.052387202663984472 0.21934467749640041 0.52600798874522336 0.67282919543604536 0.47421250298509376 -0.099976212444368162 0.19125105031855916 0.56652305120930646 0.69490903841519813 0.21692890740989484 0.058631621571933613 0.086363856507044132 0.12011807479539158 0.64480783652112583 0.66466583447497873 0.10098851701438274 0.56464213567164734 0.54257901114412244 0.16916806508397186 -0.046932730683585125 0.64964671762020398 0.59421073863434981 0.21342137666733063 0.41477956851354791 0.40666988970438944 0.088763392507973576 0.19155747904747769 0.095637344938262786 0.17582656586366757 0.54510457151679248 0.55747258995813398 0.56398855046304086 0.5489000567169493 -0.15733787959267087 0.21487960152459015 0.54013981398518718 0.74456701534323755 0.052065194123069938 0.029312414188874418 0.28641480052471391 0.26851511062935396 0.42930610647126644 0.45398487571816204 0.61619484504170141 0.62912561645349008 0.11312002346537942 0.77727932607284944 0.020376673664061897 0.51683108425891 0.12908875411605569 0.23799633611185778 0.48229773612497207 0.53562222220243783 -0.0044617852151492537 0.19696864097779299 0.55111101710296806 0.62857337932808532 0.29290046653825691 0.83587569129130157 0.3748741947253823 0.33186604805754216 -0.13029799179017792 0.7371009358997167 0.85260875030907735 -0.48042648075120831 0.095991112362934158 -0.35696874029820447 0.80684376788880874 0.056274029504407456 0.78592196339822151 0.24487667085670306 0.0080178537152817038 0.68467006540255237 0.099789649599133695 0.59450741197326074 0.12523407673714057 0.36789489009327281 0.32368649234440006 0.57543736286655145 0.27858056281540777 0.48219484336921781 0.38698412497788737 -0.023238440552647337 0.27382731985633257 0.45078355709341333 0.67422287253941038 -0.14748057791823305 0.30847938680210013 0.40788348828757104 0.82334947201701025 0.19715963721812446 0.46671489167884128 0.16211272859762205 0.3021226070499835 0.40223784485210595 0.52120788755620329 0.80382572186370971 0.13823134482258115 0.49906702885034959 -0.0012778492714786993 0.10143642053118179 0.37552366935458764 0.31445872320128376 0.60082962030547193 0.1233633998297268 0.47462154809565538 0.18536203321282807 0.61047543947485094 0.25188051983857523 0.038259733581067316 0.16659144355075689 0.58562388051620651 0.58890662345221034 0.26797297393682162 0.3641492012687122 -0.0032778112692435652 0.26366765391445202 0.46286264677354716 0.65245148699934097 0.62338771150673089 0.71478092427600715 -0.017602927703878331 -0.0031865136301888488 0.35078002784712681 0.33990471491374685 0.34960585290484675 0.36404983499706173 0.71486756131957419 0.69259393189024432 0.32640622456833834 0.33841358335177585 -0.11630317356288324 0.24265005620764946 0.49868695110252015 0.73501603932055914 -0.02675540936397635 0.13126974304911432 0.64518685423590982 0.62426566965644903 0.566329222688989 0.72777568638728096 0.04925765696394499 0.4179907910873697 0.25908655517878976 0.67589804060711756 0.18636832780758905 0.37340252625612558 0.33071604925716924 0.30237651876055605 0.37050730837637369 0.33566942741596006 0.06351627415202285 0.43622433822888385 0.23276645440475413 0.6681617586382167 0.57718963871209539 0.6031869250919033 0.77403804753154015 0.78214044379305969 -0.058127136222984516 0.29672255629291566 0.4218043591357642 0.72090998896207692 0.34858261157975989 0.69791445793937568 0.68106573580005469 -0.03452040239920362 0.30253453662613788 0.41294449454582827 0.70240644622691373 -0.1690564832405565 -0.14878917529566393 0.19627421205082096 0.18524784314148818 0.74586254943217245 0.65916955080554829 -0.10362633083163857 0.074434078373117732 0.73798038625759455 0.63243758646793857 -0.059872211282829269 0.074689342461176034 0.027035576454487266 0.11937850208484677 0.6522771514042639 0.58588813395354733 0.020634294345592611 0.082473237491217377 0.70788264068827567 0.58353920038855533 0.37125910018941705 0.37560807191657075 0.35366739571959172 -0.14873280047358567 0.15545230586489761 0.60558569548679086 0.73549757367159097 0.25740660232438856 0.73924263999425421 0.7440004178083417 0.11365874997555864 0.705159080941134 0.066851052425602367 0.52002834641183482 0.71093448672045056 0.69558085439006789 -0.27471693539084674 0.22305760179642492 0.53174989231717318 0.84253684199011636 -0.086606686330028881 0.36528698956877426 0.32773345512453 0.81710626107405582 0.48174218992976281 -0.15807991775091484 0.097540658411466585 0.32323227226116069 0.38621667430035356 0.36485698706375258 -0.37476663506040175 0.13796794824945027 0.070789412048393716 -0.18897271290268486 0.70708511443429545 0.76428502523497088 0.057606589209902151 -0.21229668150297085 0.7166910123648218 0.79176584993695365 0.66347374757502142 0.83415966643324679 0.65278997724654642 0.80682221642894758 0.25677488058069275 0.31510217965903392 0.45548069605125224 0.48112155419673175 0.45729729890034093 0.49191617398675141 0.082763487198310837 0.69007733431068075 0.083535057651816139 0.54271305062466635 0.35615564827855067 0.098652230256247614 0.19751657263944847 0.46359518609143713 0.63737132859999412 -0.32456818037814539 0.13607294224353084 -0.29179680582864592 0.14617305779132647 0.0051178924410375526 0.13820666508295468 0.62974600785504131 0.60483777094628444 0.41521406871427397 0.39249959557694891 -0.22108993316886388 0.14642400849547871 -0.050912995467048416 0.14421392072615491 0.6301126715256179 0.64405242193874523 -0.08896205370072531 -0.095806137869343139 0.33860344598525816 0.32333493497723104 0.78921219992801306 0.78133147826736016 0.19235253503536981 0.3365565904452556 0.17878466914086077 0.35497335437187433 -0.30932874825313306 0.11977585197394454 0.74604316487379629 0.71864001890081863 -0.18474584276417902 0.23837304557304495 0.50761171376507175 0.7861591175166055 0.076145358032940327 0.3243045502989228 0.37972940076283035 0.60767602383975139 0.22820497772946657 0.10954680712972342 0.3013479814876292 0.40627118883327545 0.56849126859641763 0.036154890685606865 0.19995575634463367 0.54200534730621597 0.59936342950293531 0.077659971448853851 0.36424438694083183 0.32846966800014959 0.62181732016541147 0.15505718980901839 0.34026093311411576 0.16851782050153641 0.32204031711287628 -0.074854508959279614 0.30671275206826631 0.40875945673788683 0.74430815944150397 0.79495783222753347 0.42744706833433621 0.24054378234247964 -0.030435654824077729 0.027021422313313649 0.3515838781773184 0.34807647276703579 0.66740348173737307 0.33029366601810256 -0.019190728789175399 0.21276459219957894 0.53165496844303994 0.64506259598856452 0.083230662491143595 0.085622537852915653 0.47289356628074652 0.18317544600133651 0.15276128979810374 0.49474496975911619 0.6610321496106939 0.66723959528366616 0.1907504563355133 0.49482998692461067 0.21841848040403505 -0.23635456923548967 0.11224923097299351 0.69670645895912586 0.74647736409133203 0.38717699831570851 0.040714941081173406 0.75333222794938337 0.050116795385246979 0.5667677405422441 0.22002674252929988 0.50298879680991004 0.31787047983868938 0.051279498392223372 0.18757670477376132 0.55598444881849707 0.58473283785059882 0.22665075455667111 0.44876533975765637 0.52177754547864408 0.029172988682966014 0.80066849708789656 0.025087018462647118 0.57242783954466292 0.02964937056053317 0.049424662417172957 0.30580505462168456 0.31666690977628392 0.40468279016227504 0.39147048050908095 0.625351059199036 0.64872874757948185 -0.015748381870960587 0.29202262536532125 0.42611674635023289 0.67883229343922624 -0.042997236652515494 0.34333301942623984 0.38505587275540687 0.73913234729257382 -0.068415327837324708 0.32376439120531564 0.35770125635029881 0.75159977228669717 -0.011353695862586853 0.32129153831207968 0.38690458556343743 0.69105992325787324 0.011173006927952056 0.15866017786662281 0.60051481945521679 0.60600233117075741 0.22793598946150653 0.086468819888288487 0.64183211139901675 0.44070187571518538 0.049363154779614865 0.77634929910387984 0.03481756449738943 0.55993173112236116 0.17260629060171118 0.38872261586389811 -0.022203850272004153 0.38380374598024408 0.30223597808533603 0.74547747631800898 0.28697573345298455 -0.21082866264930777 0.16256692290238228 -0.26544248439924217 0.12125942442129878 0.72272570979058259 0.71306545075715322 0.0069554073763791208 0.31064228597185273 0.40033264877129809 0.66748366994724595 0.64546903392649047 0.7575066644459314 0.37313082239344481 0.39755860256946562 0.083637333358628663 0.22124582822849256 0.50860996670397207 0.56893728862300141 0.49889918106380843 -0.023957492899051261 0.39855969897958959 0.28158552221451277 0.75974833371805217 0.20158129901867261 0.19898444495647466 0.30730833113468492 -0.38337778062711131 0.15270203760782614 0.64051196941809807 0.85094498328932855 -0.175131599378718 0.81065194556125308 0.04515952929474519 0.69514818985987115 0.09512459157902782 0.23720678403491197 0.4873240780602357 0.56374804153256353 0.02546699278348049 0.41367536568515023 0.26414710763529192 0.70417157187436064 0.10558692548971609 0.20705794407027617 0.52329118865554247 0.54789295802989657 0.08321732473690556 0.78465250459458535 0.53687253512650657 0.023030441928280562 0.057499999472425449 0.81995453055694489 0.0092356711973914166 0.55329755541524317 0.51235059764507573 -0.0063850860394400414 0.8229568438940138 0.11839575942045996 -0.25434785070622212 0.13891446924922685 0.71586419947886148 0.73839174234700056 0.084661630116002307 0.094965347440152226 0.28444501481111134 0.26838078547649891 0.42947685855216106 0.44863354603135419 0.58659989689657377 0.57276233669944066 -0.18069464106761313 0.14096794712861044 0.20666838563492612 0.06144633249196612 0.6812302027400291 0.45481553098091076 0.4805371059432304 0.48721898238975037 0.065534299298604728 0.14491664291319406 0.49848279374816229 0.69693007670233442 0.29770460121368886 0.12545591648966611 0.2724628032648268 0.44112530701409658 0.54655100078828522 0.13126766534868536 0.15641204896694844 0.49688607781495847 0.60778261177777682 0.4028141301097935 0.52905015107827036 0.350627216206574 0.26324176397486926 0.33017564084487722 -0.083963394705838079 0.38030319068492574 0.30670494198591891 0.83318656108067213 0.24486397237006824 0.096329627463726114 0.62492136747009397 0.42897076313287574 0.51989844386889872 0.29628442542802885 0.35549238322727628 0.83930797214114516 0.80870069004713963 0.79184573630012567 0.85580539964862146 -0.53635240150935581 -0.49375174411938738 0.056931734831789496 0.065881563107955385 0.31322710888381367 0.39614526984769982 0.41971146484644728 -0.12697379087370608 0.30559690515981658 0.41163301858249091 0.79699145203403599 0.030248449479433257 0.23241441182609812 0.50059604924032475 0.61470576438339675 0.39381047276972869 0.50282954831294413 -0.23647092708799416 0.24119016916435437 -0.20233338199231524 0.24631800119732192 0.50505082611310448 0.83066026643273405 0.49704585590316697 0.80738661097317899 -0.12071135174375328 0.090524177502877584 0.1065300988037489 0.13799596040007228 0.61068209793089445 0.53403145895391324 0.72138671054866932 0.67226483501275613 0.46779365763465763 0.019679906114442335 0.43187547726339814 0.23677074880105661 0.72384308168676603 0.14849117695227126 0.1437803824829223 0.38805107467107924 0.40966624648268707 0.29999052194299686 0.27341931857809837 -0.13517435579879861 0.26477869524586184 0.46877226931752214 0.76709718037425945 -0.082160390688941209 0.27569219879289403 0.45152537029780543 0.72834648968178772 0.41641482219461912 0.054653070704218182 0.077403293647742774 0.70676936477954921 0.56065660555751728 -0.16769893484170206 0.16866752478045879 0.045392041626311649 0.24966857501661316 0.47684726004032585 0.60912115892118757 0.21134899273505098 -0.23129786133464603 0.25833720270570076 0.48030781799425615 0.84536516015461627 0.49726717961363603 -0.05563068767746715 0.4206080032647953 0.24998440374046554 0.83200225676303829 0.6199099289789135 0.75940000368689531 0.52220486580611314 0.36513828486313066 0.37817600513729088 0.43788489786447027 -0.036748912890840833 0.81587736502341712 0.22566657400516466 0.13464465923932975 0.29385190614431211 0.41395264216162642 0.54362819521315364 0.28774045941437415 0.31265429208871753 -0.00032033559682145254 0.23014763839233215 0.50671904970353987 0.6373730118498262 0.48279770094028318 -0.1453527705327009 0.24956672241241107 0.49042668611627571 0.76361448323846093 -0.04431290491023053 0.36133598941915734 0.75521926969691466 0.46194124762599909 0.27712112987867049 0.82152126305150386 0.27159936861206463 0.79937889649178495 0.40136256721769059 -0.062264934736289607 -0.04643219229912568 0.40530025839216477 -0.063635762947758232 0.35701669465672825 0.77555726676007763 -0.048115489043612056 0.23817541151056437 0.50029571379939797 0.67690154587783591 0.40969117170838065 0.11928482106959189 0.24178280046832054 0.43217214010234795 0.60077640112001252 -0.19411173482861754 0.27416632417383646 0.45724254427363542 0.82950418617733535 -0.17862342095816269 0.26676515802711964 0.46754818724429587 0.80723901306484691 0.33901002652199785 0.33293437903926387 0.25790912775256891 0.067563129292727384 0.3431196523745858 0.35603708247393695 0.62339771736808203 0.28692491071146781 -0.10787112953488653 0.27603984088441275 0.45212416370440289 0.75157695531311308 0.28068020797711063 0.065984852096887509 0.732570542989328 0.058353201702866092 0.5509944579164332 -0.12845648657895309 0.29156987183887234