<?xml version="1.0"?>
<VTKFile type="UnstructuredGrid" version="0.1" byte_order="LittleEndian">
<UnstructuredGrid>
<Piece NumberOfPoints="567" NumberOfCells="966">
<Points>
<DataArray type="Float64" NumberOfComponents="3" format="ascii">
0.000000000000000e+00 0.000000000000000e+00 0.000000000000000e+00 0.000000000000000e+00 1.000000000000000e+00 0.000000000000000e+00 1.600000000000000e+01 1.000000000000000e+00 0.000000000000000e+00 1.600000000000000e+01 0.000000000000000e+00 0.000000000000000e+00 0.000000000000000e+00 2.499999999993998e-01 0.000000000000000e+00 0.000000000000000e+00 4.999999999990217e-01 0.000000000000000e+00 0.000000000000000e+00 7.499999999993374e-01 0.000000000000000e+00 2.025316455691341e-01 1.000000000000000e+00 0.000000000000000e+00 4.050632911382681e-01 1.000000000000000e+00 0.000000000000000e+00 6.075949367074022e-01 1.000000000000000e+00 0.000000000000000e+00 8.101265822765362e-01 1.000000000000000e+00 0.000000000000000e+00 1.012658227845670e+00 1.000000000000000e+00 0.000000000000000e+00 1.215189873414804e+00 1.000000000000000e+00 0.000000000000000e+00 1.417721518983938e+00 1.000000000000000e+00 0.000000000000000e+00 1.620253164553072e+00 1.000000000000000e+00 0.000000000000000e+00 1.822784810122207e+00 1.000000000000000e+00 0.000000000000000e+00 2.025316455691340e+00 1.000000000000000e+00 0.000000000000000e+00 2.227848101260475e+00 1.000000000000000e+00 0.000000000000000e+00 2.430379746829609e+00 1.000000000000000e+00 0.000000000000000e+00 2.632911392398743e+00 1.000000000000000e+00 0.000000000000000e+00 2.835443037967877e+00 1.000000000000000e+00 0.000000000000000e+00 3.037974683537010e+00 1.000000000000000e+00 0.000000000000000e+00 3.240506329106145e+00 1.000000000000000e+00 0.000000000000000e+00 3.443037974675279e+00 1.000000000000000e+00 0.000000000000000e+00 3.645569620244413e+00 1.000000000000000e+00 0.000000000000000e+00 3.848101265813547e+00 1.000000000000000e+00 0.000000000000000e+00 4.050632911382726e+00 1.000000000000000e+00 0.000000000000000e+00 4.253164556952040e+00 1.000000000000000e+00 0.000000000000000e+00 4.455696202521353e+00 1.000000000000000e+00 0.000000000000000e+00 4.658227848090667e+00 1.000000000000000e+00 0.000000000000000e+00 4.860759493659981e+00 1.000000000000000e+00 0.000000000000000e+00 5.063291139229296e+00 1.000000000000000e+00 0.000000000000000e+00 5.265822784798610e+00 1.000000000000000e+00 0.000000000000000e+00 5.468354430367923e+00 1.000000000000000e+00 0.000000000000000e+00 5.670886075937237e+00 1.000000000000000e+00 0.000000000000000e+00 5.873417721506551e+00 1.000000000000000e+00 0.000000000000000e+00 6.075949367075864e+00 1.000000000000000e+00 0.000000000000000e+00 6.278481012645178e+00 1.000000000000000e+00 0.000000000000000e+00 6.481012658214492e+00 1.000000000000000e+00 0.000000000000000e+00 6.683544303783806e+00 1.000000000000000e+00 0.000000000000000e+00 6.886075949353121e+00 1.000000000000000e+00 0.000000000000000e+00 7.088607594922435e+00 1.000000000000000e+00 0.000000000000000e+00 7.291139240491749e+00 1.000000000000000e+00 0.000000000000000e+00 7.493670886061063e+00 1.000000000000000e+00 0.000000000000000e+00 7.696202531630375e+00 1.000000000000000e+00 0.000000000000000e+00 7.898734177199691e+00 1.000000000000000e+00 0.000000000000000e+00 8.101265822769285e+00 1.000000000000000e+00 0.000000000000000e+00 8.303797468339161e+00 1.000000000000000e+00 0.000000000000000e+00 8.506329113909036e+00 1.000000000000000e+00 0.000000000000000e+00 8.708860759478913e+00 1.000000000000000e+00 0.000000000000000e+00 8.911392405048788e+00 1.000000000000000e+00 0.000000000000000e+00 9.113924050618664e+00 1.000000000000000e+00 0.000000000000000e+00 9.316455696188541e+00 1.000000000000000e+00 0.000000000000000e+00 9.518987341758416e+00 1.000000000000000e+00 0.000000000000000e+00 9.721518987328292e+00 1.000000000000000e+00 0.000000000000000e+00 9.924050632898169e+00 1.000000000000000e+00 0.000000000000000e+00 1.012658227846805e+01 1.000000000000000e+00 0.000000000000000e+00 1.032911392403792e+01 1.000000000000000e+00 0.000000000000000e+00 1.053164556960780e+01 1.000000000000000e+00 0.000000000000000e+00 1.073417721517767e+01 1.000000000000000e+00 0.000000000000000e+00 1.093670886074755e+01 1.000000000000000e+00 0.000000000000000e+00 1.113924050631742e+01 1.000000000000000e+00 0.000000000000000e+00 1.134177215188730e+01 1.000000000000000e+00 0.000000000000000e+00 1.154430379745718e+01 1.000000000000000e+00 0.000000000000000e+00 1.174683544302705e+01 1.000000000000000e+00 0.000000000000000e+00 1.194936708859693e+01 1.000000000000000e+00 0.000000000000000e+00 1.215189873416701e+01 1.000000000000000e+00 0.000000000000000e+00 1.235443037973717e+01 1.000000000000000e+00 0.000000000000000e+00 1.255696202530733e+01 1.000000000000000e+00 0.000000000000000e+00 1.275949367087749e+01 1.000000000000000e+00 0.000000000000000e+00 1.296202531644764e+01 1.000000000000000e+00 0.000000000000000e+00 1.316455696201780e+01 1.000000000000000e+00 0.000000000000000e+00 1.336708860758796e+01 1.000000000000000e+00 0.000000000000000e+00 1.356962025315812e+01 1.000000000000000e+00 0.000000000000000e+00 1.377215189872827e+01 1.000000000000000e+00 0.000000000000000e+00 1.397468354429843e+01 1.000000000000000e+00 0.000000000000000e+00 1.417721518986859e+01 1.000000000000000e+00 0.000000000000000e+00 1.437974683543874e+01 1.000000000000000e+00 0.000000000000000e+00 1.458227848100890e+01 1.000000000000000e+00 0.000000000000000e+00 1.478481012657906e+01 1.000000000000000e+00 0.000000000000000e+00 1.498734177214921e+01 1.000000000000000e+00 0.000000000000000e+00 1.518987341771937e+01 1.000000000000000e+00 0.000000000000000e+00 1.539240506328953e+01 1.000000000000000e+00 0.000000000000000e+00 1.559493670885968e+01 1.000000000000000e+00 0.000000000000000e+00 1.579746835442984e+01 1.000000000000000e+00 0.000000000000000e+00 1.600000000000000e+01 7.500000000003469e-01 0.000000000000000e+00 1.600000000000000e+01 5.000000000013878e-01 0.000000000000000e+00 1.600000000000000e+01 2.500000000010407e-01 0.000000000000000e+00 1.579746835443066e+01 0.000000000000000e+00 0.000000000000000e+00 1.559493670886132e+01 0.000000000000000e+00 0.000000000000000e+00 1.539240506329198e+01 0.000000000000000e+00 0.000000000000000e+00 1.518987341772264e+01 0.000000000000000e+00 0.000000000000000e+00 1.498734177215330e+01 0.000000000000000e+00 0.000000000000000e+00 1.478481012658396e+01 0.000000000000000e+00 0.000000000000000e+00 1.458227848101463e+01 0.000000000000000e+00 0.000000000000000e+00 1.437974683544529e+01 0.000000000000000e+00 0.000000000000000e+00 1.417721518987595e+01 0.000000000000000e+00 0.000000000000000e+00 1.397468354430661e+01 0.000000000000000e+00 0.000000000000000e+00 1.377215189873727e+01 0.000000000000000e+00 0.000000000000000e+00 1.356962025316793e+01 0.000000000000000e+00 0.000000000000000e+00 1.336708860759859e+01 0.000000000000000e+00 0.000000000000000e+00 1.316455696202925e+01 0.000000000000000e+00 0.000000000000000e+00 1.296202531645991e+01 0.000000000000000e+00 0.000000000000000e+00 1.275949367089057e+01 0.000000000000000e+00 0.000000000000000e+00 1.255696202532123e+01 0.000000000000000e+00 0.000000000000000e+00 1.235443037975189e+01 0.000000000000000e+00 0.000000000000000e+00 1.215189873418256e+01 0.000000000000000e+00 0.000000000000000e+00 1.194936708861336e+01 0.000000000000000e+00 0.000000000000000e+00 1.174683544304458e+01 0.000000000000000e+00 0.000000000000000e+00 1.154430379747580e+01 0.000000000000000e+00 0.000000000000000e+00 1.134177215190703e+01 0.000000000000000e+00 0.000000000000000e+00 1.113924050633825e+01 0.000000000000000e+00 0.000000000000000e+00 1.093670886076947e+01 0.000000000000000e+00 0.000000000000000e+00 1.073417721520070e+01 0.000000000000000e+00 0.000000000000000e+00 1.053164556963192e+01 0.000000000000000e+00 0.000000000000000e+00 1.032911392406314e+01 0.000000000000000e+00 0.000000000000000e+00 1.012658227849436e+01 0.000000000000000e+00 0.000000000000000e+00 9.924050632925587e+00 0.000000000000000e+00 0.000000000000000e+00 9.721518987356809e+00 0.000000000000000e+00 0.000000000000000e+00 9.518987341788034e+00 0.000000000000000e+00 0.000000000000000e+00 9.316455696219256e+00 0.000000000000000e+00 0.000000000000000e+00 9.113924050650478e+00 0.000000000000000e+00 0.000000000000000e+00 8.911392405081703e+00 0.000000000000000e+00 0.000000000000000e+00 8.708860759512925e+00 0.000000000000000e+00 0.000000000000000e+00 8.506329113944147e+00 0.000000000000000e+00 0.000000000000000e+00 8.303797468375370e+00 0.000000000000000e+00 0.000000000000000e+00 8.101265822806592e+00 0.000000000000000e+00 0.000000000000000e+00 7.898734177237253e+00 0.000000000000000e+00 0.000000000000000e+00 7.696202531667353e+00 0.000000000000000e+00 0.000000000000000e+00 7.493670886097451e+00 0.000000000000000e+00 0.000000000000000e+00 7.291139240527549e+00 0.000000000000000e+00 0.000000000000000e+00 7.088607594957649e+00 0.000000000000000e+00 0.000000000000000e+00 6.886075949387747e+00 0.000000000000000e+00 0.000000000000000e+00 6.683544303817845e+00 0.000000000000000e+00 0.000000000000000e+00 6.481012658247945e+00 0.000000000000000e+00 0.000000000000000e+00 6.278481012678045e+00 0.000000000000000e+00 0.000000000000000e+00 6.075949367108143e+00 0.000000000000000e+00 0.000000000000000e+00 5.873417721538242e+00 0.000000000000000e+00 0.000000000000000e+00 5.670886075968340e+00 0.000000000000000e+00 0.000000000000000e+00 5.468354430398438e+00 0.000000000000000e+00 0.000000000000000e+00 5.265822784828536e+00 0.000000000000000e+00 0.000000000000000e+00 5.063291139258636e+00 0.000000000000000e+00 0.000000000000000e+00 4.860759493688734e+00 0.000000000000000e+00 0.000000000000000e+00 4.658227848118834e+00 0.000000000000000e+00 0.000000000000000e+00 4.455696202548932e+00 0.000000000000000e+00 0.000000000000000e+00 4.253164556979030e+00 0.000000000000000e+00 0.000000000000000e+00 4.050632911409130e+00 0.000000000000000e+00 0.000000000000000e+00 3.848101265838807e+00 0.000000000000000e+00 0.00000000000000
[...]
<PointData Scalars="pressure_p1," Vectors="">
<DataArray type="Float64" Name="pressure_p1" format="ascii">
-9.272585030018346e-02 -8.604361374115101e-02 -2.114995444579815e+01 -2.115013592700298e+01 -8.185376809989338e-02 -1.106179786228438e-01 -1.236531004982767e-01 -2.790076281614957e-01 -5.587307428555600e-01 -8.497927043304667e-01 -1.132928889931199e+00 -1.414159953096904e+00 -1.698090024991634e+00 -1.986932745828528e+00 -2.270829761069162e+00 -2.552026520311778e+00 -2.834740346442767e+00 -3.118004506196820e+00 -3.401442854736877e+00 -3.685041088976657e+00 -3.967879505331819e+00 -4.249219621108938e+00 -4.528446666733014e+00 -4.804024523101742e+00 -5.113157889516380e+00 -5.404996592151085e+00 -5.675989428288065e+00 -5.956189913571705e+00 -6.238523385434668e+00 -6.521655717351405e+00 -6.805220861182296e+00 -7.088513341920364e+00 -7.371856276151971e+00 -7.655588912205200e+00 -7.939147759608994e+00 -8.222644027271860e+00 -8.506411874072406e+00 -8.790068990491196e+00 -9.073698252844641e+00 -9.357366003201193e+00 -9.640608318397181e+00 -9.924094859574639e+00 -1.020617618450548e+01 -1.048113406951870e+01 -1.077719966927008e+01 -1.107535111418198e+01 -1.135081373246295e+01 -1.162984154570109e+01 -1.190942225045614e+01 -1.219300612959788e+01 -1.248097803595638e+01 -1.276240856220609e+01 -1.304458937615173e+01 -1.333203204849297e+01 -1.361339960360592e+01 -1.389565993897077e+01 -1.418311587917921e+01 -1.446441737324819e+01 -1.474656727537274e+01 -1.503385815892837e+01 -1.531495715678473e+01 -1.559705716007520e+01 -1.588457778672634e+01 -1.616651880453522e+01 -1.644506089447770e+01 -1.672271318692347e+01 -1.699708012030131e+01 -1.730438051336454e+01 -1.759220280686451e+01 -1.786005655827238e+01 -1.813511589398653e+01 -1.840899395383970e+01 -1.868388749643291e+01 -1.895886633963603e+01 -1.922277234193400e+01 -1.948214962557986e+01 -1.973900031924077e+01 -1.998162278644917e+01 -2.021061233073394e+01 -2.042553290423638e+01 -2.062182628262348e+01 -2.079532253863808e+01 -2.094124196813372e+01 -2.105307644555935e+01 -2.112307115678374e+01 -2.115126600204540e+01 -2.114913081702758e+01 -2.114747125004735e+01 -2.112573584212986e+01 -2.105481622317845e+01 -2.093968218791974e+01 -2.079446315214301e+01 -2.062274333313260e+01 -2.042696947237987e+01 -2.020767455345509e+01 -1.997595180801542e+01 -1.973493201250526e+01 -1.948308226410661e+01 -1.922332806368252e+01 -1.895755700831041e+01 -1.868682176996394e+01 -1.841283001818752e+01 -1.813715137113778e+01 -1.786234211609288e+01 -1.759252536721349e+01 -1.729727592404766e+01 -1.699781625494707e+01 -1.672345030351084e+01 -1.644509179787451e+01 -1.616456540345914e+01 -1.588248835274192e+01 -1.559929042330540e+01 -1.531600678791142e+01 -1.503264469825571e+01 -1.474884084656760e+01 -1.446515313563292e+01 -1.418149853047582e+01 -1.389763742193445e+01 -1.361400972908291e+01 -1.333051146936771e+01 -1.304682940651690e+01 -1.276337453291958e+01 -1.247987101700358e+01 -1.219613344216005e+01 -1.191307936561108e+01 -1.163126046007047e+01 -1.135126700878774e+01 -1.107533182463519e+01 -1.077588484248446e+01 -1.048317755659812e+01 -1.021795113635367e+01 -9.931314794750666e+00 -9.643107624115855e+00 -9.360579965841779e+00 -9.073032749032455e+00 -8.791040823245167e+00 -8.509517610619829e+00 -8.222200484424409e+00 -7.940351378375183e+00 -7.658777100170769e+00 -7.371377852330791e+00 -7.089513570287160e+00 -6.807916093062206e+00 -6.520007476814615e+00 -6.236654749821452e+00 -5.956701726925079e+00 -5.678143388445307e+00 -5.405124022756508e+00 -5.106520904551341e+00 -4.805027725422369e+00 -4.529567577833545e+00 -4.250999063562693e+00 -3.971775579378077e+00 -3.688764025993321e+00 -3.400760399005025e+00 -3.118756400385555e+00 -2.836752965817815e+00 -2.548372397194868e+00 -2.264199016961224e+00 -1.982422390305565e+00 -1.699108373405062e+00 -1.415473335247819e+00 -1.131704623842414e+00 -8.472807963042716e-01 -5.640371612981859e-01 -2.909913437451305e-01 -2.087499087610528e+01 -9.824292900013650e-01 -2.032385548351453e+01 -1.656680705747357e+01 -1.836199689454548e+00 -1.961382465821061e+01 -1.574530777275803e+01 -1.882476187502425e+01 -2.688575174442769e+00 -1.489490843273825e+01 -1.800097707126030e+01 -1.404289633299460e+01 -3.540815907611861e+00 -1.319107064842726e+01 -4.364976337797198e+00 -1.233923390236656e+01 -5.815353605204240e+00 -1.150890043232146e+01 -6.660233431102901e+00 -7.510470200977907e+00 -8.361319241627557e+00 -9.212562886329829e+00 -1.001689196580934e+01 -1.076128288797080e+01 -1.727225444869740e+01 -5.077568359841940e+00 -2.106053773597401e+01 -5.396721933409546e-01 -9.637972036965168e+00 -8.787744008446529e+00 -7.937033007836085e+00 -1.190138187787048e+01 -7.086513491913585e+00 -6.223774571013434e+00 -1.276381139695493e+01 -1.361513879457174e+01 -1.446735972511822e+01 -1.531783504350240e+01 -1.617705740737204e+01 -1.839971948666075e+01 -2.063300538097844e+01 -1.922442715489928e+01 -1.997023049678927e+01 -3.977563613304652e+00 -1.397850395209541e+00 -3.115243931819212e+00 -2.276958418599400e+00 -1.616720212014176e+01 -1.532118872482020e+01 -1.447006096865580e+01 -1.361739386134409e+01 -1.276662702397343e+01 -1.191613437918039e+01 -2.249696760217468e+00 -1.999330806412818e+01 -2.062723159553062e+01 -1.406608550134415e+00 -1.922648694724711e+01 -3.113291273091577e+00 -1.841522453147154e+01 -3.962623572746110e+00 -6.234173837623715e+00 -7.084540094914750e+00 -7.934311979073951e+00 -8.785667711451509e+00 -9.633927753645581e+00 -1.040369010621725e+01 -1.045602921036686e+01 -1.760466249023354e+01 -1.765194126014910e+01 -5.415736235274598e+00 -5.463965386058372e+00 -1.111930770103478e+01 -4.751683744935343e+00 -1.694992594357143e+01 -4.742944019384116e+00 -1.111941931356048e+01 -1.694161970282340e+01 -5.953836404587572e-01 -2.104182478457851e+01 -1.233725885737649e+01 -1.010139519066224e+01 -9.215382585711000e+00 -1.318915838510903e+01 -8.364295083181920e+00 -7.513527808968973e+00 -1.404071885490533e+01 -6.662354302770331e+00 -5.821134127184983e+00 -1.489184485729601e+01 -1.574258885375045e+01 -1.800039547019051e+01 -9.901934963142346e-01 -3.543672369163228e+00 -2.087132723515118e+01 -1.882245840794728e+01 -2.032085226791081e+01 -1.840515864894099e+00 -1.961338855866416e+01 -2.690125924902471e+00 -1.574358007849942e+01 -1.961088785090055e+01 -2.032288797944082e+01 -2.691812790626767e+00 -1.882493878105397e+01 -1.837251936049063e+00 -2.087426755839061e+01 -1.489363080286399e+01 -1.800524721219230e+01 -3.540881064121004e+00 -1.404165843035931e+01 -9.849565078495667e-01 -1.319049759047617e+01 -1.233981306354843e+01 -5.817873649268872e+00 -6.661596527655541e+00 -7.511161354054742e+00 -8.362010030546847e+00 -9.213465534616946e+00 -1.006328386736485e+01 -1.657675574040661e+01 -1.657783860043587e+01 -4.378505097494041e+00 -1.149911343352042e+01 -4.381611675871103e+00 -1.149713450705622e+01 -1.077215834891852e+01 -1.077508145850191e+01 -5.149650231627892e+00 -1.730333616018704e+01 -1.734231972216844e+01 -5.111307964560330e+00 -2.110960545634623e+01 -3.505220341652918e-01 -2.100434783558120e+01 -6.985658436150164e-01 -3.807070176547939e-01 -2.110373864529602e+01 -2.393827804123321e+00 -1.987194285645552e+01 -1.553390141165593e+00 -2.052879003457113e+01 -1.909326780466532e+01 -1.827809819123101e+01 -1.602565369321572e+01 -3.257075521798119e+00 -1.517753003230947e+01 -1.432596718620802e+01 -6.378168319221331e+00 -7.227513117922633e+00 -1.347430520573440e+01 -8.078142057244820e+00 -8.929421659740497e+00 -1.262384920390222e+01 -9.778694410404006e+00 -1.986967903959006e+01 -2.053874547829696e+01 -2.395689464547276e+00 -1.910200485271020e+01 -1.827488153512897e+01 -1.538706702245866e+00 -6.364544280805574e+00 -7.217795602005682e+00 -8.068153375565005e+00 -8.919381948781039e+00 -1.603826377630399e+01 -9.760939143460462e+00 -1.518744897200480e+01 -1.433629765221306e+01 -3.246681617415323e+00 -1.348372501192505e+01 -4.101624608559431e+00 -1.263265758217839e+01 -1.177572686988705e+01 -4.103544237679903e+00 -1.177585969318380e+01 -9.779691124024010e+00 -8.923055311873334e+00 -1.262971642286421e+01 -8.072351924014425e+00 -7.221518087023301e+00 -1.348097194785604e+01 -6.367416198654123e+00 -1.433251531122915e+01 -1.518315243542835e+01 -1.603580490076196e+01 -3.250731260579363e+00 -1.827120910752495e+01 -1.909917037503873e+01 -2.053533087943099e+01 -1.985584926690458e+01 -1.544226213029329e+00 -2.071400325043277e+01 -2.008593943052119e+01 -1.269629896249933e+00 -2.412138389288366e+00 -2.137636143851668e+00 -1.934682791248989e+01 -1.853733348241721e+01 -2.983971187609729e+00 -3.838916871426655e+00 -1.544931256279743e+01 -1.459887138138301e+01 -6.095139217062470e+00 -1.374747002275134e+01 -6.955261743895751e+00 -7.806081237251175e+00 -1.289613494488945e+01 -8.656658708251676e+00 -9.508513118001702e+00 -1.204166561681738e+01 -1.176994148687990e+01 -4.110028120328963e+00 -1.630605418852110e+01 -1.125001781223884e+01 -4.853456026496997e+00 -1.681865887812561e+01 -1.770208586002357e+01 -5.513583292163939e+00 -1.048530669514621e+01 -1.374981884012809e+01 -1.289857584890710e+01 -1.545303095506001e+01 -1.204445023758902e+01 -1.460248954215461e+01 -1.630433845083746e+01 -6.952435533612345e+00 -9.502629511109523e+00 -6.092687171262039e+00 -7.802203344684751e+00 -8.653222738005089e+00 -2.009234729707738e+01 -2.129575168802372e+00 -2.071730198984157e+01 -1.934857074430464e+01 -1.263641702626330e+00 -1.854022368249030e+01 -2.980741340036579e+00 -3.834640687485709e+00 -2.109522369902910e+01 -4.201697506982722e-01 -1.375749749743689e+01 -1.205636817113047e+01 -1.546026347816434e+01 -1.460949915249933e+01 -1.290675311371223e+01 -3.823945294513333e+00 -2.974263490961878e+00 -6.096718715316100e+00 -9.496674636353497e+00 -7.794947303348020e+00 -6.945036842664797e+00 -8.646033725161153e+00 -1.855219779233122e+01 -1.935535216960336e+01 -2.071388011822864e+01 -1.269764788979298e+00 -2.010176029741963e+01 -2.118423264424063e+00 -1.630398487770614e+01 -2.100589017009047e+01 -6.918964090373280e-01 -7.057192645960993e-01 -2.100086623286791e+01 -1.097391592197682e+01 -1.709587117614909e+01 -1.097441500381585e+01 -1.709809710805959e+01 -4.901057616021967e+00 -4.903964977703897e+00 -1.033698390548441e+01 -5.557294254798847e+00 -1.035749300936860e+01 -1.774355254686963e+01 -5.548784856633009e+00 -1.773515504122695e+01 -9.859690348720845e+00 -9.011307338888376e+00 -1.254060581293542e+01 -8.160322752939607e+00 -7.309609583399800e+00 -1.339200155632899e+01 -6.456136679210639e+00 -1.424408672432593e+01 -1.509502404542426e+01 -1.594730337351984e+01 -3.338974045815834e+00 -1.813670658014671e+01 -1.901563984369755e+01 -1.973719403315905e+01 -2.047383774130505e+01 -2.548805015331849e+00 -1.632153918186349e+00 -4.239182544522229e+00 -1.163806465461374e+01 -1.684250724013274e+01 -1.684486756384615e+01 -1.122892682718776e+01 -4.646134073206195e+00 -4.649070680705729e+00 -1.122844384465454e+01 -2.016157345122122e+01 -2.079769010127362e+01 -2.044114416820250e+00 -1.126653007992274e+00 -1.943045310294177e+01 -1.862592023958494e+01 -2.891807444067693e+00 -3.746827595745896e+00 -1.554114847028522e+01 -1.469079295801239e+01 -5.956921850656045e+00 -1.383884474048033e+01 -6.863598610844555e+00 -1.298732193953860e+01 -7.713941326409314e+00 -8.564642013728474e+00 -1.213290507820961e+01 -9.415580579140819e+00 -1.643801020151724e+01 -2.113049365598096e+01 -2.492271081517999e-01 -1.024597981027042e+01 -1.747268491292705e+01 -5.281341392864111e+00 -1.021714494691162e+01 -2.483335711749329e+00 -1.691124771846600e+00 -1.979452244255388e+01 -1.248420251678343e+01 -1.333502503426212e+01 -1.418699089312290e+01 -1.503904218270670e+01 -1.588819252315446e+01 -2.043134678247734e+01 -9.911813199807177e+00 -9.068671159621305e+00 -8.217099278279990e+00 -7.366425002322529e+00 -6.516768005857256e+00 -3.396029057299252e+00 -1.896235558198501e+01 -1.814277486366869e+01 -1.164199209922730e+01 -4.234370176395188e+00 -1.219733307289638e+01 -1.304859838159955e+01 -1.389984224256945e+01 -1.475265808588892e+01 -1.560297744332930e+01 -9.354584342178571e+00 -8.503463043225416e+00 -7.652310787478265e+00 -6.803244246669212e+00 -5.956130752892633e+00 -3.682575420101030e+00 -2.832084447672925e+00 -1.868895929431668e+01 -1.948439686324869e+01 -2.079925717020708e+01 -1.123847991556982e+00 -2.021521253865936e+01 -1.976770391478285e+00 -5.312406682028978e+00 -1.058235058405968e+01 -5.321904712628131e+00 -1.750149999639889e+01 -1.751093994951540e+01 -1.057546144981727e+01 -1.643744710735646e+01 -1.088237318478812e+01 -1.088087609431997e+01 -4.990445476481138e+00 -1.714050438403252e+01 -1.718569345260999e+01 -4.944314829946776e+00 -1.669777695811402e+01 -1.669985183689808e+01 -1.137478126210091e+01 -4.497197718919494e+00 -1.137365828800458e+01 -4.500557459101909e+00 -5.688125265800139e+00 -1.787456471629667e+01 -5.678442003528995e+00 -1.786432791719674e+01 -2.093966452638527e+01 -8.488866396425472e-01 -1.744115120550211e+01 -5.249737762265776e+00 -8.362632318022328e-01 -2.094562242572735e+01 -1.065749170925209e+01 -1.064790934333126e+01 -2.113947302746750e+01 -1.904140941930706e-01 -2.114276742914577e+01 -1.660744550151416e-01 -1.100320077300559e+01 -1.705164177032582e+01 -4.618075423543928e+00 
</DataArray>
</PointData>
<CellData Scalars="pressure_p0," Vectors="velocity_p0,">
<DataArray type="Float64" Name="pressure_p0" format="ascii">