<?xml version="1.0"?>
<VTKFile type="UnstructuredGrid" version="0.1" byte_order="LittleEndian">
<UnstructuredGrid>
<Piece NumberOfPoints="567" NumberOfCells="966">
<Points>
<DataArray type="Float64" NumberOfComponents="3" format="ascii">
0.000000000000000e+00 0.000000000000000e+00 0.000000000000000e+00 0.000000000000000e+00 1.000000000000000e+00 0.000000000000000e+00 1.600000000000000e+01 1.000000000000000e+00 0.000000000000000e+00 1.600000000000000e+01 0.000000000000000e+00 0.000000000000000e+00 0.000000000000000e+00 2.499999999993998e-01 0.000000000000000e+00 0.000000000000000e+00 4.999999999990217e-01 0.000000000000000e+00 0.000000000000000e+00 7.499999999993374e-01 0.000000000000000e+00 2.025316455691341e-01 1.000000000000000e+00 0.000000000000000e+00 4.050632911382681e-01 1.000000000000000e+00 0.000000000000000e+00 6.075949367074022e-01 1.000000000000000e+00 0.000000000000000e+00 8.101265822765362e-01 1.000000000000000e+00 0.000000000000000e+00 1.012658227845670e+00 1.000000000000000e+00 0.000000000000000e+00 1.215189873414804e+00 1.000000000000000e+00 0.000000000000000e+00 1.417721518983938e+00 1.000000000000000e+00 0.000000000000000e+00 1.620253164553072e+00 1.000000000000000e+00 0.000000000000000e+00 1.822784810122207e+00 1.000000000000000e+00 0.000000000000000e+00 2.025316455691340e+00 1.000000000000000e+00 0.000000000000000e+00 2.227848101260475e+00 1.000000000000000e+00 0.000000000000000e+00 2.430379746829609e+00 1.000000000000000e+00 0.000000000000000e+00 2.632911392398743e+00 1.000000000000000e+00 0.000000000000000e+00 2.835443037967877e+00 1.000000000000000e+00 0.000000000000000e+00 3.037974683537010e+00 1.000000000000000e+00 0.000000000000000e+00 3.240506329106145e+00 1.000000000000000e+00 0.000000000000000e+00 3.443037974675279e+00 1.000000000000000e+00 0.000000000000000e+00 3.645569620244413e+00 1.000000000000000e+00 0.000000000000000e+00 3.848101265813547e+00 1.000000000000000e+00 0.000000000000000e+00 4.050632911382726e+00 1.000000000000000e+00 0.000000000000000e+00 4.253164556952040e+00 1.000000000000000e+00 0.000000000000000e+00 4.455696202521353e+00 1.000000000000000e+00 0.000000000000000e+00 4.658227848090667e+00 1.000000000000000e+00 0.000000000000000e+00 4.860759493659981e+00 1.000000000000000e+00 0.000000000000000e+00 5.063291139229296e+00 1.000000000000000e+00 0.000000000000000e+00 5.265822784798610e+00 1.000000000000000e+00 0.000000000000000e+00 5.468354430367923e+00 1.000000000000000e+00 0.000000000000000e+00 5.670886075937237e+00 1.000000000000000e+00 0.000000000000000e+00 5.873417721506551e+00 1.000000000000000e+00 0.000000000000000e+00 6.075949367075864e+00 1.000000000000000e+00 0.000000000000000e+00 6.278481012645178e+00 1.000000000000000e+00 0.000000000000000e+00 6.481012658214492e+00 1.000000000000000e+00 0.000000000000000e+00 6.683544303783806e+00 1.000000000000000e+00 0.000000000000000e+00 6.886075949353121e+00 1.000000000000000e+00 0.000000000000000e+00 7.088607594922435e+00 1.000000000000000e+00 0.000000000000000e+00 7.291139240491749e+00 1.000000000000000e+00 0.000000000000000e+00 7.493670886061063e+00 1.000000000000000e+00 0.000000000000000e+00 7.696202531630375e+00 1.000000000000000e+00 0.000000000000000e+00 7.898734177199691e+00 1.000000000000000e+00 0.000000000000000e+00 8.101265822769285e+00 1.000000000000000e+00 0.000000000000000e+00 8.303797468339161e+00 1.000000000000000e+00 0.000000000000000e+00 8.506329113909036e+00 1.000000000000000e+00 0.000000000000000e+00 8.708860759478913e+00 1.000000000000000e+00 0.000000000000000e+00 8.911392405048788e+00 1.000000000000000e+00 0.000000000000000e+00 9.113924050618664e+00 1.000000000000000e+00 0.000000000000000e+00 9.316455696188541e+00 1.000000000000000e+00 0.000000000000000e+00 9.518987341758416e+00 1.000000000000000e+00 0.000000000000000e+00 9.721518987328292e+00 1.000000000000000e+00 0.000000000000000e+00 9.924050632898169e+00 1.000000000000000e+00 0.000000000000000e+00 1.012658227846805e+01 1.000000000000000e+00 0.000000000000000e+00 1.032911392403792e+01 1.000000000000000e+00 0.000000000000000e+00 1.053164556960780e+01 1.000000000000000e+00 0.000000000000000e+00 1.073417721517767e+01 1.000000000000000e+00 0.000000000000000e+00 1.093670886074755e+01 1.000000000000000e+00 0.000000000000000e+00 1.113924050631742e+01 1.000000000000000e+00 0.000000000000000e+00 1.134177215188730e+01 1.000000000000000e+00 0.000000000000000e+00 1.154430379745718e+01 1.000000000000000e+00 0.000000000000000e+00 1.174683544302705e+01 1.000000000000000e+00 0.000000000000000e+00 1.194936708859693e+01 1.000000000000000e+00 0.000000000000000e+00 1.215189873416701e+01 1.000000000000000e+00 0.000000000000000e+00 1.235443037973717e+01 1.000000000000000e+00 0.000000000000000e+00 1.255696202530733e+01 1.000000000000000e+00 0.000000000000000e+00 1.275949367087749e+01 1.000000000000000e+00 0.000000000000000e+00 1.296202531644764e+01 1.000000000000000e+00 0.000000000000000e+00 1.316455696201780e+01 1.000000000000000e+00 0.000000000000000e+00 1.336708860758796e+01 1.000000000000000e+00 0.000000000000000e+00 1.356962025315812e+01 1.000000000000000e+00 0.000000000000000e+00 1.377215189872827e+01 1.000000000000000e+00 0.000000000000000e+00 1.397468354429843e+01 1.000000000000000e+00 0.000000000000000e+00 1.417721518986859e+01 1.000000000000000e+00 0.000000000000000e+00 1.437974683543874e+01 1.000000000000000e+00 0.000000000000000e+00 1.458227848100890e+01 1.000000000000000e+00 0.000000000000000e+00 1.478481012657906e+01 1.000000000000000e+00 0.000000000000000e+00 1.498734177214921e+01 1.000000000000000e+00 0.000000000000000e+00 1.518987341771937e+01 1.000000000000000e+00 0.000000000000000e+00 1.539240506328953e+01 1.000000000000000e+00 0.000000000000000e+00 1.559493670885968e+01 1.000000000000000e+00 0.000000000000000e+00 1.579746835442984e+01 1.000000000000000e+00 0.000000000000000e+00 1.600000000000000e+01 7.500000000003469e-01 0.000000000000000e+00 1.600000000000000e+01 5.000000000013878e-01 0.000000000000000e+00 1.600000000000000e+01 2.500000000010407e-01 0.000000000000000e+00 1.579746835443066e+01 0.000000000000000e+00 0.000000000000000e+00 1.559493670886132e+01 0.000000000000000e+00 0.000000000000000e+00 1.539240506329198e+01 0.000000000000000e+00 0.000000000000000e+00 1.518987341772264e+01 0.000000000000000e+00 0.000000000000000e+00 1.498734177215330e+01 0.000000000000000e+00 0.000000000000000e+00 1.478481012658396e+01 0.000000000000000e+00 0.000000000000000e+00 1.458227848101463e+01 0.000000000000000e+00 0.000000000000000e+00 1.437974683544529e+01 0.000000000000000e+00 0.000000000000000e+00 1.417721518987595e+01 0.000000000000000e+00 0.000000000000000e+00 1.397468354430661e+01 0.000000000000000e+00 0.000000000000000e+00 1.377215189873727e+01 0.000000000000000e+00 0.000000000000000e+00 1.356962025316793e+01 0.000000000000000e+00 0.000000000000000e+00 1.336708860759859e+01 0.000000000000000e+00 0.000000000000000e+00 1.316455696202925e+01 0.000000000000000e+00 0.000000000000000e+00 1.296202531645991e+01 0.000000000000000e+00 0.000000000000000e+00 1.275949367089057e+01 0.000000000000000e+00 0.000000000000000e+00 1.255696202532123e+01 0.000000000000000e+00 0.000000000000000e+00 1.235443037975189e+01 0.000000000000000e+00 0.000000000000000e+00 1.215189873418256e+01 0.000000000000000e+00 0.000000000000000e+00 1.194936708861336e+01 0.000000000000000e+00 0.000000000000000e+00 1.174683544304458e+01 0.000000000000000e+00 0.000000000000000e+00 1.154430379747580e+01 0.000000000000000e+00 0.000000000000000e+00 1.134177215190703e+01 0.000000000000000e+00 0.000000000000000e+00 1.113924050633825e+01 0.000000000000000e+00 0.000000000000000e+00 1.093670886076947e+01 0.000000000000000e+00 0.000000000000000e+00 1.073417721520070e+01 0.000000000000000e+00 0.000000000000000e+00 1.053164556963192e+01 0.000000000000000e+00 0.000000000000000e+00 1.032911392406314e+01 0.000000000000000e+00 0.000000000000000e+00 1.012658227849436e+01 0.000000000000000e+00 0.000000000000000e+00 9.924050632925587e+00 0.000000000000000e+00 0.000000000000000e+00 9.721518987356809e+00 0.000000000000000e+00 0.000000000000000e+00 9.518987341788034e+00 0.000000000000000e+00 0.000000000000000e+00 9.316455696219256e+00 0.000000000000000e+00 0.000000000000000e+00 9.113924050650478e+00 0.000000000000000e+00 0.000000000000000e+00 8.911392405081703e+00 0.000000000000000e+00 0.000000000000000e+00 8.708860759512925e+00 0.000000000000000e+00 0.000000000000000e+00 8.506329113944147e+00 0.000000000000000e+00 0.000000000000000e+00 8.303797468375370e+00 0.000000000000000e+00 0.000000000000000e+00 8.101265822806592e+00 0.000000000000000e+00 0.000000000000000e+00 7.898734177237253e+00 0.000000000000000e+00 0.000000000000000e+00 7.696202531667353e+00 0.000000000000000e+00 0.000000000000000e+00 7.493670886097451e+00 0.000000000000000e+00 0.000000000000000e+00 7.291139240527549e+00 0.000000000000000e+00 0.000000000000000e+00 7.088607594957649e+00 0.000000000000000e+00 0.000000000000000e+00 6.886075949387747e+00 0.000000000000000e+00 0.000000000000000e+00 6.683544303817845e+00 0.000000000000000e+00 0.000000000000000e+00 6.481012658247945e+00 0.000000000000000e+00 0.000000000000000e+00 6.278481012678045e+00 0.000000000000000e+00 0.000000000000000e+00 6.075949367108143e+00 0.000000000000000e+00 0.000000000000000e+00 5.873417721538242e+00 0.000000000000000e+00 0.000000000000000e+00 5.670886075968340e+00 0.000000000000000e+00 0.000000000000000e+00 5.468354430398438e+00 0.000000000000000e+00 0.000000000000000e+00 5.265822784828536e+00 0.000000000000000e+00 0.000000000000000e+00 5.063291139258636e+00 0.000000000000000e+00 0.000000000000000e+00 4.860759493688734e+00 0.000000000000000e+00 0.000000000000000e+00 4.658227848118834e+00 0.000000000000000e+00 0.000000000000000e+00 4.455696202548932e+00 0.000000000000000e+00 0.000000000000000e+00 4.253164556979030e+00 0.000000000000000e+00 0.000000000000000e+00 4.050632911409130e+00 0.000000000000000e+00 0.000000000000000e+00 3.848101265838807e+00 0.000000000000000e+00 0.00000000000000
[...]
<PointData Scalars="pressure_nodes_[L]," Vectors="">
<DataArray type="Float64" Name="pressure_nodes_[L]" format="ascii">
-5.300201809770436e-02 -4.917807377710461e-02 -1.225978117966119e+01 -1.225971418125274e+01 -4.677352610391651e-02 -6.321028730881668e-02 -7.068213033954326e-02 -1.594368393306202e-01 -3.192820807957311e-01 -4.856170280367876e-01 -6.474434609420114e-01 -8.081860128860822e-01 -9.704904483983628e-01 -1.135573652362121e+00 -1.297806203295232e+00 -1.458518270062096e+00 -1.620091501014959e+00 -1.781975595812782e+00 -1.943958842310327e+00 -2.106028708010077e+00 -2.267661908981851e+00 -2.428443929597644e+00 -2.588027270030542e+00 -2.745554903973780e+00 -2.922316086675155e+00 -3.088991305188990e+00 -3.243899246689566e+00 -3.404047816346403e+00 -3.565406479042837e+00 -3.727221886296622e+00 -3.889278988328234e+00 -4.051179339733334e+00 -4.213114958707600e+00 -4.375269033210627e+00 -4.537321845384782e+00 -4.699343685197285e+00 -4.861518408324206e+00 -5.023627581024397e+00 -5.185724709729126e+00 -5.347837272120085e+00 -5.509706496660790e+00 -5.671728701691933e+00 -5.832915813938703e+00 -5.990024247909085e+00 -6.159284383209183e+00 -6.329721844511365e+00 -6.487143202738516e+00 -6.646609445731101e+00 -6.806407262389455e+00 -6.968646494155146e+00 -7.133218586712712e+00 -7.293906427536508e+00 -7.455343804397105e+00 -7.619618556908219e+00 -7.780263716672289e+00 -7.941760342330905e+00 -8.106052267244900e+00 -8.266659202718577e+00 -8.428115013600362e+00 -8.592333109299627e+00 -8.752851748703426e+00 -8.914355181862723e+00 -9.078795392722400e+00 -9.239887426827234e+00 -9.399327321240804e+00 -9.558421939576180e+00 -9.715897303166939e+00 -9.892704729387246e+00 -1.005804024492738e+01 -1.021287750639735e+01 -1.037242509916238e+01 -1.053207097781486e+01 -1.069355220517586e+01 -1.085612471252466e+01 -1.101347036847689e+01 -1.117037555606271e+01 -1.132769346989509e+01 -1.147845902009210e+01 -1.162352353232906e+01 -1.176239510922209e+01 -1.189197333086788e+01 -1.200915371908339e+01 -1.211007476091292e+01 -1.218924885808323e+01 -1.223983529135267e+01 -1.226087966129886e+01 -1.225984388578115e+01 -1.225848962764682e+01 -1.224171165246059e+01 -1.219063140197051e+01 -1.210895060659934e+01 -1.200854632670748e+01 -1.189260939939110e+01 -1.176359946583357e+01 -1.162192583346842e+01 -1.147492102533749e+01 -1.132494357300584e+01 -1.117069643207698e+01 -1.101377298199567e+01 -1.085509027956431e+01 -1.069501000770842e+01 -1.053428100973443e+01 -1.037359632514387e+01 -1.021420170846939e+01 -1.005837278444471e+01 -9.888421325242708e+00 -9.716274209042691e+00 -9.558839721451548e+00 -9.399339812095075e+00 -9.238744877606663e+00 -9.077368655294082e+00 -8.915405062647750e+00 -8.753423133706260e+00 -8.591434254174711e+00 -8.429206429999972e+00 -8.267050870549134e+00 -8.104931050329100e+00 -7.942694820248894e+00 -7.780588878756452e+00 -7.618568230359467e+00 -7.456441952668569e+00 -7.294440793057157e+00 -7.132422330293853e+00 -6.970263894062600e+00 -6.808485559829797e+00 -6.647418032477836e+00 -6.487397703759256e+00 -6.329707131150596e+00 -6.158530577859579e+00 -5.991096890814415e+00 -5.839762872194184e+00 -5.676110519269570e+00 -5.511180622430375e+00 -5.349811787429029e+00 -5.185477689155777e+00 -5.024199177120513e+00 -4.863408085338648e+00 -4.699207502598246e+00 -4.538022341929713e+00 -4.377191607562622e+00 -4.212943671047118e+00 -4.051760464509715e+00 -3.890906604174959e+00 -3.726371137485781e+00 -3.564345838980015e+00 -3.404341350765587e+00 -3.245133349553555e+00 -3.089110562830771e+00 -2.918465204857746e+00 -2.746115146838268e+00 -2.588672153264742e+00 -2.429468666070998e+00 -2.269897454837867e+00 -2.108210313785997e+00 -1.943621433859437e+00 -1.782407860918331e+00 -1.621269028623358e+00 -1.456457250429034e+00 -1.294010240364220e+00 -1.132963374678508e+00 -9.710424467846154e-01 -8.089349448125301e-01 -6.467513057744867e-01 -4.841998264003777e-01 -3.223317865286106e-01 -1.662967272084918e-01 -1.206388638017151e+01 -5.614245998294072e-01 -1.169641964598000e+01 -9.468902108297740e+00 -1.049405277928508e+00 -1.125053275152862e+01 -8.998966400739388e+00 -1.077645731987376e+01 -1.536562610546409e+00 -8.512746973467404e+00 -1.029456413592542e+01 -8.025761326103666e+00 -2.023626626587038e+00 -7.538916633452627e+00 -2.494565635780835e+00 -7.052088652805608e+00 -3.323557237200320e+00 -6.577386997859172e+00 -3.806441501470608e+00 -4.292356069348429e+00 -4.778626259350463e+00 -5.265110973316498e+00 -5.724733524248847e+00 -6.150018814988619e+00 -9.873593543715426e+00 -2.901799100713690e+00 -1.219483515428478e+01 -3.083953603070599e-01 -5.508009252193109e+00 -5.022128046905932e+00 -4.535958600834621e+00 -6.801654282772807e+00 -4.049896422638281e+00 -3.556902249843606e+00 -7.294437678277972e+00 -7.780967672441044e+00 -8.268029551125164e+00 -8.754172434140241e+00 -9.245700168443850e+00 -1.052640878775420e+01 -1.189921329605347e+01 -1.101401120888678e+01 -1.147106207047564e+01 -2.273155717670755e+00 -7.988453788019179e-01 -1.780337625085011e+00 -1.301285307872823e+00 -9.240193038701335e+00 -8.756345651167457e+00 -8.269820486263558e+00 -7.782490114391913e+00 -7.296266170639338e+00 -6.810191935360188e+00 -1.285695535932442e+00 -1.148554887481895e+01 -1.189554444786008e+01 -8.038677248964534e-01 -1.101561160164350e+01 -1.779276261610315e+00 -1.053563981507847e+01 -2.264646880967014e+00 -3.562906092550658e+00 -4.048891441635070e+00 -4.534542343915606e+00 -5.021093044582487e+00 -5.505847673014817e+00 -5.945731206800252e+00 -5.975537628361651e+00 -1.006518425833761e+01 -1.009237954710251e+01 -3.095114344932495e+00 -3.122655948547741e+00 -6.354672789438654e+00 -2.715561955268957e+00 -9.688516671434114e+00 -2.710538652021401e+00 -6.354737755969683e+00 -9.683649353434376e+00 -3.402108222833419e-01 -1.218120916876254e+01 -7.051013720764361e+00 -5.773177200562629e+00 -5.266768982909585e+00 -7.537882306227935e+00 -4.780362201920280e+00 -4.294135308167403e+00 -8.024577047141692e+00 -3.807681132610317e+00 -3.326840425116531e+00 -8.511061345658423e+00 -8.997485179409773e+00 -1.029416892770678e+01 -5.658614949634564e-01 -2.025273798570775e+00 -1.206135725161113e+01 -1.077517789983883e+01 -1.169456535300147e+01 -1.051881675448887e+00 -1.125034990257189e+01 -1.537456863102312e+00 -8.997934146668646e+00 -1.124868883011516e+01 -1.169571913448778e+01 -1.538409779303437e+00 -1.077651465591995e+01 -1.049997509449006e+00 -1.206345288114217e+01 -8.511984872246035e+00 -1.029696007635977e+01 -2.023650296338463e+00 -8.025023776778804e+00 -5.628811691520260e-01 -7.538563296546895e+00 -7.052391056341550e+00 -3.324988163283442e+00 -3.807205494834982e+00 -4.292737191153249e+00 -4.779002666928269e+00 -5.265610161462550e+00 -5.751307384638682e+00 -9.474707526943655e+00 -9.475334789917248e+00 -2.502321341519782e+00 -6.571862783557964e+00 -2.504101334942964e+00 -6.570728164651788e+00 -6.156204872734850e+00 -6.157858295879272e+00 -2.943076853807991e+00 -9.891636799350270e+00 -9.914186775751807e+00 -2.921128122014593e+00 -1.223077983267919e+01 -2.002954583491611e-01 -1.215454769229149e+01 -3.992084408720246e-01 -2.175508524897537e-01 -1.222612517382571e+01 -1.368092679699067e+00 -1.140982538398618e+01 -8.877621915573266e-01 -1.183020402120512e+01 -1.093590597559641e+01 -1.045562213488469e+01 -9.159261151090261e+00 -1.861457245940507e+00 -8.674260506819595e+00 -8.187504334503496e+00 -3.645218790024256e+00 -4.130623347604950e+00 -7.700749812301144e+00 -4.616763812524489e+00 -5.103273600864806e+00 -7.214705566411973e+00 -5.588626874562792e+00 -1.140829087736114e+01 -1.183666639902820e+01 -1.369147337071552e+00 -1.094094348635135e+01 -1.045367390745458e+01 -8.793613743882881e-01 -3.637391227179780e+00 -4.125007667007832e+00 -4.610987855687726e+00 -5.097460616829967e+00 -9.166369476557099e+00 -5.578334579144801e+00 -8.679798647216687e+00 -8.193283914049497e+00 -1.855492889602784e+00 -7.706014897804929e+00 -2.344069141699545e+00 -7.219625690792942e+00 -6.729892019803199e+00 -2.345187328422302e+00 -6.730044014438112e+00 -5.589226900184391e+00 -5.099604327798673e+00 -7.218007437671836e+00 -4.613424426905794e+00 -4.127169077119784e+00 -7.704507248724363e+00 -3.639059406209896e+00 -8.191190988000121e+00 -8.677418164227261e+00 -9.165047433487178e+00 -1.857820686325270e+00 -1.045158542527105e+01 -1.093935023468607e+01 -1.183449180318467e+01 -1.139982151747270e+01 -8.825224032125455e-01 -1.195382914750222e+01 -1.154417967586241e+01 -7.255727106244434e-01 -1.378566312194591e+00 -1.221676225590810e+00 -1.108805251381740e+01 -1.060715104044849e+01 -1.705359488862472e+00 -2.193961138825229e+00 -8.829595137315739e+00 -8.343433550782869e+00 -3.483440819673585e+00 -7.856821287906927e+00 -3.974996878624239e+00 -4.461243538819310e+00 -7.370270764843491e+00 -4.947351674117948e+00 -5.434194345305770e+00 -6.881955693886862e+00 -6.726641014827005e+00 -2.348892695381180e+00 -9.319681990462046e+00 -6.429388344169206e+00 -2.773682415525864e+00 -9.613177836738414e+00 -1.012158405057396e+01 -3.151085821509607e+00 -5.992390690673132e+00 -7.858096442815213e+00 -7.371601860228385e+00 -8.831643345245903e+00 -6.883489802852941e+00 -8.345430923517027e+00 -9.318616237747293e+00 -3.973349145143254e+00 -5.430757997092609e+00 -3.482022459974166e+00 -4.458991794914211e+00 -4.945347273712103e+00 -1.154810113038307e+01 -1.217052280685034e+00 -1.195600689095745e+01 -1.108900608415828e+01 -7.221478435668675e-01 -1.060876133218550e+01 -1.703502964485272e+00 -2.191498258654891e+00 -1.221959534440176e+01 -2.401109207669078e-01 -7.862602748414803e+00 -6.890382544468350e+00 -8.835907865315706e+00 -8.349562010816557e+00 -7.376387446105592e+00 -2.185408716957808e+00 -1.699829319752255e+00 -3.484358079599676e+00 -5.427449690982812e+00 -4.454914543401784e+00 -3.969184094219461e+00 -4.941314619960932e+00 -1.061589787211647e+01 -1.109328007392211e+01 -1.195379872457298e+01 -7.256575927862200e-01 -1.155418407986093e+01 -1.210688895801534e+00 -9.318516580491323e+00 -1.215570857593920e+01 -3.953769641507970e-01 -4.032749296672816e-01 -1.215206179926953e+01 -6.271627221296643e+00 -9.772536109210908e+00 -6.271910898721537e+00 -9.773720326513034e+00 -2.800998522793954e+00 -2.802632474515936e+00 -5.907610897462738e+00 -3.176015662163183e+00 -5.919299704529290e+00 -1.014535671880368e+01 -3.171159763741852e+00 -1.014052671380911e+01 -5.634792593580555e+00 -5.149968177062633e+00 -7.166984725983054e+00 -4.663637836791505e+00 -4.177457352831005e+00 -7.653555917275081e+00 -3.689715874534918e+00 -8.140541319732373e+00 -8.626923045557017e+00 -9.114294738039714e+00 -1.908227249275002e+00 -1.037328024255040e+01 -1.088935954113917e+01 -1.132635535737828e+01 -1.179379132558170e+01 -1.456683719010560e+00 -9.327641601867902e-01 -2.422685507798611e+00 -6.651221463784316e+00 -9.627031928242930e+00 -9.628390829916219e+00 -6.417421471239733e+00 -2.655271651672140e+00 -2.656953254426432e+00 -6.417146371635224e+00 -1.159199016968299e+01 -1.201065667077165e+01 -1.168210005315664e+00 -6.438510294601070e-01 -1.113845373297099e+01 -1.065898431971017e+01 -1.652666867852303e+00 -2.141308214923653e+00 -8.881983920634237e+00 -8.395859180676434e+00 -3.404430833536937e+00 -7.908936357403738e+00 -3.922559537770090e+00 -7.422283423408082e+00 -4.408526634769798e+00 -4.894698624818521e+00 -6.934011194764466e+00 -5.380997080386873e+00 -9.395159002905228e+00 -1.224563663765484e+01 -1.424155854988926e-01 -5.855685426037490e+00 -9.989081804494102e+00 -3.018299221787705e+00 -5.839220638082474e+00 -1.419231107518421e+00 -9.664900583658320e-01 -1.136153725661898e+01 -7.134936985966283e+00 -7.621191463958885e+00 -8.108118833270106e+00 -8.595138859639263e+00 -9.080683798999374e+00 -1.176626009278778e+01 -5.664716017754304e+00 -5.182885083757452e+00 -4.696208280455126e+00 -4.210037698734796e+00 -3.724454412484355e+00 -1.940882251880948e+00 -1.085799587309483e+01 -1.037681266417109e+01 -6.653486812493665e+00 -2.419936688610098e+00 -6.970991934924307e+00 -7.457496509604271e+00 -7.944004912035034e+00 -8.431439192203719e+00 -8.917566248783441e+00 -5.346272552215503e+00 -4.859862247304633e+00 -4.373420439820748e+00 -3.888170161163252e+00 -3.403998735118870e+00 -2.104634501130498e+00 -1.618580677270696e+00 -1.069633716314542e+01 -1.117154428388028e+01 -1.201180394031174e+01 -6.422565733723953e-01 -1.162650042729265e+01 -1.129737948797408e+00 -3.036073068495198e+00 -6.047736117124745e+00 -3.041507725383891e+00 -1.000575254050845e+01 -1.001121837198389e+01 -6.043809479005354e+00 -9.394861609030515e+00 -6.219149478423143e+00 -6.218307444417544e+00 -2.852011078606382e+00 -9.797752083008733e+00 -9.823862306109170e+00 -2.825606369555865e+00 -9.543946200177247e+00 -9.545157492010651e+00 -6.500738481788074e+00 -2.570127387755996e+00 -6.500094538701664e+00 -2.572054217456400e+00 -3.250804293271567e+00 -1.022118304970511e+01 -3.245310779332031e+00 -1.021538377890374e+01 -1.210881278476366e+01 -4.850927239900200e-01 -9.970929174627681e+00 -3.000237712170043e+00 -4.778933619353592e-01 -1.211315813159235e+01 -6.090609456643032e+00 -6.085211163882854e+00 -1.225192362297879e+01 -1.088132782103728e-01 -1.225433604713317e+01 -9.490936656535325e-02 -6.288264943854939e+00 -9.746734587039528e+00 -2.639191486638796e+00 
</DataArray>
</PointData>
<CellData Scalars="pressure_elements_[L]," Vectors="velocity_elements_[L/T],">
<DataArray type="Float64" Name="pressure_elements_[L]" format="ascii">