<?xml version="1.0"?>
<VTKFile type="UnstructuredGrid" version="0.1" byte_order="LittleEndian">
<UnstructuredGrid>
<Piece NumberOfPoints="567" NumberOfCells="966">
<Points>
<DataArray type="Float64" NumberOfComponents="3" format="ascii">
0.000000000000000e+00 0.000000000000000e+00 0.000000000000000e+00 0.000000000000000e+00 1.000000000000000e+00 0.000000000000000e+00 1.600000000000000e+01 1.000000000000000e+00 0.000000000000000e+00 1.600000000000000e+01 0.000000000000000e+00 0.000000000000000e+00 0.000000000000000e+00 2.499999999993998e-01 0.000000000000000e+00 0.000000000000000e+00 4.999999999990217e-01 0.000000000000000e+00 0.000000000000000e+00 7.499999999993374e-01 0.000000000000000e+00 2.025316455691341e-01 1.000000000000000e+00 0.000000000000000e+00 4.050632911382681e-01 1.000000000000000e+00 0.000000000000000e+00 6.075949367074022e-01 1.000000000000000e+00 0.000000000000000e+00 8.101265822765362e-01 1.000000000000000e+00 0.000000000000000e+00 1.012658227845670e+00 1.000000000000000e+00 0.000000000000000e+00 1.215189873414804e+00 1.000000000000000e+00 0.000000000000000e+00 1.417721518983938e+00 1.000000000000000e+00 0.000000000000000e+00 1.620253164553072e+00 1.000000000000000e+00 0.000000000000000e+00 1.822784810122207e+00 1.000000000000000e+00 0.000000000000000e+00 2.025316455691340e+00 1.000000000000000e+00 0.000000000000000e+00 2.227848101260475e+00 1.000000000000000e+00 0.000000000000000e+00 2.430379746829609e+00 1.000000000000000e+00 0.000000000000000e+00 2.632911392398743e+00 1.000000000000000e+00 0.000000000000000e+00 2.835443037967877e+00 1.000000000000000e+00 0.000000000000000e+00 3.037974683537010e+00 1.000000000000000e+00 0.000000000000000e+00 3.240506329106145e+00 1.000000000000000e+00 0.000000000000000e+00 3.443037974675279e+00 1.000000000000000e+00 0.000000000000000e+00 3.645569620244413e+00 1.000000000000000e+00 0.000000000000000e+00 3.848101265813547e+00 1.000000000000000e+00 0.000000000000000e+00 4.050632911382726e+00 1.000000000000000e+00 0.000000000000000e+00 4.253164556952040e+00 1.000000000000000e+00 0.000000000000000e+00 4.455696202521353e+00 1.000000000000000e+00 0.000000000000000e+00 4.658227848090667e+00 1.000000000000000e+00 0.000000000000000e+00 4.860759493659981e+00 1.000000000000000e+00 0.000000000000000e+00 5.063291139229296e+00 1.000000000000000e+00 0.000000000000000e+00 5.265822784798610e+00 1.000000000000000e+00 0.000000000000000e+00 5.468354430367923e+00 1.000000000000000e+00 0.000000000000000e+00 5.670886075937237e+00 1.000000000000000e+00 0.000000000000000e+00 5.873417721506551e+00 1.000000000000000e+00 0.000000000000000e+00 6.075949367075864e+00 1.000000000000000e+00 0.000000000000000e+00 6.278481012645178e+00 1.000000000000000e+00 0.000000000000000e+00 6.481012658214492e+00 1.000000000000000e+00 0.000000000000000e+00 6.683544303783806e+00 1.000000000000000e+00 0.000000000000000e+00 6.886075949353121e+00 1.000000000000000e+00 0.000000000000000e+00 7.088607594922435e+00 1.000000000000000e+00 0.000000000000000e+00 7.291139240491749e+00 1.000000000000000e+00 0.000000000000000e+00 7.493670886061063e+00 1.000000000000000e+00 0.000000000000000e+00 7.696202531630375e+00 1.000000000000000e+00 0.000000000000000e+00 7.898734177199691e+00 1.000000000000000e+00 0.000000000000000e+00 8.101265822769285e+00 1.000000000000000e+00 0.000000000000000e+00 8.303797468339161e+00 1.000000000000000e+00 0.000000000000000e+00 8.506329113909036e+00 1.000000000000000e+00 0.000000000000000e+00 8.708860759478913e+00 1.000000000000000e+00 0.000000000000000e+00 8.911392405048788e+00 1.000000000000000e+00 0.000000000000000e+00 9.113924050618664e+00 1.000000000000000e+00 0.000000000000000e+00 9.316455696188541e+00 1.000000000000000e+00 0.000000000000000e+00 9.518987341758416e+00 1.000000000000000e+00 0.000000000000000e+00 9.721518987328292e+00 1.000000000000000e+00 0.000000000000000e+00 9.924050632898169e+00 1.000000000000000e+00 0.000000000000000e+00 1.012658227846805e+01 1.000000000000000e+00 0.000000000000000e+00 1.032911392403792e+01 1.000000000000000e+00 0.000000000000000e+00 1.053164556960780e+01 1.000000000000000e+00 0.000000000000000e+00 1.073417721517767e+01 1.000000000000000e+00 0.000000000000000e+00 1.093670886074755e+01 1.000000000000000e+00 0.000000000000000e+00 1.113924050631742e+01 1.000000000000000e+00 0.000000000000000e+00 1.134177215188730e+01 1.000000000000000e+00 0.000000000000000e+00 1.154430379745718e+01 1.000000000000000e+00 0.000000000000000e+00 1.174683544302705e+01 1.000000000000000e+00 0.000000000000000e+00 1.194936708859693e+01 1.000000000000000e+00 0.000000000000000e+00 1.215189873416701e+01 1.000000000000000e+00 0.000000000000000e+00 1.235443037973717e+01 1.000000000000000e+00 0.000000000000000e+00 1.255696202530733e+01 1.000000000000000e+00 0.000000000000000e+00 1.275949367087749e+01 1.000000000000000e+00 0.000000000000000e+00 1.296202531644764e+01 1.000000000000000e+00 0.000000000000000e+00 1.316455696201780e+01 1.000000000000000e+00 0.000000000000000e+00 1.336708860758796e+01 1.000000000000000e+00 0.000000000000000e+00 1.356962025315812e+01 1.000000000000000e+00 0.000000000000000e+00 1.377215189872827e+01 1.000000000000000e+00 0.000000000000000e+00 1.397468354429843e+01 1.000000000000000e+00 0.000000000000000e+00 1.417721518986859e+01 1.000000000000000e+00 0.000000000000000e+00 1.437974683543874e+01 1.000000000000000e+00 0.000000000000000e+00 1.458227848100890e+01 1.000000000000000e+00 0.000000000000000e+00 1.478481012657906e+01 1.000000000000000e+00 0.000000000000000e+00 1.498734177214921e+01 1.000000000000000e+00 0.000000000000000e+00 1.518987341771937e+01 1.000000000000000e+00 0.000000000000000e+00 1.539240506328953e+01 1.000000000000000e+00 0.000000000000000e+00 1.559493670885968e+01 1.000000000000000e+00 0.000000000000000e+00 1.579746835442984e+01 1.000000000000000e+00 0.000000000000000e+00 1.600000000000000e+01 7.500000000003469e-01 0.000000000000000e+00 1.600000000000000e+01 5.000000000013878e-01 0.000000000000000e+00 1.600000000000000e+01 2.500000000010407e-01 0.000000000000000e+00 1.579746835443066e+01 0.000000000000000e+00 0.000000000000000e+00 1.559493670886132e+01 0.000000000000000e+00 0.000000000000000e+00 1.539240506329198e+01 0.000000000000000e+00 0.000000000000000e+00 1.518987341772264e+01 0.000000000000000e+00 0.000000000000000e+00 1.498734177215330e+01 0.000000000000000e+00 0.000000000000000e+00 1.478481012658396e+01 0.000000000000000e+00 0.000000000000000e+00 1.458227848101463e+01 0.000000000000000e+00 0.000000000000000e+00 1.437974683544529e+01 0.000000000000000e+00 0.000000000000000e+00 1.417721518987595e+01 0.000000000000000e+00 0.000000000000000e+00 1.397468354430661e+01 0.000000000000000e+00 0.000000000000000e+00 1.377215189873727e+01 0.000000000000000e+00 0.000000000000000e+00 1.356962025316793e+01 0.000000000000000e+00 0.000000000000000e+00 1.336708860759859e+01 0.000000000000000e+00 0.000000000000000e+00 1.316455696202925e+01 0.000000000000000e+00 0.000000000000000e+00 1.296202531645991e+01 0.000000000000000e+00 0.000000000000000e+00 1.275949367089057e+01 0.000000000000000e+00 0.000000000000000e+00 1.255696202532123e+01 0.000000000000000e+00 0.000000000000000e+00 1.235443037975189e+01 0.000000000000000e+00 0.000000000000000e+00 1.215189873418256e+01 0.000000000000000e+00 0.000000000000000e+00 1.194936708861336e+01 0.000000000000000e+00 0.000000000000000e+00 1.174683544304458e+01 0.000000000000000e+00 0.000000000000000e+00 1.154430379747580e+01 0.000000000000000e+00 0.000000000000000e+00 1.134177215190703e+01 0.000000000000000e+00 0.000000000000000e+00 1.113924050633825e+01 0.000000000000000e+00 0.000000000000000e+00 1.093670886076947e+01 0.000000000000000e+00 0.000000000000000e+00 1.073417721520070e+01 0.000000000000000e+00 0.000000000000000e+00 1.053164556963192e+01 0.000000000000000e+00 0.000000000000000e+00 1.032911392406314e+01 0.000000000000000e+00 0.000000000000000e+00 1.012658227849436e+01 0.000000000000000e+00 0.000000000000000e+00 9.924050632925587e+00 0.000000000000000e+00 0.000000000000000e+00 9.721518987356809e+00 0.000000000000000e+00 0.000000000000000e+00 9.518987341788034e+00 0.000000000000000e+00 0.000000000000000e+00 9.316455696219256e+00 0.000000000000000e+00 0.000000000000000e+00 9.113924050650478e+00 0.000000000000000e+00 0.000000000000000e+00 8.911392405081703e+00 0.000000000000000e+00 0.000000000000000e+00 8.708860759512925e+00 0.000000000000000e+00 0.000000000000000e+00 8.506329113944147e+00 0.000000000000000e+00 0.000000000000000e+00 8.303797468375370e+00 0.000000000000000e+00 0.000000000000000e+00 8.101265822806592e+00 0.000000000000000e+00 0.000000000000000e+00 7.898734177237253e+00 0.000000000000000e+00 0.000000000000000e+00 7.696202531667353e+00 0.000000000000000e+00 0.000000000000000e+00 7.493670886097451e+00 0.000000000000000e+00 0.000000000000000e+00 7.291139240527549e+00 0.000000000000000e+00 0.000000000000000e+00 7.088607594957649e+00 0.000000000000000e+00 0.000000000000000e+00 6.886075949387747e+00 0.000000000000000e+00 0.000000000000000e+00 6.683544303817845e+00 0.000000000000000e+00 0.000000000000000e+00 6.481012658247945e+00 0.000000000000000e+00 0.000000000000000e+00 6.278481012678045e+00 0.000000000000000e+00 0.000000000000000e+00 6.075949367108143e+00 0.000000000000000e+00 0.000000000000000e+00 5.873417721538242e+00 0.000000000000000e+00 0.000000000000000e+00 5.670886075968340e+00 0.000000000000000e+00 0.000000000000000e+00 5.468354430398438e+00 0.000000000000000e+00 0.000000000000000e+00 5.265822784828536e+00 0.000000000000000e+00 0.000000000000000e+00 5.063291139258636e+00 0.000000000000000e+00 0.000000000000000e+00 4.860759493688734e+00 0.000000000000000e+00 0.000000000000000e+00 4.658227848118834e+00 0.000000000000000e+00 0.000000000000000e+00 4.455696202548932e+00 0.000000000000000e+00 0.000000000000000e+00 4.253164556979030e+00 0.000000000000000e+00 0.000000000000000e+00 4.050632911409130e+00 0.000000000000000e+00 0.000000000000000e+00 3.848101265838807e+00 0.000000000000000e+00 0.00000000000000
[...]
<PointData Scalars="pressure_p1," Vectors="" Tensors="">
<DataArray type="Float64" Name="pressure_p1" format="ascii">
-6.626438771665563e-02 -6.148179361118631e-02 -1.524079635376973e+01 -1.524140931170891e+01 -5.852247780909666e-02 -7.911670659093317e-02 -8.838057066541706e-02 -1.992439737136250e-01 -3.989788528016735e-01 -6.068422179843825e-01 -8.090498993167978e-01 -1.009894681826162e+00 -1.212626873068052e+00 -1.418899669386110e+00 -1.621690228654938e+00 -1.822510971489430e+00 -2.024408785514111e+00 -2.226701733687634e+00 -2.429114682782102e+00 -2.631642433499114e+00 -2.833633949175708e+00 -3.034554925658720e+00 -3.233961586061616e+00 -3.430727325555336e+00 -3.651412769973245e+00 -3.860076022940362e+00 -4.053554729679560e+00 -4.253627802857004e+00 -4.455238382664084e+00 -4.657418889698715e+00 -4.859917310782778e+00 -5.062229492706162e+00 -5.264569570571467e+00 -5.467192900086128e+00 -5.669698831860367e+00 -5.872152256629742e+00 -6.074799420811073e+00 -6.277372193067816e+00 -6.479916211444299e+00 -6.682493057678617e+00 -6.884767234116069e+00 -7.087190661059014e+00 -7.288660017121273e+00 -7.485076514907498e+00 -7.696491185173287e+00 -7.909420626525182e+00 -8.106165274156636e+00 -8.305429154641732e+00 -8.505065091882971e+00 -8.707297726003862e+00 -8.912942905893562e+00 -9.114183297882082e+00 -9.315427772430965e+00 -9.520696411110796e+00 -9.721912318705828e+00 -9.923203579408291e+00 -1.012848562449546e+01 -1.032968371416074e+01 -1.053090322007881e+01 -1.073610432802232e+01 -1.093722068137198e+01 -1.113844158353287e+01 -1.134390543580193e+01 -1.154583095176197e+01 -1.174509517343507e+01 -1.194379816976677e+01 -1.214019584166201e+01 -1.236027998253316e+01 -1.256785548649874e+01 -1.276054382749821e+01 -1.295904497993596e+01 -1.315741105357823e+01 -1.335698619633411e+01 -1.355813899536090e+01 -1.375284206118290e+01 -1.394480496389413e+01 -1.413692715217581e+01 -1.432063810951298e+01 -1.449547177454113e+01 -1.466146129646937e+01 -1.481498738537047e+01 -1.495243619811922e+01 -1.506958071677567e+01 -1.516068846488375e+01 -1.521877528327844e+01 -1.524150797319112e+01 -1.523788895916741e+01 -1.523677433545059e+01 -1.522113288526913e+01 -1.516177808111643e+01 -1.506841266514540e+01 -1.495179733208297e+01 -1.481567453828320e+01 -1.466203700232788e+01 -1.449267343605293e+01 -1.431628475744438e+01 -1.413427693577778e+01 -1.394589805734067e+01 -1.375327300712468e+01 -1.355761694351714e+01 -1.335957865904771e+01 -1.316024477865566e+01 -1.296055011585081e+01 -1.276220092773402e+01 -1.256784351005182e+01 -1.235549798625170e+01 -1.214078778591519e+01 -1.194432264706563e+01 -1.174510914515578e+01 -1.154446126556797e+01 -1.134278640298196e+01 -1.114039602642930e+01 -1.093800724310385e+01 -1.073557750731411e+01 -1.053286291232085e+01 -1.033025260061325e+01 -1.012766004498813e+01 -9.924933068700456e+00 -9.722384480506522e+00 -9.519916322808950e+00 -9.317324628337547e+00 -9.114904466122452e+00 -8.912437133813642e+00 -8.709818786445641e+00 -8.507703107870061e+00 -8.306457346203004e+00 -8.106502722905335e+00 -7.909414579201566e+00 -7.695561209864269e+00 -7.486707248180868e+00 -7.296892069480283e+00 -7.091956023732211e+00 -6.886507661891816e+00 -6.684573124701650e+00 -6.479235818791325e+00 -6.278045767342129e+00 -6.076823766017324e+00 -5.871646934989635e+00 -5.670537836245107e+00 -5.469295889764543e+00 -5.264060692647243e+00 -5.062923627051997e+00 -4.861683679674146e+00 -4.656085744121697e+00 -4.453887982393580e+00 -4.253986073861910e+00 -4.055082343608234e+00 -3.860084031234225e+00 -3.646760320196542e+00 -3.431458439220403e+00 -3.234758122373426e+00 -3.035821855657733e+00 -2.836407729625491e+00 -2.634216122588860e+00 -2.428550756228502e+00 -2.227232286014969e+00 -2.025783707113600e+00 -1.819843257838375e+00 -1.616956237971762e+00 -1.415723735539482e+00 -1.213393488785522e+00 -1.010835042246963e+00 -8.081781795861612e-01 -6.050563029531235e-01 -4.027883973244442e-01 -2.078093940845460e-01 -1.501632961412095e+01 -7.015715834266915e-01 -1.458250105786330e+01 -1.183246780807107e+01 -1.311286436174592e+00 -1.404338462174029e+01 -1.124464578589421e+01 -1.346020782460656e+01 -1.920013277043981e+00 -1.063711021965122e+01 -1.286209121036146e+01 -1.002859056621578e+01 -2.528624792236212e+00 -9.420262761680450e+00 -3.117293247979977e+00 -8.811925330622151e+00 -4.153037708795776e+00 -8.219224217230151e+00 -4.756334166858722e+00 -5.363522793178310e+00 -5.971140298578960e+00 -6.579046303312429e+00 -7.153522988575401e+00 -7.685379894501865e+00 -1.233824141201726e+01 -3.626293973838451e+00 -1.516621632212352e+01 -3.853652936078427e-01 -6.883217594516155e+00 -6.276002793891756e+00 -5.668449349161263e+00 -8.499579385510062e+00 -5.061032907991680e+00 -4.444819268584461e+00 -9.115632339495251e+00 -9.723632817895945e+00 -1.033229687207292e+01 -1.093980726510115e+01 -1.155372538294027e+01 -1.315102700517825e+01 -1.482417063430040e+01 -1.375470841262190e+01 -1.431233123154054e+01 -2.840630720582909e+00 -9.982743974877460e-01 -2.224833589301837e+00 -1.626114306964613e+00 -1.154644278652756e+01 -1.094176974210990e+01 -1.033380942147539e+01 -9.724850196788877e+00 -9.117275551944362e+00 -8.509945036215198e+00 -1.606643281569797e+00 -1.432987707737532e+01 -1.481931415484597e+01 -1.004510220452713e+00 -1.375569791992383e+01 -2.223350662518753e+00 -1.316203767060425e+01 -2.829904368816951e+00 -4.452153526821472e+00 -5.059422413997020e+00 -5.666276411374587e+00 -6.274265463884809e+00 -6.880069203573565e+00 -7.429836825707050e+00 -7.467386736250353e+00 -1.257684326471597e+01 -1.261098581899939e+01 -3.867745956190496e+00 -3.902231419875291e+00 -7.941069308909547e+00 -3.393498364798524e+00 -1.210692052800304e+01 -3.387303917175991e+00 -7.941146783037952e+00 -1.210113508866294e+01 -4.251509275455475e-01 -1.515133896928861e+01 -8.810426822818984e+00 -7.213616309794773e+00 -6.580988341276919e+00 -9.418803601699723e+00 -5.973205701352332e+00 -5.365650774205044e+00 -1.002694028662066e+01 -4.757800859896487e+00 -4.157211146535037e+00 -1.063481975610147e+01 -1.124258910244825e+01 -1.286177053007137e+01 -7.071150216252406e-01 -2.530639894442956e+00 -1.501337924959473e+01 -1.345838721700062e+01 -1.458001318961880e+01 -1.314355138918619e+00 -1.404292551171337e+01 -1.921099543407766e+00 -1.124347903461443e+01 -1.404125959831105e+01 -1.458190126931510e+01 -1.922337194442221e+00 -1.346042788773388e+01 -1.312047723895812e+00 -1.501561055766949e+01 -1.063625103926559e+01 -1.286532537981643e+01 -2.528686550813541e+00 -1.002775810094661e+01 -7.033761139941633e-01 -9.419898534016054e+00 -8.812395210926775e+00 -4.154868366345794e+00 -4.757340041491928e+00 -5.364039459831978e+00 -5.971662588429509e+00 -6.579713738008878e+00 -7.186533194199515e+00 -1.183942603360590e+01 -1.184017626266773e+01 -3.126907055935081e+00 -8.212131870119732e+00 -3.129124639688500e+00 -8.210716671862874e+00 -7.693213359150690e+00 -7.695330612414580e+00 -3.677637317366184e+00 -1.236025205206513e+01 -1.238807081448716e+01 -3.650302333645316e+00 -1.520538127218316e+01 -2.502736957290213e-01 -1.512075692259276e+01 -4.988518227283632e-01 -2.718467155591042e-01 -1.520158621247159e+01 -1.709540360836840e+00 -1.423763075521195e+01 -1.109328911516225e+00 -1.474195655625912e+01 -1.365735144767672e+01 -1.306256596086313e+01 -1.144513429392646e+01 -2.326016409785154e+00 -1.083906796138876e+01 -1.023082921026644e+01 -4.554953580205319e+00 -5.161489710579503e+00 -9.622600861333426e+00 -5.768954713081372e+00 -6.376882465581723e+00 -9.015252152356995e+00 -6.983374444124024e+00 -1.423610228670278e+01 -1.474996190231008e+01 -1.710896903061420e+00 -1.366406047475437e+01 -1.306033028999735e+01 -1.098857563108607e+00 -4.545286749148508e+00 -5.154655891411011e+00 -5.761938705201868e+00 -6.369845065258285e+00 -1.145432957888748e+01 -6.970949469737866e+00 -1.084637068628099e+01 -1.023840954167713e+01 -2.318641415466204e+00 -9.629520186669899e+00 -2.929205046854046e+00 -9.021724084778041e+00 -8.409760322173696e+00 -2.930531256451057e+00 -8.409739323775234e+00 -6.984057755161459e+00 -6.372397480976074e+00 -9.019523019937676e+00 -5.764873329970953e+00 -5.157254592333167e+00 -9.627450189579344e+00 -4.547292677744815e+00 -1.023560137624521e+01 -1.084318548331949e+01 -1.145244306254789e+01 -2.321507768332511e+00 -1.305759575329393e+01 -1.366182334273569e+01 -1.474713310797794e+01 -1.422541842005616e+01 -1.102788024199755e+00 -1.488788672102651e+01 -1.440006733114303e+01 -9.066821669562933e-01 -1.722617761136274e+00 -1.526579377245488e+00 -1.384480762822196e+01 -1.325073502189133e+01 -2.131001365436675e+00 -2.741546450217736e+00 -1.103333504089041e+01 -1.042584204368907e+01 -4.352870391423328e+00 -9.817774801861695e+00 -4.967107937070030e+00 -5.574716325871179e+00 -9.209789628661895e+00 -6.182152094048754e+00 -6.790485608883110e+00 -8.599550677010649e+00 -8.405536902047864e+00 -2.935171670436574e+00 -1.164574352567715e+01 -8.034403992080733e+00 -3.466268191360442e+00 -1.201292335008585e+01 -1.264668924560886e+01 -3.937543849029592e+00 -7.488096449922829e+00 -9.819558648340534e+00 -9.211634910009126e+00 -1.103611054672433e+01 -8.601634522763591e+00 -1.042853616363436e+01 -1.164464310915616e+01 -4.965147031284115e+00 -6.786392866792319e+00 -4.351142474461882e+00 -5.572009136693900e+00 -6.179766048962917e+00 -1.440518365390294e+01 -1.520844524012580e+00 -1.489059828841260e+01 -1.384624504044973e+01 -9.024119671554761e-01 -1.325296720246523e+01 -2.128718959505807e+00 -2.738523589646274e+00 -1.519549951131969e+01 -3.000496137108860e-01 -9.824844668655571e+00 -8.610015955987263e+00 -1.104105810468899e+01 -1.043333355022240e+01 -9.217287293211456e+00 -2.730841981603852e+00 -2.124049162877862e+00 -4.353982488251478e+00 -6.781980463343191e+00 -5.566713400902525e+00 -4.959764001956898e+00 -6.174506394375499e+00 -1.326150433208259e+01 -1.385098652395892e+01 -1.488769711032816e+01 -9.067766697854814e-01 -1.441217589018205e+01 -1.512855679977134e+00 -1.164421320110618e+01 -1.512188477422447e+01 -4.940738727087491e-01 -5.039505033691917e-01 -1.511799866692883e+01 -7.837151702864690e+00 -1.221117553658209e+01 -7.837510932264627e+00 -1.221291583774472e+01 -3.500073620683363e+00 -3.502190351406383e+00 -7.382181114910803e+00 -3.968854233529712e+00 -7.396896440008436e+00 -1.267684433883835e+01 -3.962769686257975e+00 -1.267075382325668e+01 -7.041432820831963e+00 -6.435538542802530e+00 -8.956044688450305e+00 -5.827800310413513e+00 -5.220258320723362e+00 -9.564082926592480e+00 -4.610724275597532e+00 -1.017262469380334e+01 -1.078041785935991e+01 -1.138937101903720e+01 -2.384565890784981e+00 -1.296028196807039e+01 -1.360059794938602e+01 -1.413591656005487e+01 -1.469931860782784e+01 -1.820204918372101e+00 -1.165600761663492e+00 -3.027441011185761e+00 -8.311439550800403e+00 -1.202972688856372e+01 -1.203140077284714e+01 -8.019211810373527e+00 -3.318049249040656e+00 -3.320141115197509e+00 -8.018862570554505e+00 -1.445810779736818e+01 -1.495453288331531e+01 -1.459817387425385e+00 -8.045762072908550e-01 -1.390710242713524e+01 -1.331542756604481e+01 -2.065221568359541e+00 -2.675828872618348e+00 -1.109914563733055e+01 -1.049168113376658e+01 -4.254190844393676e+00 -9.883206201880750e+00 -4.901736471519234e+00 -9.275075402240859e+00 -5.509016180183760e+00 -6.116550084800910e+00 -8.664849169169898e+00 -6.724258205931568e+00 -1.174026238529093e+01 -1.522390448427026e+01 -1.779621144428814e-01 -7.317061430048635e+00 -1.248197544135365e+01 -3.771768652414623e+00 -7.296439873570002e+00 -1.773493381719828e+00 -1.207682889590341e+00 -1.417942076079450e+01 -8.915452817398410e+00 -9.523057669661034e+00 -1.013149123820563e+01 -1.074005758147890e+01 -1.134676950864828e+01 -1.466583069445280e+01 -7.078422253744045e+00 -6.476277753602680e+00 -5.868144243888142e+00 -5.260652697566972e+00 -4.653885656265881e+00 -2.425229812990320e+00 -1.356102884784950e+01 -1.296467727390028e+01 -8.314216990915481e+00 -3.023994766397113e+00 -8.710599249217138e+00 -9.318512927756293e+00 -9.926422196676002e+00 -1.053550079602601e+01 -1.114294140598457e+01 -6.680465040322219e+00 -6.072645954341567e+00 -5.464811344703865e+00 -4.858466790857852e+00 -4.253597439346911e+00 -2.629860712545481e+00 -2.022499613050542e+00 -1.336101140542986e+01 -1.394678515562701e+01 -1.495565185859392e+01 -8.025695993217611e-01 -1.449890544159173e+01 -1.411681170790163e+00 -3.793924446743258e+00 -7.557607159134862e+00 -3.800702555853713e+00 -1.250258188393123e+01 -1.250933056597282e+01 -7.552675046241123e+00 -1.173980599311569e+01 -7.772008748728868e+00 -7.770913904306909e+00 -3.564049769269687e+00 -1.224387996793521e+01 -1.227606539531492e+01 -3.531171579043387e+00 -1.192623892486330e+01 -1.192768297569804e+01 -8.123439504954375e+00 -3.211725836132187e+00 -8.122637855573672e+00 -3.214117796005269e+00 -4.062254168861039e+00 -1.277112643458277e+01 -4.055272429674176e+00 -1.276353595158477e+01 -1.506864856400964e+01 -6.062030883708226e-01 -1.245931328734650e+01 -3.749191974956873e+00 -5.971813113852322e-01 -1.507309702103942e+01 -7.611397773911073e+00 -7.604422660610898e+00 -1.523234802991317e+01 -1.359810679591710e-01 -1.523499230440851e+01 -1.186019765919951e-01 -7.858212190071261e+00 -1.218012140053168e+01 -3.298089964404777e+00 
</DataArray>
</PointData>
<CellData Scalars="pressure_p0," Vectors="velocity_p0," Tensors="">
<DataArray type="Float64" Name="pressure_p0" format="ascii">