<?xml version="1.0"?>
<VTKFile type="UnstructuredGrid" version="0.1" byte_order="LittleEndian">
<UnstructuredGrid>
<Piece NumberOfPoints="567" NumberOfCells="966">
<Points>
<DataArray type="Float64" NumberOfComponents="3" format="ascii">
0.000000000000000e+00 0.000000000000000e+00 0.000000000000000e+00 0.000000000000000e+00 1.000000000000000e+00 0.000000000000000e+00 1.600000000000000e+01 1.000000000000000e+00 0.000000000000000e+00 1.600000000000000e+01 0.000000000000000e+00 0.000000000000000e+00 0.000000000000000e+00 2.499999999993998e-01 0.000000000000000e+00 0.000000000000000e+00 4.999999999990217e-01 0.000000000000000e+00 0.000000000000000e+00 7.499999999993374e-01 0.000000000000000e+00 2.025316455691341e-01 1.000000000000000e+00 0.000000000000000e+00 4.050632911382681e-01 1.000000000000000e+00 0.000000000000000e+00 6.075949367074022e-01 1.000000000000000e+00 0.000000000000000e+00 8.101265822765362e-01 1.000000000000000e+00 0.000000000000000e+00 1.012658227845670e+00 1.000000000000000e+00 0.000000000000000e+00 1.215189873414804e+00 1.000000000000000e+00 0.000000000000000e+00 1.417721518983938e+00 1.000000000000000e+00 0.000000000000000e+00 1.620253164553072e+00 1.000000000000000e+00 0.000000000000000e+00 1.822784810122207e+00 1.000000000000000e+00 0.000000000000000e+00 2.025316455691340e+00 1.000000000000000e+00 0.000000000000000e+00 2.227848101260475e+00 1.000000000000000e+00 0.000000000000000e+00 2.430379746829609e+00 1.000000000000000e+00 0.000000000000000e+00 2.632911392398743e+00 1.000000000000000e+00 0.000000000000000e+00 2.835443037967877e+00 1.000000000000000e+00 0.000000000000000e+00 3.037974683537010e+00 1.000000000000000e+00 0.000000000000000e+00 3.240506329106145e+00 1.000000000000000e+00 0.000000000000000e+00 3.443037974675279e+00 1.000000000000000e+00 0.000000000000000e+00 3.645569620244413e+00 1.000000000000000e+00 0.000000000000000e+00 3.848101265813547e+00 1.000000000000000e+00 0.000000000000000e+00 4.050632911382726e+00 1.000000000000000e+00 0.000000000000000e+00 4.253164556952040e+00 1.000000000000000e+00 0.000000000000000e+00 4.455696202521353e+00 1.000000000000000e+00 0.000000000000000e+00 4.658227848090667e+00 1.000000000000000e+00 0.000000000000000e+00 4.860759493659981e+00 1.000000000000000e+00 0.000000000000000e+00 5.063291139229296e+00 1.000000000000000e+00 0.000000000000000e+00 5.265822784798610e+00 1.000000000000000e+00 0.000000000000000e+00 5.468354430367923e+00 1.000000000000000e+00 0.000000000000000e+00 5.670886075937237e+00 1.000000000000000e+00 0.000000000000000e+00 5.873417721506551e+00 1.000000000000000e+00 0.000000000000000e+00 6.075949367075864e+00 1.000000000000000e+00 0.000000000000000e+00 6.278481012645178e+00 1.000000000000000e+00 0.000000000000000e+00 6.481012658214492e+00 1.000000000000000e+00 0.000000000000000e+00 6.683544303783806e+00 1.000000000000000e+00 0.000000000000000e+00 6.886075949353121e+00 1.000000000000000e+00 0.000000000000000e+00 7.088607594922435e+00 1.000000000000000e+00 0.000000000000000e+00 7.291139240491749e+00 1.000000000000000e+00 0.000000000000000e+00 7.493670886061063e+00 1.000000000000000e+00 0.000000000000000e+00 7.696202531630375e+00 1.000000000000000e+00 0.000000000000000e+00 7.898734177199691e+00 1.000000000000000e+00 0.000000000000000e+00 8.101265822769285e+00 1.000000000000000e+00 0.000000000000000e+00 8.303797468339161e+00 1.000000000000000e+00 0.000000000000000e+00 8.506329113909036e+00 1.000000000000000e+00 0.000000000000000e+00 8.708860759478913e+00 1.000000000000000e+00 0.000000000000000e+00 8.911392405048788e+00 1.000000000000000e+00 0.000000000000000e+00 9.113924050618664e+00 1.000000000000000e+00 0.000000000000000e+00 9.316455696188541e+00 1.000000000000000e+00 0.000000000000000e+00 9.518987341758416e+00 1.000000000000000e+00 0.000000000000000e+00 9.721518987328292e+00 1.000000000000000e+00 0.000000000000000e+00 9.924050632898169e+00 1.000000000000000e+00 0.000000000000000e+00 1.012658227846805e+01 1.000000000000000e+00 0.000000000000000e+00 1.032911392403792e+01 1.000000000000000e+00 0.000000000000000e+00 1.053164556960780e+01 1.000000000000000e+00 0.000000000000000e+00 1.073417721517767e+01 1.000000000000000e+00 0.000000000000000e+00 1.093670886074755e+01 1.000000000000000e+00 0.000000000000000e+00 1.113924050631742e+01 1.000000000000000e+00 0.000000000000000e+00 1.134177215188730e+01 1.000000000000000e+00 0.000000000000000e+00 1.154430379745718e+01 1.000000000000000e+00 0.000000000000000e+00 1.174683544302705e+01 1.000000000000000e+00 0.000000000000000e+00 1.194936708859693e+01 1.000000000000000e+00 0.000000000000000e+00 1.215189873416701e+01 1.000000000000000e+00 0.000000000000000e+00 1.235443037973717e+01 1.000000000000000e+00 0.000000000000000e+00 1.255696202530733e+01 1.000000000000000e+00 0.000000000000000e+00 1.275949367087749e+01 1.000000000000000e+00 0.000000000000000e+00 1.296202531644764e+01 1.000000000000000e+00 0.000000000000000e+00 1.316455696201780e+01 1.000000000000000e+00 0.000000000000000e+00 1.336708860758796e+01 1.000000000000000e+00 0.000000000000000e+00 1.356962025315812e+01 1.000000000000000e+00 0.000000000000000e+00 1.377215189872827e+01 1.000000000000000e+00 0.000000000000000e+00 1.397468354429843e+01 1.000000000000000e+00 0.000000000000000e+00 1.417721518986859e+01 1.000000000000000e+00 0.000000000000000e+00 1.437974683543874e+01 1.000000000000000e+00 0.000000000000000e+00 1.458227848100890e+01 1.000000000000000e+00 0.000000000000000e+00 1.478481012657906e+01 1.000000000000000e+00 0.000000000000000e+00 1.498734177214921e+01 1.000000000000000e+00 0.000000000000000e+00 1.518987341771937e+01 1.000000000000000e+00 0.000000000000000e+00 1.539240506328953e+01 1.000000000000000e+00 0.000000000000000e+00 1.559493670885968e+01 1.000000000000000e+00 0.000000000000000e+00 1.579746835442984e+01 1.000000000000000e+00 0.000000000000000e+00 1.600000000000000e+01 7.500000000003469e-01 0.000000000000000e+00 1.600000000000000e+01 5.000000000013878e-01 0.000000000000000e+00 1.600000000000000e+01 2.500000000010407e-01 0.000000000000000e+00 1.579746835443066e+01 0.000000000000000e+00 0.000000000000000e+00 1.559493670886132e+01 0.000000000000000e+00 0.000000000000000e+00 1.539240506329198e+01 0.000000000000000e+00 0.000000000000000e+00 1.518987341772264e+01 0.000000000000000e+00 0.000000000000000e+00 1.498734177215330e+01 0.000000000000000e+00 0.000000000000000e+00 1.478481012658396e+01 0.000000000000000e+00 0.000000000000000e+00 1.458227848101463e+01 0.000000000000000e+00 0.000000000000000e+00 1.437974683544529e+01 0.000000000000000e+00 0.000000000000000e+00 1.417721518987595e+01 0.000000000000000e+00 0.000000000000000e+00 1.397468354430661e+01 0.000000000000000e+00 0.000000000000000e+00 1.377215189873727e+01 0.000000000000000e+00 0.000000000000000e+00 1.356962025316793e+01 0.000000000000000e+00 0.000000000000000e+00 1.336708860759859e+01 0.000000000000000e+00 0.000000000000000e+00 1.316455696202925e+01 0.000000000000000e+00 0.000000000000000e+00 1.296202531645991e+01 0.000000000000000e+00 0.000000000000000e+00 1.275949367089057e+01 0.000000000000000e+00 0.000000000000000e+00 1.255696202532123e+01 0.000000000000000e+00 0.000000000000000e+00 1.235443037975189e+01 0.000000000000000e+00 0.000000000000000e+00 1.215189873418256e+01 0.000000000000000e+00 0.000000000000000e+00 1.194936708861336e+01 0.000000000000000e+00 0.000000000000000e+00 1.174683544304458e+01 0.000000000000000e+00 0.000000000000000e+00 1.154430379747580e+01 0.000000000000000e+00 0.000000000000000e+00 1.134177215190703e+01 0.000000000000000e+00 0.000000000000000e+00 1.113924050633825e+01 0.000000000000000e+00 0.000000000000000e+00 1.093670886076947e+01 0.000000000000000e+00 0.000000000000000e+00 1.073417721520070e+01 0.000000000000000e+00 0.000000000000000e+00 1.053164556963192e+01 0.000000000000000e+00 0.000000000000000e+00 1.032911392406314e+01 0.000000000000000e+00 0.000000000000000e+00 1.012658227849436e+01 0.000000000000000e+00 0.000000000000000e+00 9.924050632925587e+00 0.000000000000000e+00 0.000000000000000e+00 9.721518987356809e+00 0.000000000000000e+00 0.000000000000000e+00 9.518987341788034e+00 0.000000000000000e+00 0.000000000000000e+00 9.316455696219256e+00 0.000000000000000e+00 0.000000000000000e+00 9.113924050650478e+00 0.000000000000000e+00 0.000000000000000e+00 8.911392405081703e+00 0.000000000000000e+00 0.000000000000000e+00 8.708860759512925e+00 0.000000000000000e+00 0.000000000000000e+00 8.506329113944147e+00 0.000000000000000e+00 0.000000000000000e+00 8.303797468375370e+00 0.000000000000000e+00 0.000000000000000e+00 8.101265822806592e+00 0.000000000000000e+00 0.000000000000000e+00 7.898734177237253e+00 0.000000000000000e+00 0.000000000000000e+00 7.696202531667353e+00 0.000000000000000e+00 0.000000000000000e+00 7.493670886097451e+00 0.000000000000000e+00 0.000000000000000e+00 7.291139240527549e+00 0.000000000000000e+00 0.000000000000000e+00 7.088607594957649e+00 0.000000000000000e+00 0.000000000000000e+00 6.886075949387747e+00 0.000000000000000e+00 0.000000000000000e+00 6.683544303817845e+00 0.000000000000000e+00 0.000000000000000e+00 6.481012658247945e+00 0.000000000000000e+00 0.000000000000000e+00 6.278481012678045e+00 0.000000000000000e+00 0.000000000000000e+00 6.075949367108143e+00 0.000000000000000e+00 0.000000000000000e+00 5.873417721538242e+00 0.000000000000000e+00 0.000000000000000e+00 5.670886075968340e+00 0.000000000000000e+00 0.000000000000000e+00 5.468354430398438e+00 0.000000000000000e+00 0.000000000000000e+00 5.265822784828536e+00 0.000000000000000e+00 0.000000000000000e+00 5.063291139258636e+00 0.000000000000000e+00 0.000000000000000e+00 4.860759493688734e+00 0.000000000000000e+00 0.000000000000000e+00 4.658227848118834e+00 0.000000000000000e+00 0.000000000000000e+00 4.455696202548932e+00 0.000000000000000e+00 0.000000000000000e+00 4.253164556979030e+00 0.000000000000000e+00 0.000000000000000e+00 4.050632911409130e+00 0.000000000000000e+00 0.000000000000000e+00 3.848101265838807e+00 0.000000000000000e+00 0.00000000000000
[...]
<PointData Scalars="pressure_p1," Vectors="" Tensors="">
<DataArray type="Float64" Name="pressure_p1" format="ascii">
-3.314125786173015e-02 -3.074643167861278e-02 -7.733406252455141e+00 -7.733180330686717e+00 -2.923443921727444e-02 -3.950784574059628e-02 -4.419818473283150e-02 -9.965487025280112e-02 -1.995640889806027e-01 -3.035380748358081e-01 -4.047114804014049e-01 -5.052105405056778e-01 -6.067020606326997e-01 -7.099050755517166e-01 -8.113048730548265e-01 -9.117743923596509e-01 -1.012777416937458e+00 -1.113971475699165e+00 -1.215227610313277e+00 -1.316534417766563e+00 -1.417566005121504e+00 -1.518069782187815e+00 -1.617832922174942e+00 -1.716337096725445e+00 -1.826910878760775e+00 -1.931000804971197e+00 -2.027863738405130e+00 -2.127984300245570e+00 -2.228853074152351e+00 -2.330008157866465e+00 -2.431311179936494e+00 -2.532515829569338e+00 -2.633748502588439e+00 -2.735115044694545e+00 -2.836416628569181e+00 -2.937703211918237e+00 -3.039084088082983e+00 -3.140421568943215e+00 -3.241754605798410e+00 -3.343092440887796e+00 -3.444278014997282e+00 -3.545568889169343e+00 -3.646308143992939e+00 -3.744491211932431e+00 -3.850347678330431e+00 -3.956923802083321e+00 -4.055321693096086e+00 -4.155006175352774e+00 -4.254909697446093e+00 -4.356472961573874e+00 -4.459343397468291e+00 -4.559658932606144e+00 -4.660723771903726e+00 -4.763413914083959e+00 -4.863696663451608e+00 -4.964808551227688e+00 -5.067512753522690e+00 -5.167763005563172e+00 -5.268855962180091e+00 -5.371510284890519e+00 -5.471695649046936e+00 -5.572833926825630e+00 -5.675628313232759e+00 -5.776138837199777e+00 -5.875797638149717e+00 -5.975279809269250e+00 -6.073837582393960e+00 -6.184630920795033e+00 -6.287703251123347e+00 -6.384741895563001e+00 -6.484775284403987e+00 -6.585012513389560e+00 -6.686835439964407e+00 -6.789465699261879e+00 -6.889080983619472e+00 -6.989479733769465e+00 -7.090832604738609e+00 -7.188870482663664e+00 -7.284738197580681e+00 -7.378090076354327e+00 -7.466930201822517e+00 -7.549088342403020e+00 -7.621582520240946e+00 -7.679873459534377e+00 -7.717950387469546e+00 -7.734367699494281e+00 -7.734045655091997e+00 -7.732889789351475e+00 -7.719320769848626e+00 -7.681030203352453e+00 -7.620740006549561e+00 -7.548641450544504e+00 -7.467390785799183e+00 -7.379145876914986e+00 -7.283924614333867e+00 -7.186570786922528e+00 -7.088843530314641e+00 -6.989472655873832e+00 -6.889253503201132e+00 -6.788588616515526e+00 -6.687522815691106e+00 -6.586380940893648e+00 -6.485502013422891e+00 -6.385572228279166e+00 -6.288041198061698e+00 -6.181779369447315e+00 -6.074028685420250e+00 -5.975534409982346e+00 -5.875804018951752e+00 -5.775407533320714e+00 -5.674536871735191e+00 -5.573294526588650e+00 -5.472031192012200e+00 -5.370771519577151e+00 -5.269358611734566e+00 -5.167985298158173e+00 -5.066641973391611e+00 -4.965223752293362e+00 -4.863881628725166e+00 -4.762600658021063e+00 -4.661252986959798e+00 -4.559979390738047e+00 -4.458704010659285e+00 -4.357336902419468e+00 -4.256199583871021e+00 -4.155509757513671e+00 -4.055477463445386e+00 -3.956912657094712e+00 -3.849873602180067e+00 -3.745075767625371e+00 -3.650690004189885e+00 -3.548532887967349e+00 -3.445240365917446e+00 -3.344446794422865e+00 -3.241715761542171e+00 -3.140791549792050e+00 -3.040364314036035e+00 -2.937719460089679e+00 -2.836864219872799e+00 -2.736403525589774e+00 -2.633729631065168e+00 -2.532886193513388e+00 -2.432403911544782e+00 -2.329555477714293e+00 -2.228196068836494e+00 -2.128168380398349e+00 -2.028637824161340e+00 -1.931116403485994e+00 -1.824452745168756e+00 -1.716674099708381e+00 -1.618238510032883e+00 -1.518717240522776e+00 -1.418971630380240e+00 -1.317945298779294e+00 -1.215062613396093e+00 -1.114243849840705e+00 -1.013537072965779e+00 -9.105094085583225e-01 -8.089260503934099e-01 -7.082449162670782e-01 -6.070208989123671e-01 -5.056771474279571e-01 -4.042852616629473e-01 -3.026680916663140e-01 -2.014853576442010e-01 -1.039528715814278e-01 -7.588128604122955e+00 -3.509323351172331e-01 -7.333603506201447e+00 -5.919161292701900e+00 -6.560196627498170e-01 -7.040827427696905e+00 -5.625580996194706e+00 -6.738951550367629e+00 -9.605668837835494e-01 -5.321624365331336e+00 -6.435977173395689e+00 -5.017192702205374e+00 -1.265043812916877e+00 -4.712845245083263e+00 -1.559375442726926e+00 -4.408524103949277e+00 -2.077669187013395e+00 -4.111645385295348e+00 -2.379549337396451e+00 -2.683304564658909e+00 -2.987291439304113e+00 -3.291404413928732e+00 -3.578679901031859e+00 -3.844414476388393e+00 -6.172130626690969e+00 -1.813930112051684e+00 -7.684261704967105e+00 -1.927632996923486e-01 -3.443050775302279e+00 -3.139334475611659e+00 -2.835428736366297e+00 -4.251801045826324e+00 -2.531590978520805e+00 -2.223471331979194e+00 -4.559755956136485e+00 -4.863884835911121e+00 -5.168349207315586e+00 -5.472239977938934e+00 -5.779584724010873e+00 -6.581256700272120e+00 -7.471754966568670e+00 -6.889054109686549e+00 -7.183815052210329e+00 -1.420965178166684e+00 -4.993544228885274e-01 -1.112894924641110e+00 -8.134594700058141e-01 -5.776260669791142e+00 -5.473824763960898e+00 -5.169687378928637e+00 -4.865043003240005e+00 -4.561092840587567e+00 -4.257232129328941e+00 -8.037055444813638e-01 -7.193318038842818e+00 -7.469372286865821e+00 -5.025088459254050e-01 -6.890375209813292e+00 -1.112279621230965e+00 -6.587200042131379e+00 -1.415671827293717e+00 -2.227278156110848e+00 -2.531071458385182e+00 -2.834666269364544e+00 -3.138821656727355e+00 -3.441830622427041e+00 -3.716776821648331e+00 -3.735316720447698e+00 -6.292147554798965e+00 -6.309102544469796e+00 -1.934817531755462e+00 -1.952014187351196e+00 -3.972375888522745e+00 -1.697516996214689e+00 -6.056440047607857e+00 -1.694351929833343e+00 -3.972418226160040e+00 -6.053309734702872e+00 -2.126312749286216e-01 -7.673908461516305e+00 -4.407897367253032e+00 -3.609093006087161e+00 -3.292480265526705e+00 -4.712247754459254e+00 -2.988406073833598e+00 -2.684443395015216e+00 -5.016502773513031e+00 -2.380347234570433e+00 -2.079702099888018e+00 -5.320625651322111e+00 -5.624716984984572e+00 -6.435676543949886e+00 -3.537054637726296e-01 -1.266085927185357e+00 -7.586311815862886e+00 -6.738213481018968e+00 -7.332431923830534e+00 -6.575759730289202e-01 -7.040780643698439e+00 -9.611324585781026e-01 -5.624896702618472e+00 -7.039598819566206e+00 -7.333063312061675e+00 -9.617186725462482e-01 -6.738945396043156e+00 -6.563816717340208e-01 -7.587870762874033e+00 -5.321120101587126e+00 -6.437407066552393e+00 -1.265046456966291e+00 -5.016705092874151e+00 -3.518533795234004e-01 -4.712601325684130e+00 -4.408687619291694e+00 -2.078554342696264e+00 -2.380013440287995e+00 -2.683530586519813e+00 -2.987510511321723e+00 -3.291701224119472e+00 -3.595342635596293e+00 -5.922878726916360e+00 -5.923277763977217e+00 -1.564243917358130e+00 -4.108251532902827e+00 -1.565360327131932e+00 -4.107538738553180e+00 -3.848251589088194e+00 -3.849270328428018e+00 -1.839805669587580e+00 -6.183569318217122e+00 -6.197775206434465e+00 -1.826054117971851e+00 -7.711748887935186e+00 -1.251864491719328e-01 -7.654171754218930e+00 -2.495374102757671e-01 -1.359773186854712e-01 -7.707876400782508e+00 -8.552351933814933e-01 -7.143944069598953e+00 -5.549597527018220e-01 -7.424351625748820e+00 -6.839786384597136e+00 -6.536963691560280e+00 -5.725722818805157e+00 -1.163658833410739e+00 -5.422549871739826e+00 -5.118264484220131e+00 -2.278748385816201e+00 -2.582182669896774e+00 -4.813976658366418e+00 -2.886083853583134e+00 -3.190215894705267e+00 -4.510140293645535e+00 -3.493616462347498e+00 -7.142840196663044e+00 -7.428684733964693e+00 -8.558868835195851e-01 -6.842829715322270e+00 -6.535678265729210e+00 -5.497004341873427e-01 -2.273819563361305e+00 -2.578617965683387e+00 -2.882414353728588e+00 -3.186516608077923e+00 -5.730073307633195e+00 -3.487056170563302e+00 -5.425896090204897e+00 -5.121768375740785e+00 -1.159909509456749e+00 -4.817164676428740e+00 -1.465305353905180e+00 -4.513116644687066e+00 -4.206987059439570e+00 -1.466022273584607e+00 -4.207148433759692e+00 -3.494019054115753e+00 -3.187893401960890e+00 -4.512157295062441e+00 -2.883968147317262e+00 -2.579997246671801e+00 -4.816276876945953e+00 -2.274884575804227e+00 -5.120517084727711e+00 -5.424470797173960e+00 -5.729317268642152e+00 -1.161375797989294e+00 -6.534407849979602e+00 -6.841900468503042e+00 -7.427263757274186e+00 -7.137440839129948e+00 -5.516820780071768e-01 -7.510009181350168e+00 -7.232098162389782e+00 -4.535553855346644e-01 -8.617907057223685e-01 -7.637070820121563e-01 -6.936526055719892e+00 -6.632176166821472e+00 -1.066063908575328e+00 -1.371495999144280e+00 -5.519606000991377e+00 -5.215691955177832e+00 -2.177597792067301e+00 -4.911497553825441e+00 -2.484866942183871e+00 -2.788830655206583e+00 -4.607342517126576e+00 -3.092710830347640e+00 -3.397056436756742e+00 -4.302109199574070e+00 -4.205002350326053e+00 -1.468338673155717e+00 -5.825960027431512e+00 -4.019092779362558e+00 -1.733811382109247e+00 -6.009300016201063e+00 -6.327598614379526e+00 -1.969850749629195e+00 -3.745959899626914e+00 -4.912238436393102e+00 -4.608121095869417e+00 -5.520821494385174e+00 -4.303019624485054e+00 -5.216881442912281e+00 -5.825224398065000e+00 -2.483809743581610e+00 -3.394844233728797e+00 -2.176697163991570e+00 -2.787393447890032e+00 -3.091423886825520e+00 -7.234574217180698e+00 -7.608018720852506e-01 -7.511492782162605e+00 -6.937053991079972e+00 -4.514121955298811e-01 -6.633120753092736e+00 -1.064894464239849e+00 -1.369939987710384e+00 -7.702625796750341e+00 -1.500864414335038e-01 -4.915158160427041e+00 -4.307399496944462e+00 -5.523600145533656e+00 -5.219572764964268e+00 -4.611210502344632e+00 -1.366153044862815e+00 -1.062622751989006e+00 -2.178184426972286e+00 -3.392858714933567e+00 -2.784905490924071e+00 -2.481261408445895e+00 -3.088969231684055e+00 -6.637709644116083e+00 -6.939934449203058e+00 -7.510033110185668e+00 -4.536151891993753e-01 -7.238696003436332e+00 -7.568325062808362e-01 -5.825252109484815e+00 -7.655094421390237e+00 -2.471251327459850e-01 -2.520605309691536e-01 -7.652324586979641e+00 -3.920504135748403e+00 -6.109187300077441e+00 -3.920679246188428e+00 -6.109845729464703e+00 -1.750985477332017e+00 -1.751982209961894e+00 -3.692947384573390e+00 -1.985387439549507e+00 -3.700224376245475e+00 -6.342325413804946e+00 -1.982358513134418e+00 -6.339320266039972e+00 -3.522368575396257e+00 -3.219314835665216e+00 -4.480179855528819e+00 -2.915304193572980e+00 -2.611384768220362e+00 -4.784336554686972e+00 -2.306508994042308e+00 -5.088760810418243e+00 -5.392806530020851e+00 -5.697488659403153e+00 -1.192864620193832e+00 -6.485256669766883e+00 -6.810071302275486e+00 -7.089777075113667e+00 -7.399262300862108e+00 -9.106335915444479e-01 -5.830809627980179e-01 -1.514451292344068e+00 -4.157813061551963e+00 -6.018113361527647e+00 -6.018964868831294e+00 -4.011685947134993e+00 -1.659856389286474e+00 -1.660909442134635e+00 -4.011513789300667e+00 -7.263584803327687e+00 -7.550058525277787e+00 -7.302689253675240e-01 -4.024608252563219e-01 -6.968593223016026e+00 -6.664671254413366e+00 -1.033107020356886e+00 -1.338561019686474e+00 -5.552250745700203e+00 -5.248365617950697e+00 -2.128193252493219e+00 -4.943983196109436e+00 -2.452043079342404e+00 -4.639768983732898e+00 -2.755825369361276e+00 -3.059739641914888e+00 -4.334572637344769e+00 -3.363726153293818e+00 -5.873080970937661e+00 -7.722706319155719e+00 -8.901291222609524e-02 -3.660564621403359e+00 -6.244502895761225e+00 -1.886793330012182e+00 -3.650283707453299e+00 -8.871890628139647e-01 -6.041843362114055e-01 -7.112375134392229e+00 -4.460312063631598e+00 -4.764280446277724e+00 -5.068679190519812e+00 -5.373130789990611e+00 -5.676656927497643e+00 -7.380776812363950e+00 -3.541191689984596e+00 -3.240010316716770e+00 -2.935773583873690e+00 -2.631849257479756e+00 -2.328301905489435e+00 -1.213320237979032e+00 -6.790478716894100e+00 -6.487477219449016e+00 -4.159247792274356e+00 -1.512734135992535e+00 -4.357830636986130e+00 -4.661951888356108e+00 -4.966088121996811e+00 -5.270800574164290e+00 -5.574693535513961e+00 -3.342137455243574e+00 -3.038075229241599e+00 -2.733982080794953e+00 -2.430637054563064e+00 -2.127941152841232e+00 -1.315676408145013e+00 -1.011839439097693e+00 -6.688421603702906e+00 -6.990062283710267e+00 -7.550938511566001e+00 -4.014716029936451e-01 -7.286759007862218e+00 -7.062330047996772e-01 -1.897920265029018e+00 -3.780451940118385e+00 -1.901323139267982e+00 -6.254992427548756e+00 -6.258433441775255e+00 -3.778005205402546e+00 -5.872918803285864e+00 -3.887562932802616e+00 -3.887048930931245e+00 -1.782810419157248e+00 -6.124593217006787e+00 -6.141049685900197e+00 -1.766267891097040e+00 -5.966073631970936e+00 -5.966850156129998e+00 -4.063733645918365e+00 -1.606607527194177e+00 -4.063328754813733e+00 -1.607817812090406e+00 -2.032154494010648e+00 -6.389874647933887e+00 -2.028756527201747e+00 -6.386349572787765e+00 -7.620532262439933e+00 -3.032048489142812e-01 -6.233148094863743e+00 -1.875503018552914e+00 -2.987174646940023e-01 -7.623849788927870e+00 -3.807194304405335e+00 -3.803888533055617e+00 -7.727249159886159e+00 -6.801520009445680e-02 -7.729092630679095e+00 -5.932890649167943e-02 -3.930821832923467e+00 -6.092701160437183e+00 -1.649765427409662e+00 
</DataArray>
</PointData>
<CellData Scalars="pressure_p0," Vectors="velocity_p0," Tensors="">
<DataArray type="Float64" Name="pressure_p0" format="ascii">