<?xml version="1.0"?>
<VTKFile type="UnstructuredGrid" version="0.1" byte_order="LittleEndian">
<UnstructuredGrid>
<Piece NumberOfPoints="567" NumberOfCells="966">
<Points>
<DataArray type="Float64" NumberOfComponents="3" format="ascii">
0.000000000000000e+00 0.000000000000000e+00 0.000000000000000e+00 0.000000000000000e+00 1.000000000000000e+00 0.000000000000000e+00 1.600000000000000e+01 1.000000000000000e+00 0.000000000000000e+00 1.600000000000000e+01 0.000000000000000e+00 0.000000000000000e+00 0.000000000000000e+00 2.499999999993998e-01 0.000000000000000e+00 0.000000000000000e+00 4.999999999990217e-01 0.000000000000000e+00 0.000000000000000e+00 7.499999999993374e-01 0.000000000000000e+00 2.025316455691341e-01 1.000000000000000e+00 0.000000000000000e+00 4.050632911382681e-01 1.000000000000000e+00 0.000000000000000e+00 6.075949367074022e-01 1.000000000000000e+00 0.000000000000000e+00 8.101265822765362e-01 1.000000000000000e+00 0.000000000000000e+00 1.012658227845670e+00 1.000000000000000e+00 0.000000000000000e+00 1.215189873414804e+00 1.000000000000000e+00 0.000000000000000e+00 1.417721518983938e+00 1.000000000000000e+00 0.000000000000000e+00 1.620253164553072e+00 1.000000000000000e+00 0.000000000000000e+00 1.822784810122207e+00 1.000000000000000e+00 0.000000000000000e+00 2.025316455691340e+00 1.000000000000000e+00 0.000000000000000e+00 2.227848101260475e+00 1.000000000000000e+00 0.000000000000000e+00 2.430379746829609e+00 1.000000000000000e+00 0.000000000000000e+00 2.632911392398743e+00 1.000000000000000e+00 0.000000000000000e+00 2.835443037967877e+00 1.000000000000000e+00 0.000000000000000e+00 3.037974683537010e+00 1.000000000000000e+00 0.000000000000000e+00 3.240506329106145e+00 1.000000000000000e+00 0.000000000000000e+00 3.443037974675279e+00 1.000000000000000e+00 0.000000000000000e+00 3.645569620244413e+00 1.000000000000000e+00 0.000000000000000e+00 3.848101265813547e+00 1.000000000000000e+00 0.000000000000000e+00 4.050632911382726e+00 1.000000000000000e+00 0.000000000000000e+00 4.253164556952040e+00 1.000000000000000e+00 0.000000000000000e+00 4.455696202521353e+00 1.000000000000000e+00 0.000000000000000e+00 4.658227848090667e+00 1.000000000000000e+00 0.000000000000000e+00 4.860759493659981e+00 1.000000000000000e+00 0.000000000000000e+00 5.063291139229296e+00 1.000000000000000e+00 0.000000000000000e+00 5.265822784798610e+00 1.000000000000000e+00 0.000000000000000e+00 5.468354430367923e+00 1.000000000000000e+00 0.000000000000000e+00 5.670886075937237e+00 1.000000000000000e+00 0.000000000000000e+00 5.873417721506551e+00 1.000000000000000e+00 0.000000000000000e+00 6.075949367075864e+00 1.000000000000000e+00 0.000000000000000e+00 6.278481012645178e+00 1.000000000000000e+00 0.000000000000000e+00 6.481012658214492e+00 1.000000000000000e+00 0.000000000000000e+00 6.683544303783806e+00 1.000000000000000e+00 0.000000000000000e+00 6.886075949353121e+00 1.000000000000000e+00 0.000000000000000e+00 7.088607594922435e+00 1.000000000000000e+00 0.000000000000000e+00 7.291139240491749e+00 1.000000000000000e+00 0.000000000000000e+00 7.493670886061063e+00 1.000000000000000e+00 0.000000000000000e+00 7.696202531630375e+00 1.000000000000000e+00 0.000000000000000e+00 7.898734177199691e+00 1.000000000000000e+00 0.000000000000000e+00 8.101265822769285e+00 1.000000000000000e+00 0.000000000000000e+00 8.303797468339161e+00 1.000000000000000e+00 0.000000000000000e+00 8.506329113909036e+00 1.000000000000000e+00 0.000000000000000e+00 8.708860759478913e+00 1.000000000000000e+00 0.000000000000000e+00 8.911392405048788e+00 1.000000000000000e+00 0.000000000000000e+00 9.113924050618664e+00 1.000000000000000e+00 0.000000000000000e+00 9.316455696188541e+00 1.000000000000000e+00 0.000000000000000e+00 9.518987341758416e+00 1.000000000000000e+00 0.000000000000000e+00 9.721518987328292e+00 1.000000000000000e+00 0.000000000000000e+00 9.924050632898169e+00 1.000000000000000e+00 0.000000000000000e+00 1.012658227846805e+01 1.000000000000000e+00 0.000000000000000e+00 1.032911392403792e+01 1.000000000000000e+00 0.000000000000000e+00 1.053164556960780e+01 1.000000000000000e+00 0.000000000000000e+00 1.073417721517767e+01 1.000000000000000e+00 0.000000000000000e+00 1.093670886074755e+01 1.000000000000000e+00 0.000000000000000e+00 1.113924050631742e+01 1.000000000000000e+00 0.000000000000000e+00 1.134177215188730e+01 1.000000000000000e+00 0.000000000000000e+00 1.154430379745718e+01 1.000000000000000e+00 0.000000000000000e+00 1.174683544302705e+01 1.000000000000000e+00 0.000000000000000e+00 1.194936708859693e+01 1.000000000000000e+00 0.000000000000000e+00 1.215189873416701e+01 1.000000000000000e+00 0.000000000000000e+00 1.235443037973717e+01 1.000000000000000e+00 0.000000000000000e+00 1.255696202530733e+01 1.000000000000000e+00 0.000000000000000e+00 1.275949367087749e+01 1.000000000000000e+00 0.000000000000000e+00 1.296202531644764e+01 1.000000000000000e+00 0.000000000000000e+00 1.316455696201780e+01 1.000000000000000e+00 0.000000000000000e+00 1.336708860758796e+01 1.000000000000000e+00 0.000000000000000e+00 1.356962025315812e+01 1.000000000000000e+00 0.000000000000000e+00 1.377215189872827e+01 1.000000000000000e+00 0.000000000000000e+00 1.397468354429843e+01 1.000000000000000e+00 0.000000000000000e+00 1.417721518986859e+01 1.000000000000000e+00 0.000000000000000e+00 1.437974683543874e+01 1.000000000000000e+00 0.000000000000000e+00 1.458227848100890e+01 1.000000000000000e+00 0.000000000000000e+00 1.478481012657906e+01 1.000000000000000e+00 0.000000000000000e+00 1.498734177214921e+01 1.000000000000000e+00 0.000000000000000e+00 1.518987341771937e+01 1.000000000000000e+00 0.000000000000000e+00 1.539240506328953e+01 1.000000000000000e+00 0.000000000000000e+00 1.559493670885968e+01 1.000000000000000e+00 0.000000000000000e+00 1.579746835442984e+01 1.000000000000000e+00 0.000000000000000e+00 1.600000000000000e+01 7.500000000003469e-01 0.000000000000000e+00 1.600000000000000e+01 5.000000000013878e-01 0.000000000000000e+00 1.600000000000000e+01 2.500000000010407e-01 0.000000000000000e+00 1.579746835443066e+01 0.000000000000000e+00 0.000000000000000e+00 1.559493670886132e+01 0.000000000000000e+00 0.000000000000000e+00 1.539240506329198e+01 0.000000000000000e+00 0.000000000000000e+00 1.518987341772264e+01 0.000000000000000e+00 0.000000000000000e+00 1.498734177215330e+01 0.000000000000000e+00 0.000000000000000e+00 1.478481012658396e+01 0.000000000000000e+00 0.000000000000000e+00 1.458227848101463e+01 0.000000000000000e+00 0.000000000000000e+00 1.437974683544529e+01 0.000000000000000e+00 0.000000000000000e+00 1.417721518987595e+01 0.000000000000000e+00 0.000000000000000e+00 1.397468354430661e+01 0.000000000000000e+00 0.000000000000000e+00 1.377215189873727e+01 0.000000000000000e+00 0.000000000000000e+00 1.356962025316793e+01 0.000000000000000e+00 0.000000000000000e+00 1.336708860759859e+01 0.000000000000000e+00 0.000000000000000e+00 1.316455696202925e+01 0.000000000000000e+00 0.000000000000000e+00 1.296202531645991e+01 0.000000000000000e+00 0.000000000000000e+00 1.275949367089057e+01 0.000000000000000e+00 0.000000000000000e+00 1.255696202532123e+01 0.000000000000000e+00 0.000000000000000e+00 1.235443037975189e+01 0.000000000000000e+00 0.000000000000000e+00 1.215189873418256e+01 0.000000000000000e+00 0.000000000000000e+00 1.194936708861336e+01 0.000000000000000e+00 0.000000000000000e+00 1.174683544304458e+01 0.000000000000000e+00 0.000000000000000e+00 1.154430379747580e+01 0.000000000000000e+00 0.000000000000000e+00 1.134177215190703e+01 0.000000000000000e+00 0.000000000000000e+00 1.113924050633825e+01 0.000000000000000e+00 0.000000000000000e+00 1.093670886076947e+01 0.000000000000000e+00 0.000000000000000e+00 1.073417721520070e+01 0.000000000000000e+00 0.000000000000000e+00 1.053164556963192e+01 0.000000000000000e+00 0.000000000000000e+00 1.032911392406314e+01 0.000000000000000e+00 0.000000000000000e+00 1.012658227849436e+01 0.000000000000000e+00 0.000000000000000e+00 9.924050632925587e+00 0.000000000000000e+00 0.000000000000000e+00 9.721518987356809e+00 0.000000000000000e+00 0.000000000000000e+00 9.518987341788034e+00 0.000000000000000e+00 0.000000000000000e+00 9.316455696219256e+00 0.000000000000000e+00 0.000000000000000e+00 9.113924050650478e+00 0.000000000000000e+00 0.000000000000000e+00 8.911392405081703e+00 0.000000000000000e+00 0.000000000000000e+00 8.708860759512925e+00 0.000000000000000e+00 0.000000000000000e+00 8.506329113944147e+00 0.000000000000000e+00 0.000000000000000e+00 8.303797468375370e+00 0.000000000000000e+00 0.000000000000000e+00 8.101265822806592e+00 0.000000000000000e+00 0.000000000000000e+00 7.898734177237253e+00 0.000000000000000e+00 0.000000000000000e+00 7.696202531667353e+00 0.000000000000000e+00 0.000000000000000e+00 7.493670886097451e+00 0.000000000000000e+00 0.000000000000000e+00 7.291139240527549e+00 0.000000000000000e+00 0.000000000000000e+00 7.088607594957649e+00 0.000000000000000e+00 0.000000000000000e+00 6.886075949387747e+00 0.000000000000000e+00 0.000000000000000e+00 6.683544303817845e+00 0.000000000000000e+00 0.000000000000000e+00 6.481012658247945e+00 0.000000000000000e+00 0.000000000000000e+00 6.278481012678045e+00 0.000000000000000e+00 0.000000000000000e+00 6.075949367108143e+00 0.000000000000000e+00 0.000000000000000e+00 5.873417721538242e+00 0.000000000000000e+00 0.000000000000000e+00 5.670886075968340e+00 0.000000000000000e+00 0.000000000000000e+00 5.468354430398438e+00 0.000000000000000e+00 0.000000000000000e+00 5.265822784828536e+00 0.000000000000000e+00 0.000000000000000e+00 5.063291139258636e+00 0.000000000000000e+00 0.000000000000000e+00 4.860759493688734e+00 0.000000000000000e+00 0.000000000000000e+00 4.658227848118834e+00 0.000000000000000e+00 0.000000000000000e+00 4.455696202548932e+00 0.000000000000000e+00 0.000000000000000e+00 4.253164556979030e+00 0.000000000000000e+00 0.000000000000000e+00 4.050632911409130e+00 0.000000000000000e+00 0.000000000000000e+00 3.848101265838807e+00 0.000000000000000e+00 0.00000000000000
[...]
<PointData Scalars="pressure_p1," Vectors="" Tensors="">
<DataArray type="Float64" Name="pressure_p1" format="ascii">
-7.948440047983818e-02 -7.375495125373666e-02 -1.820780776227945e+01 -1.820791338005441e+01 -7.016020365934554e-02 -9.481521458556900e-02 -1.059958811613304e-01 -2.391501868949508e-01 -4.789135071390675e-01 -7.283993910339291e-01 -9.710987472593976e-01 -1.212166791324956e+00 -1.455554885504406e+00 -1.703144487009840e+00 -1.946486864778892e+00 -2.187522398103701e+00 -2.429856472026648e+00 -2.672661056064806e+00 -2.915614937954225e+00 -3.158704477723063e+00 -3.401141949431775e+00 -3.642296855592722e+00 -3.881643736879090e+00 -4.117872615197643e+00 -4.382882429071588e+00 -4.632999852679036e+00 -4.865297639236507e+00 -5.105480679642483e+00 -5.347488763638149e+00 -5.590181583650417e+00 -5.833243701552878e+00 -6.076071713334986e+00 -6.318945063694006e+00 -6.562151180228856e+00 -6.805207658079442e+00 -7.048212141803009e+00 -7.291448866191399e+00 -7.534589929788048e+00 -7.777708493333420e+00 -8.020858251978620e+00 -8.263643505563543e+00 -8.506642349824070e+00 -8.748425890928806e+00 -8.984101110488298e+00 -9.237898827181667e+00 -9.493478856281191e+00 -9.729594544547760e+00 -9.968768995678126e+00 -1.020842202977213e+01 -1.045155736571304e+01 -1.069839604215666e+01 -1.093957927761400e+01 -1.118151284997554e+01 -1.142790077160351e+01 -1.166902965490397e+01 -1.191103892074351e+01 -1.215744599962589e+01 -1.239852513899668e+01 -1.264045789984495e+01 -1.288674644151314e+01 -1.312768401704820e+01 -1.336963213119230e+01 -1.361619503525761e+01 -1.385794924699204e+01 -1.409692233220246e+01 -1.433523435476929e+01 -1.457087325065989e+01 -1.483502694208260e+01 -1.508245194298650e+01 -1.531314553961115e+01 -1.555035759912070e+01 -1.578696311704517e+01 -1.602502845272765e+01 -1.626370300219316e+01 -1.649339495879614e+01 -1.672007491487351e+01 -1.694537300598454e+01 -1.715907004088158e+01 -1.736180415078110e+01 -1.755308198622259e+01 -1.772875496897510e+01 -1.788493384510413e+01 -1.801707564809238e+01 -1.811894518271773e+01 -1.818303302048648e+01 -1.820905452228443e+01 -1.820725295546963e+01 -1.820568607443051e+01 -1.818545813770340e+01 -1.812057670052990e+01 -1.801564927729806e+01 -1.788415213428086e+01 -1.772958618156007e+01 -1.755444748969428e+01 -1.735928476341866e+01 -1.715406805863529e+01 -1.694172010806924e+01 -1.672081141779393e+01 -1.649386808971092e+01 -1.626248045180441e+01 -1.602748365121933e+01 -1.579027017504012e+01 -1.555211086909188e+01 -1.531511590292696e+01 -1.508277889694540e+01 -1.482885361980078e+01 -1.457148918935743e+01 -1.433586485177863e+01 -1.409694772166580e+01 -1.385626621702434e+01 -1.361432645512486e+01 -1.337147192152682e+01 -1.312857497581140e+01 -1.288563822823526e+01 -1.264233804122125e+01 -1.239914677097157e+01 -1.215599446891610e+01 -1.191266924396614e+01 -1.166954529095654e+01 -1.142653735934511e+01 -1.118337270711530e+01 -1.094040180784897e+01 -1.069739294936625e+01 -1.045418172488026e+01 -1.021155311596898e+01 -9.969984523143786e+00 -9.729981728545145e+00 -9.493461397153078e+00 -9.236770851910753e+00 -8.985820419860488e+00 -8.758557980319530e+00 -8.512916554624583e+00 -8.265801290190209e+00 -8.023658988150306e+00 -7.777182266059437e+00 -7.535428029619251e+00 -7.294148936878867e+00 -7.047870781613848e+00 -6.806243268503711e+00 -6.564917200422168e+00 -6.318568758067826e+00 -6.076931961082508e+00 -5.835582807734530e+00 -5.588799013017152e+00 -5.345889368292841e+00 -5.105919653618626e+00 -4.867144954462061e+00 -4.633124645546162e+00 -4.377174056064193e+00 -4.118727771455553e+00 -3.882605686570988e+00 -3.643824747349360e+00 -3.404484596313485e+00 -3.161913629247170e+00 -2.915047469364835e+00 -2.673306389036428e+00 -2.431590656131660e+00 -2.184399188464295e+00 -1.940800983890416e+00 -1.699267506084111e+00 -1.456417790612115e+00 -1.213292006247291e+00 -9.700518345864545e-01 -7.262523688259224e-01 -4.834676533651519e-01 -2.494259176863014e-01 -1.795696148804493e+01 -8.420928958691833e-01 -1.746248674261582e+01 -1.420134968263012e+01 -1.573933027772030e+00 -1.683539116578470e+01 -1.349670292271399e+01 -1.614715380708309e+01 -2.304569884155639e+00 -1.276757353011684e+01 -1.543464147984979e+01 -1.203720019014513e+01 -3.035086711797877e+00 -1.130702586728354e+01 -3.741509175830336e+00 -1.057685722299513e+01 -4.984760054066814e+00 -9.865067670555135e+00 -5.708973257048295e+00 -6.437768005372206e+00 -7.167089906959277e+00 -7.896747479380728e+00 -8.586176013123056e+00 -9.224200583844656e+00 -1.480719438654255e+01 -4.352316981910199e+00 -1.812583643734392e+01 -4.625789822552737e-01 -8.261320351648683e+00 -7.532540042079773e+00 -6.803343324422586e+00 -1.020147758693122e+01 -6.074310753674644e+00 -5.334821517562232e+00 -1.094069192734466e+01 -1.167042413215079e+01 -1.240094382411374e+01 -1.313004318597133e+01 -1.386691652174183e+01 -1.577886154182558e+01 -1.773871851844794e+01 -1.649468541353255e+01 -1.714892874509878e+01 -3.409429422780676e+00 -1.198180228860598e+00 -2.670274702254828e+00 -1.951732403309435e+00 -1.385850774776044e+01 -1.313300487861548e+01 -1.240334246236710e+01 -1.167243551440717e+01 -1.094317896102527e+01 -1.021415869489751e+01 -1.928361319344651e+00 -1.716931018099367e+01 -1.773359510817290e+01 -1.205693110901302e+00 -1.649660479673360e+01 -2.668619232175804e+00 -1.579232745614703e+01 -3.396633061131059e+00 -5.343755798109032e+00 -6.072660444876317e+00 -6.801057539749920e+00 -7.530811187664013e+00 -8.257903647843477e+00 -8.917707988763235e+00 -8.962536270638170e+00 -1.509316074339029e+01 -1.513382583989592e+01 -4.642201092087135e+00 -4.683534228105102e+00 -9.531101245871424e+00 -4.072980734916478e+00 -1.453026282769051e+01 -4.065479801595540e+00 -9.531197474139255e+00 -1.452309462684470e+01 -5.103249964063293e-01 -1.810867218740913e+01 -1.057518179567961e+01 -8.658659362058328e+00 -7.899179661061773e+00 -1.130540576747454e+01 -7.169652142219576e+00 -6.440399209296708e+00 -1.203535323228925e+01 -5.710800128632564e+00 -4.989707778278044e+00 -1.276496853498097e+01 -1.349439535798071e+01 -1.543411878581242e+01 -8.487479522506378e-01 -3.037539989365304e+00 -1.795364452842890e+01 -1.614518075590506e+01 -1.745984048751039e+01 -1.577635901200779e+00 -1.683503547131455e+01 -2.305901708610759e+00 -1.349520652345211e+01 -1.683280002370740e+01 -1.746160131763139e+01 -2.307343988873304e+00 -1.614729138980019e+01 -1.574831890058827e+00 -1.795632658159998e+01 -1.276646763752933e+01 -1.543829561989677e+01 -3.035137978030965e+00 -1.203612898784411e+01 -8.442631841654290e-01 -1.130652595052683e+01 -1.057734402513310e+01 -4.986916797826236e+00 -5.710136580838086e+00 -6.438355796177508e+00 -7.167675864903598e+00 -7.897515487656508e+00 -8.625961498584340e+00 -1.420992346175812e+01 -1.421085536932105e+01 -3.753113463582491e+00 -9.856701352278456e+00 -3.755777787222416e+00 -9.855003768326547e+00 -9.233512006113550e+00 -9.236011912967655e+00 -4.414130962530797e+00 -1.483396931142997e+01 -1.486752911738379e+01 -4.381253202946976e+00 -1.817090899857872e+01 -3.004458886128205e-01 -1.807449341353030e+01 -5.987788271626058e-01 -3.263209350768532e-01 -1.816541094335437e+01 -2.051914462232521e+00 -1.706229071877201e+01 -1.331512252580760e+00 -1.764536865089213e+01 -1.638053996738844e+01 -1.567381225348553e+01 -1.373711244268341e+01 -2.791869263119103e+00 -1.300985241040701e+01 -1.227983575185136e+01 -5.467189302888457e+00 -6.195219426281287e+00 -1.154979487028896e+01 -6.924351126656565e+00 -7.654040514762271e+00 -1.082080649509678e+01 -8.382007982413485e+00 -1.706025564721914e+01 -1.765424459221731e+01 -2.053507242505229e+00 -1.638808786294774e+01 -1.567100875386254e+01 -1.318923063037284e+00 -5.455497536892494e+00 -6.186869221457401e+00 -6.915766734345874e+00 -7.645409806693537e+00 -1.374789269515218e+01 -8.366740479067202e+00 -1.301831209532942e+01 -1.228864957500612e+01 -2.782951913681988e+00 -1.155782990222952e+01 -3.515774957234693e+00 -1.082831887687756e+01 -1.009378700130637e+01 -3.517427323811536e+00 -1.009392617477658e+01 -8.382872689065449e+00 -7.648572822330862e+00 -1.082581811230743e+01 -6.919377549845431e+00 -6.190070982891020e+00 -1.155549132551695e+01 -5.457967914182878e+00 -1.228542956596428e+01 -1.301465305649714e+01 -1.374581127343925e+01 -2.786427483706348e+00 -1.566785266894880e+01 -1.638565231580182e+01 -1.765121334111983e+01 -1.704811417851056e+01 -1.323656377855217e+00 -1.781159785177174e+01 -1.725129043226879e+01 -1.088275744672405e+00 -2.067612834143748e+00 -1.832314386274318e+00 -1.660163598713223e+01 -1.589798323625670e+01 -2.557766577529779e+00 -3.290599626794363e+00 -1.324285568688498e+01 -1.251375876008133e+01 -5.224577649834825e+00 -1.178393074235039e+01 -5.961843189695403e+00 -6.691137168103601e+00 -1.105418534230357e+01 -7.420224255493699e+00 -8.150409102795471e+00 -1.032176699921745e+01 -1.008884619246198e+01 -3.522985111312450e+00 -1.397763164658861e+01 -9.643146579205093e+00 -4.160202645082691e+00 -1.441752365202510e+01 -1.517708670564536e+01 -4.726089703026154e+00 -8.987672882773113e+00 -1.178592226295590e+01 -1.105625684742269e+01 -1.324601858599234e+01 -1.032413514299611e+01 -1.251683740068187e+01 -1.397613214052273e+01 -5.959410102349021e+00 -8.145341352719640e+00 -5.222470367339209e+00 -6.687801660534785e+00 -7.417265848410380e+00 -1.725691981593098e+01 -1.825399127993941e+00 -1.781455176034427e+01 -1.660312623584379e+01 -1.083142006248021e+00 -1.590045793112327e+01 -2.554994593152863e+00 -3.286927917765944e+00 -1.815749987608799e+01 -3.601493644968135e-01 -1.179254350458793e+01 -1.033437797700354e+01 -1.325226307403334e+01 -1.252288787727403e+01 -1.106330350357120e+01 -3.277767715799839e+00 -2.549451432113930e+00 -5.225936520264138e+00 -8.140268551228958e+00 -6.681605213712905e+00 -5.953089284320907e+00 -7.411128926772233e+00 -1.591086198858482e+01 -1.660910920442344e+01 -1.781150345665491e+01 -1.088393958180816e+00 -1.726529182071053e+01 -1.815843332750285e+00 -1.397586362472948e+01 -1.807591994860683e+01 -5.930554509977547e-01 -6.049032647877632e-01 -1.807131533793537e+01 -9.406491278919946e+00 -1.465571370380473e+01 -9.406918350675987e+00 -1.465759418838873e+01 -4.201042695718498e+00 -4.203525477173273e+00 -8.860529783941876e+00 -4.763539795079303e+00 -8.878098486648334e+00 -1.521273174298897e+01 -4.756248271829462e+00 -1.520550679050248e+01 -8.451394263420566e+00 -7.724195694772733e+00 -1.074940361698129e+01 -6.994762640442749e+00 -6.265561397390148e+00 -1.147919355632229e+01 -5.534000341833962e+00 -1.220959139579922e+01 -1.293905953577488e+01 -1.366986346211813e+01 -2.862058423864625e+00 -1.555170726426022e+01 -1.631289297466854e+01 -1.694371345866104e+01 -1.759614683666054e+01 -2.184763266426945e+00 -1.399022102816823e+00 -3.633686104369746e+00 -9.975788525253838e+00 -1.443806116427572e+01 -1.444008901651993e+01 -9.625096464051694e+00 -3.982517243915241e+00 -3.985035288067419e+00 -9.624682535460112e+00 -1.731822313112785e+01 -1.788703602429068e+01 -1.752144465783806e+00 -9.657173708458399e-01 -1.667466371939990e+01 -1.597463781282717e+01 -2.478759768515941e+00 -3.211655565446856e+00 -1.332155842196016e+01 -1.259251998655384e+01 -5.106096393002656e+00 -1.186222035247606e+01 -5.883255613612803e+00 -1.113231468522787e+01 -6.612138530280083e+00 -7.341328971659253e+00 -1.039994527729216e+01 -8.070721510925743e+00 -1.409082828047193e+01 -1.818996282680478e+01 -2.136228172745286e-01 -8.782552462584134e+00 -1.497959191144921e+01 -4.526999435067484e+00 -8.757840639508816e+00 -2.128632706465945e+00 -1.449577973392411e+00 -1.699404510072763e+01 -1.070111924234625e+01 -1.143042122491985e+01 -1.216071919961381e+01 -1.289113911098682e+01 -1.361923632528272e+01 -1.755829247237914e+01 -8.496117228703531e+00 -7.773410922831194e+00 -7.043470768706875e+00 -6.314298696849463e+00 -5.586000863880606e+00 -2.910980336125895e+00 -1.626667059451711e+01 -1.555694707422176e+01 -9.979162050178202e+00 -3.629561551229148e+00 -1.045522448804329e+01 -1.118490389345726e+01 -1.191457623205206e+01 -1.264562774738601e+01 -1.337465148081878e+01 -8.018482525165775e+00 -7.288931149442902e+00 -6.559349765905654e+00 -5.831556529264375e+00 -5.105425075439267e+00 -3.156596061068966e+00 -2.427582328686833e+00 -1.602935964553659e+01 -1.672197811403727e+01 -1.788847498595855e+01 -9.633158750358826e-01 -1.736589807364712e+01 -1.694424410104613e+00 -4.553634044535108e+00 -9.070816604421266e+00 -4.561777622764462e+00 -1.500440392984584e+01 -1.501253420072708e+01 -9.064914671599510e+00 -1.409035406399916e+01 -9.327970820582614e+00 -9.326692200092602e+00 -4.277639027587695e+00 -1.469392131322471e+01 -1.473280506148339e+01 -4.238083402057440e+00 -1.431376555797232e+01 -1.431555430877760e+01 -9.750105360465957e+00 -3.854844384999082e+00 -9.749141948290642e+00 -3.857726475387642e+00 -4.875690138984290e+00 -1.532561701012099e+01 -4.867403597290981e+00 -1.531683784233383e+01 -1.801559471547860e+01 -7.276206254712317e-01 -1.495247278827641e+01 -4.499909799180011e+00 -7.168052662363803e-01 -1.802106111220550e+01 -9.135202660205138e+00 -9.127015077730421e+00 -1.819812368645790e+01 -1.632134647742371e-01 -1.820114978622946e+01 -1.423524549495672e-01 -9.431561285730368e+00 -1.461757896460949e+01 -3.958451337869235e+00 
</DataArray>
</PointData>
<CellData Scalars="pressure_p0," Vectors="velocity_p0," Tensors="">
<DataArray type="Float64" Name="pressure_p0" format="ascii">