<?xml version="1.0"?>
<VTKFile type="UnstructuredGrid" version="0.1" byte_order="LittleEndian">
<UnstructuredGrid>
<Piece NumberOfPoints="567" NumberOfCells="966">
<Points>
<DataArray type="Float64" NumberOfComponents="3" format="ascii">
0.000000000000000e+00 0.000000000000000e+00 0.000000000000000e+00 0.000000000000000e+00 1.000000000000000e+00 0.000000000000000e+00 1.600000000000000e+01 1.000000000000000e+00 0.000000000000000e+00 1.600000000000000e+01 0.000000000000000e+00 0.000000000000000e+00 0.000000000000000e+00 2.499999999993998e-01 0.000000000000000e+00 0.000000000000000e+00 4.999999999990217e-01 0.000000000000000e+00 0.000000000000000e+00 7.499999999993374e-01 0.000000000000000e+00 2.025316455691341e-01 1.000000000000000e+00 0.000000000000000e+00 4.050632911382681e-01 1.000000000000000e+00 0.000000000000000e+00 6.075949367074022e-01 1.000000000000000e+00 0.000000000000000e+00 8.101265822765362e-01 1.000000000000000e+00 0.000000000000000e+00 1.012658227845670e+00 1.000000000000000e+00 0.000000000000000e+00 1.215189873414804e+00 1.000000000000000e+00 0.000000000000000e+00 1.417721518983938e+00 1.000000000000000e+00 0.000000000000000e+00 1.620253164553072e+00 1.000000000000000e+00 0.000000000000000e+00 1.822784810122207e+00 1.000000000000000e+00 0.000000000000000e+00 2.025316455691340e+00 1.000000000000000e+00 0.000000000000000e+00 2.227848101260475e+00 1.000000000000000e+00 0.000000000000000e+00 2.430379746829609e+00 1.000000000000000e+00 0.000000000000000e+00 2.632911392398743e+00 1.000000000000000e+00 0.000000000000000e+00 2.835443037967877e+00 1.000000000000000e+00 0.000000000000000e+00 3.037974683537010e+00 1.000000000000000e+00 0.000000000000000e+00 3.240506329106145e+00 1.000000000000000e+00 0.000000000000000e+00 3.443037974675279e+00 1.000000000000000e+00 0.000000000000000e+00 3.645569620244413e+00 1.000000000000000e+00 0.000000000000000e+00 3.848101265813547e+00 1.000000000000000e+00 0.000000000000000e+00 4.050632911382726e+00 1.000000000000000e+00 0.000000000000000e+00 4.253164556952040e+00 1.000000000000000e+00 0.000000000000000e+00 4.455696202521353e+00 1.000000000000000e+00 0.000000000000000e+00 4.658227848090667e+00 1.000000000000000e+00 0.000000000000000e+00 4.860759493659981e+00 1.000000000000000e+00 0.000000000000000e+00 5.063291139229296e+00 1.000000000000000e+00 0.000000000000000e+00 5.265822784798610e+00 1.000000000000000e+00 0.000000000000000e+00 5.468354430367923e+00 1.000000000000000e+00 0.000000000000000e+00 5.670886075937237e+00 1.000000000000000e+00 0.000000000000000e+00 5.873417721506551e+00 1.000000000000000e+00 0.000000000000000e+00 6.075949367075864e+00 1.000000000000000e+00 0.000000000000000e+00 6.278481012645178e+00 1.000000000000000e+00 0.000000000000000e+00 6.481012658214492e+00 1.000000000000000e+00 0.000000000000000e+00 6.683544303783806e+00 1.000000000000000e+00 0.000000000000000e+00 6.886075949353121e+00 1.000000000000000e+00 0.000000000000000e+00 7.088607594922435e+00 1.000000000000000e+00 0.000000000000000e+00 7.291139240491749e+00 1.000000000000000e+00 0.000000000000000e+00 7.493670886061063e+00 1.000000000000000e+00 0.000000000000000e+00 7.696202531630375e+00 1.000000000000000e+00 0.000000000000000e+00 7.898734177199691e+00 1.000000000000000e+00 0.000000000000000e+00 8.101265822769285e+00 1.000000000000000e+00 0.000000000000000e+00 8.303797468339161e+00 1.000000000000000e+00 0.000000000000000e+00 8.506329113909036e+00 1.000000000000000e+00 0.000000000000000e+00 8.708860759478913e+00 1.000000000000000e+00 0.000000000000000e+00 8.911392405048788e+00 1.000000000000000e+00 0.000000000000000e+00 9.113924050618664e+00 1.000000000000000e+00 0.000000000000000e+00 9.316455696188541e+00 1.000000000000000e+00 0.000000000000000e+00 9.518987341758416e+00 1.000000000000000e+00 0.000000000000000e+00 9.721518987328292e+00 1.000000000000000e+00 0.000000000000000e+00 9.924050632898169e+00 1.000000000000000e+00 0.000000000000000e+00 1.012658227846805e+01 1.000000000000000e+00 0.000000000000000e+00 1.032911392403792e+01 1.000000000000000e+00 0.000000000000000e+00 1.053164556960780e+01 1.000000000000000e+00 0.000000000000000e+00 1.073417721517767e+01 1.000000000000000e+00 0.000000000000000e+00 1.093670886074755e+01 1.000000000000000e+00 0.000000000000000e+00 1.113924050631742e+01 1.000000000000000e+00 0.000000000000000e+00 1.134177215188730e+01 1.000000000000000e+00 0.000000000000000e+00 1.154430379745718e+01 1.000000000000000e+00 0.000000000000000e+00 1.174683544302705e+01 1.000000000000000e+00 0.000000000000000e+00 1.194936708859693e+01 1.000000000000000e+00 0.000000000000000e+00 1.215189873416701e+01 1.000000000000000e+00 0.000000000000000e+00 1.235443037973717e+01 1.000000000000000e+00 0.000000000000000e+00 1.255696202530733e+01 1.000000000000000e+00 0.000000000000000e+00 1.275949367087749e+01 1.000000000000000e+00 0.000000000000000e+00 1.296202531644764e+01 1.000000000000000e+00 0.000000000000000e+00 1.316455696201780e+01 1.000000000000000e+00 0.000000000000000e+00 1.336708860758796e+01 1.000000000000000e+00 0.000000000000000e+00 1.356962025315812e+01 1.000000000000000e+00 0.000000000000000e+00 1.377215189872827e+01 1.000000000000000e+00 0.000000000000000e+00 1.397468354429843e+01 1.000000000000000e+00 0.000000000000000e+00 1.417721518986859e+01 1.000000000000000e+00 0.000000000000000e+00 1.437974683543874e+01 1.000000000000000e+00 0.000000000000000e+00 1.458227848100890e+01 1.000000000000000e+00 0.000000000000000e+00 1.478481012657906e+01 1.000000000000000e+00 0.000000000000000e+00 1.498734177214921e+01 1.000000000000000e+00 0.000000000000000e+00 1.518987341771937e+01 1.000000000000000e+00 0.000000000000000e+00 1.539240506328953e+01 1.000000000000000e+00 0.000000000000000e+00 1.559493670885968e+01 1.000000000000000e+00 0.000000000000000e+00 1.579746835442984e+01 1.000000000000000e+00 0.000000000000000e+00 1.600000000000000e+01 7.500000000003469e-01 0.000000000000000e+00 1.600000000000000e+01 5.000000000013878e-01 0.000000000000000e+00 1.600000000000000e+01 2.500000000010407e-01 0.000000000000000e+00 1.579746835443066e+01 0.000000000000000e+00 0.000000000000000e+00 1.559493670886132e+01 0.000000000000000e+00 0.000000000000000e+00 1.539240506329198e+01 0.000000000000000e+00 0.000000000000000e+00 1.518987341772264e+01 0.000000000000000e+00 0.000000000000000e+00 1.498734177215330e+01 0.000000000000000e+00 0.000000000000000e+00 1.478481012658396e+01 0.000000000000000e+00 0.000000000000000e+00 1.458227848101463e+01 0.000000000000000e+00 0.000000000000000e+00 1.437974683544529e+01 0.000000000000000e+00 0.000000000000000e+00 1.417721518987595e+01 0.000000000000000e+00 0.000000000000000e+00 1.397468354430661e+01 0.000000000000000e+00 0.000000000000000e+00 1.377215189873727e+01 0.000000000000000e+00 0.000000000000000e+00 1.356962025316793e+01 0.000000000000000e+00 0.000000000000000e+00 1.336708860759859e+01 0.000000000000000e+00 0.000000000000000e+00 1.316455696202925e+01 0.000000000000000e+00 0.000000000000000e+00 1.296202531645991e+01 0.000000000000000e+00 0.000000000000000e+00 1.275949367089057e+01 0.000000000000000e+00 0.000000000000000e+00 1.255696202532123e+01 0.000000000000000e+00 0.000000000000000e+00 1.235443037975189e+01 0.000000000000000e+00 0.000000000000000e+00 1.215189873418256e+01 0.000000000000000e+00 0.000000000000000e+00 1.194936708861336e+01 0.000000000000000e+00 0.000000000000000e+00 1.174683544304458e+01 0.000000000000000e+00 0.000000000000000e+00 1.154430379747580e+01 0.000000000000000e+00 0.000000000000000e+00 1.134177215190703e+01 0.000000000000000e+00 0.000000000000000e+00 1.113924050633825e+01 0.000000000000000e+00 0.000000000000000e+00 1.093670886076947e+01 0.000000000000000e+00 0.000000000000000e+00 1.073417721520070e+01 0.000000000000000e+00 0.000000000000000e+00 1.053164556963192e+01 0.000000000000000e+00 0.000000000000000e+00 1.032911392406314e+01 0.000000000000000e+00 0.000000000000000e+00 1.012658227849436e+01 0.000000000000000e+00 0.000000000000000e+00 9.924050632925587e+00 0.000000000000000e+00 0.000000000000000e+00 9.721518987356809e+00 0.000000000000000e+00 0.000000000000000e+00 9.518987341788034e+00 0.000000000000000e+00 0.000000000000000e+00 9.316455696219256e+00 0.000000000000000e+00 0.000000000000000e+00 9.113924050650478e+00 0.000000000000000e+00 0.000000000000000e+00 8.911392405081703e+00 0.000000000000000e+00 0.000000000000000e+00 8.708860759512925e+00 0.000000000000000e+00 0.000000000000000e+00 8.506329113944147e+00 0.000000000000000e+00 0.000000000000000e+00 8.303797468375370e+00 0.000000000000000e+00 0.000000000000000e+00 8.101265822806592e+00 0.000000000000000e+00 0.000000000000000e+00 7.898734177237253e+00 0.000000000000000e+00 0.000000000000000e+00 7.696202531667353e+00 0.000000000000000e+00 0.000000000000000e+00 7.493670886097451e+00 0.000000000000000e+00 0.000000000000000e+00 7.291139240527549e+00 0.000000000000000e+00 0.000000000000000e+00 7.088607594957649e+00 0.000000000000000e+00 0.000000000000000e+00 6.886075949387747e+00 0.000000000000000e+00 0.000000000000000e+00 6.683544303817845e+00 0.000000000000000e+00 0.000000000000000e+00 6.481012658247945e+00 0.000000000000000e+00 0.000000000000000e+00 6.278481012678045e+00 0.000000000000000e+00 0.000000000000000e+00 6.075949367108143e+00 0.000000000000000e+00 0.000000000000000e+00 5.873417721538242e+00 0.000000000000000e+00 0.000000000000000e+00 5.670886075968340e+00 0.000000000000000e+00 0.000000000000000e+00 5.468354430398438e+00 0.000000000000000e+00 0.000000000000000e+00 5.265822784828536e+00 0.000000000000000e+00 0.000000000000000e+00 5.063291139258636e+00 0.000000000000000e+00 0.000000000000000e+00 4.860759493688734e+00 0.000000000000000e+00 0.000000000000000e+00 4.658227848118834e+00 0.000000000000000e+00 0.000000000000000e+00 4.455696202548932e+00 0.000000000000000e+00 0.000000000000000e+00 4.253164556979030e+00 0.000000000000000e+00 0.000000000000000e+00 4.050632911409130e+00 0.000000000000000e+00 0.000000000000000e+00 3.848101265838807e+00 0.000000000000000e+00 0.00000000000000
[...]
<PointData Scalars="pressure_nodes_[L]," Vectors="">
<DataArray type="Float64" Name="pressure_nodes_[L]" format="ascii">
-3.976134780757933e-02 -3.689014495195551e-02 -9.249273367610378e+00 -9.249104310223816e+00 -3.508065372295163e-02 -4.740845748813157e-02 -5.302594818617261e-02 -1.195817094753641e-01 -2.394692330353582e-01 -3.642299031295681e-01 -4.856207910750687e-01 -6.062010380282321e-01 -7.279637094895063e-01 -8.517936509049976e-01 -9.734711919261809e-01 -1.094021587530206e+00 -1.215214599332864e+00 -1.336638600075159e+00 -1.458136907755052e+00 -1.579697679333429e+00 -1.700929449400735e+00 -1.821525663095548e+00 -1.941228307142495e+00 -2.059406378066814e+00 -2.192042794780297e+00 -2.316995247058518e+00 -2.433207007685811e+00 -2.553337262657505e+00 -2.674369852337088e+00 -2.795745462276371e+00 -2.917299855998928e+00 -3.038736399644942e+00 -3.160203378431305e+00 -3.281832215677180e+00 -3.403384040728084e+00 -3.524915527146450e+00 -3.646560631978470e+00 -3.768155053073991e+00 -3.889742532796423e+00 -4.011338040634822e+00 -4.132750833894995e+00 -4.254285291260524e+00 -4.375173977309316e+00 -4.492998859810836e+00 -4.619989889701437e+00 -4.747853998845848e+00 -4.865926823988185e+00 -4.985538483667109e+00 -5.105407234048421e+00 -5.227196540174938e+00 -5.350634436678769e+00 -5.471074141952222e+00 -5.592263188159760e+00 -5.715481429038792e+00 -5.835884830557656e+00 -5.957124868617694e+00 -6.080358244849245e+00 -6.200727190962792e+00 -6.321940794839366e+00 -6.445116177509269e+00 -6.565412484715271e+00 -6.686672310705257e+00 -6.810015498952842e+00 -6.930720709863822e+00 -7.050308759098629e+00 -7.169666350852840e+00 -7.287872396969458e+00 -7.420691601949663e+00 -7.544553193158543e+00 -7.660908748802841e+00 -7.780858289785635e+00 -7.901013170099403e+00 -8.022887204703116e+00 -8.145730187970402e+00 -8.264893792075197e+00 -8.384523618359218e+00 -8.505037015845963e+00 -8.621247513248552e+00 -8.734191338426651e+00 -8.843458928457846e+00 -8.946645941722421e+00 -9.041222135791054e+00 -9.123855803492370e+00 -9.189629203535784e+00 -9.232201534660639e+00 -9.250283975087163e+00 -9.249704802822077e+00 -9.248477388098715e+00 -9.233753149959307e+00 -9.190866051942727e+00 -9.122911572209366e+00 -9.040717501833262e+00 -8.947168604201892e+00 -8.844567957063800e+00 -8.733106172965938e+00 -8.618519594955849e+00 -8.502784965583292e+00 -8.384626865333130e+00 -8.265109673878364e+00 -8.144798977613545e+00 -8.023832296768669e+00 -7.902662446455501e+00 -7.781733285510494e+00 -7.661904220307160e+00 -7.544888850554174e+00 -7.417362060654284e+00 -7.288126827169201e+00 -7.169976123744543e+00 -7.050316378226078e+00 -6.929851167299090e+00 -6.808811563433289e+00 -6.687328604091396e+00 -6.565825803741660e+00 -6.444323418675694e+00 -6.322639101833841e+00 -6.201005278959204e+00 -6.079403417870243e+00 -5.957712607690507e+00 -5.836115960893530e+00 -5.714588674825812e+00 -5.592981547464550e+00 -5.471465431452856e+00 -5.349942397036706e+00 -5.228311258128927e+00 -5.106959678745734e+00 -4.986143716373228e+00 -4.866115345701352e+00 -4.747841328387940e+00 -4.619422797920641e+00 -4.493746851325599e+00 -4.380377917945267e+00 -4.257721560440957e+00 -4.133883554021772e+00 -4.012899229592432e+00 -3.889634570537110e+00 -3.768592625952085e+00 -3.648044372096869e+00 -3.524881273912641e+00 -3.403916269499413e+00 -3.283332382912211e+00 -3.160133983190125e+00 -3.039177317332374e+00 -2.918571149592193e+00 -2.795160253737491e+00 -2.673578381108392e+00 -2.553557896423137e+00 -2.434134441238880e+00 -2.317111935508447e+00 -2.189120489308146e+00 -2.059818268601403e+00 -1.941714003828255e+00 -1.822298852967688e+00 -1.702611614329958e+00 -1.581365479088896e+00 -1.457914464996473e+00 -1.336964284205447e+00 -1.216113627094086e+00 -1.092491393969398e+00 -9.706200534514744e-01 -8.498167610496447e-01 -7.283602649807550e-01 -6.067617841187313e-01 -4.851059617388077e-01 -3.631775514599135e-01 -2.417666809220330e-01 -1.247336862926281e-01 -9.085850767843596e+00 -4.210950982064136e-01 -8.791443607013520e+00 -7.102410085140062e+00 -7.871470488800926e-01 -8.445716984111138e+00 -6.750039695006887e+00 -8.085373995525353e+00 -1.152564582697865e+00 -6.385329380048598e+00 -7.722329050679304e+00 -6.020047041812997e+00 -1.517903307450243e+00 -5.654867560482933e+00 -1.871102893077536e+00 -5.289710755880662e+00 -2.492963041671826e+00 -4.933556669516470e+00 -2.855179257095827e+00 -3.219654186039899e+00 -3.584401488959089e+00 -3.949303854727710e+00 -4.294026936602348e+00 -4.612944075254215e+00 -7.405984434262626e+00 -2.176549994105678e+00 -9.194445891219940e+00 -2.313064361476583e-01 -4.131366800382557e+00 -3.766930540745313e+00 -3.402271114340792e+00 -5.101750319171616e+00 -3.037692277009172e+00 -2.667947219725145e+00 -5.471315493431213e+00 -5.836244456441410e+00 -6.201574313962333e+00 -6.566215071235613e+00 -6.934955096496727e+00 -7.896615574853353e+00 -8.952322316471236e+00 -8.265055383745356e+00 -8.615379097167342e+00 -1.705026687956102e+00 -5.991833915035250e-01 -1.335374872935639e+00 -9.760672177412629e-01 -6.930902475392827e+00 -6.567995193515425e+00 -6.203062696225011e+00 -5.837523500184299e+00 -5.472815730631461e+00 -5.108216691500413e+00 -9.643680350562336e-01 -8.626605819869143e+00 -8.949486648105047e+00 -6.029604664581076e-01 -8.266473723360027e+00 -1.334610773243810e+00 -7.903662384379956e+00 -1.698661547030223e+00 -2.672486199253168e+00 -3.037010609586762e+00 -3.401290345326380e+00 -3.766243245889865e+00 -4.129832812518647e+00 -4.459757441126500e+00 -4.482052862764415e+00 -7.549897561650329e+00 -7.570273482654631e+00 -2.321580188370268e+00 -2.342225439540388e+00 -4.766471242823119e+00 -2.036862311902325e+00 -7.267145447181055e+00 -2.033077835942588e+00 -4.766520940950712e+00 -7.263435685483361e+00 -2.551568492141662e-01 -9.182917438893249e+00 -5.288935118210805e+00 -4.330450427835904e+00 -3.950574116200255e+00 -5.654125024840582e+00 -3.585723591182531e+00 -3.221006812403059e+00 -6.019192935953861e+00 -2.856124694763539e+00 -2.495413141153323e+00 -6.384102313112686e+00 -6.748970637159435e+00 -7.721997896497551e+00 -4.244228529712343e-01 -1.519147217916613e+00 -9.083780861445700e+00 -8.084454346931622e+00 -8.790034278103471e+00 -7.890101103272603e-01 -8.445624690437425e+00 -1.153239831236935e+00 -6.749239553079891e+00 -8.444277888405720e+00 -8.790847606461256e+00 -1.153948210227849e+00 -8.085389519667011e+00 -7.875858574130108e-01 -9.085531741624138e+00 -6.384739211529894e+00 -7.724083107717483e+00 -1.517913039527986e+00 -6.019476218026508e+00 -4.221947098441580e-01 -5.654587314675022e+00 -5.289920725186851e+00 -2.494030456029155e+00 -2.855743428675548e+00 -3.219931947434754e+00 -3.584673060677007e+00 -3.949668306892260e+00 -4.313993939285949e+00 -7.106824585646147e+00 -7.107299486564427e+00 -1.876933968869390e+00 -4.929452997061897e+00 -1.878271645617109e+00 -4.928599665788637e+00 -4.617565323247737e+00 -4.618795568436057e+00 -2.207559605086757e+00 -7.419626691083296e+00 -7.436618380342805e+00 -2.191075565763273e+00 -9.224972527324617e+00 -1.502221800897977e-01 -9.160698528031460e+00 -2.994267368342973e-01 -1.631678644179829e-01 -9.220818816619065e+00 -1.026186987094671e+00 -8.568133578654377e+00 -6.658926487276150e-01 -8.897296141378240e+00 -8.206014205767460e+00 -7.843436093960894e+00 -6.870232948504242e+00 -1.396257243610288e+00 -6.506450616980055e+00 -6.141342458107986e+00 -2.734237628864358e+00 -3.098328843919481e+00 -5.776232854086296e+00 -3.462975958748288e+00 -3.827899643364264e+00 -5.411660750715834e+00 -4.191949701761701e+00 -8.566879493974623e+00 -8.902378381783318e+00 -1.026972856007072e+00 -8.209731480126960e+00 -7.841928163432208e+00 -6.595861046530740e-01 -2.728342417272175e+00 -3.094080444676085e+00 -3.458604255031245e+00 -3.823495682702899e+00 -6.875502804736275e+00 -4.184145272441914e+00 -6.510527487942277e+00 -6.145604866137126e+00 -1.391769505144719e+00 -5.780113112945672e+00 -1.758224428197225e+00 -5.415284905235699e+00 -5.047953199740619e+00 -1.759075254076887e+00 -5.048111513428266e+00 -4.192417858861996e+00 -3.825128682654612e+00 -5.414106601095663e+00 -3.460452788723701e+00 -3.095720859943969e+00 -5.779019458478876e+00 -2.729608829586050e+00 -6.144073875044403e+00 -6.508784705392508e+00 -6.874559034847826e+00 -1.393523119135297e+00 -7.840384675785556e+00 -8.208578727451622e+00 -8.900692579034635e+00 -8.560423214980604e+00 -6.619609181208063e-01 -8.996371832852970e+00 -8.672266807412045e+00 -5.442264552497766e-01 -1.034048444802064e+00 -9.163625705689377e-01 -8.321559891251265e+00 -7.957551610861636e+00 -1.279161565512731e+00 -1.645649268954182e+00 -6.622933496036610e+00 -6.258270902268222e+00 -2.612877527117386e+00 -5.893271006767296e+00 -2.981576509239935e+00 -3.346300920860892e+00 -5.528317818678693e+00 -3.710922968284725e+00 -4.076099276213026e+00 -5.162056646813457e+00 -5.045546627609774e+00 -1.761854556160847e+00 -6.990533727715932e+00 -4.822521251209778e+00 -2.080432049129735e+00 -7.210600530944168e+00 -7.592347717328967e+00 -2.363592875396648e+00 -4.494765345382187e+00 -5.894189300792517e+00 -5.529279936796153e+00 -6.624425729401020e+00 -5.163174549075128e+00 -6.259728978675607e+00 -6.989687210998613e+00 -2.980322123138069e+00 -4.073478884579226e+00 -2.611804090036380e+00 -3.344591811750466e+00 -3.709396423401701e+00 -8.675242609792058e+00 -9.128843876883225e-01 -8.998101103881444e+00 -8.322231280889921e+00 -5.416560327823661e-01 -7.958718556093035e+00 -1.277762984520366e+00 -1.643790912597912e+00 -9.215108735098468e+00 -1.800939276947873e-01 -5.897637991715406e+00 -5.168392121042523e+00 -6.627699686506984e+00 -6.262900255230099e+00 -5.532934843236845e+00 -1.639236530476013e+00 -1.275024012175810e+00 -2.613574250665165e+00 -4.071052566996428e+00 -3.341574122718164e+00 -2.977234921674485e+00 -3.706415818723228e+00 -7.964163914621146e+00 -8.325587311048443e+00 -8.996377072291653e+00 -5.442946407483295e-01 -8.680046425997453e+00 -9.081170784609350e-01 -6.989672230700125e+00 -9.161705308426132e+00 -2.965413211235742e-01 -3.024642931266553e-01 -9.158622143660814e+00 -4.704208194621547e+00 -7.330323977407823e+00 -4.704419719261201e+00 -7.331158021698919e+00 -2.100986587652790e+00 -2.102195857892970e+00 -4.431164978679589e+00 -2.382261285786147e+00 -4.439913028300848e+00 -7.610098738089401e+00 -2.378623325462653e+00 -7.606483785862332e+00 -4.226505954600807e+00 -3.862863892429259e+00 -5.375780446120321e+00 -3.498081039272217e+00 -3.133408463922786e+00 -5.740741885112908e+00 -2.767577252215087e+00 -6.106019579818332e+00 -6.470843247648958e+00 -6.836421720627500e+00 -1.431317731383566e+00 -7.781463836234322e+00 -8.170600572779685e+00 -8.503881916222561e+00 -8.868218499579054e+00 -1.092649461165293e+00 -6.996407793317324e-01 -1.817193696420288e+00 -4.988946968971429e+00 -7.221095357140048e+00 -7.222116849321534e+00 -4.813594985917574e+00 -1.991658527670815e+00 -1.992921376026048e+00 -4.813388772800935e+00 -8.709420641280923e+00 -9.042380115377666e+00 -8.762483018918841e-01 -4.829228590014135e-01 -8.359867565482817e+00 -7.996545987789348e+00 -1.239626077706789e+00 -1.606141732856075e+00 -6.662159103103494e+00 -6.297528132496918e+00 -2.553604116906697e+00 -5.932299406364469e+00 -2.942214639552830e+00 -5.567272696998759e+00 -3.306724967080636e+00 -3.671391044883385e+00 -5.201050713089276e+00 -4.036146800941840e+00 -7.047107578859782e+00 -9.237332993632146e+00 -1.068133651090370e-01 -4.392267101971041e+00 -7.492748657511936e+00 -2.263958823816927e+00 -4.379925222140706e+00 -1.064535651141401e+00 -7.249516972442243e-01 -8.530802641647220e+00 -5.351852138294932e+00 -5.716582454661017e+00 -6.081823627260174e+00 -6.447130596954293e+00 -6.811329441312052e+00 -8.846558855486307e+00 -4.249029330703849e+00 -3.887632683278862e+00 -3.522583655785249e+00 -3.157911172645711e+00 -2.793685162107587e+00 -1.455839627606871e+00 -8.147031373932005e+00 -7.784123410247692e+00 -4.990658463051279e+00 -1.815132687853680e+00 -5.228882676508843e+00 -5.593798561590781e+00 -5.958725077370031e+00 -6.324344172774943e+00 -6.688981154330929e+00 -4.010179461238483e+00 -3.645335730476047e+00 -3.280460460268336e+00 -2.916480601724961e+00 -2.553291889932590e+00 -1.578660809439684e+00 -1.214085587535090e+00 -8.024874756428707e+00 -8.385304111776859e+00 -9.043355702904243e+00 -4.817319032053998e-01 -8.736544261576809e+00 -8.474002826622634e-01 -2.277301691701811e+00 -4.536209573656162e+00 -2.281381854853033e+00 -7.505302632187413e+00 -7.509420157830473e+00 -4.533269920236099e+00 -7.046899762975032e+00 -4.664753796303800e+00 -4.664130319531358e+00 -2.139207329785392e+00 -7.349002821059100e+00 -7.368679534266868e+00 -2.119377660252353e+00 -7.158702741925516e+00 -7.159624169732123e+00 -4.876065775716802e+00 -1.927778108426366e+00 -4.875581318425643e+00 -1.929227260531625e+00 -2.438368872492168e+00 -7.667100919734719e+00 -2.434272219577815e+00 -7.662815474319776e+00 -9.122727756049752e+00 -3.638329309488089e-01 -7.479124312360743e+00 -2.250411427813669e+00 -3.584415514845146e-01 -9.126412849594610e+00 -4.568328073369955e+00 -4.564324672977961e+00 -9.242503914572316e+00 -8.161423451327783e-02 -9.244551795658612e+00 -7.118876151082495e-02 -4.716631563535588e+00 -7.310730386376540e+00 -1.979571186200131e+00 
</DataArray>
</PointData>
<CellData Scalars="pressure_elements_[L]," Vectors="velocity_elements_[L/T],">
<DataArray type="Float64" Name="pressure_elements_[L]" format="ascii">