<?xml version="1.0"?>
<VTKFile type="UnstructuredGrid" version="0.1" byte_order="LittleEndian">
<UnstructuredGrid>
<Piece NumberOfPoints="567" NumberOfCells="966">
<Points>
<DataArray type="Float64" NumberOfComponents="3" format="ascii">
0.000000000000000e+00 0.000000000000000e+00 0.000000000000000e+00 0.000000000000000e+00 1.000000000000000e+00 0.000000000000000e+00 1.600000000000000e+01 1.000000000000000e+00 0.000000000000000e+00 1.600000000000000e+01 0.000000000000000e+00 0.000000000000000e+00 0.000000000000000e+00 2.499999999993998e-01 0.000000000000000e+00 0.000000000000000e+00 4.999999999990217e-01 0.000000000000000e+00 0.000000000000000e+00 7.499999999993374e-01 0.000000000000000e+00 2.025316455691341e-01 1.000000000000000e+00 0.000000000000000e+00 4.050632911382681e-01 1.000000000000000e+00 0.000000000000000e+00 6.075949367074022e-01 1.000000000000000e+00 0.000000000000000e+00 8.101265822765362e-01 1.000000000000000e+00 0.000000000000000e+00 1.012658227845670e+00 1.000000000000000e+00 0.000000000000000e+00 1.215189873414804e+00 1.000000000000000e+00 0.000000000000000e+00 1.417721518983938e+00 1.000000000000000e+00 0.000000000000000e+00 1.620253164553072e+00 1.000000000000000e+00 0.000000000000000e+00 1.822784810122207e+00 1.000000000000000e+00 0.000000000000000e+00 2.025316455691340e+00 1.000000000000000e+00 0.000000000000000e+00 2.227848101260475e+00 1.000000000000000e+00 0.000000000000000e+00 2.430379746829609e+00 1.000000000000000e+00 0.000000000000000e+00 2.632911392398743e+00 1.000000000000000e+00 0.000000000000000e+00 2.835443037967877e+00 1.000000000000000e+00 0.000000000000000e+00 3.037974683537010e+00 1.000000000000000e+00 0.000000000000000e+00 3.240506329106145e+00 1.000000000000000e+00 0.000000000000000e+00 3.443037974675279e+00 1.000000000000000e+00 0.000000000000000e+00 3.645569620244413e+00 1.000000000000000e+00 0.000000000000000e+00 3.848101265813547e+00 1.000000000000000e+00 0.000000000000000e+00 4.050632911382726e+00 1.000000000000000e+00 0.000000000000000e+00 4.253164556952040e+00 1.000000000000000e+00 0.000000000000000e+00 4.455696202521353e+00 1.000000000000000e+00 0.000000000000000e+00 4.658227848090667e+00 1.000000000000000e+00 0.000000000000000e+00 4.860759493659981e+00 1.000000000000000e+00 0.000000000000000e+00 5.063291139229296e+00 1.000000000000000e+00 0.000000000000000e+00 5.265822784798610e+00 1.000000000000000e+00 0.000000000000000e+00 5.468354430367923e+00 1.000000000000000e+00 0.000000000000000e+00 5.670886075937237e+00 1.000000000000000e+00 0.000000000000000e+00 5.873417721506551e+00 1.000000000000000e+00 0.000000000000000e+00 6.075949367075864e+00 1.000000000000000e+00 0.000000000000000e+00 6.278481012645178e+00 1.000000000000000e+00 0.000000000000000e+00 6.481012658214492e+00 1.000000000000000e+00 0.000000000000000e+00 6.683544303783806e+00 1.000000000000000e+00 0.000000000000000e+00 6.886075949353121e+00 1.000000000000000e+00 0.000000000000000e+00 7.088607594922435e+00 1.000000000000000e+00 0.000000000000000e+00 7.291139240491749e+00 1.000000000000000e+00 0.000000000000000e+00 7.493670886061063e+00 1.000000000000000e+00 0.000000000000000e+00 7.696202531630375e+00 1.000000000000000e+00 0.000000000000000e+00 7.898734177199691e+00 1.000000000000000e+00 0.000000000000000e+00 8.101265822769285e+00 1.000000000000000e+00 0.000000000000000e+00 8.303797468339161e+00 1.000000000000000e+00 0.000000000000000e+00 8.506329113909036e+00 1.000000000000000e+00 0.000000000000000e+00 8.708860759478913e+00 1.000000000000000e+00 0.000000000000000e+00 8.911392405048788e+00 1.000000000000000e+00 0.000000000000000e+00 9.113924050618664e+00 1.000000000000000e+00 0.000000000000000e+00 9.316455696188541e+00 1.000000000000000e+00 0.000000000000000e+00 9.518987341758416e+00 1.000000000000000e+00 0.000000000000000e+00 9.721518987328292e+00 1.000000000000000e+00 0.000000000000000e+00 9.924050632898169e+00 1.000000000000000e+00 0.000000000000000e+00 1.012658227846805e+01 1.000000000000000e+00 0.000000000000000e+00 1.032911392403792e+01 1.000000000000000e+00 0.000000000000000e+00 1.053164556960780e+01 1.000000000000000e+00 0.000000000000000e+00 1.073417721517767e+01 1.000000000000000e+00 0.000000000000000e+00 1.093670886074755e+01 1.000000000000000e+00 0.000000000000000e+00 1.113924050631742e+01 1.000000000000000e+00 0.000000000000000e+00 1.134177215188730e+01 1.000000000000000e+00 0.000000000000000e+00 1.154430379745718e+01 1.000000000000000e+00 0.000000000000000e+00 1.174683544302705e+01 1.000000000000000e+00 0.000000000000000e+00 1.194936708859693e+01 1.000000000000000e+00 0.000000000000000e+00 1.215189873416701e+01 1.000000000000000e+00 0.000000000000000e+00 1.235443037973717e+01 1.000000000000000e+00 0.000000000000000e+00 1.255696202530733e+01 1.000000000000000e+00 0.000000000000000e+00 1.275949367087749e+01 1.000000000000000e+00 0.000000000000000e+00 1.296202531644764e+01 1.000000000000000e+00 0.000000000000000e+00 1.316455696201780e+01 1.000000000000000e+00 0.000000000000000e+00 1.336708860758796e+01 1.000000000000000e+00 0.000000000000000e+00 1.356962025315812e+01 1.000000000000000e+00 0.000000000000000e+00 1.377215189872827e+01 1.000000000000000e+00 0.000000000000000e+00 1.397468354429843e+01 1.000000000000000e+00 0.000000000000000e+00 1.417721518986859e+01 1.000000000000000e+00 0.000000000000000e+00 1.437974683543874e+01 1.000000000000000e+00 0.000000000000000e+00 1.458227848100890e+01 1.000000000000000e+00 0.000000000000000e+00 1.478481012657906e+01 1.000000000000000e+00 0.000000000000000e+00 1.498734177214921e+01 1.000000000000000e+00 0.000000000000000e+00 1.518987341771937e+01 1.000000000000000e+00 0.000000000000000e+00 1.539240506328953e+01 1.000000000000000e+00 0.000000000000000e+00 1.559493670885968e+01 1.000000000000000e+00 0.000000000000000e+00 1.579746835442984e+01 1.000000000000000e+00 0.000000000000000e+00 1.600000000000000e+01 7.500000000003469e-01 0.000000000000000e+00 1.600000000000000e+01 5.000000000013878e-01 0.000000000000000e+00 1.600000000000000e+01 2.500000000010407e-01 0.000000000000000e+00 1.579746835443066e+01 0.000000000000000e+00 0.000000000000000e+00 1.559493670886132e+01 0.000000000000000e+00 0.000000000000000e+00 1.539240506329198e+01 0.000000000000000e+00 0.000000000000000e+00 1.518987341772264e+01 0.000000000000000e+00 0.000000000000000e+00 1.498734177215330e+01 0.000000000000000e+00 0.000000000000000e+00 1.478481012658396e+01 0.000000000000000e+00 0.000000000000000e+00 1.458227848101463e+01 0.000000000000000e+00 0.000000000000000e+00 1.437974683544529e+01 0.000000000000000e+00 0.000000000000000e+00 1.417721518987595e+01 0.000000000000000e+00 0.000000000000000e+00 1.397468354430661e+01 0.000000000000000e+00 0.000000000000000e+00 1.377215189873727e+01 0.000000000000000e+00 0.000000000000000e+00 1.356962025316793e+01 0.000000000000000e+00 0.000000000000000e+00 1.336708860759859e+01 0.000000000000000e+00 0.000000000000000e+00 1.316455696202925e+01 0.000000000000000e+00 0.000000000000000e+00 1.296202531645991e+01 0.000000000000000e+00 0.000000000000000e+00 1.275949367089057e+01 0.000000000000000e+00 0.000000000000000e+00 1.255696202532123e+01 0.000000000000000e+00 0.000000000000000e+00 1.235443037975189e+01 0.000000000000000e+00 0.000000000000000e+00 1.215189873418256e+01 0.000000000000000e+00 0.000000000000000e+00 1.194936708861336e+01 0.000000000000000e+00 0.000000000000000e+00 1.174683544304458e+01 0.000000000000000e+00 0.000000000000000e+00 1.154430379747580e+01 0.000000000000000e+00 0.000000000000000e+00 1.134177215190703e+01 0.000000000000000e+00 0.000000000000000e+00 1.113924050633825e+01 0.000000000000000e+00 0.000000000000000e+00 1.093670886076947e+01 0.000000000000000e+00 0.000000000000000e+00 1.073417721520070e+01 0.000000000000000e+00 0.000000000000000e+00 1.053164556963192e+01 0.000000000000000e+00 0.000000000000000e+00 1.032911392406314e+01 0.000000000000000e+00 0.000000000000000e+00 1.012658227849436e+01 0.000000000000000e+00 0.000000000000000e+00 9.924050632925587e+00 0.000000000000000e+00 0.000000000000000e+00 9.721518987356809e+00 0.000000000000000e+00 0.000000000000000e+00 9.518987341788034e+00 0.000000000000000e+00 0.000000000000000e+00 9.316455696219256e+00 0.000000000000000e+00 0.000000000000000e+00 9.113924050650478e+00 0.000000000000000e+00 0.000000000000000e+00 8.911392405081703e+00 0.000000000000000e+00 0.000000000000000e+00 8.708860759512925e+00 0.000000000000000e+00 0.000000000000000e+00 8.506329113944147e+00 0.000000000000000e+00 0.000000000000000e+00 8.303797468375370e+00 0.000000000000000e+00 0.000000000000000e+00 8.101265822806592e+00 0.000000000000000e+00 0.000000000000000e+00 7.898734177237253e+00 0.000000000000000e+00 0.000000000000000e+00 7.696202531667353e+00 0.000000000000000e+00 0.000000000000000e+00 7.493670886097451e+00 0.000000000000000e+00 0.000000000000000e+00 7.291139240527549e+00 0.000000000000000e+00 0.000000000000000e+00 7.088607594957649e+00 0.000000000000000e+00 0.000000000000000e+00 6.886075949387747e+00 0.000000000000000e+00 0.000000000000000e+00 6.683544303817845e+00 0.000000000000000e+00 0.000000000000000e+00 6.481012658247945e+00 0.000000000000000e+00 0.000000000000000e+00 6.278481012678045e+00 0.000000000000000e+00 0.000000000000000e+00 6.075949367108143e+00 0.000000000000000e+00 0.000000000000000e+00 5.873417721538242e+00 0.000000000000000e+00 0.000000000000000e+00 5.670886075968340e+00 0.000000000000000e+00 0.000000000000000e+00 5.468354430398438e+00 0.000000000000000e+00 0.000000000000000e+00 5.265822784828536e+00 0.000000000000000e+00 0.000000000000000e+00 5.063291139258636e+00 0.000000000000000e+00 0.000000000000000e+00 4.860759493688734e+00 0.000000000000000e+00 0.000000000000000e+00 4.658227848118834e+00 0.000000000000000e+00 0.000000000000000e+00 4.455696202548932e+00 0.000000000000000e+00 0.000000000000000e+00 4.253164556979030e+00 0.000000000000000e+00 0.000000000000000e+00 4.050632911409130e+00 0.000000000000000e+00 0.000000000000000e+00 3.848101265838807e+00 0.000000000000000e+00 0.00000000000000
[...]
<PointData Scalars="pressure_p1," Vectors="" Tensors="">
<DataArray type="Float64" Name="pressure_p1" format="ascii">
-1.126095225317127e-01 -1.044921684137395e-01 -2.552365108721489e+01 -2.552452667927880e+01 -9.945000675940413e-02 -1.344264528378497e-01 -1.501809188756884e-01 -3.387451993581092e-01 -6.783395364736244e-01 -1.031719348784086e+00 -1.375456088859828e+00 -1.716871571916504e+00 -2.061500791621339e+00 -2.412159577580521e+00 -2.756891397677264e+00 -3.098276417336441e+00 -3.441503306734391e+00 -3.785404672436311e+00 -4.129513124030461e+00 -4.473821150389963e+00 -4.817215804213665e+00 -5.158784844388850e+00 -5.497771918182707e+00 -5.832258935662421e+00 -6.207376675585228e+00 -6.562064301651970e+00 -6.890975612780221e+00 -7.231109698512569e+00 -7.573859117701802e+00 -7.917577923005530e+00 -8.261836963457490e+00 -8.605774833518399e+00 -8.949758515313501e+00 -9.294224732051575e+00 -9.638489028995801e+00 -9.982663766518399e+00 -1.032716992021363e+01 -1.067154892576005e+01 -1.101588042170287e+01 -1.136027025047350e+01 -1.170414413040100e+01 -1.204827445620061e+01 -1.239078598023886e+01 -1.272469168778480e+01 -1.308404374803838e+01 -1.344597283060084e+01 -1.378043128508673e+01 -1.411918124100178e+01 -1.445856296466620e+01 -1.480236385595335e+01 -1.515197278092054e+01 -1.549407489633569e+01 -1.583617904167771e+01 -1.618513071673266e+01 -1.652716965101987e+01 -1.686932189063618e+01 -1.721824911874051e+01 -1.756018990439766e+01 -1.790212032870445e+01 -1.825076136520514e+01 -1.859235288910474e+01 -1.893398687429432e+01 -1.928264520030427e+01 -1.962502623032696e+01 -1.996253600471694e+01 -2.029862707947007e+01 -2.063020995652591e+01 -2.100081731205733e+01 -2.134923680810097e+01 -2.167139860630182e+01 -2.200168100779890e+01 -2.232973900135566e+01 -2.265737282415482e+01 -2.298467836780453e+01 -2.329819575506495e+01 -2.360364025489424e+01 -2.390521371078044e+01 -2.418921641861015e+01 -2.445504898038280e+01 -2.470295571043458e+01 -2.492790874501044e+01 -2.512533122284588e+01 -2.529018344011168e+01 -2.541579315620236e+01 -2.549433022653497e+01 -2.552458703323384e+01 -2.551981305566845e+01 -2.551837755183224e+01 -2.549751721075245e+01 -2.541725756402397e+01 -2.528855345363267e+01 -2.512442334400705e+01 -2.492889309695864e+01 -2.470377743453110e+01 -2.445080063470924e+01 -2.418254411925835e+01 -2.390112330777111e+01 -2.360541448079658e+01 -2.329891398174602e+01 -2.298385558728337e+01 -2.266163126790224e+01 -2.233441308859249e+01 -2.200416838051900e+01 -2.167415327052906e+01 -2.134920903351065e+01 -2.099278785849285e+01 -2.063122151810809e+01 -2.029952393474137e+01 -1.996256931458761e+01 -1.962271191739114e+01 -1.928075449911830e+01 -1.893731748599090e+01 -1.859369463872774e+01 -1.824986660679097e+01 -1.790545664205065e+01 -1.756115824522770e+01 -1.721684340180688e+01 -1.687226633301974e+01 -1.652797253901008e+01 -1.618380062403757e+01 -1.583940646678493e+01 -1.549529810677193e+01 -1.515110328853704e+01 -1.480664523684158e+01 -1.446304206905830e+01 -1.412092128389870e+01 -1.378100005693057e+01 -1.344596037759411e+01 -1.308245979407584e+01 -1.272745704243144e+01 -1.240476804755630e+01 -1.205634987404426e+01 -1.170707988219226e+01 -1.136379661048691e+01 -1.101471256128446e+01 -1.067269056553713e+01 -1.033061409659909e+01 -9.981800805609124e+00 -9.639916063174255e+00 -9.297805309941177e+00 -8.948892223711418e+00 -8.606958900337109e+00 -8.264849772770527e+00 -7.915314932790728e+00 -7.571566376588475e+00 -7.231722907294460e+00 -6.893576483546428e+00 -6.562081542095296e+00 -6.199474086356483e+00 -5.833508209885125e+00 -5.499124818669787e+00 -5.160932200671425e+00 -4.821926577285783e+00 -4.478193086472998e+00 -4.128546742647793e+00 -3.786308188471109e+00 -3.443852750885421e+00 -3.093750506680777e+00 -2.748850385576775e+00 -2.406766832225154e+00 -2.062811459632092e+00 -1.718470518434008e+00 -1.373963631646752e+00 -1.028656332003969e+00 -6.847820371647005e-01 -3.532885741952178e-01 -2.521568279609477e+01 -1.192749572530337e+00 -2.458560095031976e+01 -2.011040020481445e+01 -2.229220722103767e+00 -2.375897340257532e+01 -1.911424442530864e+01 -2.282575586529126e+01 -3.264032788786224e+00 -1.808258415109314e+01 -2.184059164404399e+01 -1.704845977191270e+01 -4.298677636307416e+00 -1.601439899063425e+01 -5.299428485523566e+00 -1.498023800835665e+01 -7.060114733713466e+00 -1.397263738592596e+01 -8.085744352864806e+00 -9.117980211992277e+00 -1.015094291196315e+01 -1.118440028836521e+01 -1.216102881467922e+01 -1.306516759079676e+01 -2.096380887101754e+01 -6.164673603554075e+00 -2.542329458189914e+01 -6.551918791918694e-01 -1.170149854620294e+01 -1.066921669687549e+01 -9.636363082842086e+00 -1.444924155500073e+01 -8.603742131860225e+00 -7.556154514280213e+00 -1.549653962699224e+01 -1.653009673798351e+01 -1.756463589171932e+01 -1.859675478670784e+01 -1.963841281068342e+01 -2.231927690585137e+01 -2.494130227311951e+01 -2.330132964305050e+01 -2.417657367723513e+01 -4.829100790911363e+00 -1.697120797230925e+00 -3.782226758179581e+00 -2.764406393526137e+00 -1.962607471371914e+01 -1.860008734457769e+01 -1.756720683033705e+01 -1.653216675892782e+01 -1.549933282207873e+01 -1.446685700583950e+01 -2.731318356834499e+00 -2.420346577621189e+01 -2.493419300062627e+01 -1.707715078638366e+00 -2.330280459793518e+01 -3.779703670969706e+00 -2.233737913261519e+01 -4.810871571998503e+00 -7.568616223910368e+00 -8.601000829142142e+00 -9.632666789682936e+00 -1.066626331687026e+01 -1.169615362617772e+01 -1.263077409336256e+01 -1.269461185746876e+01 -2.136432816523307e+01 -2.142152110403495e+01 -6.575118644249101e+00 -6.633740144983781e+00 -1.349979114788786e+01 -5.768958857651029e+00 -2.057410000599158e+01 -5.758428641469465e+00 -1.349992246703987e+01 -2.056434347168459e+01 -7.228565633354556e-01 -2.540305537667483e+01 -1.497769085430104e+01 -1.226319167794571e+01 -1.118769863843233e+01 -1.601191731010219e+01 -1.015445593743907e+01 -9.121600608027455e+00 -1.704565285858802e+01 -8.088240046416452e+00 -7.067202962473824e+00 -1.807868936994621e+01 -1.911074949821222e+01 -2.184006659187344e+01 -1.202175039733028e+00 -4.302103880860894e+00 -2.521153196197661e+01 -2.282278699227975e+01 -2.458187623058782e+01 -2.234435982848561e+00 -2.375823519569434e+01 -3.265885295717258e+00 -1.911226908666256e+01 -2.375564944751363e+01 -2.458471684433941e+01 -3.267978995727066e+00 -2.282611276150086e+01 -2.230518855333695e+00 -2.521465756318517e+01 -1.808112417746977e+01 -2.184597133909941e+01 -4.298788010824713e+00 -1.704704396266126e+01 -1.195803357884198e+00 -1.601377878441744e+01 -1.498103114089263e+01 -7.063216941774038e+00 -8.087449432282723e+00 -9.118858646668853e+00 -1.015183211024603e+01 -1.118553896283150e+01 -1.221716146387749e+01 -2.012215928928865e+01 -2.012343664978221e+01 -5.315777937637141e+00 -1.396057267893567e+01 -5.319543411071979e+00 -1.395817278652070e+01 -1.307847518449311e+01 -1.308207364466290e+01 -6.251954537875593e+00 -2.100084067312978e+01 -2.104757200000282e+01 -6.205493792322939e+00 -2.547629125594080e+01 -4.255404320052460e-01 -2.536105411338912e+01 -8.481068249367366e-01 -4.621982508370408e-01 -2.547121952688962e+01 -2.906238088918494e+00 -2.406148495821230e+01 -1.885902401982539e+00 -2.482145356835755e+01 -2.314489622970900e+01 -2.217316079330743e+01 -1.945433560371547e+01 -3.954239117910884e+00 -1.842566309280860e+01 -1.739219162693621e+01 -7.743379696427783e+00 -8.774517300333471e+00 -1.635835624245281e+01 -9.807222846435492e+00 -1.084071651118081e+01 -1.532589280792430e+01 -1.187177697773527e+01 -2.405916372232031e+01 -2.483319821837818e+01 -2.908535711928744e+00 -2.315573532276581e+01 -2.216948790209949e+01 -1.868101175295455e+00 -7.726949911479103e+00 -8.762897890210930e+00 -9.795291823540694e+00 -1.082874759994827e+01 -1.946992657151582e+01 -1.185064483409750e+01 -1.843807018557739e+01 -1.740507898143480e+01 -3.941696186330539e+00 -1.637012189968270e+01 -4.979679154672743e+00 -1.533690062149797e+01 -1.429654753316141e+01 -4.981940782100780e+00 -1.429650430498870e+01 -1.187292231347051e+01 -1.083308623216116e+01 -1.533315820660185e+01 -9.800283514754334e+00 -8.767319124521320e+00 -1.636660129544444e+01 -7.730361232154848e+00 -1.740030308720315e+01 -1.843265502387662e+01 -1.946672056527361e+01 -3.946571793171836e+00 -2.216495660190585e+01 -2.315211248042317e+01 -2.482904149334628e+01 -2.404262595582567e+01 -1.874783324204153e+00 -2.503313525036236e+01 -2.431057431144424e+01 -1.541422455892175e+00 -2.928458234837914e+00 -2.595206552495632e+00 -2.344505692557180e+01 -2.248329726411169e+01 -3.622718414871752e+00 -4.660657293410243e+00 -1.875555806288189e+01 -1.772359824837095e+01 -7.399835441315928e+00 -1.669011720221370e+01 -8.444072493485026e+00 -9.477020376363681e+00 -1.565659995055094e+01 -1.050967267831837e+01 -1.154384972307389e+01 -1.461919226350738e+01 -1.428936812198170e+01 -4.989822525106640e+00 -1.979430810838228e+01 -1.365845235157599e+01 -5.892654933520370e+00 -2.041543178086052e+01 -2.148120814828647e+01 -6.693771070891352e+00 -1.272981460801415e+01 -1.669315146902155e+01 -1.565973809043669e+01 -1.876027634578067e+01 -1.462273376632464e+01 -1.772818012493314e+01 -1.979245270943520e+01 -8.440735656885943e+00 -1.153690148240378e+01 -7.396900852911027e+00 -9.472414838603578e+00 -1.050561516159395e+01 -2.431838903122811e+01 -2.585461690096857e+00 -2.503704108666480e+01 -2.344737138206987e+01 -1.534161660162285e+00 -2.248697455213096e+01 -3.618833489085562e+00 -4.655518773232003e+00 -2.546304216481060e+01 -5.101212370435881e-01 -1.670213792436422e+01 -1.463697797664052e+01 -1.876867883173483e+01 -1.773633317119508e+01 -1.566934742623249e+01 -4.642464003052580e+00 -3.610892286254014e+00 -7.401719735531258e+00 -1.152940182210054e+01 -9.463410519955289e+00 -8.431580071225833e+00 -1.049667318625383e+01 -2.250097065613143e+01 -2.345488344844690e+01 -2.503284609674391e+01 -1.541575336045713e+00 -2.432898900223693e+01 -2.571886462660041e+00 -1.979172501215261e+01 -2.536258290574147e+01 -8.400176663085315e-01 -8.568069515612776e-01 -2.535724494661966e+01 -1.332313738182078e+01 -2.074987025713326e+01 -1.332374864542433e+01 -2.075281640571484e+01 -5.950125727150431e+00 -5.953728487027640e+00 -1.254977042653364e+01 -6.746994490651147e+00 -1.257477714726206e+01 -2.153164868347048e+01 -6.736647383344290e+00 -2.152147305058970e+01 -1.197046914390030e+01 -1.094042934478517e+01 -1.522524464226617e+01 -9.907260600773931e+00 -8.874426658519212e+00 -1.625888365760590e+01 -7.838201017507648e+00 -1.729327089512098e+01 -1.832604304056013e+01 -1.935977191060667e+01 -4.053771332193262e+00 -2.200375745088609e+01 -2.305348177512891e+01 -2.390369475210107e+01 -2.475896588462995e+01 -3.094352058228741e+00 -1.981563025299128e+00 -5.146678796925136e+00 -1.412940414527904e+01 -2.044379149133956e+01 -2.044662595898084e+01 -1.363261715860764e+01 -5.640708164753284e+00 -5.644265000965028e+00 -1.363202623023584e+01 -2.439877210206858e+01 -2.512834698262497e+01 -2.481713229310306e+00 -1.367851624486551e+00 -2.354413076663345e+01 -2.258947896282767e+01 -3.510889378235050e+00 -4.548931520506469e+00 -1.886729562997515e+01 -1.783548235603828e+01 -7.232079522759648e+00 -1.680134065843692e+01 -8.332936563546863e+00 -1.576758565202364e+01 -9.365325751681658e+00 -1.039814571566229e+01 -1.473020436460290e+01 -1.143126500917176e+01 -1.995436261731488e+01 -2.550116514578563e+01 -3.025772944539033e-01 -1.243905706999430e+01 -2.120529403858685e+01 -6.411965234428147e+00 -1.240400488126331e+01 -3.014954927093860e+00 -2.053097612622633e+00 -2.397146364357198e+01 -1.515623714735146e+01 -1.618914575266160e+01 -1.722336071283166e+01 -1.825748301363974e+01 -1.928751415798295e+01 -2.470941540770436e+01 -1.203335816617229e+01 -1.100968863407223e+01 -9.975843936904695e+00 -8.943094466655245e+00 -7.911570218266250e+00 -4.122901072342608e+00 -2.298938083370144e+01 -2.201103625537208e+01 -1.413412029078414e+01 -5.140825202610266e+00 -1.480797472690132e+01 -1.584142698175681e+01 -1.687479770413497e+01 -1.790994011146966e+01 -1.894163721520522e+01 -1.135682146362352e+01 -1.032350755387872e+01 -9.290174689524948e+00 -8.259373395502193e+00 -7.231066887280221e+00 -4.470789048079311e+00 -3.438257991008141e+00 -2.266397290654558e+01 -2.360681471811722e+01 -2.512990952432198e+01 -1.364432692754482e+00 -2.446023720682470e+01 -2.399893106577054e+00 -6.449628397337707e+00 -1.284797584781198e+01 -6.461147086787197e+00 -2.123985490737420e+01 -2.125116871385070e+01 -1.283958853439527e+01 -1.995359553623720e+01 -1.321241654844940e+01 -1.321055706064184e+01 -6.058872184740600e+00 -2.080499587152408e+01 -2.085917613954902e+01 -6.002981441099327e+00 -2.026896272958265e+01 -2.027140562144632e+01 -1.380980396944667e+01 -5.459962599522860e+00 -1.380844385563226e+01 -5.464026331775874e+00 -6.905776731186520e+00 -2.168907622355558e+01 -6.893906472282764e+00 -2.167640810639271e+01 -2.528891718547792e+01 -1.030634671892179e+00 -2.116723952374992e+01 -6.373589587018751e+00 -1.015284717278363e+00 -2.529506740714686e+01 -1.293940915694086e+01 -1.292755230775222e+01 -2.551244238251633e+01 -2.311833948800366e-01 -2.551601551143511e+01 -2.016290849749837e-01 -1.335894979059729e+01 -2.069755243483131e+01 -5.606774292009423e+00 
</DataArray>
</PointData>
<CellData Scalars="pressure_p0," Vectors="velocity_p0," Tensors="">
<DataArray type="Float64" Name="pressure_p0" format="ascii">