<?xml version="1.0"?>
<VTKFile type="UnstructuredGrid" version="0.1" byte_order="LittleEndian">
<UnstructuredGrid>
<Piece NumberOfPoints="567" NumberOfCells="966">
<Points>
<DataArray type="Float64" NumberOfComponents="3" format="ascii">
0.000000000000000e+00 0.000000000000000e+00 0.000000000000000e+00 0.000000000000000e+00 1.000000000000000e+00 0.000000000000000e+00 1.600000000000000e+01 1.000000000000000e+00 0.000000000000000e+00 1.600000000000000e+01 0.000000000000000e+00 0.000000000000000e+00 0.000000000000000e+00 2.499999999993998e-01 0.000000000000000e+00 0.000000000000000e+00 4.999999999990217e-01 0.000000000000000e+00 0.000000000000000e+00 7.499999999993374e-01 0.000000000000000e+00 2.025316455691341e-01 1.000000000000000e+00 0.000000000000000e+00 4.050632911382681e-01 1.000000000000000e+00 0.000000000000000e+00 6.075949367074022e-01 1.000000000000000e+00 0.000000000000000e+00 8.101265822765362e-01 1.000000000000000e+00 0.000000000000000e+00 1.012658227845670e+00 1.000000000000000e+00 0.000000000000000e+00 1.215189873414804e+00 1.000000000000000e+00 0.000000000000000e+00 1.417721518983938e+00 1.000000000000000e+00 0.000000000000000e+00 1.620253164553072e+00 1.000000000000000e+00 0.000000000000000e+00 1.822784810122207e+00 1.000000000000000e+00 0.000000000000000e+00 2.025316455691340e+00 1.000000000000000e+00 0.000000000000000e+00 2.227848101260475e+00 1.000000000000000e+00 0.000000000000000e+00 2.430379746829609e+00 1.000000000000000e+00 0.000000000000000e+00 2.632911392398743e+00 1.000000000000000e+00 0.000000000000000e+00 2.835443037967877e+00 1.000000000000000e+00 0.000000000000000e+00 3.037974683537010e+00 1.000000000000000e+00 0.000000000000000e+00 3.240506329106145e+00 1.000000000000000e+00 0.000000000000000e+00 3.443037974675279e+00 1.000000000000000e+00 0.000000000000000e+00 3.645569620244413e+00 1.000000000000000e+00 0.000000000000000e+00 3.848101265813547e+00 1.000000000000000e+00 0.000000000000000e+00 4.050632911382726e+00 1.000000000000000e+00 0.000000000000000e+00 4.253164556952040e+00 1.000000000000000e+00 0.000000000000000e+00 4.455696202521353e+00 1.000000000000000e+00 0.000000000000000e+00 4.658227848090667e+00 1.000000000000000e+00 0.000000000000000e+00 4.860759493659981e+00 1.000000000000000e+00 0.000000000000000e+00 5.063291139229296e+00 1.000000000000000e+00 0.000000000000000e+00 5.265822784798610e+00 1.000000000000000e+00 0.000000000000000e+00 5.468354430367923e+00 1.000000000000000e+00 0.000000000000000e+00 5.670886075937237e+00 1.000000000000000e+00 0.000000000000000e+00 5.873417721506551e+00 1.000000000000000e+00 0.000000000000000e+00 6.075949367075864e+00 1.000000000000000e+00 0.000000000000000e+00 6.278481012645178e+00 1.000000000000000e+00 0.000000000000000e+00 6.481012658214492e+00 1.000000000000000e+00 0.000000000000000e+00 6.683544303783806e+00 1.000000000000000e+00 0.000000000000000e+00 6.886075949353121e+00 1.000000000000000e+00 0.000000000000000e+00 7.088607594922435e+00 1.000000000000000e+00 0.000000000000000e+00 7.291139240491749e+00 1.000000000000000e+00 0.000000000000000e+00 7.493670886061063e+00 1.000000000000000e+00 0.000000000000000e+00 7.696202531630375e+00 1.000000000000000e+00 0.000000000000000e+00 7.898734177199691e+00 1.000000000000000e+00 0.000000000000000e+00 8.101265822769285e+00 1.000000000000000e+00 0.000000000000000e+00 8.303797468339161e+00 1.000000000000000e+00 0.000000000000000e+00 8.506329113909036e+00 1.000000000000000e+00 0.000000000000000e+00 8.708860759478913e+00 1.000000000000000e+00 0.000000000000000e+00 8.911392405048788e+00 1.000000000000000e+00 0.000000000000000e+00 9.113924050618664e+00 1.000000000000000e+00 0.000000000000000e+00 9.316455696188541e+00 1.000000000000000e+00 0.000000000000000e+00 9.518987341758416e+00 1.000000000000000e+00 0.000000000000000e+00 9.721518987328292e+00 1.000000000000000e+00 0.000000000000000e+00 9.924050632898169e+00 1.000000000000000e+00 0.000000000000000e+00 1.012658227846805e+01 1.000000000000000e+00 0.000000000000000e+00 1.032911392403792e+01 1.000000000000000e+00 0.000000000000000e+00 1.053164556960780e+01 1.000000000000000e+00 0.000000000000000e+00 1.073417721517767e+01 1.000000000000000e+00 0.000000000000000e+00 1.093670886074755e+01 1.000000000000000e+00 0.000000000000000e+00 1.113924050631742e+01 1.000000000000000e+00 0.000000000000000e+00 1.134177215188730e+01 1.000000000000000e+00 0.000000000000000e+00 1.154430379745718e+01 1.000000000000000e+00 0.000000000000000e+00 1.174683544302705e+01 1.000000000000000e+00 0.000000000000000e+00 1.194936708859693e+01 1.000000000000000e+00 0.000000000000000e+00 1.215189873416701e+01 1.000000000000000e+00 0.000000000000000e+00 1.235443037973717e+01 1.000000000000000e+00 0.000000000000000e+00 1.255696202530733e+01 1.000000000000000e+00 0.000000000000000e+00 1.275949367087749e+01 1.000000000000000e+00 0.000000000000000e+00 1.296202531644764e+01 1.000000000000000e+00 0.000000000000000e+00 1.316455696201780e+01 1.000000000000000e+00 0.000000000000000e+00 1.336708860758796e+01 1.000000000000000e+00 0.000000000000000e+00 1.356962025315812e+01 1.000000000000000e+00 0.000000000000000e+00 1.377215189872827e+01 1.000000000000000e+00 0.000000000000000e+00 1.397468354429843e+01 1.000000000000000e+00 0.000000000000000e+00 1.417721518986859e+01 1.000000000000000e+00 0.000000000000000e+00 1.437974683543874e+01 1.000000000000000e+00 0.000000000000000e+00 1.458227848100890e+01 1.000000000000000e+00 0.000000000000000e+00 1.478481012657906e+01 1.000000000000000e+00 0.000000000000000e+00 1.498734177214921e+01 1.000000000000000e+00 0.000000000000000e+00 1.518987341771937e+01 1.000000000000000e+00 0.000000000000000e+00 1.539240506328953e+01 1.000000000000000e+00 0.000000000000000e+00 1.559493670885968e+01 1.000000000000000e+00 0.000000000000000e+00 1.579746835442984e+01 1.000000000000000e+00 0.000000000000000e+00 1.600000000000000e+01 7.500000000003469e-01 0.000000000000000e+00 1.600000000000000e+01 5.000000000013878e-01 0.000000000000000e+00 1.600000000000000e+01 2.500000000010407e-01 0.000000000000000e+00 1.579746835443066e+01 0.000000000000000e+00 0.000000000000000e+00 1.559493670886132e+01 0.000000000000000e+00 0.000000000000000e+00 1.539240506329198e+01 0.000000000000000e+00 0.000000000000000e+00 1.518987341772264e+01 0.000000000000000e+00 0.000000000000000e+00 1.498734177215330e+01 0.000000000000000e+00 0.000000000000000e+00 1.478481012658396e+01 0.000000000000000e+00 0.000000000000000e+00 1.458227848101463e+01 0.000000000000000e+00 0.000000000000000e+00 1.437974683544529e+01 0.000000000000000e+00 0.000000000000000e+00 1.417721518987595e+01 0.000000000000000e+00 0.000000000000000e+00 1.397468354430661e+01 0.000000000000000e+00 0.000000000000000e+00 1.377215189873727e+01 0.000000000000000e+00 0.000000000000000e+00 1.356962025316793e+01 0.000000000000000e+00 0.000000000000000e+00 1.336708860759859e+01 0.000000000000000e+00 0.000000000000000e+00 1.316455696202925e+01 0.000000000000000e+00 0.000000000000000e+00 1.296202531645991e+01 0.000000000000000e+00 0.000000000000000e+00 1.275949367089057e+01 0.000000000000000e+00 0.000000000000000e+00 1.255696202532123e+01 0.000000000000000e+00 0.000000000000000e+00 1.235443037975189e+01 0.000000000000000e+00 0.000000000000000e+00 1.215189873418256e+01 0.000000000000000e+00 0.000000000000000e+00 1.194936708861336e+01 0.000000000000000e+00 0.000000000000000e+00 1.174683544304458e+01 0.000000000000000e+00 0.000000000000000e+00 1.154430379747580e+01 0.000000000000000e+00 0.000000000000000e+00 1.134177215190703e+01 0.000000000000000e+00 0.000000000000000e+00 1.113924050633825e+01 0.000000000000000e+00 0.000000000000000e+00 1.093670886076947e+01 0.000000000000000e+00 0.000000000000000e+00 1.073417721520070e+01 0.000000000000000e+00 0.000000000000000e+00 1.053164556963192e+01 0.000000000000000e+00 0.000000000000000e+00 1.032911392406314e+01 0.000000000000000e+00 0.000000000000000e+00 1.012658227849436e+01 0.000000000000000e+00 0.000000000000000e+00 9.924050632925587e+00 0.000000000000000e+00 0.000000000000000e+00 9.721518987356809e+00 0.000000000000000e+00 0.000000000000000e+00 9.518987341788034e+00 0.000000000000000e+00 0.000000000000000e+00 9.316455696219256e+00 0.000000000000000e+00 0.000000000000000e+00 9.113924050650478e+00 0.000000000000000e+00 0.000000000000000e+00 8.911392405081703e+00 0.000000000000000e+00 0.000000000000000e+00 8.708860759512925e+00 0.000000000000000e+00 0.000000000000000e+00 8.506329113944147e+00 0.000000000000000e+00 0.000000000000000e+00 8.303797468375370e+00 0.000000000000000e+00 0.000000000000000e+00 8.101265822806592e+00 0.000000000000000e+00 0.000000000000000e+00 7.898734177237253e+00 0.000000000000000e+00 0.000000000000000e+00 7.696202531667353e+00 0.000000000000000e+00 0.000000000000000e+00 7.493670886097451e+00 0.000000000000000e+00 0.000000000000000e+00 7.291139240527549e+00 0.000000000000000e+00 0.000000000000000e+00 7.088607594957649e+00 0.000000000000000e+00 0.000000000000000e+00 6.886075949387747e+00 0.000000000000000e+00 0.000000000000000e+00 6.683544303817845e+00 0.000000000000000e+00 0.000000000000000e+00 6.481012658247945e+00 0.000000000000000e+00 0.000000000000000e+00 6.278481012678045e+00 0.000000000000000e+00 0.000000000000000e+00 6.075949367108143e+00 0.000000000000000e+00 0.000000000000000e+00 5.873417721538242e+00 0.000000000000000e+00 0.000000000000000e+00 5.670886075968340e+00 0.000000000000000e+00 0.000000000000000e+00 5.468354430398438e+00 0.000000000000000e+00 0.000000000000000e+00 5.265822784828536e+00 0.000000000000000e+00 0.000000000000000e+00 5.063291139258636e+00 0.000000000000000e+00 0.000000000000000e+00 4.860759493688734e+00 0.000000000000000e+00 0.000000000000000e+00 4.658227848118834e+00 0.000000000000000e+00 0.000000000000000e+00 4.455696202548932e+00 0.000000000000000e+00 0.000000000000000e+00 4.253164556979030e+00 0.000000000000000e+00 0.000000000000000e+00 4.050632911409130e+00 0.000000000000000e+00 0.000000000000000e+00 3.848101265838807e+00 0.000000000000000e+00 0.00000000000000
[...]
<PointData Scalars="pressure_p1," Vectors="" Tensors="">
<DataArray type="Float64" Name="pressure_p1" format="ascii">
-3.976136610398508e-02 -3.689018650848694e-02 -9.249281676491679e+00 -9.249112369096016e+00 -3.508067456119700e-02 -4.740849094008736e-02 -5.302597219918517e-02 -1.195817646913541e-01 -2.394692749043567e-01 -3.642300275739170e-01 -4.856211068444247e-01 -6.062014293797250e-01 -7.279641046404191e-01 -8.517941373906074e-01 -9.734718383507478e-01 -1.094022554952055e+00 -1.215215972967270e+00 -1.336640252668453e+00 -1.458139009455371e+00 -1.579700583856461e+00 -1.700933171929412e+00 -1.821530241499341e+00 -1.941234313731841e+00 -2.059413937282335e+00 -2.192050610047921e+00 -2.317002139110754e+00 -2.433213295710075e+00 -2.553343025710267e+00 -2.674374617907484e+00 -2.795749259161726e+00 -2.917303312713174e+00 -3.038739498303794e+00 -3.160206118550861e+00 -3.281834992182997e+00 -3.403386803369222e+00 -3.524918335611738e+00 -3.646563886283429e+00 -3.768158614612100e+00 -3.889746390418655e+00 -4.011342848148308e+00 -4.132756880602582e+00 -4.254291871617181e+00 -4.375180627985678e+00 -4.493005912051987e+00 -4.619997488037344e+00 -4.747860578113407e+00 -4.865933035223520e+00 -4.985545138921813e+00 -5.105413192004342e+00 -5.227201168681651e+00 -5.350638453354866e+00 -5.471077775252184e+00 -5.592266479797072e+00 -5.715484626456923e+00 -5.835888068867241e+00 -5.957128109300458e+00 -6.080361504831164e+00 -6.200730802152837e+00 -6.321945076742409e+00 -6.445121173245870e+00 -6.565418506548812e+00 -6.686680109357091e+00 -6.810025702897700e+00 -6.930734148648983e+00 -7.050326231017439e+00 -7.169688866731469e+00 -7.287900040190370e+00 -7.420720969133844e+00 -7.544580447859627e+00 -7.660932854538068e+00 -7.780878660675349e+00 -7.901029212096465e+00 -8.022899572859167e+00 -8.145740587546221e+00 -8.264902811082200e+00 -8.384530801848863e+00 -8.505042218091823e+00 -8.621251947706817e+00 -8.734196396025260e+00 -8.843465090801557e+00 -8.946653263535424e+00 -9.041228088753483e+00 -9.123859046286226e+00 -9.189632948839652e+00 -9.232208151574142e+00 -9.250292417883458e+00 -9.249712536632382e+00 -9.248484978031531e+00 -9.233760634196152e+00 -9.190871196836683e+00 -9.122915954714308e+00 -9.040724304705009e+00 -8.947176406651346e+00 -8.844573645219322e+00 -8.733109869443195e+00 -8.618523824893828e+00 -8.502791509440316e+00 -8.384635111049327e+00 -8.265118835221459e+00 -8.144809796974762e+00 -8.023846531728770e+00 -7.902680922217243e+00 -7.781754652194269e+00 -7.661928398693665e+00 -7.544917158837083e+00 -7.417391505983593e+00 -7.288151993766303e+00 -7.169997248819681e+00 -7.050335284935906e+00 -6.929866655398018e+00 -6.808823063383667e+00 -6.687337753152800e+00 -6.565833358276270e+00 -6.444329572435959e+00 -6.322644492675086e+00 -6.201010120031046e+00 -6.079407740805213e+00 -5.957716889567497e+00 -5.836120269558561e+00 -5.714592781115710e+00 -5.592985794371032e+00 -5.471469973584637e+00 -5.349947131144031e+00 -5.228316626128639e+00 -5.106966141982357e+00 -4.986150465860166e+00 -4.866121906020654e+00 -4.747848575328487e+00 -4.619430041912871e+00 -4.493752630601088e+00 -4.380384017647335e+00 -4.257728813699340e+00 -4.133890056502759e+00 -4.012903869503917e+00 -3.889637956833893e+00 -3.768595495890159e+00 -3.648046961328040e+00 -3.524883507088740e+00 -3.403918395917043e+00 -3.283334537992539e+00 -3.160136172211570e+00 -3.039179825153413e+00 -2.918574072402742e+00 -2.795163714513050e+00 -2.673582961917193e+00 -2.553563497442574e+00 -2.434140682747995e+00 -2.317119034317052e+00 -2.189128132057368e+00 -2.059824955216888e+00 -1.941719376996009e+00 -1.822303472894540e+00 -1.702615512730279e+00 -1.581368357229256e+00 -1.457916510165363e+00 -1.336965899900167e+00 -1.216114841751516e+00 -1.092492101861106e+00 -9.706205697501177e-01 -8.498172885069136e-01 -7.283606786703070e-01 -6.067621400530352e-01 -4.851062374492548e-01 -3.631776323881313e-01 -2.417666667907329e-01 -1.247336963472321e-01 -9.085858302785011e+00 -4.210954289840734e-01 -8.791450772179907e+00 -7.102431324767696e+00 -7.871476637757552e-01 -8.445725569927879e+00 -6.750050643424698e+00 -8.085387717510352e+00 -1.152565887746426e+00 -6.385335633936738e+00 -7.722354105516811e+00 -6.020051907248068e+00 -1.517906044640332e+00 -5.654872330931268e+00 -1.871108427265554e+00 -5.289716422562486e+00 -2.492969871328973e+00 -4.933564103523544e+00 -2.855183238329730e+00 -3.219657218046982e+00 -3.584404854396655e+00 -3.949308833684565e+00 -4.294034797640905e+00 -4.612954981402641e+00 -7.406013656675328e+00 -2.176557673451568e+00 -9.194452708107962e+00 -2.313065878798364e-01 -4.131373110103385e+00 -3.766933999654892e+00 -3.402273708180293e+00 -5.101756576521868e+00 -3.037695193567604e+00 -2.667952076759629e+00 -5.471319893360055e+00 -5.836248563490900e+00 -6.201578765853859e+00 -6.566222041948191e+00 -6.934969523716922e+00 -7.896633200283680e+00 -8.952330322948759e+00 -8.265065156971717e+00 -8.615384905085813e+00 -1.705030674944519e+00 -5.991838136176125e-01 -1.335376582885280e+00 -9.760680070681426e-01 -6.930918307658186e+00 -6.568003664353447e+00 -6.203068451916530e+00 -5.837528621196537e+00 -5.472821088597701e+00 -5.108223401695020e+00 -9.643687377006041e-01 -8.626611755442463e+00 -8.949494553403836e+00 -6.029608885591270e-01 -8.266484426597371e+00 -1.334612684872252e+00 -7.903681253525696e+00 -1.698665458165872e+00 -2.672491402164076e+00 -3.037014142653497e+00 -3.401293629458910e+00 -3.766247453758559e+00 -4.129839146868541e+00 -4.459765878033218e+00 -4.482061328209926e+00 -7.549927447208098e+00 -7.570302468430564e+00 -2.321588097246783e+00 -2.342232891905032e+00 -4.766479964381282e+00 -2.036869190732520e+00 -7.267171373852114e+00 -2.033084702103370e+00 -4.766530022074199e+00 -7.263461567381349e+00 -2.551569778041944e-01 -9.182923010616555e+00 -5.288939865475455e+00 -4.330458055156893e+00 -3.950578457261583e+00 -5.654128752900908e+00 -3.585726288865274e+00 -3.221009236340496e+00 -6.019196691322671e+00 -2.856128122575771e+00 -2.495419183523259e+00 -6.384107435181172e+00 -6.748980307011765e+00 -7.722020555789572e+00 -4.244231012596625e-01 -1.519149752695897e+00 -9.083786596158456e+00 -8.084466575243672e+00 -8.790040080381475e+00 -7.890106286359150e-01 -8.445631988829506e+00 -1.153240926243333e+00 -6.749250238233905e+00 -8.444285728642724e+00 -8.790853641822098e+00 -1.153949441514009e+00 -8.085402555801473e+00 -7.875863715301675e-01 -9.085537482370531e+00 -6.384745399394574e+00 -7.724106142788130e+00 -1.517915637489874e+00 -6.019480921352418e+00 -4.221949427704064e-01 -5.654591844523375e+00 -5.289926133808428e+00 -2.494036694840915e+00 -2.855747240196870e+00 -3.219934925336521e+00 -3.584676330902198e+00 -3.949672938127758e+00 -4.314000812055190e+00 -7.106844438989921e+00 -7.107319769741840e+00 -1.876939183755378e+00 -4.929459896701122e+00 -1.878276723343277e+00 -4.928606382089447e+00 -4.617574181245160e+00 -4.618804484340739e+00 -2.207567433299503e+00 -7.419656935875627e+00 -7.436647853647089e+00 -2.191083485378273e+00 -9.224979668514104e+00 -1.502222806237513e-01 -9.160703369036808e+00 -2.994268330709629e-01 -1.631679259936818e-01 -9.220825671920673e+00 -1.026187640086460e+00 -8.568138980733137e+00 -6.658930573941740e-01 -8.897303226900123e+00 -8.206024766053515e+00 -7.843456381272598e+00 -6.870246672391743e+00 -1.396259206230988e+00 -6.506457910852910e+00 -6.141347472513146e+00 -2.734242065480861e+00 -3.098331968313895e+00 -5.776237459560384e+00 -3.462978976680127e+00 -3.827903660302221e+00 -5.411665801392034e+00 -4.191956227071067e+00 -8.566886378931141e+00 -8.902386382388130e+00 -1.026973775235772e+00 -8.209742866327217e+00 -7.841948615333187e+00 -6.595865960313035e-01 -2.728347104212313e+00 -3.094083628980554e+00 -3.458607367270764e+00 -3.823499909605925e+00 -6.875516562633156e+00 -4.184152058247341e+00 -6.510534776352222e+00 -6.145609950925965e+00 -1.391771587395478e+00 -5.780117900039270e+00 -1.758228867861155e+00 -5.415290143560703e+00 -5.047960104485349e+00 -1.759079428095831e+00 -5.048118319979140e+00 -4.192424877251814e+00 -3.825131886802740e+00 -5.414110585831581e+00 -3.460455016220592e+00 -3.095723251734866e+00 -5.779022848836490e+00 -2.729612871833552e+00 -6.144077415883309e+00 -6.508790332979273e+00 -6.874571063167653e+00 -1.393524914427240e+00 -7.840403258297202e+00 -8.208588572076442e+00 -8.900699935648165e+00 -8.560429125716270e+00 -6.619613342947793e-01 -8.996379545281961e+00 -8.672271236657323e+00 -5.442268379618956e-01 -1.034049299189116e+00 -9.163631957715083e-01 -8.321568516978815e+00 -7.957566389755487e+00 -1.279163062554819e+00 -1.645652744724998e+00 -6.622940735031158e+00 -6.258275222469993e+00 -2.612882761270692e+00 -5.893274655134520e+00 -2.981579401346483e+00 -3.346303260029291e+00 -5.528321606621251e+00 -3.710925947980494e+00 -4.076104949155504e+00 -5.162062134585717e+00 -5.045553073084164e+00 -1.761858884660500e+00 -6.990549373239958e+00 -4.822529787648325e+00 -2.080439132609419e+00 -7.210625362379361e+00 -7.592377539496243e+00 -2.363600801796175e+00 -4.494775073073583e+00 -5.894194196855917e+00 -5.529284892531105e+00 -6.624434497823626e+00 -5.163180819347944e+00 -6.259734592492189e+00 -6.989704306442647e+00 -2.980325659491342e+00 -4.073484791977094e+00 -2.611809763413476e+00 -3.344594874565736e+00 -3.709400219034210e+00 -8.675248801555746e+00 -9.128851119627611e-01 -8.998109258930333e+00 -8.322241278331562e+00 -5.416564345605434e-01 -7.958735338383879e+00 -1.277764685403101e+00 -1.643794489991770e+00 -9.215114969841501e+00 -1.800939696368422e-01 -5.897642707182214e+00 -5.168398274695682e+00 -6.627708472552402e+00 -6.262905823510116e+00 -5.532939618791679e+00 -1.639239935613543e+00 -1.275025622217156e+00 -2.613579734753797e+00 -4.071058216794571e+00 -3.341577147263202e+00 -2.977238416641551e+00 -3.706419526913307e+00 -7.964180612648408e+00 -8.325596586044727e+00 -8.996384582538461e+00 -5.442950028041622e-01 -8.680051686778340e+00 -9.081176703978148e-01 -6.989689783003481e+00 -9.161711982666924e+00 -2.965415533607891e-01 -3.024643990608795e-01 -9.158626829561344e+00 -4.704216732195467e+00 -7.330352037126667e+00 -4.704427799677198e+00 -7.331185598233769e+00 -2.100994175292461e+00 -2.102203198145022e+00 -4.431172173831233e+00 -2.382268036260470e+00 -4.439919491322765e+00 -7.610125359698741e+00 -2.378630171166991e+00 -7.606510275806429e+00 -4.226513289310893e+00 -3.862867703324725e+00 -5.375785053093784e+00 -3.498083639553641e+00 -3.133411054038906e+00 -5.740745809410496e+00 -2.767581256111729e+00 -6.106023538210714e+00 -6.470849090995964e+00 -6.836433533876535e+00 -1.431319780232817e+00 -7.781485483963077e+00 -8.170611665425628e+00 -8.503889371783480e+00 -8.868226191651484e+00 -1.092650559690714e+00 -6.996412688408993e-01 -1.817198553674078e+00 -4.988953855140976e+00 -7.221119911656992e+00 -7.222140024641697e+00 -4.813602457838687e+00 -1.991665128499769e+00 -1.992927464578187e+00 -4.813395724102514e+00 -8.709426094707883e+00 -9.042387565496339e+00 -8.762489425789021e-01 -4.829232121134251e-01 -8.359876584481569e+00 -7.996560797415539e+00 -1.239627567580742e+00 -1.606144990183811e+00 -6.662167706422169e+00 -6.297533262396938e+00 -2.553610072297610e+00 -5.932303705959470e+00 -2.942217988254434e+00 -5.567276977707453e+00 -3.306727647414532e+00 -3.671394301486296e+00 -5.201056307980314e+00 -4.036152208581836e+00 -7.047125843766913e+00 -9.237340722193752e+00 -1.068134309962206e-01 -4.392275776822252e+00 -7.492779082079357e+00 -2.263966882101029e+00 -4.379933250970988e+00 -1.064536528034960e+00 -7.249522111680974e-01 -8.530809363871358e+00 -5.351857781890323e+00 -5.716587432857086e+00 -6.081828900092667e+00 -6.447137730646666e+00 -6.811341987654930e+00 -8.846566005219072e+00 -4.249036402541635e+00 -3.887637361656076e+00 -3.522587041233238e+00 -3.157914432546118e+00 -2.793689508289075e+00 -1.455842029836493e+00 -8.147043879975369e+00 -7.784145805882875e+00 -4.990665578857215e+00 -1.815137480831428e+00 -5.228888786105649e+00 -5.593803589368509e+00 -5.958730207673455e+00 -6.324350451014837e+00 -6.688991264902135e+00 -4.010184912226314e+00 -3.645339485734869e+00 -3.280463681738702e+00 -2.916484462573558e+00 -2.553298093591295e+00 -1.578663942250216e+00 -1.214087110831975e+00 -8.024890141075618e+00 -8.385313359536596e+00 -9.043363390557305e+00 -4.817322496492890e-01 -8.736550472584534e+00 -8.474009130829402e-01 -2.277309247092016e+00 -4.536217531957518e+00 -2.281389394373171e+00 -7.505332323193200e+00 -7.509449258362890e+00 -4.533277225998262e+00 -7.046919058190149e+00 -4.664763963008450e+00 -4.664140748461040e+00 -2.139215198465961e+00 -7.349030544448534e+00 -7.368709270490030e+00 -2.119384999196968e+00 -7.158725210219738e+00 -7.159646814268203e+00 -4.876073476442045e+00 -1.927784013896547e+00 -4.875588774943751e+00 -1.929233130415334e+00 -2.438375730606311e+00 -7.667127131696131e+00 -2.434279392880413e+00 -7.662841911200476e+00 -9.122733132552142e+00 -3.638331564361659e-01 -7.479154965786065e+00 -2.250419461669249e+00 -3.584418103997449e-01 -9.126419662554795e+00 -4.568337739579944e+00 -4.564334569675061e+00 -9.242511769920071e+00 -8.161425983350198e-02 -9.244559721506882e+00 -7.118880251891339e-02 -4.716641952203292e+00 -7.310757442290196e+00 -1.979577692296980e+00 
</DataArray>
</PointData>
<CellData Scalars="pressure_p0," Vectors="velocity_p0," Tensors="">
<DataArray type="Float64" Name="pressure_p0" format="ascii">