<?xml version="1.0"?>
<VTKFile type="UnstructuredGrid" version="0.1" byte_order="LittleEndian">
<UnstructuredGrid>
<Piece NumberOfPoints="567" NumberOfCells="966">
<Points>
<DataArray type="Float64" NumberOfComponents="3" format="ascii">
0.000000000000000e+00 0.000000000000000e+00 0.000000000000000e+00 0.000000000000000e+00 1.000000000000000e+00 0.000000000000000e+00 1.600000000000000e+01 1.000000000000000e+00 0.000000000000000e+00 1.600000000000000e+01 0.000000000000000e+00 0.000000000000000e+00 0.000000000000000e+00 2.499999999993998e-01 0.000000000000000e+00 0.000000000000000e+00 4.999999999990217e-01 0.000000000000000e+00 0.000000000000000e+00 7.499999999993374e-01 0.000000000000000e+00 2.025316455691341e-01 1.000000000000000e+00 0.000000000000000e+00 4.050632911382681e-01 1.000000000000000e+00 0.000000000000000e+00 6.075949367074022e-01 1.000000000000000e+00 0.000000000000000e+00 8.101265822765362e-01 1.000000000000000e+00 0.000000000000000e+00 1.012658227845670e+00 1.000000000000000e+00 0.000000000000000e+00 1.215189873414804e+00 1.000000000000000e+00 0.000000000000000e+00 1.417721518983938e+00 1.000000000000000e+00 0.000000000000000e+00 1.620253164553072e+00 1.000000000000000e+00 0.000000000000000e+00 1.822784810122207e+00 1.000000000000000e+00 0.000000000000000e+00 2.025316455691340e+00 1.000000000000000e+00 0.000000000000000e+00 2.227848101260475e+00 1.000000000000000e+00 0.000000000000000e+00 2.430379746829609e+00 1.000000000000000e+00 0.000000000000000e+00 2.632911392398743e+00 1.000000000000000e+00 0.000000000000000e+00 2.835443037967877e+00 1.000000000000000e+00 0.000000000000000e+00 3.037974683537010e+00 1.000000000000000e+00 0.000000000000000e+00 3.240506329106145e+00 1.000000000000000e+00 0.000000000000000e+00 3.443037974675279e+00 1.000000000000000e+00 0.000000000000000e+00 3.645569620244413e+00 1.000000000000000e+00 0.000000000000000e+00 3.848101265813547e+00 1.000000000000000e+00 0.000000000000000e+00 4.050632911382726e+00 1.000000000000000e+00 0.000000000000000e+00 4.253164556952040e+00 1.000000000000000e+00 0.000000000000000e+00 4.455696202521353e+00 1.000000000000000e+00 0.000000000000000e+00 4.658227848090667e+00 1.000000000000000e+00 0.000000000000000e+00 4.860759493659981e+00 1.000000000000000e+00 0.000000000000000e+00 5.063291139229296e+00 1.000000000000000e+00 0.000000000000000e+00 5.265822784798610e+00 1.000000000000000e+00 0.000000000000000e+00 5.468354430367923e+00 1.000000000000000e+00 0.000000000000000e+00 5.670886075937237e+00 1.000000000000000e+00 0.000000000000000e+00 5.873417721506551e+00 1.000000000000000e+00 0.000000000000000e+00 6.075949367075864e+00 1.000000000000000e+00 0.000000000000000e+00 6.278481012645178e+00 1.000000000000000e+00 0.000000000000000e+00 6.481012658214492e+00 1.000000000000000e+00 0.000000000000000e+00 6.683544303783806e+00 1.000000000000000e+00 0.000000000000000e+00 6.886075949353121e+00 1.000000000000000e+00 0.000000000000000e+00 7.088607594922435e+00 1.000000000000000e+00 0.000000000000000e+00 7.291139240491749e+00 1.000000000000000e+00 0.000000000000000e+00 7.493670886061063e+00 1.000000000000000e+00 0.000000000000000e+00 7.696202531630375e+00 1.000000000000000e+00 0.000000000000000e+00 7.898734177199691e+00 1.000000000000000e+00 0.000000000000000e+00 8.101265822769285e+00 1.000000000000000e+00 0.000000000000000e+00 8.303797468339161e+00 1.000000000000000e+00 0.000000000000000e+00 8.506329113909036e+00 1.000000000000000e+00 0.000000000000000e+00 8.708860759478913e+00 1.000000000000000e+00 0.000000000000000e+00 8.911392405048788e+00 1.000000000000000e+00 0.000000000000000e+00 9.113924050618664e+00 1.000000000000000e+00 0.000000000000000e+00 9.316455696188541e+00 1.000000000000000e+00 0.000000000000000e+00 9.518987341758416e+00 1.000000000000000e+00 0.000000000000000e+00 9.721518987328292e+00 1.000000000000000e+00 0.000000000000000e+00 9.924050632898169e+00 1.000000000000000e+00 0.000000000000000e+00 1.012658227846805e+01 1.000000000000000e+00 0.000000000000000e+00 1.032911392403792e+01 1.000000000000000e+00 0.000000000000000e+00 1.053164556960780e+01 1.000000000000000e+00 0.000000000000000e+00 1.073417721517767e+01 1.000000000000000e+00 0.000000000000000e+00 1.093670886074755e+01 1.000000000000000e+00 0.000000000000000e+00 1.113924050631742e+01 1.000000000000000e+00 0.000000000000000e+00 1.134177215188730e+01 1.000000000000000e+00 0.000000000000000e+00 1.154430379745718e+01 1.000000000000000e+00 0.000000000000000e+00 1.174683544302705e+01 1.000000000000000e+00 0.000000000000000e+00 1.194936708859693e+01 1.000000000000000e+00 0.000000000000000e+00 1.215189873416701e+01 1.000000000000000e+00 0.000000000000000e+00 1.235443037973717e+01 1.000000000000000e+00 0.000000000000000e+00 1.255696202530733e+01 1.000000000000000e+00 0.000000000000000e+00 1.275949367087749e+01 1.000000000000000e+00 0.000000000000000e+00 1.296202531644764e+01 1.000000000000000e+00 0.000000000000000e+00 1.316455696201780e+01 1.000000000000000e+00 0.000000000000000e+00 1.336708860758796e+01 1.000000000000000e+00 0.000000000000000e+00 1.356962025315812e+01 1.000000000000000e+00 0.000000000000000e+00 1.377215189872827e+01 1.000000000000000e+00 0.000000000000000e+00 1.397468354429843e+01 1.000000000000000e+00 0.000000000000000e+00 1.417721518986859e+01 1.000000000000000e+00 0.000000000000000e+00 1.437974683543874e+01 1.000000000000000e+00 0.000000000000000e+00 1.458227848100890e+01 1.000000000000000e+00 0.000000000000000e+00 1.478481012657906e+01 1.000000000000000e+00 0.000000000000000e+00 1.498734177214921e+01 1.000000000000000e+00 0.000000000000000e+00 1.518987341771937e+01 1.000000000000000e+00 0.000000000000000e+00 1.539240506328953e+01 1.000000000000000e+00 0.000000000000000e+00 1.559493670885968e+01 1.000000000000000e+00 0.000000000000000e+00 1.579746835442984e+01 1.000000000000000e+00 0.000000000000000e+00 1.600000000000000e+01 7.500000000003469e-01 0.000000000000000e+00 1.600000000000000e+01 5.000000000013878e-01 0.000000000000000e+00 1.600000000000000e+01 2.500000000010407e-01 0.000000000000000e+00 1.579746835443066e+01 0.000000000000000e+00 0.000000000000000e+00 1.559493670886132e+01 0.000000000000000e+00 0.000000000000000e+00 1.539240506329198e+01 0.000000000000000e+00 0.000000000000000e+00 1.518987341772264e+01 0.000000000000000e+00 0.000000000000000e+00 1.498734177215330e+01 0.000000000000000e+00 0.000000000000000e+00 1.478481012658396e+01 0.000000000000000e+00 0.000000000000000e+00 1.458227848101463e+01 0.000000000000000e+00 0.000000000000000e+00 1.437974683544529e+01 0.000000000000000e+00 0.000000000000000e+00 1.417721518987595e+01 0.000000000000000e+00 0.000000000000000e+00 1.397468354430661e+01 0.000000000000000e+00 0.000000000000000e+00 1.377215189873727e+01 0.000000000000000e+00 0.000000000000000e+00 1.356962025316793e+01 0.000000000000000e+00 0.000000000000000e+00 1.336708860759859e+01 0.000000000000000e+00 0.000000000000000e+00 1.316455696202925e+01 0.000000000000000e+00 0.000000000000000e+00 1.296202531645991e+01 0.000000000000000e+00 0.000000000000000e+00 1.275949367089057e+01 0.000000000000000e+00 0.000000000000000e+00 1.255696202532123e+01 0.000000000000000e+00 0.000000000000000e+00 1.235443037975189e+01 0.000000000000000e+00 0.000000000000000e+00 1.215189873418256e+01 0.000000000000000e+00 0.000000000000000e+00 1.194936708861336e+01 0.000000000000000e+00 0.000000000000000e+00 1.174683544304458e+01 0.000000000000000e+00 0.000000000000000e+00 1.154430379747580e+01 0.000000000000000e+00 0.000000000000000e+00 1.134177215190703e+01 0.000000000000000e+00 0.000000000000000e+00 1.113924050633825e+01 0.000000000000000e+00 0.000000000000000e+00 1.093670886076947e+01 0.000000000000000e+00 0.000000000000000e+00 1.073417721520070e+01 0.000000000000000e+00 0.000000000000000e+00 1.053164556963192e+01 0.000000000000000e+00 0.000000000000000e+00 1.032911392406314e+01 0.000000000000000e+00 0.000000000000000e+00 1.012658227849436e+01 0.000000000000000e+00 0.000000000000000e+00 9.924050632925587e+00 0.000000000000000e+00 0.000000000000000e+00 9.721518987356809e+00 0.000000000000000e+00 0.000000000000000e+00 9.518987341788034e+00 0.000000000000000e+00 0.000000000000000e+00 9.316455696219256e+00 0.000000000000000e+00 0.000000000000000e+00 9.113924050650478e+00 0.000000000000000e+00 0.000000000000000e+00 8.911392405081703e+00 0.000000000000000e+00 0.000000000000000e+00 8.708860759512925e+00 0.000000000000000e+00 0.000000000000000e+00 8.506329113944147e+00 0.000000000000000e+00 0.000000000000000e+00 8.303797468375370e+00 0.000000000000000e+00 0.000000000000000e+00 8.101265822806592e+00 0.000000000000000e+00 0.000000000000000e+00 7.898734177237253e+00 0.000000000000000e+00 0.000000000000000e+00 7.696202531667353e+00 0.000000000000000e+00 0.000000000000000e+00 7.493670886097451e+00 0.000000000000000e+00 0.000000000000000e+00 7.291139240527549e+00 0.000000000000000e+00 0.000000000000000e+00 7.088607594957649e+00 0.000000000000000e+00 0.000000000000000e+00 6.886075949387747e+00 0.000000000000000e+00 0.000000000000000e+00 6.683544303817845e+00 0.000000000000000e+00 0.000000000000000e+00 6.481012658247945e+00 0.000000000000000e+00 0.000000000000000e+00 6.278481012678045e+00 0.000000000000000e+00 0.000000000000000e+00 6.075949367108143e+00 0.000000000000000e+00 0.000000000000000e+00 5.873417721538242e+00 0.000000000000000e+00 0.000000000000000e+00 5.670886075968340e+00 0.000000000000000e+00 0.000000000000000e+00 5.468354430398438e+00 0.000000000000000e+00 0.000000000000000e+00 5.265822784828536e+00 0.000000000000000e+00 0.000000000000000e+00 5.063291139258636e+00 0.000000000000000e+00 0.000000000000000e+00 4.860759493688734e+00 0.000000000000000e+00 0.000000000000000e+00 4.658227848118834e+00 0.000000000000000e+00 0.000000000000000e+00 4.455696202548932e+00 0.000000000000000e+00 0.000000000000000e+00 4.253164556979030e+00 0.000000000000000e+00 0.000000000000000e+00 4.050632911409130e+00 0.000000000000000e+00 0.000000000000000e+00 3.848101265838807e+00 0.000000000000000e+00 0.00000000000000
[...]
<PointData Scalars="pressure_nodes_[L]," Vectors="">
<DataArray type="Float64" Name="pressure_nodes_[L]" format="ascii">
-5.962249991464350e-02 -5.532217499814218e-02 -1.375538462640105e+01 -1.375536419315372e+01 -5.262009235332127e-02 -7.111137727016620e-02 -7.951041655595341e-02 -1.793648370188843e-01 -3.591893142973391e-01 -5.463116910707901e-01 -7.283560532808436e-01 -9.091797888001565e-01 -1.091755031512434e+00 -1.277464717036368e+00 -1.459974592398190e+00 -1.640767316712437e+00 -1.822530499502002e+00 -2.004644509456928e+00 -2.186870109997524e+00 -2.369194405136770e+00 -2.551028181698485e+00 -2.731902930190472e+00 -2.911426405776206e+00 -3.088628582642426e+00 -3.287451872131852e+00 -3.474988235038363e+00 -3.649244093988404e+00 -3.829401710801347e+00 -4.010923380070550e+00 -4.192958737323193e+00 -4.375267316670405e+00 -4.557399750172428e+00 -4.739569904030807e+00 -4.921986831623568e+00 -5.104290376247461e+00 -5.286557623684407e+00 -5.468997367378882e+00 -5.651364094505555e+00 -5.833716178985572e+00 -6.016087337084359e+00 -6.198184769306319e+00 -6.380450756372459e+00 -6.561786908784956e+00 -6.738536883625355e+00 -6.928931272305693e+00 -7.120655095717574e+00 -7.297750453661808e+00 -7.477143770276517e+00 -7.656905973952276e+00 -7.839370102605216e+00 -8.024509306521299e+00 -8.205321292204857e+00 -8.386882953724800e+00 -8.571686102182767e+00 -8.752452269975993e+00 -8.934077278836911e+00 -9.118898484086811e+00 -9.299624267458542e+00 -9.481200766743168e+00 -9.665939314238372e+00 -9.846567431256588e+00 -1.002818964961500e+01 -1.021317304683111e+01 -1.039444973622999e+01 -1.057380151669738e+01 -1.075274250091297e+01 -1.092981880767137e+01 -1.112856180780719e+01 -1.131455121585018e+01 -1.148851700828970e+01 -1.166770111573578e+01 -1.184686864136028e+01 -1.202785037214511e+01 -1.220988598736863e+01 -1.238582584444367e+01 -1.256076074739813e+01 -1.273574526594859e+01 -1.290296142827389e+01 -1.306318836965846e+01 -1.321591607848762e+01 -1.335774595283648e+01 -1.348534182886194e+01 -1.359463512979337e+01 -1.367991292126815e+01 -1.373413672250327e+01 -1.375652300083366e+01 -1.375528076297709e+01 -1.375386916295242e+01 -1.373616053881419e+01 -1.368136176845520e+01 -1.359342909560124e+01 -1.348468733403295e+01 -1.335843406543956e+01 -1.321716399533579e+01 -1.306134890829131e+01 -1.289903955726259e+01 -1.273275847152900e+01 -1.256118776428121e+01 -1.238617151185339e+01 -1.220880217776920e+01 -1.202956087829453e+01 -1.184935576605295e+01 -1.166901910776851e+01 -1.149000436870616e+01 -1.131488201860182e+01 -1.112380315342852e+01 -1.093025687186997e+01 -1.075321424453302e+01 -1.057381645664493e+01 -1.039317077773024e+01 -1.021163497903812e+01 -1.002943631314065e+01 -9.847217859696157e+00 -9.664987429029480e+00 -9.482488742353997e+00 -9.300072731525521e+00 -9.117694077103351e+00 -8.935185129076507e+00 -8.752824448569902e+00 -8.570556987445981e+00 -8.388170994424170e+00 -8.205927191100567e+00 -8.023660934915778e+00 -7.841238835059049e+00 -7.659247187229782e+00 -7.478054022941536e+00 -7.298037932791879e+00 -7.120639348948476e+00 -6.928084098843496e+00 -6.739771836489731e+00 -6.569455503749291e+00 -6.385305331548725e+00 -6.199829584912164e+00 -6.018268504560019e+00 -5.833399619462488e+00 -5.652002695410506e+00 -5.471090009743836e+00 -5.286370473178068e+00 -5.105075007204010e+00 -4.924120613547836e+00 -4.739347672919608e+00 -4.558050983872938e+00 -4.377073100703717e+00 -4.191975224056161e+00 -4.009728161588831e+00 -3.829731701098263e+00 -3.650631535608401e+00 -3.475108781990557e+00 -3.283136711236853e+00 -3.089263003452893e+00 -2.912150883605896e+00 -2.733053440711364e+00 -2.553540417598686e+00 -2.371632913808563e+00 -2.186475220551689e+00 -2.005130066188132e+00 -1.823847277226369e+00 -1.638440886802291e+00 -1.455706221198301e+00 -1.274537746779913e+00 -1.092384748676152e+00 -9.100228101478537e-01 -7.275752309693168e-01 -5.447120592027317e-01 -3.626151535453442e-01 -1.870786959859146e-01 -1.354470678181574e+01 -6.315905391633212e-01 -1.314342098540823e+01 -1.065210474052256e+01 -1.180535540690133e+00 -1.265003984040810e+01 -1.012342041512156e+01 -1.212077253331348e+01 -1.728562250797251e+00 -9.576454033596059e+00 -1.158026033437280e+01 -9.028617687856805e+00 -2.276488531316959e+00 -8.480940081262604e+00 -2.806296792315363e+00 -7.933276226908862e+00 -3.738853001379125e+00 -7.399301085749895e+00 -4.282071318215917e+00 -4.828706280742318e+00 -5.375738608629737e+00 -5.923014950415898e+00 -6.440087114005654e+00 -6.918555838023424e+00 -1.110725697219901e+01 -3.264422825146280e+00 -1.368584900650335e+01 -3.469406063868347e-01 -6.196330913757888e+00 -5.649727044828024e+00 -5.102801971190866e+00 -7.651604960744918e+00 -4.555997436901773e+00 -4.001378355035620e+00 -8.205997490609034e+00 -8.753328393389051e+00 -9.301256237270248e+00 -9.848147191860805e+00 -1.040105134679722e+01 -1.184058420582851e+01 -1.336571040404432e+01 -1.238655562034401e+01 -1.289484246310436e+01 -2.557220272147717e+00 -8.986776633768799e-01 -2.002819418541709e+00 -1.463895232449891e+00 -1.039481729489050e+01 -9.850516898244450e+00 -9.303198441162497e+00 -8.754972534071808e+00 -8.207990110539704e+00 -7.661178244996387e+00 -1.446360183074261e+00 -1.291087463794659e+01 -1.336165488086105e+01 -9.043226409856350e-01 -1.238824064534518e+01 -2.001609423958847e+00 -1.185089174989838e+01 -2.547639594468767e+00 -4.008114628185780e+00 -4.554830796535874e+00 -5.101167967787823e+00 -5.648518189419545e+00 -6.193855542972805e+00 -6.688718092935142e+00 -6.722279975124246e+00 -1.132259113446787e+01 -1.135317945080067e+01 -3.481880316668026e+00 -3.512870063335779e+00 -7.148772842443182e+00 -3.054911241469497e+00 -1.089911862801878e+01 -3.049268531069389e+00 -7.148845437345319e+00 -1.089367382555048e+01 -3.827386624126230e-01 -1.367127042535126e+01 -7.932051649696426e+00 -6.494540824216846e+00 -5.924866831276024e+00 -8.479759857825437e+00 -5.377681472210948e+00 -4.830698828942874e+00 -9.027268321037777e+00 -4.283458048721495e+00 -3.742552732748019e+00 -9.574539131388635e+00 -1.012173315590315e+01 -1.157983372543166e+01 -6.365820105663842e-01 -2.278337333361509e+00 -1.354196740958296e+01 -1.211931667294584e+01 -1.314135818152315e+01 -1.183318604615708e+00 -1.264981308632109e+01 -1.729566004733799e+00 -1.012227214173674e+01 -1.264800189798388e+01 -1.314267193275619e+01 -1.730641187921959e+00 -1.212085054192069e+01 -1.181204482192507e+00 -1.354422046934693e+01 -9.575605972627830e+00 -1.158297496396948e+01 -2.276519169078771e+00 -9.027796776730860e+00 -6.332255868870599e-01 -8.480550197213546e+00 -7.933624843927713e+00 -3.740465679423507e+00 -4.282935220094918e+00 -4.829139082080268e+00 -5.376167436373832e+00 -5.923581511462475e+00 -6.469964380178109e+00 -1.065860472049541e+01 -1.065930807993372e+01 -2.815014801421810e+00 -7.393066604199945e+00 -2.817015952676037e+00 -7.391791352030380e+00 -6.925524284063055e+00 -6.927389303391870e+00 -3.310834585884931e+00 -1.112749393745202e+01 -1.115281296686460e+01 -3.286153542882748e+00 -1.372425334313577e+01 -2.253326283050504e-01 -1.364258674834664e+01 -4.491002550812128e-01 -2.447429224996189e-01 -1.371937146204125e+01 -1.539046329853166e+00 -1.282695740453687e+01 -9.986982235578901e-01 -1.329022317721039e+01 -1.229917792455975e+01 -1.176109990330669e+01 -1.030375914803689e+01 -2.094057605371095e+00 -9.758162469524370e+00 -9.210584434043126e+00 -4.100707974296584e+00 -4.646769642098579e+00 -8.663007340463743e+00 -5.193657482823209e+00 -5.740960899994626e+00 -8.116226646224034e+00 -6.286965867236790e+00 -1.282529049009479e+01 -1.329732648407028e+01 -1.540235380281092e+00 -1.230485940991320e+01 -1.175893436248651e+01 -9.892502755452927e-01 -4.091914235728787e+00 -4.640470315064835e+00 -5.187179390983669e+00 -5.734443396748822e+00 -1.031178634162648e+01 -6.275429640593424e+00 -9.764431191064530e+00 -9.217122594450966e+00 -2.087354944829512e+00 -8.668964844569290e+00 -2.636991464434773e+00 -8.121794760209555e+00 -7.570860181373465e+00 -2.638243329142356e+00 -7.571009013128306e+00 -6.287631816198687e+00 -5.736842461229392e+00 -8.119956533962975e+00 -5.189909983575676e+00 -4.642892226990030e+00 -8.667250196759769e+00 -4.093783301100730e+00 -9.214748699888389e+00 -9.761731874995560e+00 -1.031027521390158e+01 -2.089969831900544e+00 -1.175657626261970e+01 -1.230305100752145e+01 -1.329492471307987e+01 -1.281586215084162e+01 -9.928044116875201e-01 -1.342520043561245e+01 -1.297563833784126e+01 -8.162471258731590e-01 -1.550826038156309e+00 -1.374334023025936e+00 -1.246909153176302e+01 -1.193108919635119e+01 -1.918458926781174e+00 -2.468117186096757e+00 -9.932920795952429e+00 -9.386013783475898e+00 -3.918721063389979e+00 -8.838595589254455e+00 -4.471705918612953e+00 -5.018714365102798e+00 -8.291246012020354e+00 -5.565566192275370e+00 -6.113242324789729e+00 -7.741903872469052e+00 -7.567186967554528e+00 -2.642411726247042e+00 -1.048422891157707e+01 -7.232821038594865e+00 -3.120306971282043e+00 -1.081439947043368e+01 -1.138592807976057e+01 -3.544831122405396e+00 -6.741203295052464e+00 -8.840049176258814e+00 -8.292761595517469e+00 -9.935246963044937e+00 -7.743646080424006e+00 -9.388280803367993e+00 -1.048305368370871e+01 -4.469861507591031e+00 -6.109398004039230e+00 -3.917130240154326e+00 -5.016191300518310e+00 -5.563322864802924e+00 -1.298000722426917e+01 -1.369137201910652e+00 -1.342758505399754e+01 -1.247018240492055e+01 -8.123950344815927e-01 -1.193291816398418e+01 -1.916373431627203e+00 -2.465352045596214e+00 -1.371246961930870e+01 -2.701200488653147e-01 -8.845084291362072e+00 -7.751376400969003e+00 -9.940006680396571e+00 -9.392891785508120e+00 -8.298112522989493e+00 -2.458494928395595e+00 -1.912232453369610e+00 -3.919748586716861e+00 -6.105648707731440e+00 -5.011584261134190e+00 -4.465157525297686e+00 -5.558764183977966e+00 -1.194088699114995e+01 -1.247489924026454e+01 -1.342515322009649e+01 -8.163403526477399e-01 -1.298669312306390e+01 -1.361975785801602e+00 -1.048291164069532e+01 -1.364381800542907e+01 -4.447957407583763e-01 -4.536812192497597e-01 -1.363991463550992e+01 -7.055336157189092e+00 -1.099353557326944e+01 -7.055655920877433e+00 -1.099489461326405e+01 -3.151003818954860e+00 -3.152850111202523e+00 -6.645833928276089e+00 -3.572891650542069e+00 -6.658993084374560e+00 -1.141269492476353e+01 -3.567426784258747e+00 -1.140726102139296e+01 -6.338936284418455e+00 -5.793520671984146e+00 -8.062585518742797e+00 -5.246416044806842e+00 -4.699480905127889e+00 -8.609961944624745e+00 -4.150783808264756e+00 -9.157801387501017e+00 -9.704960434267800e+00 -1.025321748824100e+01 -2.146682334538843e+00 -1.166868034010068e+01 -1.224720894998108e+01 -1.273432112341369e+01 -1.325040536287137e+01 -1.638701555426525e+00 -1.049327091495587e+00 -2.725431289879009e+00 -7.482357545575480e+00 -1.082993015896024e+01 -1.083145749519600e+01 -7.219333877587309e+00 -2.987077768910184e+00 -2.988968748428245e+00 -7.219024345060094e+00 -1.302847736933554e+01 -1.348700392811520e+01 -1.314191886678997e+00 -7.243163700279625e-01 -1.252534044003635e+01 -1.198924290514427e+01 -1.859187781933486e+00 -2.408891612788744e+00 -9.991890173457364e+00 -9.445023477582133e+00 -3.829842812802696e+00 -8.897254023275607e+00 -4.412730784240970e+00 -8.349787599954348e+00 -4.959426908554510e+00 -5.506352522993481e+00 -7.800490069281856e+00 -6.053422668959179e+00 -1.056915020436283e+01 -1.374024180746860e+01 -1.602170818342204e-01 -6.587394728222875e+00 -1.123705534674002e+01 -3.395468418356281e+00 -6.568868510019399e+00 -1.596579582696256e+00 -1.087260453810833e+00 -1.277345212560405e+01 -8.026478050610343e+00 -8.573494950775213e+00 -9.121265644927865e+00 -9.669140718147478e+00 -1.021534862140992e+01 -1.322013741682512e+01 -6.372559712930304e+00 -5.830511660634057e+00 -5.283020447259961e+00 -4.736100113573650e+00 -4.189837676991986e+00 -2.183403867057528e+00 -1.221203640959022e+01 -1.167264481836124e+01 -7.484899814511463e+00 -2.722338567584772e+00 -7.842045189414701e+00 -8.389344324650319e+00 -8.936644032019171e+00 -9.484985340250761e+00 -1.003185176298773e+01 -6.014319543920918e+00 -5.467125573344798e+00 -4.919899816994848e+00 -4.374013703621992e+00 -3.829350776662218e+00 -2.367621531349150e+00 -1.820828771477011e+00 -1.203102767321856e+01 -1.256211776850474e+01 -1.348822946439352e+01 -7.225201601144384e-01 -1.306645892150101e+01 -1.270907850943288e+00 -3.415457731730489e+00 -6.803499231822869e+00 -3.421569624463802e+00 -1.125577557384526e+01 -1.126191251649620e+01 -6.799079096645054e+00 -1.056880803424714e+01 -6.996346847092250e+00 -6.995395530160008e+00 -3.208412202835637e+00 -1.102201270330556e+01 -1.105133062216329e+01 -3.178720013911824e+00 -1.073651339380138e+01 -1.073786938758867e+01 -7.313073866176759e+00 -2.891301708407854e+00 -7.312350186498658e+00 -2.893467375276764e+00 -3.657020728102687e+00 -1.149787251765313e+01 -3.650828786913880e+00 -1.149132122666291e+01 -1.359331277715882e+01 -5.457237206752097e-01 -1.121664723057558e+01 -3.375149879411506e+00 -5.376203539964365e-01 -1.359795884825922e+01 -6.851749912861998e+00 -6.845654177351069e+00 -1.374703435279506e+01 -1.224130983052712e-01 -1.374961220476491e+01 -1.067699310068467e-01 -7.074081030921728e+00 -1.096463782336513e+01 -2.969001217598985e+00 
</DataArray>
</PointData>
<CellData Scalars="pressure_elements_[L]," Vectors="velocity_elements_[L/T],">
<DataArray type="Float64" Name="pressure_elements_[L]" format="ascii">