<?xml version="1.0"?>
<VTKFile type="UnstructuredGrid" version="0.1" byte_order="LittleEndian">
<UnstructuredGrid>
<Piece NumberOfPoints="567" NumberOfCells="966">
<Points>
<DataArray type="Float64" NumberOfComponents="3" format="ascii">
0.000000000000000e+00 0.000000000000000e+00 0.000000000000000e+00 0.000000000000000e+00 1.000000000000000e+00 0.000000000000000e+00 1.600000000000000e+01 1.000000000000000e+00 0.000000000000000e+00 1.600000000000000e+01 0.000000000000000e+00 0.000000000000000e+00 0.000000000000000e+00 2.499999999993998e-01 0.000000000000000e+00 0.000000000000000e+00 4.999999999990217e-01 0.000000000000000e+00 0.000000000000000e+00 7.499999999993374e-01 0.000000000000000e+00 2.025316455691341e-01 1.000000000000000e+00 0.000000000000000e+00 4.050632911382681e-01 1.000000000000000e+00 0.000000000000000e+00 6.075949367074022e-01 1.000000000000000e+00 0.000000000000000e+00 8.101265822765362e-01 1.000000000000000e+00 0.000000000000000e+00 1.012658227845670e+00 1.000000000000000e+00 0.000000000000000e+00 1.215189873414804e+00 1.000000000000000e+00 0.000000000000000e+00 1.417721518983938e+00 1.000000000000000e+00 0.000000000000000e+00 1.620253164553072e+00 1.000000000000000e+00 0.000000000000000e+00 1.822784810122207e+00 1.000000000000000e+00 0.000000000000000e+00 2.025316455691340e+00 1.000000000000000e+00 0.000000000000000e+00 2.227848101260475e+00 1.000000000000000e+00 0.000000000000000e+00 2.430379746829609e+00 1.000000000000000e+00 0.000000000000000e+00 2.632911392398743e+00 1.000000000000000e+00 0.000000000000000e+00 2.835443037967877e+00 1.000000000000000e+00 0.000000000000000e+00 3.037974683537010e+00 1.000000000000000e+00 0.000000000000000e+00 3.240506329106145e+00 1.000000000000000e+00 0.000000000000000e+00 3.443037974675279e+00 1.000000000000000e+00 0.000000000000000e+00 3.645569620244413e+00 1.000000000000000e+00 0.000000000000000e+00 3.848101265813547e+00 1.000000000000000e+00 0.000000000000000e+00 4.050632911382726e+00 1.000000000000000e+00 0.000000000000000e+00 4.253164556952040e+00 1.000000000000000e+00 0.000000000000000e+00 4.455696202521353e+00 1.000000000000000e+00 0.000000000000000e+00 4.658227848090667e+00 1.000000000000000e+00 0.000000000000000e+00 4.860759493659981e+00 1.000000000000000e+00 0.000000000000000e+00 5.063291139229296e+00 1.000000000000000e+00 0.000000000000000e+00 5.265822784798610e+00 1.000000000000000e+00 0.000000000000000e+00 5.468354430367923e+00 1.000000000000000e+00 0.000000000000000e+00 5.670886075937237e+00 1.000000000000000e+00 0.000000000000000e+00 5.873417721506551e+00 1.000000000000000e+00 0.000000000000000e+00 6.075949367075864e+00 1.000000000000000e+00 0.000000000000000e+00 6.278481012645178e+00 1.000000000000000e+00 0.000000000000000e+00 6.481012658214492e+00 1.000000000000000e+00 0.000000000000000e+00 6.683544303783806e+00 1.000000000000000e+00 0.000000000000000e+00 6.886075949353121e+00 1.000000000000000e+00 0.000000000000000e+00 7.088607594922435e+00 1.000000000000000e+00 0.000000000000000e+00 7.291139240491749e+00 1.000000000000000e+00 0.000000000000000e+00 7.493670886061063e+00 1.000000000000000e+00 0.000000000000000e+00 7.696202531630375e+00 1.000000000000000e+00 0.000000000000000e+00 7.898734177199691e+00 1.000000000000000e+00 0.000000000000000e+00 8.101265822769285e+00 1.000000000000000e+00 0.000000000000000e+00 8.303797468339161e+00 1.000000000000000e+00 0.000000000000000e+00 8.506329113909036e+00 1.000000000000000e+00 0.000000000000000e+00 8.708860759478913e+00 1.000000000000000e+00 0.000000000000000e+00 8.911392405048788e+00 1.000000000000000e+00 0.000000000000000e+00 9.113924050618664e+00 1.000000000000000e+00 0.000000000000000e+00 9.316455696188541e+00 1.000000000000000e+00 0.000000000000000e+00 9.518987341758416e+00 1.000000000000000e+00 0.000000000000000e+00 9.721518987328292e+00 1.000000000000000e+00 0.000000000000000e+00 9.924050632898169e+00 1.000000000000000e+00 0.000000000000000e+00 1.012658227846805e+01 1.000000000000000e+00 0.000000000000000e+00 1.032911392403792e+01 1.000000000000000e+00 0.000000000000000e+00 1.053164556960780e+01 1.000000000000000e+00 0.000000000000000e+00 1.073417721517767e+01 1.000000000000000e+00 0.000000000000000e+00 1.093670886074755e+01 1.000000000000000e+00 0.000000000000000e+00 1.113924050631742e+01 1.000000000000000e+00 0.000000000000000e+00 1.134177215188730e+01 1.000000000000000e+00 0.000000000000000e+00 1.154430379745718e+01 1.000000000000000e+00 0.000000000000000e+00 1.174683544302705e+01 1.000000000000000e+00 0.000000000000000e+00 1.194936708859693e+01 1.000000000000000e+00 0.000000000000000e+00 1.215189873416701e+01 1.000000000000000e+00 0.000000000000000e+00 1.235443037973717e+01 1.000000000000000e+00 0.000000000000000e+00 1.255696202530733e+01 1.000000000000000e+00 0.000000000000000e+00 1.275949367087749e+01 1.000000000000000e+00 0.000000000000000e+00 1.296202531644764e+01 1.000000000000000e+00 0.000000000000000e+00 1.316455696201780e+01 1.000000000000000e+00 0.000000000000000e+00 1.336708860758796e+01 1.000000000000000e+00 0.000000000000000e+00 1.356962025315812e+01 1.000000000000000e+00 0.000000000000000e+00 1.377215189872827e+01 1.000000000000000e+00 0.000000000000000e+00 1.397468354429843e+01 1.000000000000000e+00 0.000000000000000e+00 1.417721518986859e+01 1.000000000000000e+00 0.000000000000000e+00 1.437974683543874e+01 1.000000000000000e+00 0.000000000000000e+00 1.458227848100890e+01 1.000000000000000e+00 0.000000000000000e+00 1.478481012657906e+01 1.000000000000000e+00 0.000000000000000e+00 1.498734177214921e+01 1.000000000000000e+00 0.000000000000000e+00 1.518987341771937e+01 1.000000000000000e+00 0.000000000000000e+00 1.539240506328953e+01 1.000000000000000e+00 0.000000000000000e+00 1.559493670885968e+01 1.000000000000000e+00 0.000000000000000e+00 1.579746835442984e+01 1.000000000000000e+00 0.000000000000000e+00 1.600000000000000e+01 7.500000000003469e-01 0.000000000000000e+00 1.600000000000000e+01 5.000000000013878e-01 0.000000000000000e+00 1.600000000000000e+01 2.500000000010407e-01 0.000000000000000e+00 1.579746835443066e+01 0.000000000000000e+00 0.000000000000000e+00 1.559493670886132e+01 0.000000000000000e+00 0.000000000000000e+00 1.539240506329198e+01 0.000000000000000e+00 0.000000000000000e+00 1.518987341772264e+01 0.000000000000000e+00 0.000000000000000e+00 1.498734177215330e+01 0.000000000000000e+00 0.000000000000000e+00 1.478481012658396e+01 0.000000000000000e+00 0.000000000000000e+00 1.458227848101463e+01 0.000000000000000e+00 0.000000000000000e+00 1.437974683544529e+01 0.000000000000000e+00 0.000000000000000e+00 1.417721518987595e+01 0.000000000000000e+00 0.000000000000000e+00 1.397468354430661e+01 0.000000000000000e+00 0.000000000000000e+00 1.377215189873727e+01 0.000000000000000e+00 0.000000000000000e+00 1.356962025316793e+01 0.000000000000000e+00 0.000000000000000e+00 1.336708860759859e+01 0.000000000000000e+00 0.000000000000000e+00 1.316455696202925e+01 0.000000000000000e+00 0.000000000000000e+00 1.296202531645991e+01 0.000000000000000e+00 0.000000000000000e+00 1.275949367089057e+01 0.000000000000000e+00 0.000000000000000e+00 1.255696202532123e+01 0.000000000000000e+00 0.000000000000000e+00 1.235443037975189e+01 0.000000000000000e+00 0.000000000000000e+00 1.215189873418256e+01 0.000000000000000e+00 0.000000000000000e+00 1.194936708861336e+01 0.000000000000000e+00 0.000000000000000e+00 1.174683544304458e+01 0.000000000000000e+00 0.000000000000000e+00 1.154430379747580e+01 0.000000000000000e+00 0.000000000000000e+00 1.134177215190703e+01 0.000000000000000e+00 0.000000000000000e+00 1.113924050633825e+01 0.000000000000000e+00 0.000000000000000e+00 1.093670886076947e+01 0.000000000000000e+00 0.000000000000000e+00 1.073417721520070e+01 0.000000000000000e+00 0.000000000000000e+00 1.053164556963192e+01 0.000000000000000e+00 0.000000000000000e+00 1.032911392406314e+01 0.000000000000000e+00 0.000000000000000e+00 1.012658227849436e+01 0.000000000000000e+00 0.000000000000000e+00 9.924050632925587e+00 0.000000000000000e+00 0.000000000000000e+00 9.721518987356809e+00 0.000000000000000e+00 0.000000000000000e+00 9.518987341788034e+00 0.000000000000000e+00 0.000000000000000e+00 9.316455696219256e+00 0.000000000000000e+00 0.000000000000000e+00 9.113924050650478e+00 0.000000000000000e+00 0.000000000000000e+00 8.911392405081703e+00 0.000000000000000e+00 0.000000000000000e+00 8.708860759512925e+00 0.000000000000000e+00 0.000000000000000e+00 8.506329113944147e+00 0.000000000000000e+00 0.000000000000000e+00 8.303797468375370e+00 0.000000000000000e+00 0.000000000000000e+00 8.101265822806592e+00 0.000000000000000e+00 0.000000000000000e+00 7.898734177237253e+00 0.000000000000000e+00 0.000000000000000e+00 7.696202531667353e+00 0.000000000000000e+00 0.000000000000000e+00 7.493670886097451e+00 0.000000000000000e+00 0.000000000000000e+00 7.291139240527549e+00 0.000000000000000e+00 0.000000000000000e+00 7.088607594957649e+00 0.000000000000000e+00 0.000000000000000e+00 6.886075949387747e+00 0.000000000000000e+00 0.000000000000000e+00 6.683544303817845e+00 0.000000000000000e+00 0.000000000000000e+00 6.481012658247945e+00 0.000000000000000e+00 0.000000000000000e+00 6.278481012678045e+00 0.000000000000000e+00 0.000000000000000e+00 6.075949367108143e+00 0.000000000000000e+00 0.000000000000000e+00 5.873417721538242e+00 0.000000000000000e+00 0.000000000000000e+00 5.670886075968340e+00 0.000000000000000e+00 0.000000000000000e+00 5.468354430398438e+00 0.000000000000000e+00 0.000000000000000e+00 5.265822784828536e+00 0.000000000000000e+00 0.000000000000000e+00 5.063291139258636e+00 0.000000000000000e+00 0.000000000000000e+00 4.860759493688734e+00 0.000000000000000e+00 0.000000000000000e+00 4.658227848118834e+00 0.000000000000000e+00 0.000000000000000e+00 4.455696202548932e+00 0.000000000000000e+00 0.000000000000000e+00 4.253164556979030e+00 0.000000000000000e+00 0.000000000000000e+00 4.050632911409130e+00 0.000000000000000e+00 0.000000000000000e+00 3.848101265838807e+00 0.000000000000000e+00 0.00000000000000
[...]
<PointData Scalars="pressure_nodes_[L]," Vectors="">
<DataArray type="Float64" Name="pressure_nodes_[L]" format="ascii">
-3.314124583471976e-02 -3.074640015236762e-02 -7.733400237753393e+00 -7.733174525136954e+00 -2.923442478603633e-02 -3.950782194801399e-02 -4.419816922780491e-02 -9.965483435175218e-02 -1.995640749414256e-01 -3.035380047293010e-01 -4.047112653493949e-01 -5.052102789494951e-01 -6.067018159289630e-01 -7.099047808946927e-01 -8.113044786586957e-01 -9.117737732002965e-01 -1.012776512491562e+00 -1.113970402515514e+00 -1.215226237884839e+00 -1.316532461960772e+00 -1.417563459478171e+00 -1.518066615699964e+00 -1.617828651454670e+00 -1.716331599632412e+00 -1.826905207168157e+00 -1.930995900669480e+00 -2.027859306529488e+00 -2.127980252908067e+00 -2.228849791639044e+00 -2.330005614294620e+00 -2.431308859829321e+00 -2.532513760302896e+00 -2.633746699830807e+00 -2.735113197302625e+00 -2.836414796225017e+00 -2.937701362709998e+00 -3.039081906739728e+00 -3.140419186301806e+00 -3.241752044274481e+00 -3.343089166526091e+00 -3.444273789595063e+00 -3.545564293109640e+00 -3.646303549198677e+00 -3.744486323895129e+00 -3.850342353793172e+00 -3.956919310597141e+00 -4.055317472074407e+00 -4.155001535424903e+00 -4.254905578791982e+00 -4.356469886336811e+00 -4.459340772828520e+00 -4.559656580773419e+00 -4.660721672606428e+00 -4.763411876987048e+00 -4.863694594381863e+00 -4.964806502778752e+00 -5.067510736338957e+00 -5.167760772925728e+00 -5.268853284840262e+00 -5.371507170799994e+00 -5.471691881866964e+00 -5.572828931314559e+00 -5.675621616245933e+00 -5.776129775082127e+00 -5.875785551661020e+00 -5.975263831516286e+00 -6.073817573658725e+00 -6.184609610361259e+00 -6.287683675741335e+00 -6.384724794350196e+00 -6.484761048062810e+00 -6.585001583468840e+00 -6.686827256055539e+00 -6.789458856176791e+00 -6.889075032695471e+00 -6.989475093897135e+00 -7.090829438608019e+00 -7.188867835888130e+00 -7.284734961477149e+00 -7.378085882345675e+00 -7.466925021370438e+00 -7.549084286008311e+00 -7.621580708787874e+00 -7.679871229287498e+00 -7.717945775359482e+00 -7.734361575431150e+00 -7.734040122109253e+00 -7.732884373863097e+00 -7.719315436729151e+00 -7.681026809351131e+00 -7.620737247409687e+00 -7.548636687806275e+00 -7.467385205357108e+00 -7.379142075755688e+00 -7.283922511098419e+00 -7.186568318913957e+00 -7.088839264862546e+00 -6.989467152764868e+00 -6.889247460920337e+00 -6.788581459174122e+00 -6.687513116269288e+00 -6.586368024511831e+00 -6.485486981102564e+00 -6.385555088950157e+00 -6.288020762617462e+00 -6.181758002281084e+00 -6.074010741577978e+00 -5.975519601407719e+00 -5.875790766913523e+00 -5.775396805355623e+00 -5.674529141164913e+00 -5.573288458753233e+00 -5.472026200782741e+00 -5.370767490602185e+00 -5.269355060494443e+00 -5.167982089228596e+00 -5.066639116067552e+00 -4.965220880083381e+00 -4.863878709865005e+00 -4.762597903072848e+00 -4.661250128670760e+00 -4.559976316492845e+00 -4.458700819397765e+00 -4.357333236807727e+00 -4.256195064660846e+00 -4.155505054734151e+00 -4.055472964467627e+00 -3.956907618978237e+00 -3.849868575295813e+00 -3.745071937609926e+00 -3.650685870118147e+00 -3.548527735713114e+00 -3.445235760688177e+00 -3.344443652327690e+00 -3.241713576764715e+00 -3.140789722516299e+00 -3.040362663973555e+00 -2.937718065778077e+00 -2.836862892762604e+00 -2.736402171743007e+00 -2.633728264408477e+00 -2.532884594603040e+00 -2.432402016727909e+00 -2.329553198743436e+00 -2.228192927923502e+00 -2.128164457929129e+00 -2.028633422986103e+00 -1.931111320700863e+00 -1.824447210161183e+00 -1.716669320749931e+00 -1.618234759546659e+00 -1.518714035661166e+00 -1.418968936944810e+00 -1.317943363241373e+00 -1.215061284255458e+00 -1.114242803439724e+00 -1.013536296884522e+00 -9.105090006161890e-01 -8.089257602729271e-01 -7.082445851953354e-01 -6.070206377620676e-01 -5.056769146088319e-01 -4.042850792069435e-01 -3.026680570971778e-01 -2.014853899532115e-01 -1.039528734241452e-01 -7.588123233013691e+00 -3.509321001821440e-01 -7.333598500044126e+00 -5.919146229221587e+00 -6.560192470441512e-01 -7.040821543182465e+00 -5.625573557016178e+00 -6.738942110320445e+00 -9.605660066849856e-01 -5.321620149769725e+00 -6.435959195980271e+00 -5.017189347563162e+00 -1.265041951886728e+00 -4.712841926887636e+00 -1.559371516738813e+00 -4.408520151275590e+00 -2.077664280963759e+00 -4.111640134981681e+00 -2.379546603539434e+00 -2.683302499954923e+00 -2.987289134121364e+00 -3.291400953829463e+00 -3.578674269879192e+00 -3.844406419303774e+00 -6.172109448004919e+00 -1.813924552001137e+00 -7.684256925321578e+00 -1.927631937497051e-01 -3.443046332419016e+00 -3.139332165426328e+00 -2.835427028285264e+00 -4.251796688124291e+00 -2.531589047017923e+00 -2.223467969903620e+00 -4.559752978520417e+00 -4.863882058322200e+00 -5.168346291458406e+00 -5.472235439982466e+00 -5.779574867047293e+00 -6.581244481118775e+00 -7.471749221401038e+00 -6.889047541557431e+00 -7.183811278443983e+00 -1.420962414836586e+00 -4.993541348928328e-01 -1.112893800664107e+00 -8.134589574874467e-01 -5.776249653245303e+00 -5.473819007313069e+00 -5.169683404100473e+00 -4.865039403420309e+00 -4.561089083323052e+00 -4.257227402267338e+00 -8.037050989786794e-01 -7.193314146250368e+00 -7.469366626496991e+00 -5.025085581789374e-01 -6.890367882087661e+00 -1.112278331555274e+00 -6.587186792672422e+00 -1.415669123584745e+00 -2.227274510335073e+00 -2.531069025574453e+00 -2.834663999807614e+00 -3.138818733887385e+00 -3.441826158442447e+00 -3.716770782598487e+00 -3.735310664997345e+00 -6.292125801138170e+00 -6.309081533856118e+00 -1.934811783173559e+00 -1.952008811584092e+00 -3.972369623976897e+00 -1.697512050924435e+00 -6.056421445058292e+00 -1.694346996694770e+00 -3.972411667371405e+00 -6.053291160432777e+00 -2.126311905944945e-01 -7.673904717494406e+00 -4.407894167596389e+00 -3.609087583729027e+00 -3.292477330493775e+00 -4.712245287831673e+00 -2.988404314644221e+00 -2.684441826503392e+00 -5.016500324060432e+00 -2.380344953170327e+00 -2.079697840512853e+00 -5.320622356059748e+00 -5.624710586901789e+00 -6.435660537444948e+00 -3.537052975575476e-01 -1.266084233402246e+00 -7.586307937966208e+00 -6.738205267975194e+00 -7.332428046648909e+00 -6.575756379999989e-01 -7.040775818838261e+00 -9.611317543333822e-01 -5.624889499876808e+00 -7.039593559682615e+00 -7.333059241429624e+00 -9.617178586592862e-01 -6.738936538503530e+00 -6.563813386604971e-01 -7.587866878270354e+00 -5.321115960258147e+00 -6.437390768356864e+00 -1.265044712358286e+00 -5.016701890294534e+00 -3.518532253501069e-01 -4.712598222086976e+00 -4.408683891572044e+00 -2.078549928203376e+00 -2.380010853573164e+00 -2.683528576048039e+00 -2.987508294445040e+00 -3.291698056616660e+00 -3.595337830013173e+00 -5.922864812706633e+00 -5.923263510920505e+00 -1.564240261734666e+00 -4.108246729342294e+00 -1.565356781828113e+00 -4.107534075658270e+00 -3.848245227019435e+00 -3.849263915529293e+00 -1.839799990409137e+00 -6.183547297351049e+00 -6.197753823069252e+00 -1.826048356773283e+00 -7.711743843006354e+00 -1.251863785883345e-01 -7.654168612182673e+00 -2.495373566002743e-01 -1.359772814239245e-01 -7.707871588779574e+00 -8.552348077082162e-01 -7.143940668617696e+00 -5.549594853220660e-01 -7.424346653507578e+00 -6.839779303944151e+00 -6.536949414552303e+00 -5.725713397395176e+00 -1.163657537608604e+00 -5.422544990727256e+00 -5.118261086741000e+00 -2.278745343481336e+00 -2.582180561033217e+00 -4.813973487129472e+00 -2.886081816510372e+00 -3.190213164911024e+00 -4.510136815322823e+00 -3.493611877034976e+00 -7.142835574488818e+00 -7.428679004528391e+00 -8.558862790259136e-01 -6.842821931654629e+00 -6.535663846030290e+00 -5.497000978584674e-01 -2.273816312181753e+00 -2.578615800547362e+00 -2.882412229279520e+00 -3.186513696278246e+00 -5.730063857324911e+00 -3.487051367649208e+00 -5.425891203095231e+00 -5.121764906545893e+00 -1.159908110661976e+00 -4.817161340978426e+00 -1.465302255457258e+00 -4.513112998597871e+00 -4.206982195918374e+00 -1.466019396782757e+00 -4.207143656290978e+00 -3.494014059791899e+00 -3.187891330930359e+00 -4.512154674618818e+00 -2.883966746414336e+00 -2.579995728887760e+00 -4.816274682344488e+00 -2.274881852002162e+00 -5.120514875085502e+00 -5.424467262839591e+00 -5.729309230915582e+00 -1.161374636214336e+00 -6.534394964428150e+00 -6.841893950532264e+00 -7.427258557830854e+00 -7.137437032085296e+00 -5.516818045077293e-01 -7.510003670459001e+00 -7.232095487539389e+00 -4.535551224998761e-01 -8.617901583608557e-01 -7.637066886111465e-01 -6.936520327603503e+00 -6.632166147771199e+00 -1.066062929778891e+00 -1.371493614910780e+00 -5.519601339410899e+00 -5.215689186546748e+00 -2.177594144098649e+00 -4.911495156063654e+00 -2.484865047314412e+00 -2.788829149845551e+00 -4.607340023571924e+00 -3.092708885332760e+00 -3.397052482350382e+00 -4.302105445439436e+00 -4.204997858758852e+00 -1.468335667138443e+00 -5.825949299881661e+00 -4.019086656711553e+00 -1.733806288517751e+00 -6.009282216824449e+00 -6.327576879832388e+00 -1.969844977020775e+00 -3.745952802062098e+00 -4.912235022739198e+00 -4.608117649481975e+00 -5.520815589595553e+00 -4.303015231696731e+00 -5.216877623906895e+00 -5.825212482859580e+00 -2.483807323927244e+00 -3.394840086986918e+00 -2.176693158783871e+00 -2.787391353044909e+00 -3.091421274525069e+00 -7.234570079266276e+00 -7.608013950384214e-01 -7.511486907732935e+00 -6.937047137282182e+00 -4.514119164238805e-01 -6.633109089176224e+00 -1.064893317952219e+00 -1.369937519794620e+00 -7.702621499573811e+00 -1.500864216825877e-01 -4.915154911701975e+00 -4.307395205705681e+00 -5.523594249841415e+00 -5.219569003401061e+00 -4.611207216396624e+00 -1.366150716850679e+00 -1.062621680816732e+00 -2.178180580507684e+00 -3.392854780103201e+00 -2.784903436095711e+00 -2.481259031141772e+00 -3.088966697434045e+00 -6.637698049020431e+00 -6.939928195448553e+00 -7.510027766487338e+00 -4.536149427523739e-01 -7.238692629635298e+00 -7.568321362175390e-01 -5.825239824489945e+00 -7.655089761639958e+00 -2.471249664265098e-01 -2.520604699153142e-01 -7.652321575791341e+00 -3.920498035117850e+00 -6.109167008344643e+00 -3.920673519745385e+00 -6.109825846857023e+00 -1.750979973265301e+00 -1.751976906375152e+00 -3.692942362290716e+00 -1.985382634080135e+00 -3.700219964551618e+00 -6.342306319896922e+00 -1.982353635666476e+00 -6.339301268770996e+00 -3.522363342096587e+00 -3.219312287789757e+00 -4.480176740391569e+00 -2.915302495607783e+00 -2.611383080871928e+00 -4.784333925357916e+00 -2.306506284352687e+00 -5.088758240926599e+00 -5.392802766058336e+00 -5.697480710024824e+00 -1.192863272378924e+00 -6.485241387470801e+00 -6.810063837938652e+00 -7.089772053775157e+00 -7.399256831917154e+00 -9.106328626945224e-01 -5.830806346798374e-01 -1.514447889139118e+00 -4.157808236291754e+00 -6.018095803970525e+00 -6.018948466924762e+00 -4.011680708747070e+00 -1.659851654957226e+00 -1.660905128309655e+00 -4.011508974461350e+00 -7.263581256107254e+00 -7.550053229010878e+00 -7.302685084620323e-01 -4.024605790744878e-01 -6.968587106910269e+00 -6.664661121044036e+00 -1.033106028480812e+00 -1.338558788729624e+00 -5.552245043906946e+00 -5.248362224826680e+00 -2.128189040549339e+00 -4.943980274736016e+00 -2.452040825866427e+00 -4.639766079479227e+00 -2.755823585401679e+00 -3.059737454410588e+00 -4.334568780554747e+00 -3.363722394014675e+00 -5.873068228895853e+00 -7.722700787080054e+00 -8.901286646052524e-02 -3.660558362440960e+00 -6.244480731660468e+00 -1.886787462653807e+00 -3.650277977531824e+00 -8.871885054438249e-01 -6.041839919560316e-01 -7.112370681242015e+00 -4.460308111784260e+00 -4.764276960980313e+00 -5.068675537874166e+00 -5.373125942377939e+00 -5.676648325796891e+00 -7.380771802205855e+00 -3.541186687226783e+00 -3.240007070862141e+00 -2.935771251113917e+00 -2.631847019689027e+00 -2.328298904740337e+00 -1.213318614399720e+00 -6.790470150517637e+00 -6.487461326307844e+00 -4.159242783262700e+00 -1.512730786688395e+00 -4.357826351465504e+00 -4.661948375828434e+00 -4.966084538360014e+00 -5.270796279270886e+00 -5.574686664165456e+00 -3.342133645776891e+00 -3.038072628119832e+00 -2.733979860036203e+00 -2.430634396508221e+00 -2.127936739733621e+00 -1.315674262141590e+00 -1.011838409556227e+00 -6.688410942517203e+00 -6.990055947901999e+00 -7.550933017069717e+00 -4.014713619470811e-01 -7.286754817665135e+00 -7.062325887259682e-01 -1.897914809326395e+00 -3.780446312906264e+00 -1.901317701404018e+00 -6.254970869004498e+00 -6.258412358050698e+00 -3.778000120372912e+00 -5.872905218289872e+00 -3.887555485139694e+00 -3.887041268176999e+00 -1.782804690475486e+00 -6.124573235833856e+00 -6.141028051229573e+00 -1.766262600609764e+00 -5.966057678068573e+00 -5.966834064857497e+00 -4.063728198946101e+00 -1.606603331753065e+00 -4.063323504816424e+00 -1.607813644214224e+00 -2.032149583979387e+00 -6.389855814083436e+00 -2.028751360668013e+00 -6.386330546754754e+00 -7.620528683515059e+00 -3.032046950986877e-01 -6.233125743141947e+00 -1.875497168734162e+00 -2.987172823310172e-01 -7.623845012793947e+00 -3.807187270442105e+00 -3.803881307696527e+00 -7.727243521117854e+00 -6.801518572760233e-02 -7.729086933551352e+00 -5.932887831648860e-02 -3.930814198780659e+00 -6.092681688175333e+00 -1.649760763381192e+00 
</DataArray>
</PointData>
<CellData Scalars="pressure_elements_[L]," Vectors="velocity_elements_[L/T],">
<DataArray type="Float64" Name="pressure_elements_[L]" format="ascii">