<?xml version="1.0"?>
<VTKFile type="UnstructuredGrid" version="0.1" byte_order="LittleEndian">
<UnstructuredGrid>
<Piece NumberOfPoints="567" NumberOfCells="966">
<Points>
<DataArray type="Float64" NumberOfComponents="3" format="ascii">
0.000000000000000e+00 0.000000000000000e+00 0.000000000000000e+00 0.000000000000000e+00 1.000000000000000e+00 0.000000000000000e+00 1.600000000000000e+01 1.000000000000000e+00 0.000000000000000e+00 1.600000000000000e+01 0.000000000000000e+00 0.000000000000000e+00 0.000000000000000e+00 2.499999999993998e-01 0.000000000000000e+00 0.000000000000000e+00 4.999999999990217e-01 0.000000000000000e+00 0.000000000000000e+00 7.499999999993374e-01 0.000000000000000e+00 2.025316455691341e-01 1.000000000000000e+00 0.000000000000000e+00 4.050632911382681e-01 1.000000000000000e+00 0.000000000000000e+00 6.075949367074022e-01 1.000000000000000e+00 0.000000000000000e+00 8.101265822765362e-01 1.000000000000000e+00 0.000000000000000e+00 1.012658227845670e+00 1.000000000000000e+00 0.000000000000000e+00 1.215189873414804e+00 1.000000000000000e+00 0.000000000000000e+00 1.417721518983938e+00 1.000000000000000e+00 0.000000000000000e+00 1.620253164553072e+00 1.000000000000000e+00 0.000000000000000e+00 1.822784810122207e+00 1.000000000000000e+00 0.000000000000000e+00 2.025316455691340e+00 1.000000000000000e+00 0.000000000000000e+00 2.227848101260475e+00 1.000000000000000e+00 0.000000000000000e+00 2.430379746829609e+00 1.000000000000000e+00 0.000000000000000e+00 2.632911392398743e+00 1.000000000000000e+00 0.000000000000000e+00 2.835443037967877e+00 1.000000000000000e+00 0.000000000000000e+00 3.037974683537010e+00 1.000000000000000e+00 0.000000000000000e+00 3.240506329106145e+00 1.000000000000000e+00 0.000000000000000e+00 3.443037974675279e+00 1.000000000000000e+00 0.000000000000000e+00 3.645569620244413e+00 1.000000000000000e+00 0.000000000000000e+00 3.848101265813547e+00 1.000000000000000e+00 0.000000000000000e+00 4.050632911382726e+00 1.000000000000000e+00 0.000000000000000e+00 4.253164556952040e+00 1.000000000000000e+00 0.000000000000000e+00 4.455696202521353e+00 1.000000000000000e+00 0.000000000000000e+00 4.658227848090667e+00 1.000000000000000e+00 0.000000000000000e+00 4.860759493659981e+00 1.000000000000000e+00 0.000000000000000e+00 5.063291139229296e+00 1.000000000000000e+00 0.000000000000000e+00 5.265822784798610e+00 1.000000000000000e+00 0.000000000000000e+00 5.468354430367923e+00 1.000000000000000e+00 0.000000000000000e+00 5.670886075937237e+00 1.000000000000000e+00 0.000000000000000e+00 5.873417721506551e+00 1.000000000000000e+00 0.000000000000000e+00 6.075949367075864e+00 1.000000000000000e+00 0.000000000000000e+00 6.278481012645178e+00 1.000000000000000e+00 0.000000000000000e+00 6.481012658214492e+00 1.000000000000000e+00 0.000000000000000e+00 6.683544303783806e+00 1.000000000000000e+00 0.000000000000000e+00 6.886075949353121e+00 1.000000000000000e+00 0.000000000000000e+00 7.088607594922435e+00 1.000000000000000e+00 0.000000000000000e+00 7.291139240491749e+00 1.000000000000000e+00 0.000000000000000e+00 7.493670886061063e+00 1.000000000000000e+00 0.000000000000000e+00 7.696202531630375e+00 1.000000000000000e+00 0.000000000000000e+00 7.898734177199691e+00 1.000000000000000e+00 0.000000000000000e+00 8.101265822769285e+00 1.000000000000000e+00 0.000000000000000e+00 8.303797468339161e+00 1.000000000000000e+00 0.000000000000000e+00 8.506329113909036e+00 1.000000000000000e+00 0.000000000000000e+00 8.708860759478913e+00 1.000000000000000e+00 0.000000000000000e+00 8.911392405048788e+00 1.000000000000000e+00 0.000000000000000e+00 9.113924050618664e+00 1.000000000000000e+00 0.000000000000000e+00 9.316455696188541e+00 1.000000000000000e+00 0.000000000000000e+00 9.518987341758416e+00 1.000000000000000e+00 0.000000000000000e+00 9.721518987328292e+00 1.000000000000000e+00 0.000000000000000e+00 9.924050632898169e+00 1.000000000000000e+00 0.000000000000000e+00 1.012658227846805e+01 1.000000000000000e+00 0.000000000000000e+00 1.032911392403792e+01 1.000000000000000e+00 0.000000000000000e+00 1.053164556960780e+01 1.000000000000000e+00 0.000000000000000e+00 1.073417721517767e+01 1.000000000000000e+00 0.000000000000000e+00 1.093670886074755e+01 1.000000000000000e+00 0.000000000000000e+00 1.113924050631742e+01 1.000000000000000e+00 0.000000000000000e+00 1.134177215188730e+01 1.000000000000000e+00 0.000000000000000e+00 1.154430379745718e+01 1.000000000000000e+00 0.000000000000000e+00 1.174683544302705e+01 1.000000000000000e+00 0.000000000000000e+00 1.194936708859693e+01 1.000000000000000e+00 0.000000000000000e+00 1.215189873416701e+01 1.000000000000000e+00 0.000000000000000e+00 1.235443037973717e+01 1.000000000000000e+00 0.000000000000000e+00 1.255696202530733e+01 1.000000000000000e+00 0.000000000000000e+00 1.275949367087749e+01 1.000000000000000e+00 0.000000000000000e+00 1.296202531644764e+01 1.000000000000000e+00 0.000000000000000e+00 1.316455696201780e+01 1.000000000000000e+00 0.000000000000000e+00 1.336708860758796e+01 1.000000000000000e+00 0.000000000000000e+00 1.356962025315812e+01 1.000000000000000e+00 0.000000000000000e+00 1.377215189872827e+01 1.000000000000000e+00 0.000000000000000e+00 1.397468354429843e+01 1.000000000000000e+00 0.000000000000000e+00 1.417721518986859e+01 1.000000000000000e+00 0.000000000000000e+00 1.437974683543874e+01 1.000000000000000e+00 0.000000000000000e+00 1.458227848100890e+01 1.000000000000000e+00 0.000000000000000e+00 1.478481012657906e+01 1.000000000000000e+00 0.000000000000000e+00 1.498734177214921e+01 1.000000000000000e+00 0.000000000000000e+00 1.518987341771937e+01 1.000000000000000e+00 0.000000000000000e+00 1.539240506328953e+01 1.000000000000000e+00 0.000000000000000e+00 1.559493670885968e+01 1.000000000000000e+00 0.000000000000000e+00 1.579746835442984e+01 1.000000000000000e+00 0.000000000000000e+00 1.600000000000000e+01 7.500000000003469e-01 0.000000000000000e+00 1.600000000000000e+01 5.000000000013878e-01 0.000000000000000e+00 1.600000000000000e+01 2.500000000010407e-01 0.000000000000000e+00 1.579746835443066e+01 0.000000000000000e+00 0.000000000000000e+00 1.559493670886132e+01 0.000000000000000e+00 0.000000000000000e+00 1.539240506329198e+01 0.000000000000000e+00 0.000000000000000e+00 1.518987341772264e+01 0.000000000000000e+00 0.000000000000000e+00 1.498734177215330e+01 0.000000000000000e+00 0.000000000000000e+00 1.478481012658396e+01 0.000000000000000e+00 0.000000000000000e+00 1.458227848101463e+01 0.000000000000000e+00 0.000000000000000e+00 1.437974683544529e+01 0.000000000000000e+00 0.000000000000000e+00 1.417721518987595e+01 0.000000000000000e+00 0.000000000000000e+00 1.397468354430661e+01 0.000000000000000e+00 0.000000000000000e+00 1.377215189873727e+01 0.000000000000000e+00 0.000000000000000e+00 1.356962025316793e+01 0.000000000000000e+00 0.000000000000000e+00 1.336708860759859e+01 0.000000000000000e+00 0.000000000000000e+00 1.316455696202925e+01 0.000000000000000e+00 0.000000000000000e+00 1.296202531645991e+01 0.000000000000000e+00 0.000000000000000e+00 1.275949367089057e+01 0.000000000000000e+00 0.000000000000000e+00 1.255696202532123e+01 0.000000000000000e+00 0.000000000000000e+00 1.235443037975189e+01 0.000000000000000e+00 0.000000000000000e+00 1.215189873418256e+01 0.000000000000000e+00 0.000000000000000e+00 1.194936708861336e+01 0.000000000000000e+00 0.000000000000000e+00 1.174683544304458e+01 0.000000000000000e+00 0.000000000000000e+00 1.154430379747580e+01 0.000000000000000e+00 0.000000000000000e+00 1.134177215190703e+01 0.000000000000000e+00 0.000000000000000e+00 1.113924050633825e+01 0.000000000000000e+00 0.000000000000000e+00 1.093670886076947e+01 0.000000000000000e+00 0.000000000000000e+00 1.073417721520070e+01 0.000000000000000e+00 0.000000000000000e+00 1.053164556963192e+01 0.000000000000000e+00 0.000000000000000e+00 1.032911392406314e+01 0.000000000000000e+00 0.000000000000000e+00 1.012658227849436e+01 0.000000000000000e+00 0.000000000000000e+00 9.924050632925587e+00 0.000000000000000e+00 0.000000000000000e+00 9.721518987356809e+00 0.000000000000000e+00 0.000000000000000e+00 9.518987341788034e+00 0.000000000000000e+00 0.000000000000000e+00 9.316455696219256e+00 0.000000000000000e+00 0.000000000000000e+00 9.113924050650478e+00 0.000000000000000e+00 0.000000000000000e+00 8.911392405081703e+00 0.000000000000000e+00 0.000000000000000e+00 8.708860759512925e+00 0.000000000000000e+00 0.000000000000000e+00 8.506329113944147e+00 0.000000000000000e+00 0.000000000000000e+00 8.303797468375370e+00 0.000000000000000e+00 0.000000000000000e+00 8.101265822806592e+00 0.000000000000000e+00 0.000000000000000e+00 7.898734177237253e+00 0.000000000000000e+00 0.000000000000000e+00 7.696202531667353e+00 0.000000000000000e+00 0.000000000000000e+00 7.493670886097451e+00 0.000000000000000e+00 0.000000000000000e+00 7.291139240527549e+00 0.000000000000000e+00 0.000000000000000e+00 7.088607594957649e+00 0.000000000000000e+00 0.000000000000000e+00 6.886075949387747e+00 0.000000000000000e+00 0.000000000000000e+00 6.683544303817845e+00 0.000000000000000e+00 0.000000000000000e+00 6.481012658247945e+00 0.000000000000000e+00 0.000000000000000e+00 6.278481012678045e+00 0.000000000000000e+00 0.000000000000000e+00 6.075949367108143e+00 0.000000000000000e+00 0.000000000000000e+00 5.873417721538242e+00 0.000000000000000e+00 0.000000000000000e+00 5.670886075968340e+00 0.000000000000000e+00 0.000000000000000e+00 5.468354430398438e+00 0.000000000000000e+00 0.000000000000000e+00 5.265822784828536e+00 0.000000000000000e+00 0.000000000000000e+00 5.063291139258636e+00 0.000000000000000e+00 0.000000000000000e+00 4.860759493688734e+00 0.000000000000000e+00 0.000000000000000e+00 4.658227848118834e+00 0.000000000000000e+00 0.000000000000000e+00 4.455696202548932e+00 0.000000000000000e+00 0.000000000000000e+00 4.253164556979030e+00 0.000000000000000e+00 0.000000000000000e+00 4.050632911409130e+00 0.000000000000000e+00 0.000000000000000e+00 3.848101265838807e+00 0.000000000000000e+00 0.00000000000000
[...]
<PointData Scalars="pressure_p1," Vectors="">
<DataArray type="Float64" Name="pressure_p1" format="ascii">
-6.666262585216173e-03 -6.178192436744171e-03 -1.578328774192705e+00 -1.577815329686391e+00 -5.854721196502165e-03 -7.913082248117783e-03 -8.896381286242851e-03 -1.996793873137250e-02 -3.997810612059680e-02 -6.080955847044999e-02 -8.110710211455895e-02 -1.012703493892747e-01 -1.216649682104748e-01 -1.423491077581117e-01 -1.626299640931375e-01 -1.827714139637504e-01 -2.030137229594149e-01 -2.232915418692646e-01 -2.435845629433445e-01 -2.638805294049542e-01 -2.841145468192133e-01 -3.042471620562409e-01 -3.242426568249967e-01 -3.440357921964352e-01 -3.663445551237553e-01 -3.869770570717077e-01 -4.064418449769092e-01 -4.265259987821783e-01 -4.467480926881491e-01 -4.670313493087345e-01 -4.873361608457041e-01 -5.076187686969517e-01 -5.279177242557723e-01 -5.482354468623777e-01 -5.685358186569415e-01 -5.888423431000689e-01 -6.091651055102382e-01 -6.294756949981574e-01 -6.497938075384387e-01 -6.701030189318394e-01 -6.903814216123979e-01 -7.107010909646049e-01 -7.308431840107930e-01 -7.504518604572837e-01 -7.717558352116827e-01 -7.931701996563159e-01 -8.128601970124842e-01 -8.328301397944924e-01 -8.528769468020849e-01 -8.735462496816345e-01 -8.941551702434459e-01 -9.139802931537155e-01 -9.345525740094617e-01 -9.551318450444044e-01 -9.749316268111570e-01 -9.955300148851727e-01 -1.016116399091976e+00 -1.035889813789247e+00 -1.056497751317865e+00 -1.077066609267787e+00 -1.096807279227877e+00 -1.117456789276010e+00 -1.138050920523332e+00 -1.157771505626092e+00 -1.177692526035748e+00 -1.197637690303120e+00 -1.217552255290347e+00 -1.240177358489567e+00 -1.260010541021837e+00 -1.279653444288245e+00 -1.299792528027057e+00 -1.319959102576918e+00 -1.340886352378825e+00 -1.361502585625014e+00 -1.381129019386951e+00 -1.401886482532551e+00 -1.422540213508610e+00 -1.442286686843587e+00 -1.462434006022005e+00 -1.482674272937590e+00 -1.502833917303484e+00 -1.522809731531310e+00 -1.542149266272728e+00 -1.559514167136800e+00 -1.572180595879731e+00 -1.579014301672256e+00 -1.580208868644111e+00 -1.579480161137566e+00 -1.572539629053352e+00 -1.560229728104676e+00 -1.541865082286012e+00 -1.522664431008814e+00 -1.502982694188301e+00 -1.483462729000527e+00 -1.462832618362295e+00 -1.441856286569259e+00 -1.421678528476540e+00 -1.401427636515975e+00 -1.381129693461715e+00 -1.360848649884638e+00 -1.340524576161722e+00 -1.320184682645054e+00 -1.299916501516526e+00 -1.279818719861428e+00 -1.260352253825089e+00 -1.239240342420753e+00 -1.217502853393838e+00 -1.197681258911220e+00 -1.177692989111482e+00 -1.157589917780758e+00 -1.137408969682766e+00 -1.117133423411037e+00 -1.096829047859396e+00 -1.076541821863875e+00 -1.056215299982044e+00 -1.035885437527681e+00 -1.015578564765218e+00 -9.952515515783776e-01 -9.749279637320822e-01 -9.546328096538134e-01 -9.343206668122291e-01 -9.140122972716275e-01 -8.937212257843976e-01 -8.734012970013211e-01 -8.531114698748624e-01 -8.329236695695889e-01 -8.128806977595427e-01 -7.931596094121397e-01 -7.716518273225890e-01 -7.503829357078128e-01 -7.319328982168744e-01 -7.117666710616288e-01 -6.906538599129779e-01 -6.706251780708343e-01 -6.500293266400082e-01 -6.295757215405592e-01 -6.096329889769807e-01 -5.890630351302863e-01 -5.686483502461305e-01 -5.486812538379102e-01 -5.281053295160220e-01 -5.077120136116571e-01 -4.877199079995087e-01 -4.671133002260277e-01 -4.466327224562496e-01 -4.265672485838212e-01 -4.066050285296930e-01 -3.870893545781992e-01 -3.657452390693796e-01 -3.440769580817988e-01 -3.243295927511816e-01 -3.043899546047726e-01 -2.844114929860127e-01 -2.642625257762023e-01 -2.436494295092059e-01 -2.233524285852672e-01 -2.032197299576362e-01 -1.825724316046486e-01 -1.621449477007272e-01 -1.419582647599410e-01 -1.216726682729933e-01 -1.013570594049263e-01 -8.102886296379751e-02 -6.066057275812473e-02 -4.038689007803901e-02 -2.084567694934778e-02 -1.532861830490596e+00 -7.031455012312020e-02 -1.473114833857908e+00 -1.186087702920475e+00 -1.315136965086746e-01 -1.411970522321573e+00 -1.127714526180066e+00 -1.350988573202037e+00 -1.925624186112817e-01 -1.066779353328985e+00 -1.290034976292755e+00 -1.005755551941067e+00 -2.536007626402996e-01 -9.447373045094671e-01 -3.124608559735157e-01 -8.837430835369470e-01 -4.164438724390159e-01 -8.239502918799947e-01 -4.770063001245815e-01 -5.378949860231015e-01 -5.988371849043846e-01 -6.597929868957753e-01 -7.172818074225799e-01 -7.702592586064653e-01 -1.236514563490855e+00 -3.634142681984989e-01 -1.561501076597818e+00 -3.861896423941042e-02 -6.897753664781416e-01 -6.289367800161473e-01 -5.680493219157233e-01 -8.519594711941000e-01 -5.071737749724062e-01 -4.455317210658896e-01 -9.134967889546076e-01 -9.744307329484149e-01 -1.035429449899532e+00 -1.096315796354645e+00 -1.158060773294479e+00 -1.318787621591543e+00 -1.503540909747848e+00 -1.380361335300203e+00 -1.440818897200445e+00 -2.847189445152520e-01 -1.000601851011302e-01 -2.229643291133665e-01 -1.630189779819729e-01 -1.157647747788447e+00 -1.097115006782062e+00 -1.036162298522733e+00 -9.751014709190092e-01 -9.141756798515893e-01 -8.532462649496552e-01 -1.610488330426511e-01 -1.442788720811324e+00 -1.503327097044334e+00 -1.007219038642617e-01 -1.381249877222055e+00 -2.229426636068613e-01 -1.320275783033089e+00 -2.837136977528821e-01 -4.464072584216321e-01 -5.072989553598192e-01 -5.681568361284729e-01 -6.291200358421333e-01 -6.898135199115892e-01 -7.448383696260024e-01 -7.483578056291288e-01 -1.260839701637645e+00 -1.264094560604677e+00 -3.877170103343477e-01 -3.911208221376228e-01 -7.959508469475428e-01 -3.401161510812453e-01 -1.213488356935787e+00 -3.394290844172176e-01 -7.959609326745095e-01 -1.212675726165754e+00 -4.256324622217311e-02 -1.557756274885425e+00 -8.837162817007539e-01 -7.236525720800613e-01 -6.600922786214515e-01 -9.447241987536649e-01 -5.991245913116751e-01 -5.381817572450189e-01 -1.005726409895112e+00 -4.772172637133126e-01 -4.168119784997152e-01 -1.066697706274847e+00 -1.127674280877790e+00 -1.289868102131837e+00 -7.087227672970803e-02 -2.538364746206526e-01 -1.532382173572967e+00 -1.350992664306354e+00 -1.473036359618776e+00 -1.318428697174560e-01 -1.412115001250031e+00 -1.926914510141657e-01 -1.127496823785726e+00 -1.411635274384061e+00 -1.472843749412117e+00 -1.927853923417518e-01 -1.350896272358739e+00 -1.315695197971078e-01 -1.532911455634001e+00 -1.066619973406354e+00 -1.290171228155181e+00 -2.535762379111866e-01 -1.005601746021024e+00 -7.051772548118573e-02 -9.446393333714306e-01 -8.837203485160324e-01 -4.166009659430254e-01 -4.770691785330173e-01 -5.379134151055295e-01 -5.988469247224217e-01 -6.598230494942450e-01 -7.207347211222189e-01 -1.187019906982647e+00 -1.187117599080828e+00 -3.134808512634092e-01 -8.233963880636973e-01 -3.137116541879597e-01 -8.232490472005370e-01 -7.709659514050793e-01 -7.711410957221057e-01 -3.687497640610860e-01 -1.239128440121444e+00 -1.242182745979305e+00 -3.659302082516437e-01 -1.571859985363777e+00 -2.506585359663943e-02 -1.551664123692664e+00 -5.001013244196282e-02 -2.724106766053547e-02 -1.569590266487138e+00 -1.714202031691786e-01 -1.432892887042297e+00 -1.112421962639144e-01 -1.493044454393315e+00 -1.371157038781214e+00 -1.310231139562236e+00 -1.147645564082904e+00 -2.332558715672151e-01 -1.086921907496728e+00 -1.025931947959751e+00 -4.567582295149838e-01 -5.175844888806324e-01 -9.649344060544628e-01 -5.785030564576616e-01 -6.394686222994820e-01 -9.040311596462008e-01 -7.002786957300308e-01 -1.432446907606773e+00 -1.493799321343449e+00 -1.715322300135693e-01 -1.371447964972182e+00 -1.309843141869771e+00 -1.101728801922164e-01 -4.556952220516857e-01 -5.167553147763604e-01 -5.776421441694026e-01 -6.385856021278143e-01 -1.148316420166640e+00 -6.986906305139171e-01 -1.087344436558719e+00 -1.026401072376857e+00 -2.324595911205793e-01 -9.653528118159983e-01 -2.936288993030501e-01 -9.044167232373129e-01 -8.430736506863820e-01 -2.938123073369776e-01 -8.432460294864595e-01 -7.004112862727521e-01 -6.389404974094542e-01 -9.043387717101554e-01 -5.780208799951502e-01 -5.170943385403196e-01 -9.652938534095249e-01 -4.559584351632796e-01 -1.026274119671004e+00 -1.087194291622774e+00 -1.148316149532855e+00 -2.327783251998541e-01 -1.309678584741166e+00 -1.371434991847323e+00 -1.493641858769452e+00 -1.431594236866671e+00 -1.105826302309939e-01 -1.513003925768395e+00 -1.451272403697653e+00 -9.089863511794506e-02 -1.727473523241439e-01 -1.530787330804950e-01 -1.390538782160883e+00 -1.329345799825588e+00 -2.136619796734833e-01 -2.748819771822581e-01 -1.106272490689511e+00 -1.045357025456784e+00 -4.364391684852010e-01 -9.843894459737267e-01 -4.980157729816863e-01 -5.589414434954255e-01 -9.234244887528177e-01 -6.198498799985441e-01 -6.808723917545766e-01 -8.622805501600356e-01 -8.427792667763162e-01 -2.942749753362345e-01 -1.167615661249307e+00 -8.053306161149968e-01 -3.473042795457022e-01 -1.203986496486774e+00 -1.268248842240181e+00 -3.948306767702784e-01 -7.507164358210977e-01 -9.844160051821270e-01 -9.234639324626520e-01 -1.106376640768237e+00 -8.623569357012392e-01 -1.045467818658085e+00 -1.167319929610289e+00 -4.977434978012347e-01 -6.802944507828297e-01 -4.362269630563965e-01 -5.585883140547835e-01 -6.195186470931596e-01 -1.451544118153780e+00 -1.524665026479144e-01 -1.513262046117936e+00 -1.390474419132801e+00 -9.046255619378285e-02 -1.329385710755882e+00 -2.134070716451271e-01 -2.745353453968751e-01 -1.566932359075415e+00 -3.007896107366316e-02 -9.852206592816778e-01 -8.633851044956021e-01 -1.107175722611665e+00 -1.046240130251632e+00 -9.242915110194801e-01 -2.738196109744037e-01 -2.130037766196853e-01 -4.365819666190229e-01 -6.800757571182099e-01 -5.582190028398033e-01 -4.973493754819476e-01 -6.191689233614796e-01 -1.330515538819595e+00 -1.391378980799129e+00 -1.513103778302314e+00 -9.092053805432593e-02 -1.452631311776344e+00 -1.516912711040759e-01 -1.167518677867720e+00 -1.552131356666818e+00 -4.949426414316450e-02 -5.048309490570718e-02 -1.551093200746124e+00 -7.856491593737109e-01 -1.224478202102972e+00 -7.856829560288513e-01 -1.224437892269229e+00 -3.509525893053934e-01 -3.511005492257937e-01 -7.400711173308973e-01 -3.978449671536702e-01 -7.414616641033840e-01 -1.270870150358439e+00 -3.972501017350101e-01 -1.270310949457028e+00 -7.058080217523574e-01 -6.451058188849923e-01 -8.977518832523842e-01 -5.841861479772075e-01 -5.232807214551946e-01 -9.587005220342734e-01 -4.622085999901350e-01 -1.019708755121208e+00 -1.080637516925259e+00 -1.141723423697486e+00 -2.390446583885174e-01 -1.299771372369303e+00 -1.364749284594909e+00 -1.421919642530391e+00 -1.487033625142562e+00 -1.825563522248224e-01 -1.168533889726508e-01 -3.034800490209504e-01 -8.332291861372222e-01 -1.206070847293102e+00 -1.206250843646237e+00 -8.040049121721946e-01 -3.326332319127063e-01 -3.328488112256885e-01 -8.039734857297148e-01 -1.457605004118094e+00 -1.522845764934450e+00 -1.463478756401091e-01 -8.064431771332241e-02 -1.396749236679249e+00 -1.335613476082409e+00 -2.070179180231158e-01 -2.682361942828451e-01 -1.112590645943559e+00 -1.051693706363324e+00 -4.265048530290322e-01 -9.907013396894641e-01 -4.913403328786363e-01 -9.297361829227473e-01 -5.522174282168558e-01 -6.131204463190194e-01 -8.686223231197301e-01 -6.740310956227253e-01 -1.176912258775655e+00 -1.574791519912561e+00 -1.782632598570019e-02 -7.337412496419404e-01 -1.251259005665222e+00 -3.780854210468874e-01 -7.317086042045765e-01 -1.777921862955575e-01 -1.211240450088792e-01 -1.426120964067667e+00 -8.941197680382079e-01 -9.550533155618152e-01 -1.016079879215269e+00 -1.077105054787279e+00 -1.137932419744191e+00 -1.483415325563313e+00 -7.098349438328183e-01 -6.495072704103739e-01 -5.885192845266026e-01 -5.275887074870073e-01 -4.667399521286066e-01 -2.432352172552520e-01 -1.361337653380541e+00 -1.300223372338927e+00 -8.335544321837428e-01 -3.031393456881756e-01 -8.735823438459857e-01 -9.345443341841030e-01 -9.955200774107013e-01 -1.056600928118952e+00 -1.117513466370800e+00 -6.699582662231442e-01 -6.090180397693158e-01 -5.480561741172848e-01 -4.872417498915136e-01 -4.264909241468459e-01 -2.637363718872741e-01 -2.028399566217613e-01 -1.340838030157411e+00 -1.401647353617582e+00 -1.523208335112846e+00 -8.045877995694435e-02 -1.462958362055381e+00 -1.415636414958913e-01 -3.803503925544413e-01 -7.574053516770461e-01 -3.810424066747633e-01 -1.253483581290568e+00 -1.254217762749833e+00 -7.569294340705440e-01 -1.176930904201683e+00 -7.787607224100866e-01 -7.786821436886370e-01 -3.571896928232276e-01 -1.226787042352716e+00 -1.230346238021248e+00 -3.537994777195742e-01 -1.195464609694879e+00 -1.195662670982582e+00 -8.143558067455520e-01 -3.219171529279274e-01 -8.142715876597943e-01 -3.221716225005736e-01 -4.072476797635941e-01 -1.280529740617250e+00 -4.066421521601454e-01 -1.280053068720068e+00 -1.541551754772300e+00 -6.072946588729667e-02 -1.248990824436113e+00 -3.758251688071211e-01 -5.985354390395490e-02 -1.542850783450358e+00 -7.626327440960191e-01 -7.621149942941043e-01 -1.575714365457673e+00 -1.363021288715823e-02 -1.576414518631397e+00 -1.190209599477961e-02 -7.875370540160169e-01 -1.220434402408008e+00 -3.305286196746768e-01 
</DataArray>
</PointData>
<CellData Scalars="pressure_p0," Vectors="velocity_p0,">
<DataArray type="Float64" Name="pressure_p0" format="ascii">