<?xml version="1.0"?>
<VTKFile type="UnstructuredGrid" version="0.1" byte_order="LittleEndian">
<UnstructuredGrid>
<Piece NumberOfPoints="567" NumberOfCells="966">
<Points>
<DataArray type="Float64" NumberOfComponents="3" format="ascii">
0.000000000000000e+00 0.000000000000000e+00 0.000000000000000e+00 0.000000000000000e+00 1.000000000000000e+00 0.000000000000000e+00 1.600000000000000e+01 1.000000000000000e+00 0.000000000000000e+00 1.600000000000000e+01 0.000000000000000e+00 0.000000000000000e+00 0.000000000000000e+00 2.499999999993998e-01 0.000000000000000e+00 0.000000000000000e+00 4.999999999990217e-01 0.000000000000000e+00 0.000000000000000e+00 7.499999999993374e-01 0.000000000000000e+00 2.025316455691341e-01 1.000000000000000e+00 0.000000000000000e+00 4.050632911382681e-01 1.000000000000000e+00 0.000000000000000e+00 6.075949367074022e-01 1.000000000000000e+00 0.000000000000000e+00 8.101265822765362e-01 1.000000000000000e+00 0.000000000000000e+00 1.012658227845670e+00 1.000000000000000e+00 0.000000000000000e+00 1.215189873414804e+00 1.000000000000000e+00 0.000000000000000e+00 1.417721518983938e+00 1.000000000000000e+00 0.000000000000000e+00 1.620253164553072e+00 1.000000000000000e+00 0.000000000000000e+00 1.822784810122207e+00 1.000000000000000e+00 0.000000000000000e+00 2.025316455691340e+00 1.000000000000000e+00 0.000000000000000e+00 2.227848101260475e+00 1.000000000000000e+00 0.000000000000000e+00 2.430379746829609e+00 1.000000000000000e+00 0.000000000000000e+00 2.632911392398743e+00 1.000000000000000e+00 0.000000000000000e+00 2.835443037967877e+00 1.000000000000000e+00 0.000000000000000e+00 3.037974683537010e+00 1.000000000000000e+00 0.000000000000000e+00 3.240506329106145e+00 1.000000000000000e+00 0.000000000000000e+00 3.443037974675279e+00 1.000000000000000e+00 0.000000000000000e+00 3.645569620244413e+00 1.000000000000000e+00 0.000000000000000e+00 3.848101265813547e+00 1.000000000000000e+00 0.000000000000000e+00 4.050632911382726e+00 1.000000000000000e+00 0.000000000000000e+00 4.253164556952040e+00 1.000000000000000e+00 0.000000000000000e+00 4.455696202521353e+00 1.000000000000000e+00 0.000000000000000e+00 4.658227848090667e+00 1.000000000000000e+00 0.000000000000000e+00 4.860759493659981e+00 1.000000000000000e+00 0.000000000000000e+00 5.063291139229296e+00 1.000000000000000e+00 0.000000000000000e+00 5.265822784798610e+00 1.000000000000000e+00 0.000000000000000e+00 5.468354430367923e+00 1.000000000000000e+00 0.000000000000000e+00 5.670886075937237e+00 1.000000000000000e+00 0.000000000000000e+00 5.873417721506551e+00 1.000000000000000e+00 0.000000000000000e+00 6.075949367075864e+00 1.000000000000000e+00 0.000000000000000e+00 6.278481012645178e+00 1.000000000000000e+00 0.000000000000000e+00 6.481012658214492e+00 1.000000000000000e+00 0.000000000000000e+00 6.683544303783806e+00 1.000000000000000e+00 0.000000000000000e+00 6.886075949353121e+00 1.000000000000000e+00 0.000000000000000e+00 7.088607594922435e+00 1.000000000000000e+00 0.000000000000000e+00 7.291139240491749e+00 1.000000000000000e+00 0.000000000000000e+00 7.493670886061063e+00 1.000000000000000e+00 0.000000000000000e+00 7.696202531630375e+00 1.000000000000000e+00 0.000000000000000e+00 7.898734177199691e+00 1.000000000000000e+00 0.000000000000000e+00 8.101265822769285e+00 1.000000000000000e+00 0.000000000000000e+00 8.303797468339161e+00 1.000000000000000e+00 0.000000000000000e+00 8.506329113909036e+00 1.000000000000000e+00 0.000000000000000e+00 8.708860759478913e+00 1.000000000000000e+00 0.000000000000000e+00 8.911392405048788e+00 1.000000000000000e+00 0.000000000000000e+00 9.113924050618664e+00 1.000000000000000e+00 0.000000000000000e+00 9.316455696188541e+00 1.000000000000000e+00 0.000000000000000e+00 9.518987341758416e+00 1.000000000000000e+00 0.000000000000000e+00 9.721518987328292e+00 1.000000000000000e+00 0.000000000000000e+00 9.924050632898169e+00 1.000000000000000e+00 0.000000000000000e+00 1.012658227846805e+01 1.000000000000000e+00 0.000000000000000e+00 1.032911392403792e+01 1.000000000000000e+00 0.000000000000000e+00 1.053164556960780e+01 1.000000000000000e+00 0.000000000000000e+00 1.073417721517767e+01 1.000000000000000e+00 0.000000000000000e+00 1.093670886074755e+01 1.000000000000000e+00 0.000000000000000e+00 1.113924050631742e+01 1.000000000000000e+00 0.000000000000000e+00 1.134177215188730e+01 1.000000000000000e+00 0.000000000000000e+00 1.154430379745718e+01 1.000000000000000e+00 0.000000000000000e+00 1.174683544302705e+01 1.000000000000000e+00 0.000000000000000e+00 1.194936708859693e+01 1.000000000000000e+00 0.000000000000000e+00 1.215189873416701e+01 1.000000000000000e+00 0.000000000000000e+00 1.235443037973717e+01 1.000000000000000e+00 0.000000000000000e+00 1.255696202530733e+01 1.000000000000000e+00 0.000000000000000e+00 1.275949367087749e+01 1.000000000000000e+00 0.000000000000000e+00 1.296202531644764e+01 1.000000000000000e+00 0.000000000000000e+00 1.316455696201780e+01 1.000000000000000e+00 0.000000000000000e+00 1.336708860758796e+01 1.000000000000000e+00 0.000000000000000e+00 1.356962025315812e+01 1.000000000000000e+00 0.000000000000000e+00 1.377215189872827e+01 1.000000000000000e+00 0.000000000000000e+00 1.397468354429843e+01 1.000000000000000e+00 0.000000000000000e+00 1.417721518986859e+01 1.000000000000000e+00 0.000000000000000e+00 1.437974683543874e+01 1.000000000000000e+00 0.000000000000000e+00 1.458227848100890e+01 1.000000000000000e+00 0.000000000000000e+00 1.478481012657906e+01 1.000000000000000e+00 0.000000000000000e+00 1.498734177214921e+01 1.000000000000000e+00 0.000000000000000e+00 1.518987341771937e+01 1.000000000000000e+00 0.000000000000000e+00 1.539240506328953e+01 1.000000000000000e+00 0.000000000000000e+00 1.559493670885968e+01 1.000000000000000e+00 0.000000000000000e+00 1.579746835442984e+01 1.000000000000000e+00 0.000000000000000e+00 1.600000000000000e+01 7.500000000003469e-01 0.000000000000000e+00 1.600000000000000e+01 5.000000000013878e-01 0.000000000000000e+00 1.600000000000000e+01 2.500000000010407e-01 0.000000000000000e+00 1.579746835443066e+01 0.000000000000000e+00 0.000000000000000e+00 1.559493670886132e+01 0.000000000000000e+00 0.000000000000000e+00 1.539240506329198e+01 0.000000000000000e+00 0.000000000000000e+00 1.518987341772264e+01 0.000000000000000e+00 0.000000000000000e+00 1.498734177215330e+01 0.000000000000000e+00 0.000000000000000e+00 1.478481012658396e+01 0.000000000000000e+00 0.000000000000000e+00 1.458227848101463e+01 0.000000000000000e+00 0.000000000000000e+00 1.437974683544529e+01 0.000000000000000e+00 0.000000000000000e+00 1.417721518987595e+01 0.000000000000000e+00 0.000000000000000e+00 1.397468354430661e+01 0.000000000000000e+00 0.000000000000000e+00 1.377215189873727e+01 0.000000000000000e+00 0.000000000000000e+00 1.356962025316793e+01 0.000000000000000e+00 0.000000000000000e+00 1.336708860759859e+01 0.000000000000000e+00 0.000000000000000e+00 1.316455696202925e+01 0.000000000000000e+00 0.000000000000000e+00 1.296202531645991e+01 0.000000000000000e+00 0.000000000000000e+00 1.275949367089057e+01 0.000000000000000e+00 0.000000000000000e+00 1.255696202532123e+01 0.000000000000000e+00 0.000000000000000e+00 1.235443037975189e+01 0.000000000000000e+00 0.000000000000000e+00 1.215189873418256e+01 0.000000000000000e+00 0.000000000000000e+00 1.194936708861336e+01 0.000000000000000e+00 0.000000000000000e+00 1.174683544304458e+01 0.000000000000000e+00 0.000000000000000e+00 1.154430379747580e+01 0.000000000000000e+00 0.000000000000000e+00 1.134177215190703e+01 0.000000000000000e+00 0.000000000000000e+00 1.113924050633825e+01 0.000000000000000e+00 0.000000000000000e+00 1.093670886076947e+01 0.000000000000000e+00 0.000000000000000e+00 1.073417721520070e+01 0.000000000000000e+00 0.000000000000000e+00 1.053164556963192e+01 0.000000000000000e+00 0.000000000000000e+00 1.032911392406314e+01 0.000000000000000e+00 0.000000000000000e+00 1.012658227849436e+01 0.000000000000000e+00 0.000000000000000e+00 9.924050632925587e+00 0.000000000000000e+00 0.000000000000000e+00 9.721518987356809e+00 0.000000000000000e+00 0.000000000000000e+00 9.518987341788034e+00 0.000000000000000e+00 0.000000000000000e+00 9.316455696219256e+00 0.000000000000000e+00 0.000000000000000e+00 9.113924050650478e+00 0.000000000000000e+00 0.000000000000000e+00 8.911392405081703e+00 0.000000000000000e+00 0.000000000000000e+00 8.708860759512925e+00 0.000000000000000e+00 0.000000000000000e+00 8.506329113944147e+00 0.000000000000000e+00 0.000000000000000e+00 8.303797468375370e+00 0.000000000000000e+00 0.000000000000000e+00 8.101265822806592e+00 0.000000000000000e+00 0.000000000000000e+00 7.898734177237253e+00 0.000000000000000e+00 0.000000000000000e+00 7.696202531667353e+00 0.000000000000000e+00 0.000000000000000e+00 7.493670886097451e+00 0.000000000000000e+00 0.000000000000000e+00 7.291139240527549e+00 0.000000000000000e+00 0.000000000000000e+00 7.088607594957649e+00 0.000000000000000e+00 0.000000000000000e+00 6.886075949387747e+00 0.000000000000000e+00 0.000000000000000e+00 6.683544303817845e+00 0.000000000000000e+00 0.000000000000000e+00 6.481012658247945e+00 0.000000000000000e+00 0.000000000000000e+00 6.278481012678045e+00 0.000000000000000e+00 0.000000000000000e+00 6.075949367108143e+00 0.000000000000000e+00 0.000000000000000e+00 5.873417721538242e+00 0.000000000000000e+00 0.000000000000000e+00 5.670886075968340e+00 0.000000000000000e+00 0.000000000000000e+00 5.468354430398438e+00 0.000000000000000e+00 0.000000000000000e+00 5.265822784828536e+00 0.000000000000000e+00 0.000000000000000e+00 5.063291139258636e+00 0.000000000000000e+00 0.000000000000000e+00 4.860759493688734e+00 0.000000000000000e+00 0.000000000000000e+00 4.658227848118834e+00 0.000000000000000e+00 0.000000000000000e+00 4.455696202548932e+00 0.000000000000000e+00 0.000000000000000e+00 4.253164556979030e+00 0.000000000000000e+00 0.000000000000000e+00 4.050632911409130e+00 0.000000000000000e+00 0.000000000000000e+00 3.848101265838807e+00 0.000000000000000e+00 0.00000000000000
[...]
<PointData Scalars="pressure_p1," Vectors="" Tensors="">
<DataArray type="Float64" Name="pressure_p1" format="ascii">
-8.610510791672438e-02 -7.989926627300491e-02 -1.968135019353676e+01 -1.968149445522668e+01 -7.600697042596892e-02 -1.027165757658501e-01 -1.148244675808180e-01 -2.590788554553849e-01 -5.188220236676021e-01 -7.890959006873196e-01 -1.052013634964853e+00 -1.313163161327961e+00 -1.576822226929415e+00 -1.845038380909520e+00 -2.108658080319057e+00 -2.369774238444917e+00 -2.632298208305669e+00 -2.895332606760059e+00 -3.158528753867026e+00 -3.421872676713698e+00 -3.684510658976636e+00 -3.945758208956295e+00 -4.205045210587944e+00 -4.460948613573041e+00 -4.748020239377544e+00 -5.018998330464892e+00 -5.270643661145756e+00 -5.530835436356316e+00 -5.793006218248469e+00 -6.055918789454929e+00 -6.319232407161543e+00 -6.582292632860583e+00 -6.845400748708419e+00 -7.108870094568757e+00 -7.372177725095113e+00 -7.635428069426612e+00 -7.898930326745852e+00 -8.162329393754373e+00 -8.425703290718575e+00 -8.689112037489567e+00 -8.952125822994228e+00 -9.215368525566030e+00 -9.477300976421372e+00 -9.732617552805989e+00 -1.000754924286941e+01 -1.028441501673876e+01 -1.054020420801888e+01 -1.079930538352675e+01 -1.105892230456575e+01 -1.132228197983248e+01 -1.158968736929321e+01 -1.185099439570824e+01 -1.211305181658499e+01 -1.237996748202554e+01 -1.264121626986282e+01 -1.290335195244162e+01 -1.317028484082077e+01 -1.343147719154324e+01 -1.369352152579344e+01 -1.396031570057944e+01 -1.422134024768532e+01 -1.448337310776303e+01 -1.475042733770856e+01 -1.501229165888189e+01 -1.527107129966822e+01 -1.552908234410511e+01 -1.578412205580357e+01 -1.606990216355423e+01 -1.633758891845638e+01 -1.658693480606232e+01 -1.684315995179707e+01 -1.709850768500094e+01 -1.735511131417426e+01 -1.761208139387930e+01 -1.785903635097757e+01 -1.810223449215732e+01 -1.834349261866976e+01 -1.857183917133105e+01 -1.878788649237447e+01 -1.899116624305505e+01 -1.917731766582768e+01 -1.934230443821203e+01 -1.948145901183794e+01 -1.958840361057901e+01 -1.965550094658149e+01 -1.968262996795493e+01 -1.968065836141487e+01 -1.967904424221021e+01 -1.965804812875607e+01 -1.959009028127063e+01 -1.947996470191932e+01 -1.934148320905709e+01 -1.917819257212063e+01 -1.899256794078992e+01 -1.878515492516861e+01 -1.856649812276742e+01 -1.833962929775727e+01 -1.810306994142879e+01 -1.785955101179576e+01 -1.761081488203706e+01 -1.735780761807074e+01 -1.710208080571748e+01 -1.684505505516471e+01 -1.658906348472157e+01 -1.633791374738260e+01 -1.606326185326425e+01 -1.578479819698566e+01 -1.552976622401911e+01 -1.527109944117721e+01 -1.501047329646157e+01 -1.474844821678455e+01 -1.448540970426997e+01 -1.422231055042205e+01 -1.395915483134437e+01 -1.369559840387726e+01 -1.343215588725349e+01 -1.316875038742287e+01 -1.290515586012981e+01 -1.264177914945867e+01 -1.237852548242380e+01 -1.211510176166266e+01 -1.185188864606982e+01 -1.158863231261139e+01 -1.132515781640492e+01 -1.106231640588427e+01 -1.080062260466341e+01 -1.054062443825777e+01 -1.028439664241958e+01 -1.000632784171585e+01 -9.734498951290131e+00 -9.488254497984647e+00 -9.222115596014639e+00 -8.954454368329415e+00 -8.692119386982597e+00 -8.425107425319680e+00 -8.163234360055728e+00 -7.901833230168318e+00 -7.635035618022457e+00 -7.373297339568492e+00 -7.111847198305014e+00 -6.844973384018028e+00 -6.583222870784585e+00 -6.321749575965241e+00 -6.054403383848586e+00 -5.791272202725075e+00 -5.531310830002564e+00 -5.272644298922012e+00 -5.019124442149673e+00 -4.741847559714141e+00 -4.461877792991882e+00 -4.206086641133892e+00 -3.947411876306309e+00 -3.688130019983491e+00 -3.425338721478770e+00 -3.157903791642838e+00 -2.896031220453901e+00 -2.634171610262960e+00 -2.366385571908065e+00 -2.102499767630658e+00 -1.840844712635528e+00 -1.577762853559631e+00 -1.314382459722677e+00 -1.050878045716130e+00 -7.867664359173356e-01 -5.237523050566157e-01 -2.702085764798474e-01 -1.941822055311005e+01 -9.122609276891119e-01 -1.889494367495950e+01 -1.538416964991319e+01 -1.705066125469511e+00 -1.822582266304519e+01 -1.462103971913035e+01 -1.748668233796478e+01 -2.496572317192320e+00 -1.383125200565770e+01 -1.671818684491132e+01 -1.304005141355201e+01 -3.287951184432598e+00 -1.224904912644645e+01 -4.053242743442904e+00 -1.145804583956108e+01 -5.400056964160303e+00 -1.068698414468430e+01 -6.184603477585192e+00 -6.974119167458811e+00 -7.764204544846840e+00 -8.554655095621611e+00 -9.301533915213279e+00 -9.992741728645880e+00 -1.603991628713515e+01 -4.714942747447574e+00 -1.959558524926449e+01 -5.011254897131864e-01 -8.949646105015328e+00 -8.160141958805786e+00 -7.370188182561363e+00 -1.105142989484664e+01 -6.580412228347725e+00 -5.779298188155054e+00 -1.185225213597529e+01 -1.264278309753179e+01 -1.343415770347706e+01 -1.422395877086713e+01 -1.502204522167290e+01 -1.708981562732123e+01 -1.918789906077739e+01 -1.786050994364648e+01 -1.856106358019475e+01 -3.693496450962368e+00 -1.298015102248934e+00 -2.892759142225159e+00 -2.114345178325540e+00 -1.501291257348784e+01 -1.422711660728135e+01 -1.343670769257037e+01 -1.264491633574151e+01 -1.185490347024558e+01 -1.106514670273388e+01 -2.089028806449715e+00 -1.858281133295512e+01 -1.918244513786950e+01 -1.306150620189174e+00 -1.786250084076753e+01 -2.890955077766915e+00 -1.710430771963265e+01 -3.679628247811752e+00 -5.788964961593495e+00 -6.578600375463708e+00 -7.367684776209173e+00 -8.158239383475404e+00 -8.945915611604912e+00 -9.660699002890174e+00 -9.709282700693359e+00 -1.634917602981121e+01 -1.639315959137815e+01 -5.028968772715584e+00 -5.073749920145580e+00 -1.032520451071711e+01 -4.412332277934689e+00 -1.574023255714260e+01 -4.404211947440273e+00 -1.032530843114244e+01 -1.573249406672399e+01 -5.528542108887362e-01 -1.957763201063347e+01 -1.145622060281116e+01 -9.380027207723577e+00 -8.557281036115404e+00 -1.224728294276597e+01 -7.766973582977124e+00 -6.976963573088740e+00 -1.303803918590448e+01 -6.186577349100880e+00 -5.405421087571376e+00 -1.382841767463234e+01 -1.461852636072778e+01 -1.671763442521234e+01 -9.194705580240933e-01 -3.290606054354992e+00 -1.941472714188043e+01 -1.748454280806563e+01 -1.889211624429049e+01 -1.709075649818462e+00 -1.822542636382309e+01 -2.498013604781403e+00 -1.461942759685701e+01 -1.822305662993196e+01 -1.889401654272135e+01 -2.499578177859409e+00 -1.748683969196039e+01 -1.706041679849365e+00 -1.941754068071052e+01 -1.383006022577567e+01 -1.672215031553108e+01 -3.288009395813611e+00 -1.303889685537857e+01 -9.146096804534519e-01 -1.224851263843270e+01 -1.145857882141043e+01 -5.402395358241460e+00 -6.185866687712296e+00 -6.974758639322022e+00 -7.764842918199037e+00 -8.555490423870024e+00 -9.344622611697011e+00 -1.539343198093038e+01 -1.539443948030945e+01 -4.065809268996445e+00 -1.067790748467063e+01 -4.068694720427835e+00 -1.067606922914156e+01 -1.000283517141094e+01 -1.000554667993747e+01 -4.781890681186439e+00 -1.606885042710718e+01 -1.610513013148895e+01 -4.746280663988703e+00 -1.964269326345998e+01 -3.254838965803787e-01 -1.954177337330673e+01 -6.486722112155126e-01 -3.535139060438909e-01 -1.963700732142749e+01 -2.222870904679457e+00 -1.846852388021505e+01 -1.442450976088468e+00 -1.908902638405546e+01 -1.773777786707666e+01 -1.697643152191301e+01 -1.488143171040885e+01 -3.024472233157354e+00 -1.409370753634464e+01 -1.330290629725691e+01 -5.922678953503556e+00 -6.711366364983404e+00 -1.251205136410471e+01 -7.501246592586156e+00 -8.291731012050095e+00 -1.172232824525682e+01 -9.080351111163735e+00 -1.846637281312243e+01 -1.909845086626536e+01 -2.224598125036884e+00 -1.774592559245126e+01 -1.697342018540184e+01 -1.428814662725504e+00 -5.910021051551695e+00 -6.702332505555785e+00 -7.491960056674910e+00 -8.282395803037451e+00 -1.489312760417664e+01 -9.063839725275132e+00 -1.410289705498460e+01 -1.331247851044566e+01 -3.014816605038280e+00 -1.252077880010351e+01 -3.808699733014744e+00 -1.173048862929235e+01 -1.093475707385009e+01 -3.810485731125329e+00 -1.093489307234145e+01 -9.081281821386357e+00 -8.285813992248722e+00 -1.172776766618476e+01 -7.495864738202354e+00 -6.705794628410552e+00 -1.251823297548191e+01 -5.912692199044097e+00 -1.330897731158098e+01 -1.409891918037358e+01 -1.489085732724028e+01 -3.018579212107958e+00 -1.697000449918428e+01 -1.774328887026919e+01 -1.909522484489299e+01 -1.845337635718886e+01 -1.433941075216405e+00 -1.926490708018140e+01 -1.867019115332134e+01 -1.178952622323674e+00 -2.239875383963831e+00 -1.984975029836663e+00 -1.797526381595529e+01 -1.721824321936319e+01 -2.770868694864625e+00 -3.564758163058144e+00 -1.434610759147734e+01 -1.355632228501385e+01 -5.659858576260059e+00 -1.276570239148942e+01 -6.458552582547937e+00 -7.248609234043806e+00 -1.197516071351582e+01 -8.038441425509971e+00 -8.829461019793564e+00 -1.118171650136761e+01 -1.092939397692862e+01 -3.816506567098584e+00 -1.514191078305320e+01 -1.044658225082416e+01 -4.506829386481461e+00 -1.561821145851098e+01 -1.643987580751537e+01 -5.119836614148860e+00 -9.736489752169648e+00 -1.276787256592836e+01 -1.197741691950122e+01 -1.434954834148737e+01 -1.118429288420474e+01 -1.355967071891787e+01 -1.514030298438751e+01 -6.455922933973448e+00 -8.823985341177305e+00 -5.657578912100518e+00 -7.245002534407223e+00 -8.035244237071907e+00 -1.867621515440142e+01 -1.977486913011863e+00 -1.926803634652875e+01 -1.797688153199384e+01 -1.173391656854631e+00 -1.722092698530352e+01 -2.767867778553351e+00 -3.560784215991250e+00 -1.962878856773315e+01 -3.901594801034063e-01 -1.277502254164375e+01 -1.119537327087367e+01 -1.435628708848368e+01 -1.356620084397271e+01 -1.198502888718144e+01 -3.550856417076347e+00 -2.761857272936556e+00 -5.661327760609100e+00 -8.818471503126133e+00 -7.238276291169082e+00 -6.449063179980654e+00 -8.028581270486541e+00 -1.723212145247990e+01 -1.798326805982049e+01 -1.926479809434179e+01 -1.179079175465809e+00 -1.868511512409475e+01 -1.967133063144664e+00 -1.513999196468128e+01 -1.954325887127727e+01 -6.424758069878406e-01 -6.553111394342874e-01 -1.953844069746686e+01 -1.019020361886919e+01 -1.587595322074363e+01 -1.019066669570719e+01 -1.587800674917230e+01 -4.551050212167936e+00 -4.553745284117341e+00 -9.598756794072349e+00 -5.160417144775533e+00 -9.617795699218698e+00 -1.647844267375923e+01 -5.152516683488490e+00 -1.647062912157514e+01 -9.155542223717175e+00 -8.367751437039702e+00 -1.164500506898655e+01 -7.577542688187217e+00 -6.787585575527443e+00 -1.243559872079162e+01 -5.995068651579203e+00 -1.322684330981357e+01 -1.401705630396692e+01 -1.480862750614617e+01 -3.100516084813558e+00 -1.684463063432120e+01 -1.766509501412045e+01 -1.834175859563948e+01 -1.903689255926388e+01 -2.366783919898619e+00 -1.515587784935956e+00 -3.936434293675873e+00 -1.080692670403972e+01 -1.564040764379208e+01 -1.564260204007472e+01 -1.042701169782315e+01 -4.314325682947122e+00 -4.317053009152027e+00 -1.042656324217585e+01 -1.874153625165098e+01 -1.934454158574331e+01 -1.898129205244129e+00 -1.046185006422716e+00 -1.805364557192375e+01 -1.730090438018321e+01 -2.685283410012274e+00 -3.479241482092010e+00 -1.443137981997254e+01 -1.364166467821653e+01 -5.531509261661942e+00 -1.285053484414564e+01 -6.373427234563351e+00 -1.205981895647290e+01 -7.163039970167707e+00 -7.952985443895484e+00 -1.126642539292681e+01 -8.743150954153329e+00 -1.526449819283956e+01 -1.966268180582236e+01 -2.314249161644077e-01 -9.514266078081100e+00 -1.622637162847928e+01 -4.904170511212412e+00 -9.487492732814248e+00 -2.305983984434266e+00 -1.570351144538229e+00 -1.839563166464017e+01 -1.159266121082238e+01 -1.238272420505370e+01 -1.317385896705707e+01 -1.396510413490858e+01 -1.475375552191410e+01 -1.899668322121477e+01 -9.203965134545420e+00 -8.421040959092915e+00 -7.630285008992625e+00 -6.840361928923577e+00 -6.051384573956675e+00 -3.153504553584630e+00 -1.761531187540029e+01 -1.685028687310623e+01 -1.081057718950867e+01 -3.931965832377597e+00 -1.132627901370225e+01 -1.211675184426273e+01 -1.290721177340110e+01 -1.369915192622366e+01 -1.448884312960003e+01 -8.686533343613521e+00 -7.896197053235508e+00 -7.105830325414012e+00 -6.317400513866210e+00 -5.530778053928834e+00 -3.419585633622980e+00 -2.629833187028082e+00 -1.735981537944125e+01 -1.810431141548335e+01 -1.934604578068949e+01 -1.043581750685725e+00 -1.879223723168397e+01 -1.835597165253072e+00 -4.933020463354866e+00 -9.826583567195504e+00 -4.941841268618033e+00 -1.625319175737663e+01 -1.626197907771121e+01 -9.820188032984142e+00 -1.526397950782102e+01 -1.010517200973203e+01 -1.010378415409141e+01 -4.634042318846050e+00 -1.591738085324331e+01 -1.595942531537708e+01 -4.591199177599799e+00 -1.550587674773299e+01 -1.550780882422139e+01 -1.056244338426119e+01 -4.176021056612497e+00 -1.056140019094627e+01 -4.179141972340577e+00 -5.281907830578803e+00 -1.660042879016558e+01 -5.272922927962587e+00 -1.659091779301329e+01 -1.947992887661887e+01 -7.882534856153581e-01 -1.619703848893913e+01 -4.874823874853121e+00 -7.765341040030654e-01 -1.948564558410161e+01 -9.896347165718353e+00 -9.887462190514469e+00 -1.967125977666734e+01 -1.768137437468506e-01 -1.967442258924979e+01 -1.542134237690589e-01 -1.021738105150628e+01 -1.583476390087295e+01 -4.288263401493134e+00 
</DataArray>
</PointData>
<CellData Scalars="pressure_p0," Vectors="velocity_p0," Tensors="">
<DataArray type="Float64" Name="pressure_p0" format="ascii">