<?xml version="1.0"?>
<VTKFile type="UnstructuredGrid" version="0.1" byte_order="LittleEndian">
<UnstructuredGrid>
<Piece NumberOfPoints="567" NumberOfCells="966">
<Points>
<DataArray type="Float64" NumberOfComponents="3" format="ascii">
0.000000000000000e+00 0.000000000000000e+00 0.000000000000000e+00 0.000000000000000e+00 1.000000000000000e+00 0.000000000000000e+00 1.600000000000000e+01 1.000000000000000e+00 0.000000000000000e+00 1.600000000000000e+01 0.000000000000000e+00 0.000000000000000e+00 0.000000000000000e+00 2.499999999993998e-01 0.000000000000000e+00 0.000000000000000e+00 4.999999999990217e-01 0.000000000000000e+00 0.000000000000000e+00 7.499999999993374e-01 0.000000000000000e+00 2.025316455691341e-01 1.000000000000000e+00 0.000000000000000e+00 4.050632911382681e-01 1.000000000000000e+00 0.000000000000000e+00 6.075949367074022e-01 1.000000000000000e+00 0.000000000000000e+00 8.101265822765362e-01 1.000000000000000e+00 0.000000000000000e+00 1.012658227845670e+00 1.000000000000000e+00 0.000000000000000e+00 1.215189873414804e+00 1.000000000000000e+00 0.000000000000000e+00 1.417721518983938e+00 1.000000000000000e+00 0.000000000000000e+00 1.620253164553072e+00 1.000000000000000e+00 0.000000000000000e+00 1.822784810122207e+00 1.000000000000000e+00 0.000000000000000e+00 2.025316455691340e+00 1.000000000000000e+00 0.000000000000000e+00 2.227848101260475e+00 1.000000000000000e+00 0.000000000000000e+00 2.430379746829609e+00 1.000000000000000e+00 0.000000000000000e+00 2.632911392398743e+00 1.000000000000000e+00 0.000000000000000e+00 2.835443037967877e+00 1.000000000000000e+00 0.000000000000000e+00 3.037974683537010e+00 1.000000000000000e+00 0.000000000000000e+00 3.240506329106145e+00 1.000000000000000e+00 0.000000000000000e+00 3.443037974675279e+00 1.000000000000000e+00 0.000000000000000e+00 3.645569620244413e+00 1.000000000000000e+00 0.000000000000000e+00 3.848101265813547e+00 1.000000000000000e+00 0.000000000000000e+00 4.050632911382726e+00 1.000000000000000e+00 0.000000000000000e+00 4.253164556952040e+00 1.000000000000000e+00 0.000000000000000e+00 4.455696202521353e+00 1.000000000000000e+00 0.000000000000000e+00 4.658227848090667e+00 1.000000000000000e+00 0.000000000000000e+00 4.860759493659981e+00 1.000000000000000e+00 0.000000000000000e+00 5.063291139229296e+00 1.000000000000000e+00 0.000000000000000e+00 5.265822784798610e+00 1.000000000000000e+00 0.000000000000000e+00 5.468354430367923e+00 1.000000000000000e+00 0.000000000000000e+00 5.670886075937237e+00 1.000000000000000e+00 0.000000000000000e+00 5.873417721506551e+00 1.000000000000000e+00 0.000000000000000e+00 6.075949367075864e+00 1.000000000000000e+00 0.000000000000000e+00 6.278481012645178e+00 1.000000000000000e+00 0.000000000000000e+00 6.481012658214492e+00 1.000000000000000e+00 0.000000000000000e+00 6.683544303783806e+00 1.000000000000000e+00 0.000000000000000e+00 6.886075949353121e+00 1.000000000000000e+00 0.000000000000000e+00 7.088607594922435e+00 1.000000000000000e+00 0.000000000000000e+00 7.291139240491749e+00 1.000000000000000e+00 0.000000000000000e+00 7.493670886061063e+00 1.000000000000000e+00 0.000000000000000e+00 7.696202531630375e+00 1.000000000000000e+00 0.000000000000000e+00 7.898734177199691e+00 1.000000000000000e+00 0.000000000000000e+00 8.101265822769285e+00 1.000000000000000e+00 0.000000000000000e+00 8.303797468339161e+00 1.000000000000000e+00 0.000000000000000e+00 8.506329113909036e+00 1.000000000000000e+00 0.000000000000000e+00 8.708860759478913e+00 1.000000000000000e+00 0.000000000000000e+00 8.911392405048788e+00 1.000000000000000e+00 0.000000000000000e+00 9.113924050618664e+00 1.000000000000000e+00 0.000000000000000e+00 9.316455696188541e+00 1.000000000000000e+00 0.000000000000000e+00 9.518987341758416e+00 1.000000000000000e+00 0.000000000000000e+00 9.721518987328292e+00 1.000000000000000e+00 0.000000000000000e+00 9.924050632898169e+00 1.000000000000000e+00 0.000000000000000e+00 1.012658227846805e+01 1.000000000000000e+00 0.000000000000000e+00 1.032911392403792e+01 1.000000000000000e+00 0.000000000000000e+00 1.053164556960780e+01 1.000000000000000e+00 0.000000000000000e+00 1.073417721517767e+01 1.000000000000000e+00 0.000000000000000e+00 1.093670886074755e+01 1.000000000000000e+00 0.000000000000000e+00 1.113924050631742e+01 1.000000000000000e+00 0.000000000000000e+00 1.134177215188730e+01 1.000000000000000e+00 0.000000000000000e+00 1.154430379745718e+01 1.000000000000000e+00 0.000000000000000e+00 1.174683544302705e+01 1.000000000000000e+00 0.000000000000000e+00 1.194936708859693e+01 1.000000000000000e+00 0.000000000000000e+00 1.215189873416701e+01 1.000000000000000e+00 0.000000000000000e+00 1.235443037973717e+01 1.000000000000000e+00 0.000000000000000e+00 1.255696202530733e+01 1.000000000000000e+00 0.000000000000000e+00 1.275949367087749e+01 1.000000000000000e+00 0.000000000000000e+00 1.296202531644764e+01 1.000000000000000e+00 0.000000000000000e+00 1.316455696201780e+01 1.000000000000000e+00 0.000000000000000e+00 1.336708860758796e+01 1.000000000000000e+00 0.000000000000000e+00 1.356962025315812e+01 1.000000000000000e+00 0.000000000000000e+00 1.377215189872827e+01 1.000000000000000e+00 0.000000000000000e+00 1.397468354429843e+01 1.000000000000000e+00 0.000000000000000e+00 1.417721518986859e+01 1.000000000000000e+00 0.000000000000000e+00 1.437974683543874e+01 1.000000000000000e+00 0.000000000000000e+00 1.458227848100890e+01 1.000000000000000e+00 0.000000000000000e+00 1.478481012657906e+01 1.000000000000000e+00 0.000000000000000e+00 1.498734177214921e+01 1.000000000000000e+00 0.000000000000000e+00 1.518987341771937e+01 1.000000000000000e+00 0.000000000000000e+00 1.539240506328953e+01 1.000000000000000e+00 0.000000000000000e+00 1.559493670885968e+01 1.000000000000000e+00 0.000000000000000e+00 1.579746835442984e+01 1.000000000000000e+00 0.000000000000000e+00 1.600000000000000e+01 7.500000000003469e-01 0.000000000000000e+00 1.600000000000000e+01 5.000000000013878e-01 0.000000000000000e+00 1.600000000000000e+01 2.500000000010407e-01 0.000000000000000e+00 1.579746835443066e+01 0.000000000000000e+00 0.000000000000000e+00 1.559493670886132e+01 0.000000000000000e+00 0.000000000000000e+00 1.539240506329198e+01 0.000000000000000e+00 0.000000000000000e+00 1.518987341772264e+01 0.000000000000000e+00 0.000000000000000e+00 1.498734177215330e+01 0.000000000000000e+00 0.000000000000000e+00 1.478481012658396e+01 0.000000000000000e+00 0.000000000000000e+00 1.458227848101463e+01 0.000000000000000e+00 0.000000000000000e+00 1.437974683544529e+01 0.000000000000000e+00 0.000000000000000e+00 1.417721518987595e+01 0.000000000000000e+00 0.000000000000000e+00 1.397468354430661e+01 0.000000000000000e+00 0.000000000000000e+00 1.377215189873727e+01 0.000000000000000e+00 0.000000000000000e+00 1.356962025316793e+01 0.000000000000000e+00 0.000000000000000e+00 1.336708860759859e+01 0.000000000000000e+00 0.000000000000000e+00 1.316455696202925e+01 0.000000000000000e+00 0.000000000000000e+00 1.296202531645991e+01 0.000000000000000e+00 0.000000000000000e+00 1.275949367089057e+01 0.000000000000000e+00 0.000000000000000e+00 1.255696202532123e+01 0.000000000000000e+00 0.000000000000000e+00 1.235443037975189e+01 0.000000000000000e+00 0.000000000000000e+00 1.215189873418256e+01 0.000000000000000e+00 0.000000000000000e+00 1.194936708861336e+01 0.000000000000000e+00 0.000000000000000e+00 1.174683544304458e+01 0.000000000000000e+00 0.000000000000000e+00 1.154430379747580e+01 0.000000000000000e+00 0.000000000000000e+00 1.134177215190703e+01 0.000000000000000e+00 0.000000000000000e+00 1.113924050633825e+01 0.000000000000000e+00 0.000000000000000e+00 1.093670886076947e+01 0.000000000000000e+00 0.000000000000000e+00 1.073417721520070e+01 0.000000000000000e+00 0.000000000000000e+00 1.053164556963192e+01 0.000000000000000e+00 0.000000000000000e+00 1.032911392406314e+01 0.000000000000000e+00 0.000000000000000e+00 1.012658227849436e+01 0.000000000000000e+00 0.000000000000000e+00 9.924050632925587e+00 0.000000000000000e+00 0.000000000000000e+00 9.721518987356809e+00 0.000000000000000e+00 0.000000000000000e+00 9.518987341788034e+00 0.000000000000000e+00 0.000000000000000e+00 9.316455696219256e+00 0.000000000000000e+00 0.000000000000000e+00 9.113924050650478e+00 0.000000000000000e+00 0.000000000000000e+00 8.911392405081703e+00 0.000000000000000e+00 0.000000000000000e+00 8.708860759512925e+00 0.000000000000000e+00 0.000000000000000e+00 8.506329113944147e+00 0.000000000000000e+00 0.000000000000000e+00 8.303797468375370e+00 0.000000000000000e+00 0.000000000000000e+00 8.101265822806592e+00 0.000000000000000e+00 0.000000000000000e+00 7.898734177237253e+00 0.000000000000000e+00 0.000000000000000e+00 7.696202531667353e+00 0.000000000000000e+00 0.000000000000000e+00 7.493670886097451e+00 0.000000000000000e+00 0.000000000000000e+00 7.291139240527549e+00 0.000000000000000e+00 0.000000000000000e+00 7.088607594957649e+00 0.000000000000000e+00 0.000000000000000e+00 6.886075949387747e+00 0.000000000000000e+00 0.000000000000000e+00 6.683544303817845e+00 0.000000000000000e+00 0.000000000000000e+00 6.481012658247945e+00 0.000000000000000e+00 0.000000000000000e+00 6.278481012678045e+00 0.000000000000000e+00 0.000000000000000e+00 6.075949367108143e+00 0.000000000000000e+00 0.000000000000000e+00 5.873417721538242e+00 0.000000000000000e+00 0.000000000000000e+00 5.670886075968340e+00 0.000000000000000e+00 0.000000000000000e+00 5.468354430398438e+00 0.000000000000000e+00 0.000000000000000e+00 5.265822784828536e+00 0.000000000000000e+00 0.000000000000000e+00 5.063291139258636e+00 0.000000000000000e+00 0.000000000000000e+00 4.860759493688734e+00 0.000000000000000e+00 0.000000000000000e+00 4.658227848118834e+00 0.000000000000000e+00 0.000000000000000e+00 4.455696202548932e+00 0.000000000000000e+00 0.000000000000000e+00 4.253164556979030e+00 0.000000000000000e+00 0.000000000000000e+00 4.050632911409130e+00 0.000000000000000e+00 0.000000000000000e+00 3.848101265838807e+00 0.000000000000000e+00 0.00000000000000
[...]
<PointData Scalars="pressure_nodes_[L]," Vectors="">
<DataArray type="Float64" Name="pressure_nodes_[L]" format="ascii">
-6.666261698554627e-03 -6.178188032345933e-03 -1.578328354959885e+00 -1.577814952384861e+00 -5.854720077872580e-03 -7.913080355153678e-03 -8.896381016894668e-03 -1.996793734077248e-02 -3.997811522449755e-02 -6.080956542583354e-02 -8.110709109586599e-02 -1.012703382670097e-01 -1.216649690968276e-01 -1.423491115702220e-01 -1.626299681208437e-01 -1.827714030144043e-01 -2.030136937218391e-01 -2.232915246954554e-01 -2.435845457288641e-01 -2.638804749406141e-01 -2.841144691872535e-01 -3.042470688571159e-01 -3.242424625466122e-01 -3.440354559044378e-01 -3.663442330960399e-01 -3.869768647473249e-01 -4.064416884547867e-01 -4.265258376945131e-01 -4.467479897259261e-01 -4.670313068427478e-01 -4.873361005581441e-01 -5.076187147046919e-01 -5.279176951875970e-01 -5.482353994048799e-01 -5.685357776216168e-01 -5.888423152123535e-01 -6.091650456077736e-01 -6.294756411014966e-01 -6.497937787784370e-01 -6.701029321722285e-01 -6.903812388318779e-01 -7.107009136290513e-01 -7.308430695964527e-01 -7.504517391172003e-01 -7.717556527647887e-01 -7.931701424515675e-01 -8.128601361392593e-01 -8.328299386442236e-01 -8.528767752770141e-01 -8.735462010944441e-01 -8.941551408161640e-01 -9.139802687644011e-01 -9.345525683459467e-01 -9.551318346773234e-01 -9.749316054353282e-01 -9.955300014968623e-01 -1.016116405015095e+00 -1.035889811719766e+00 -1.056497723876963e+00 -1.077066587843790e+00 -1.096807265915927e+00 -1.117456737104684e+00 -1.138050813036183e+00 -1.157771285831811e+00 -1.177692127333412e+00 -1.197636964447855e+00 -1.217551106120328e+00 -1.240176152732854e+00 -1.260009604847897e+00 -1.279652736033301e+00 -1.299792005223720e+00 -1.319958823785224e+00 -1.340886249793091e+00 -1.361502459851192e+00 -1.381128854113950e+00 -1.401886400692248e+00 -1.422540282360611e+00 -1.442286789215526e+00 -1.462433999878770e+00 -1.482674126323774e+00 -1.502833610293355e+00 -1.522809619043842e+00 -1.542149546743309e+00 -1.559514380205163e+00 -1.572180409409758e+00 -1.579013870832199e+00 -1.580208548602949e+00 -1.579479854265793e+00 -1.572539314178905e+00 -1.560229733209377e+00 -1.541865194348508e+00 -1.522664195136958e+00 -1.502982314378973e+00 -1.483462643829699e+00 -1.462832805647172e+00 -1.441856424286468e+00 -1.421678425050355e+00 -1.401427446336360e+00 -1.381129579665518e+00 -1.360848553997575e+00 -1.340524298751568e+00 -1.320184144569776e+00 -1.299915917250696e+00 -1.279818056095785e+00 -1.260351184045380e+00 -1.239239126745624e+00 -1.217502073890242e+00 -1.197680759033084e+00 -1.177692435874716e+00 -1.157589492236741e+00 -1.137408788192155e+00 -1.117133294372867e+00 -1.096828929187619e+00 -1.076541746895624e+00 -1.056215221245760e+00 -1.035885362214077e+00 -1.015578517333692e+00 -9.952514818014113e-01 -9.749278777680627e-01 -9.546327545526555e-01 -9.343206036057486e-01 -9.140122185415412e-01 -8.937211631165850e-01 -8.734011975793078e-01 -8.531112694805316e-01 -8.329234917750411e-01 -8.128806134171518e-01 -7.931594687318502e-01 -7.716517022460285e-01 -7.503830035415322e-01 -7.319328738044447e-01 -7.117664040854925e-01 -6.906536118378311e-01 -6.706251010433119e-01 -6.500293294092562e-01 -6.295757187282828e-01 -6.096329712255746e-01 -5.890630331831230e-01 -5.686483446067027e-01 -5.486812419035447e-01 -5.281053273644628e-01 -5.077119962690299e-01 -4.877198827543006e-01 -4.671132716396300e-01 -4.466326182630002e-01 -4.265670901360155e-01 -4.066048625203567e-01 -3.870891164282939e-01 -3.657449270885974e-01 -3.440767350494383e-01 -3.243294772229844e-01 -3.043898450568150e-01 -2.844113852743393e-01 -2.642624718480377e-01 -2.436494123879807e-01 -2.233524060601648e-01 -2.032197134499626e-01 -1.825724487352433e-01 -1.621449629027058e-01 -1.419582577574423e-01 -1.216726645904594e-01 -1.013570525175069e-01 -8.102885668156783e-02 -6.066058496377955e-02 -4.038690676430232e-02 -2.084568206120309e-02 -1.532861502055081e+00 -7.031453271193658e-02 -1.473114541299598e+00 -1.186086970530248e+00 -1.315136729555520e-01 -1.411970195769737e+00 -1.127714222690568e+00 -1.350988168173318e+00 -1.925623740009320e-01 -1.066779153505639e+00 -1.290034023811926e+00 -1.005755367835358e+00 -2.536006897823216e-01 -9.447371225568090e-01 -3.124606652227152e-01 -8.837428848506793e-01 -4.164436010468320e-01 -8.239500506387853e-01 -4.770061803953994e-01 -5.378948829072957e-01 -5.988370669824681e-01 -6.597928249259268e-01 -7.172814956411202e-01 -7.702586368220883e-01 -1.236513412568278e+00 -3.634139693432835e-01 -1.561500848191709e+00 -3.861895699825259e-02 -6.897751581400976e-01 -6.289367120256720e-01 -5.680492701858298e-01 -8.519592819818063e-01 -5.071737178210486e-01 -4.455315965666085e-01 -9.134966847214344e-01 -9.744306215384413e-01 -1.035429366056017e+00 -1.096315690042482e+00 -1.158060463312883e+00 -1.318787173318158e+00 -1.503540526387849e+00 -1.380361098581862e+00 -1.440818823219247e+00 -2.847188316237843e-01 -1.000601701551456e-01 -2.229642980651294e-01 -1.630189619473454e-01 -1.157647264847652e+00 -1.097114739233164e+00 -1.036162074384230e+00 -9.751012545377786e-01 -9.141754719185249e-01 -8.532460275675652e-01 -1.610488236420108e-01 -1.442788619984279e+00 -1.503326727783483e+00 -1.007218886957613e-01 -1.381249534356235e+00 -2.229426073610534e-01 -1.320275182317485e+00 -2.837135929980604e-01 -4.464070928695646e-01 -5.072988318214897e-01 -5.681567103949793e-01 -6.291198812898876e-01 -6.898133039859461e-01 -7.448380593549313e-01 -7.483575042886881e-01 -1.260838393248293e+00 -1.264093386211372e+00 -3.877166687248158e-01 -3.911205372214136e-01 -7.959504993412295e-01 -3.401158944539341e-01 -1.213487435346857e+00 -3.394288361180869e-01 -7.959605414723605e-01 -1.212674803453376e+00 -4.256324472814574e-02 -1.557756232276276e+00 -8.837161894257617e-01 -7.236523045235519e-01 -6.600921961197991e-01 -9.447241325606550e-01 -5.991245468043983e-01 -5.381817200792696e-01 -1.005726346150952e+00 -4.772172068358144e-01 -4.168118047102195e-01 -1.066697624143237e+00 -1.127674112719301e+00 -1.289867447775903e+00 -7.087227077696537e-02 -2.538364278864809e-01 -1.532382096628900e+00 -1.350992433806557e+00 -1.473036248776644e+00 -1.318428600867992e-01 -1.412114834167280e+00 -1.926914318483108e-01 -1.127496604441172e+00 -1.411635060610299e+00 -1.472843613409021e+00 -1.927853620689646e-01 -1.350895998312584e+00 -1.315695081560221e-01 -1.532911370108583e+00 -1.066619826556548e+00 -1.290170574617389e+00 -2.535761856520768e-01 -1.005601622709837e+00 -7.051772057294838e-02 -9.446392178242995e-01 -8.837202106127020e-01 -4.166007799361361e-01 -4.770690969162580e-01 -5.379133405276459e-01 -5.988468416715476e-01 -6.598229451669336e-01 -7.207345467448814e-01 -1.187019367295783e+00 -1.187117029877778e+00 -3.134807163617481e-01 -8.233962232162364e-01 -3.137115292838878e-01 -8.232488814865994e-01 -7.709656034003038e-01 -7.711407353652737e-01 -3.687494467547717e-01 -1.239127129345790e+00 -1.242181556800428e+00 -3.659298634514130e-01 -1.571859730229341e+00 -2.506584869512296e-02 -1.551664164275597e+00 -5.001013748318155e-02 -2.724106867388404e-02 -1.569590035159874e+00 -1.714202119682646e-01 -1.432892880084350e+00 -1.112421877834224e-01 -1.493044188152378e+00 -1.371156839608635e+00 -1.310230523913757e+00 -1.147645220563815e+00 -2.332558394405677e-01 -1.086921736209016e+00 -1.025931816356964e+00 -4.567581328409421e-01 -5.175844135528034e-01 -9.649342727387575e-01 -5.785029837337617e-01 -6.394685319872806e-01 -9.040310235029777e-01 -7.002784892035097e-01 -1.432446710937931e+00 -1.493798938349507e+00 -1.715322058123467e-01 -1.371447622205376e+00 -1.309842491003562e+00 -1.101728609352859e-01 -4.556950857536641e-01 -5.167552159650121e-01 -5.776420393373426e-01 -6.385854678641186e-01 -1.148316052357212e+00 -6.986903972773344e-01 -1.087344234647811e+00 -1.026400900210725e+00 -2.324595378894901e-01 -9.653526258012081e-01 -2.936287689142127e-01 -9.044165374451715e-01 -8.430734134842260e-01 -2.938122160384006e-01 -8.432458115761599e-01 -7.004110137905991e-01 -6.389404875821444e-01 -9.043387280842365e-01 -5.780208744406079e-01 -5.170943281167628e-01 -9.652938232050741e-01 -4.559583733188868e-01 -1.026274118227827e+00 -1.087194269477193e+00 -1.148315974467101e+00 -2.327783085114597e-01 -1.309678145759261e+00 -1.371434826879842e+00 -1.493641547688548e+00 -1.431594172525673e+00 -1.105826213897984e-01 -1.513003568826744e+00 -1.451272494870739e+00 -9.089861990125404e-02 -1.727473408362078e-01 -1.530787280828529e-01 -1.390538591070636e+00 -1.329345544632499e+00 -2.136619491892569e-01 -2.748818867113262e-01 -1.106272408092606e+00 -1.045356961075165e+00 -4.364390210785721e-01 -9.843893772096991e-01 -4.980157269332058e-01 -5.589414096982798e-01 -9.234244342211750e-01 -6.198498377140982e-01 -6.808722218759078e-01 -8.622804211393494e-01 -8.427790683450105e-01 -2.942748573682010e-01 -1.167615329331985e+00 -8.053302817735181e-01 -3.473040284421899e-01 -1.203985579438002e+00 -1.268247494644132e+00 -3.948303162399199e-01 -7.507159627647929e-01 -9.844158065224036e-01 -9.234637529598596e-01 -1.106376401382530e+00 -8.623567227650454e-01 -1.045467625109499e+00 -1.167319432926046e+00 -4.977433845463951e-01 -6.802942555077275e-01 -4.362267719461559e-01 -5.585882056423070e-01 -6.195185164721548e-01 -1.451543971831103e+00 -1.524664823654123e-01 -1.513261645151383e+00 -1.390474071711339e+00 -9.046253917283048e-02 -1.329385224632444e+00 -2.134070184995603e-01 -2.745352441264257e-01 -1.566932215051169e+00 -3.007896535904250e-02 -9.852205150246167e-01 -8.633849182241171e-01 -1.107175523798141e+00 -1.046239978974683e+00 -9.242913796367241e-01 -2.738195292673704e-01 -2.130037372988521e-01 -4.365818033293058e-01 -6.800755909328529e-01 -5.582189169729072e-01 -4.973492828878481e-01 -6.191688183856353e-01 -1.330515074104430e+00 -1.391378739600493e+00 -1.513103446458190e+00 -9.092052487027777e-02 -1.452631281023126e+00 -1.516912643357738e-01 -1.167518131805621e+00 -1.552131150375621e+00 -4.949425069218534e-02 -5.048309971268342e-02 -1.551093272431383e+00 -7.856488475498526e-01 -1.224477093211638e+00 -7.856827018098401e-01 -1.224436854497313e+00 -3.509522738049190e-01 -3.511002568213353e-01 -7.400709616108967e-01 -3.978447601307361e-01 -7.414616174418982e-01 -1.270869243278745e+00 -3.972498949050555e-01 -1.270310032790129e+00 -7.058077368551725e-01 -6.451057595366808e-01 -8.977517866200007e-01 -5.841861106423984e-01 -5.232806873985951e-01 -9.587004410487521e-01 -4.622085267191625e-01 -1.019708708736360e+00 -1.080637446927900e+00 -1.141723197904405e+00 -2.390446299364476e-01 -1.299770712872476e+00 -1.364749042846374e+00 -1.421919421239460e+00 -1.487033268730953e+00 -1.825563217407240e-01 -1.168533739101778e-01 -3.034799068911874e-01 -8.332289756678447e-01 -1.206069990034716e+00 -1.206250199327093e+00 -8.040047222619519e-01 -3.326329920573446e-01 -3.328486336962257e-01 -8.039733530242595e-01 -1.457604954357684e+00 -1.522845454099186e+00 -1.463478616870187e-01 -8.064430225492751e-02 -1.396748950756420e+00 -1.335613131283544e+00 -2.070178756974378e-01 -2.682361074945365e-01 -1.112590468571476e+00 -1.051693577412850e+00 -4.265046575849488e-01 -9.907012047210343e-01 -4.913402501509798e-01 -9.297360701902504e-01 -5.522173594451345e-01 -6.131203622800093e-01 -8.686221714193444e-01 -6.740309373191723e-01 -1.176911762306606e+00 -1.574791184918231e+00 -1.782632274543047e-02 -7.337408810269268e-01 -1.251257692423811e+00 -3.780850721689893e-01 -7.317083184231743e-01 -1.777921754399646e-01 -1.211240283739442e-01 -1.426120809164083e+00 -8.941195622997313e-01 -9.550531214386965e-01 -1.016079678351046e+00 -1.077104820788490e+00 -1.137932071411256e+00 -1.483415052247419e+00 -7.098347103911103e-01 -6.495071172179124e-01 -5.885191635587685e-01 -5.275885946065543e-01 -4.667398269538989e-01 -2.432351550749122e-01 -1.361337299418540e+00 -1.300222635560208e+00 -8.335542046640110e-01 -3.031392159047586e-01 -8.735821283774889e-01 -9.345441469933755e-01 -9.955198707466988e-01 -1.056600704033703e+00 -1.117513181604522e+00 -6.699580868125199e-01 -6.090178999667787e-01 -5.480560540411875e-01 -4.872416264899661e-01 -4.264907029087497e-01 -2.637362850716992e-01 -2.028399052044136e-01 -1.340837572965957e+00 -1.401647024654600e+00 -1.523207986423885e+00 -8.045876490836779e-02 -1.462958205437505e+00 -1.415636224377369e-01 -3.803501016829376e-01 -7.574051218357236e-01 -3.810421269933240e-01 -1.253482354653816e+00 -1.254216596120579e+00 -7.569292990135283e-01 -1.176930284912468e+00 -7.787601918636469e-01 -7.786815794496500e-01 -3.571893441036958e-01 -1.226786039466039e+00 -1.230344948981610e+00 -3.537992115197423e-01 -1.195463875103498e+00 -1.195661922666775e+00 -8.143555625607400e-01 -3.219169615857240e-01 -8.142713659310937e-01 -3.221714298608684e-01 -4.072474339977498e-01 -1.280528776832403e+00 -4.066418696731668e-01 -1.280052053371328e+00 -1.541551744791516e+00 -6.072945898320267e-02 -1.248989476613759e+00 -3.758248175947834e-01 -5.985353089501756e-02 -1.542850547385867e+00 -7.626322921584970e-01 -7.621145054229027e-01 -1.575714008259440e+00 -1.363021352215768e-02 -1.576414152031906e+00 -1.190209390057412e-02 -7.875364917571942e-01 -1.220433426355439e+00 -3.305283795903628e-01 
</DataArray>
</PointData>
<CellData Scalars="pressure_elements_[L]," Vectors="velocity_elements_[L/T],">
<DataArray type="Float64" Name="pressure_elements_[L]" format="ascii">