<?xml version="1.0"?>
<VTKFile type="UnstructuredGrid" version="0.1" byte_order="LittleEndian">
<UnstructuredGrid>
<Piece NumberOfPoints="567" NumberOfCells="966">
<Points>
<DataArray type="Float64" NumberOfComponents="3" format="ascii">
0.000000000000000e+00 0.000000000000000e+00 0.000000000000000e+00 0.000000000000000e+00 1.000000000000000e+00 0.000000000000000e+00 1.600000000000000e+01 1.000000000000000e+00 0.000000000000000e+00 1.600000000000000e+01 0.000000000000000e+00 0.000000000000000e+00 0.000000000000000e+00 2.499999999993998e-01 0.000000000000000e+00 0.000000000000000e+00 4.999999999990217e-01 0.000000000000000e+00 0.000000000000000e+00 7.499999999993374e-01 0.000000000000000e+00 2.025316455691341e-01 1.000000000000000e+00 0.000000000000000e+00 4.050632911382681e-01 1.000000000000000e+00 0.000000000000000e+00 6.075949367074022e-01 1.000000000000000e+00 0.000000000000000e+00 8.101265822765362e-01 1.000000000000000e+00 0.000000000000000e+00 1.012658227845670e+00 1.000000000000000e+00 0.000000000000000e+00 1.215189873414804e+00 1.000000000000000e+00 0.000000000000000e+00 1.417721518983938e+00 1.000000000000000e+00 0.000000000000000e+00 1.620253164553072e+00 1.000000000000000e+00 0.000000000000000e+00 1.822784810122207e+00 1.000000000000000e+00 0.000000000000000e+00 2.025316455691340e+00 1.000000000000000e+00 0.000000000000000e+00 2.227848101260475e+00 1.000000000000000e+00 0.000000000000000e+00 2.430379746829609e+00 1.000000000000000e+00 0.000000000000000e+00 2.632911392398743e+00 1.000000000000000e+00 0.000000000000000e+00 2.835443037967877e+00 1.000000000000000e+00 0.000000000000000e+00 3.037974683537010e+00 1.000000000000000e+00 0.000000000000000e+00 3.240506329106145e+00 1.000000000000000e+00 0.000000000000000e+00 3.443037974675279e+00 1.000000000000000e+00 0.000000000000000e+00 3.645569620244413e+00 1.000000000000000e+00 0.000000000000000e+00 3.848101265813547e+00 1.000000000000000e+00 0.000000000000000e+00 4.050632911382726e+00 1.000000000000000e+00 0.000000000000000e+00 4.253164556952040e+00 1.000000000000000e+00 0.000000000000000e+00 4.455696202521353e+00 1.000000000000000e+00 0.000000000000000e+00 4.658227848090667e+00 1.000000000000000e+00 0.000000000000000e+00 4.860759493659981e+00 1.000000000000000e+00 0.000000000000000e+00 5.063291139229296e+00 1.000000000000000e+00 0.000000000000000e+00 5.265822784798610e+00 1.000000000000000e+00 0.000000000000000e+00 5.468354430367923e+00 1.000000000000000e+00 0.000000000000000e+00 5.670886075937237e+00 1.000000000000000e+00 0.000000000000000e+00 5.873417721506551e+00 1.000000000000000e+00 0.000000000000000e+00 6.075949367075864e+00 1.000000000000000e+00 0.000000000000000e+00 6.278481012645178e+00 1.000000000000000e+00 0.000000000000000e+00 6.481012658214492e+00 1.000000000000000e+00 0.000000000000000e+00 6.683544303783806e+00 1.000000000000000e+00 0.000000000000000e+00 6.886075949353121e+00 1.000000000000000e+00 0.000000000000000e+00 7.088607594922435e+00 1.000000000000000e+00 0.000000000000000e+00 7.291139240491749e+00 1.000000000000000e+00 0.000000000000000e+00 7.493670886061063e+00 1.000000000000000e+00 0.000000000000000e+00 7.696202531630375e+00 1.000000000000000e+00 0.000000000000000e+00 7.898734177199691e+00 1.000000000000000e+00 0.000000000000000e+00 8.101265822769285e+00 1.000000000000000e+00 0.000000000000000e+00 8.303797468339161e+00 1.000000000000000e+00 0.000000000000000e+00 8.506329113909036e+00 1.000000000000000e+00 0.000000000000000e+00 8.708860759478913e+00 1.000000000000000e+00 0.000000000000000e+00 8.911392405048788e+00 1.000000000000000e+00 0.000000000000000e+00 9.113924050618664e+00 1.000000000000000e+00 0.000000000000000e+00 9.316455696188541e+00 1.000000000000000e+00 0.000000000000000e+00 9.518987341758416e+00 1.000000000000000e+00 0.000000000000000e+00 9.721518987328292e+00 1.000000000000000e+00 0.000000000000000e+00 9.924050632898169e+00 1.000000000000000e+00 0.000000000000000e+00 1.012658227846805e+01 1.000000000000000e+00 0.000000000000000e+00 1.032911392403792e+01 1.000000000000000e+00 0.000000000000000e+00 1.053164556960780e+01 1.000000000000000e+00 0.000000000000000e+00 1.073417721517767e+01 1.000000000000000e+00 0.000000000000000e+00 1.093670886074755e+01 1.000000000000000e+00 0.000000000000000e+00 1.113924050631742e+01 1.000000000000000e+00 0.000000000000000e+00 1.134177215188730e+01 1.000000000000000e+00 0.000000000000000e+00 1.154430379745718e+01 1.000000000000000e+00 0.000000000000000e+00 1.174683544302705e+01 1.000000000000000e+00 0.000000000000000e+00 1.194936708859693e+01 1.000000000000000e+00 0.000000000000000e+00 1.215189873416701e+01 1.000000000000000e+00 0.000000000000000e+00 1.235443037973717e+01 1.000000000000000e+00 0.000000000000000e+00 1.255696202530733e+01 1.000000000000000e+00 0.000000000000000e+00 1.275949367087749e+01 1.000000000000000e+00 0.000000000000000e+00 1.296202531644764e+01 1.000000000000000e+00 0.000000000000000e+00 1.316455696201780e+01 1.000000000000000e+00 0.000000000000000e+00 1.336708860758796e+01 1.000000000000000e+00 0.000000000000000e+00 1.356962025315812e+01 1.000000000000000e+00 0.000000000000000e+00 1.377215189872827e+01 1.000000000000000e+00 0.000000000000000e+00 1.397468354429843e+01 1.000000000000000e+00 0.000000000000000e+00 1.417721518986859e+01 1.000000000000000e+00 0.000000000000000e+00 1.437974683543874e+01 1.000000000000000e+00 0.000000000000000e+00 1.458227848100890e+01 1.000000000000000e+00 0.000000000000000e+00 1.478481012657906e+01 1.000000000000000e+00 0.000000000000000e+00 1.498734177214921e+01 1.000000000000000e+00 0.000000000000000e+00 1.518987341771937e+01 1.000000000000000e+00 0.000000000000000e+00 1.539240506328953e+01 1.000000000000000e+00 0.000000000000000e+00 1.559493670885968e+01 1.000000000000000e+00 0.000000000000000e+00 1.579746835442984e+01 1.000000000000000e+00 0.000000000000000e+00 1.600000000000000e+01 7.500000000003469e-01 0.000000000000000e+00 1.600000000000000e+01 5.000000000013878e-01 0.000000000000000e+00 1.600000000000000e+01 2.500000000010407e-01 0.000000000000000e+00 1.579746835443066e+01 0.000000000000000e+00 0.000000000000000e+00 1.559493670886132e+01 0.000000000000000e+00 0.000000000000000e+00 1.539240506329198e+01 0.000000000000000e+00 0.000000000000000e+00 1.518987341772264e+01 0.000000000000000e+00 0.000000000000000e+00 1.498734177215330e+01 0.000000000000000e+00 0.000000000000000e+00 1.478481012658396e+01 0.000000000000000e+00 0.000000000000000e+00 1.458227848101463e+01 0.000000000000000e+00 0.000000000000000e+00 1.437974683544529e+01 0.000000000000000e+00 0.000000000000000e+00 1.417721518987595e+01 0.000000000000000e+00 0.000000000000000e+00 1.397468354430661e+01 0.000000000000000e+00 0.000000000000000e+00 1.377215189873727e+01 0.000000000000000e+00 0.000000000000000e+00 1.356962025316793e+01 0.000000000000000e+00 0.000000000000000e+00 1.336708860759859e+01 0.000000000000000e+00 0.000000000000000e+00 1.316455696202925e+01 0.000000000000000e+00 0.000000000000000e+00 1.296202531645991e+01 0.000000000000000e+00 0.000000000000000e+00 1.275949367089057e+01 0.000000000000000e+00 0.000000000000000e+00 1.255696202532123e+01 0.000000000000000e+00 0.000000000000000e+00 1.235443037975189e+01 0.000000000000000e+00 0.000000000000000e+00 1.215189873418256e+01 0.000000000000000e+00 0.000000000000000e+00 1.194936708861336e+01 0.000000000000000e+00 0.000000000000000e+00 1.174683544304458e+01 0.000000000000000e+00 0.000000000000000e+00 1.154430379747580e+01 0.000000000000000e+00 0.000000000000000e+00 1.134177215190703e+01 0.000000000000000e+00 0.000000000000000e+00 1.113924050633825e+01 0.000000000000000e+00 0.000000000000000e+00 1.093670886076947e+01 0.000000000000000e+00 0.000000000000000e+00 1.073417721520070e+01 0.000000000000000e+00 0.000000000000000e+00 1.053164556963192e+01 0.000000000000000e+00 0.000000000000000e+00 1.032911392406314e+01 0.000000000000000e+00 0.000000000000000e+00 1.012658227849436e+01 0.000000000000000e+00 0.000000000000000e+00 9.924050632925587e+00 0.000000000000000e+00 0.000000000000000e+00 9.721518987356809e+00 0.000000000000000e+00 0.000000000000000e+00 9.518987341788034e+00 0.000000000000000e+00 0.000000000000000e+00 9.316455696219256e+00 0.000000000000000e+00 0.000000000000000e+00 9.113924050650478e+00 0.000000000000000e+00 0.000000000000000e+00 8.911392405081703e+00 0.000000000000000e+00 0.000000000000000e+00 8.708860759512925e+00 0.000000000000000e+00 0.000000000000000e+00 8.506329113944147e+00 0.000000000000000e+00 0.000000000000000e+00 8.303797468375370e+00 0.000000000000000e+00 0.000000000000000e+00 8.101265822806592e+00 0.000000000000000e+00 0.000000000000000e+00 7.898734177237253e+00 0.000000000000000e+00 0.000000000000000e+00 7.696202531667353e+00 0.000000000000000e+00 0.000000000000000e+00 7.493670886097451e+00 0.000000000000000e+00 0.000000000000000e+00 7.291139240527549e+00 0.000000000000000e+00 0.000000000000000e+00 7.088607594957649e+00 0.000000000000000e+00 0.000000000000000e+00 6.886075949387747e+00 0.000000000000000e+00 0.000000000000000e+00 6.683544303817845e+00 0.000000000000000e+00 0.000000000000000e+00 6.481012658247945e+00 0.000000000000000e+00 0.000000000000000e+00 6.278481012678045e+00 0.000000000000000e+00 0.000000000000000e+00 6.075949367108143e+00 0.000000000000000e+00 0.000000000000000e+00 5.873417721538242e+00 0.000000000000000e+00 0.000000000000000e+00 5.670886075968340e+00 0.000000000000000e+00 0.000000000000000e+00 5.468354430398438e+00 0.000000000000000e+00 0.000000000000000e+00 5.265822784828536e+00 0.000000000000000e+00 0.000000000000000e+00 5.063291139258636e+00 0.000000000000000e+00 0.000000000000000e+00 4.860759493688734e+00 0.000000000000000e+00 0.000000000000000e+00 4.658227848118834e+00 0.000000000000000e+00 0.000000000000000e+00 4.455696202548932e+00 0.000000000000000e+00 0.000000000000000e+00 4.253164556979030e+00 0.000000000000000e+00 0.000000000000000e+00 4.050632911409130e+00 0.000000000000000e+00 0.000000000000000e+00 3.848101265838807e+00 0.000000000000000e+00 0.00000000000000
[...]
<PointData Scalars="pressure_p1," Vectors="" Tensors="">
<DataArray type="Float64" Name="pressure_p1" format="ascii">
-1.990203017410620e-02 -1.845990672214325e-02 -4.676874609286377e+00 -4.676520122184231e+00 -1.754285640769865e-02 -2.370777059962688e-02 -2.654399075622860e-02 -5.980413586861821e-02 -1.197591416292918e-01 -1.821609064002242e-01 -2.428989381541502e-01 -3.032343649649378e-01 -3.641817943601605e-01 -4.261288340673985e-01 -4.869712751105693e-01 -5.472775384944213e-01 -6.078996986503381e-01 -6.686339276789451e-01 -7.294058370565960e-01 -7.902041448851755e-01 -8.508343778116684e-01 -9.111515418081088e-01 -9.710320319587962e-01 -1.030183920997257e+00 -1.096630024578844e+00 -1.158995086609721e+00 -1.217160525799266e+00 -1.277262343318277e+00 -1.337805748005738e+00 -1.398522478644432e+00 -1.459324419875819e+00 -1.520066938379778e+00 -1.580832454768360e+00 -1.641674833320271e+00 -1.702476301523366e+00 -1.763273312912420e+00 -1.824125304423118e+00 -1.884948983239855e+00 -1.945773443635231e+00 -2.006594994529348e+00 -2.067324416261654e+00 -2.128127340070749e+00 -2.188567183698860e+00 -2.247464713920100e+00 -2.311049182878651e+00 -2.375049381050546e+00 -2.434096528499560e+00 -2.493924690745723e+00 -2.553898778002642e+00 -2.615012902468679e+00 -2.676750390430384e+00 -2.736819254197843e+00 -2.797637181170334e+00 -2.859271912916357e+00 -2.919313602117424e+00 -2.980169322955984e+00 -3.041815224822914e+00 -3.101827565071722e+00 -3.162678274988511e+00 -3.224289690119547e+00 -3.284251887256031e+00 -3.345144186407076e+00 -3.406836301623574e+00 -3.466949985707049e+00 -3.526739310054300e+00 -3.586454536543824e+00 -3.645694634708993e+00 -3.712410546910877e+00 -3.773871166440622e+00 -3.832221621093168e+00 -3.892324415123401e+00 -3.952558406020649e+00 -4.013997051230175e+00 -4.075742737613890e+00 -4.135578979320918e+00 -4.196526140397578e+00 -4.258150492590936e+00 -4.318002442319565e+00 -4.377423981693396e+00 -4.436210682922488e+00 -4.493315309502718e+00 -4.547507857953025e+00 -4.596788328014760e+00 -4.637703809471820e+00 -4.665232329907040e+00 -4.677720935133916e+00 -4.678010786351439e+00 -4.677025706305622e+00 -4.666178446673826e+00 -4.638673005020888e+00 -4.596181869928416e+00 -4.547192709486817e+00 -4.493635416237400e+00 -4.437146719858638e+00 -4.377193481568290e+00 -4.316609426421032e+00 -4.256710950697226e+00 -4.196293062179030e+00 -4.135664925328849e+00 -4.074976637935801e+00 -4.014161896049225e+00 -3.953357611842733e+00 -3.892751608390434e+00 -3.832720738553447e+00 -3.774211439079043e+00 -3.710515612963059e+00 -3.645764225168264e+00 -3.586601871013345e+00 -3.526740723874713e+00 -3.466491490484874e+00 -3.405967683243562e+00 -3.345211103633018e+00 -3.284429174637342e+00 -3.223656895419223e+00 -3.162787638419656e+00 -3.101935992574356e+00 -3.041110538773760e+00 -2.980237437637035e+00 -2.919404113075617e+00 -2.858615793687610e+00 -2.797786105481132e+00 -2.736996077882315e+00 -2.676214662095055e+00 -2.615373558322897e+00 -2.554662238332521e+00 -2.494224444705113e+00 -2.434185722622837e+00 -2.375039536746773e+00 -2.310761395130076e+00 -2.247724415533182e+00 -2.191305408894011e+00 -2.130144895900009e+00 -2.067944586178888e+00 -2.007535547660838e+00 -1.945873392384089e+00 -1.885184887792133e+00 -1.824999674441066e+00 -1.763391661575177e+00 -1.702755936627394e+00 -1.642541314884236e+00 -1.580915925001959e+00 -1.520297623352561e+00 -1.460061376644507e+00 -1.398335806806794e+00 -1.337418318792652e+00 -1.277373894294837e+00 -1.217628218577354e+00 -1.159108257850883e+00 -1.095100717138441e+00 -1.030372927771453e+00 -9.712786616556054e-01 -9.115474255299656e-01 -8.516865542882509e-01 -7.911012614751818e-01 -7.293559080719452e-01 -6.687998834352240e-01 -6.083810977727776e-01 -5.465436662509854e-01 -4.855374843992009e-01 -4.251020862435784e-01 -3.643450224011465e-01 -3.035124864395715e-01 -2.426496534894203e-01 -1.816553480897514e-01 -1.209278756434499e-01 -6.239418870652066e-02 -4.573796101274069e+00 -2.106128337547645e-01 -4.408148927927454e+00 -3.552618183679073e+00 -3.937665091537061e-01 -4.227518433461305e+00 -3.376644684766183e+00 -4.045159065891533e+00 -5.765683087858614e-01 -3.194202789069819e+00 -3.863037709418190e+00 -3.011474263873904e+00 -7.593209269719241e-01 -2.828790211008528e+00 -9.359119189013968e-01 -2.646136062603769e+00 -1.247063549516772e+00 -2.467804588633411e+00 -1.428278690696952e+00 -1.610598807925364e+00 -1.793065098278838e+00 -1.975598212610889e+00 -2.147974179580519e+00 -2.307334466714087e+00 -3.704327915524491e+00 -1.088673855247309e+00 -4.641085123247833e+00 -1.156817712048305e-01 -2.066409854295722e+00 -1.884136712888911e+00 -1.701738848618751e+00 -2.551885964687333e+00 -1.519381180218712e+00 -1.334505775104018e+00 -2.736626058777052e+00 -2.919157143427947e+00 -3.101890285814198e+00 -3.284277908497092e+00 -3.468816973818309e+00 -3.950092803263971e+00 -4.496247779047145e+00 -4.135178137180804e+00 -4.314676374671957e+00 -8.528368992601044e-01 -2.997012701290026e-01 -6.679316852620203e-01 -4.882427191981037e-01 -3.466947485725182e+00 -3.285469200172429e+00 -3.102925527962672e+00 -2.920071532948765e+00 -2.737634250375773e+00 -2.555245428986364e+00 -4.823796505337077e-01 -4.320528854749572e+00 -4.494867131415486e+00 -3.016102007792409e-01 -4.136289026632618e+00 -6.676135169086477e-01 -3.953812418774705e+00 -8.496872637602727e-01 -1.336847487734900e+00 -1.519184589139351e+00 -1.701411578918561e+00 -1.883971482826160e+00 -2.065817555246923e+00 -2.230801577239129e+00 -2.241830441816606e+00 -3.776508246031460e+00 -3.786614987465749e+00 -1.161273330009687e+00 -1.171573570341704e+00 -2.384166471086868e+00 -1.018813441453822e+00 -3.634962085807386e+00 -1.016887256377393e+00 -2.384193170493571e+00 -3.632991108632698e+00 -1.275854661296907e-01 -4.633486721298061e+00 -2.645809035129380e+00 -2.166366665031667e+00 -1.976286392139577e+00 -2.828484912898430e+00 -1.793766102969798e+00 -1.611311319031883e+00 -3.011114877111064e+00 -1.428782710009925e+00 -1.248263749662911e+00 -3.193662949956340e+00 -3.376193190071198e+00 -3.862803431547305e+00 -2.122770442789448e-01 -7.599598761359539e-01 -4.572563577906608e+00 -4.044790928917240e+00 -4.407495428246173e+00 -3.947095021142845e-01 -4.227567196747303e+00 -5.769150104302431e-01 -3.376192819361256e+00 -4.226728719182119e+00 -4.407734085780003e+00 -5.772564810730717e-01 -4.045110602311372e+00 -3.939750827359215e-01 -4.573678471008400e+00 -3.193870600633282e+00 -3.863821869329013e+00 -7.593096563033490e-01 -3.011153456722880e+00 -2.111767660345869e-01 -2.828619388903469e+00 -2.646207070499745e+00 -1.247585257705460e+00 -1.428542859270194e+00 -1.610721377646824e+00 -1.793179415740416e+00 -1.975760651906970e+00 -2.158030548280149e+00 -3.554943849870821e+00 -3.555190573230397e+00 -9.388557934959737e-01 -2.465831337268466e+00 -9.395299202358752e-01 -2.465400293137258e+00 -2.309607153404125e+00 -2.310203119165689e+00 -1.104280540975344e+00 -3.711354781066627e+00 -3.719986228153224e+00 -1.095994080502024e+00 -4.661449373464535e+00 -7.511837763218744e-02 -4.619523674717839e+00 -1.497644442338454e-01 -8.160007377489815e-02 -4.658238739539406e+00 -5.133302900890989e-01 -4.290351200161523e+00 -3.330977318780242e-01 -4.465787417989483e+00 -4.105823949783747e+00 -3.923653420091172e+00 -3.436677965478518e+00 -6.984585724528660e-01 -3.254735672351827e+00 -3.072098697097134e+00 -1.367757138357103e+00 -1.549882927882863e+00 -2.889454664013142e+00 -1.732293781134063e+00 -1.914842268344672e+00 -2.707086667728213e+00 -2.096941239713592e+00 -4.289564270113684e+00 -4.468463767069308e+00 -5.137130210972544e-01 -4.107496901933462e+00 -3.922815220092186e+00 -3.299328813374593e-01 -1.364760681152865e+00 -1.547685571522424e+00 -1.730028490110684e+00 -1.912551730050556e+00 -3.439189432657532e+00 -2.092868454244610e+00 -3.256620479092122e+00 -3.074085351114064e+00 -6.961858407443237e-01 -2.891257857425562e+00 -8.794611099388209e-01 -2.708767149627131e+00 -2.525036961257884e+00 -8.799107527511678e-01 -2.525204523514655e+00 -2.097211251099366e+00 -1.913418034727944e+00 -2.708248279709003e+00 -1.730994577622993e+00 -1.548544268641617e+00 -2.890784561253217e+00 -1.365424307865252e+00 -3.073396480952475e+00 -3.255833337066594e+00 -3.438812141873953e+00 -6.970781082992428e-01 -3.922096821773139e+00 -4.107024078290727e+00 -4.467628740380156e+00 -4.286384925324968e+00 -3.311283887291541e-01 -4.521488475322656e+00 -4.344677224441937e+00 -2.722187453252313e-01 -5.172733302794406e-01 -4.583958461238524e-01 -4.164156513171491e+00 -3.980857798930042e+00 -6.398653775020314e-01 -8.231849826627405e-01 -3.312938872468556e+00 -3.130525741992094e+00 -1.307023648881139e+00 -2.947943187464066e+00 -1.491440288700344e+00 -1.673885401086380e+00 -2.765382747887209e+00 -1.856281535171990e+00 -2.038962762690122e+00 -2.582199435400816e+00 -2.523897043750988e+00 -8.813010168119652e-01 -3.496781996984625e+00 -2.412216616408992e+00 -1.040556126303157e+00 -3.606639381695739e+00 -3.797941764119268e+00 -1.182347206788539e+00 -2.248332184489034e+00 -2.948326770774992e+00 -2.765791867580195e+00 -3.313597992587491e+00 -2.582693226424541e+00 -3.131175556584296e+00 -3.496265452513466e+00 -1.490776062340178e+00 -2.037566664354014e+00 -1.306467643678692e+00 -1.672990511463192e+00 -1.855472245935327e+00 -4.346087872317330e+00 -4.566364507485225e-01 -4.522418697911800e+00 -4.164389568025945e+00 -2.709298658418022e-01 -3.981351046957292e+00 -6.391537299906624e-01 -8.222334545924518e-01 -4.654065595550688e+00 -9.007550695951798e-02 -2.950188944026177e+00 -2.585397826860547e+00 -3.315386181457152e+00 -3.132907168911291e+00 -2.767750599274107e+00 -8.199817103202655e-01 -6.378166449797016e-01 -1.307389379774633e+00 -2.036463461633826e+00 -1.671562046690934e+00 -1.489305398727429e+00 -1.854069749012750e+00 -3.984214187080945e+00 -4.166292639999269e+00 -4.521551119355770e+00 -2.722615396304793e-01 -4.348752339089887e+00 -4.542633273662426e-01 -3.496377783019412e+00 -4.620249406707182e+00 -1.482982904198835e-01 -1.512590207661120e-01 -4.618213124690801e+00 -2.353078344883500e+00 -3.666834298634267e+00 -2.353181903687600e+00 -3.667142534026401e+00 -1.050968013532038e+00 -1.051540196515627e+00 -2.216501339074644e+00 -1.191622706333471e+00 -2.220837125124765e+00 -3.806617816682575e+00 -1.189811521083681e+00 -3.804834553735225e+00 -2.114083169632259e+00 -1.932211021980903e+00 -2.688966700919079e+00 -1.749745545025267e+00 -1.567331405258475e+00 -2.871517563564449e+00 -1.384360993897561e+00 -3.054235385157968e+00 -3.236722828532012e+00 -3.419601728726805e+00 -7.159551396395332e-01 -3.892554716116653e+00 -4.087701401762932e+00 -4.257303454585475e+00 -4.449517911516269e+00 -5.465991739800954e-01 -3.499645815479668e-01 -9.089594536881288e-01 -2.495527800235311e+00 -3.612089210938736e+00 -3.612603649498419e+00 -2.407850738223865e+00 -9.962402769921855e-01 -9.968747605085611e-01 -2.407748070546420e+00 -4.364059935538103e+00 -4.548054615016112e+00 -4.383104118163411e-01 -2.415426899094272e-01 -4.183415958012476e+00 -4.000259897365850e+00 -6.200654907868187e-01 -8.033953393556972e-01 -3.332419457891539e+00 -3.150030823331969e+00 -1.277355291797148e+00 -2.967342064301784e+00 -1.471691177911130e+00 -2.784751653344133e+00 -1.654020665580991e+00 -1.836431109359639e+00 -2.601601461350068e+00 -2.018877237828598e+00 -3.524990337707044e+00 -4.669103289344243e+00 -5.341447806807988e-02 -2.197145887534313e+00 -3.747891646878625e+00 -1.132443877457417e+00 -2.190988424948223e+00 -5.324938355732307e-01 -3.626523555707481e-01 -4.270882495119265e+00 -2.677217591026518e+00 -2.859665873964025e+00 -3.042379840436801e+00 -3.225118326433282e+00 -3.407289883617206e+00 -4.437988664980554e+00 -2.125506527765055e+00 -1.944758512507993e+00 -1.762146996187015e+00 -1.579718132384105e+00 -1.397523284729911e+00 -7.282776752015260e-01 -4.076168733674632e+00 -3.893892421514103e+00 -2.496408374625057e+00 -9.079301471495027e-01 -2.615710514222725e+00 -2.798247251020868e+00 -2.980803892163986e+00 -3.163701550694767e+00 -3.346101005288936e+00 -2.006045772998826e+00 -1.823547479504194e+00 -1.641018593025586e+00 -1.458939811500703e+00 -1.277222828531446e+00 -7.897033940080785e-01 -6.073435309254752e-01 -4.014768173812626e+00 -4.196699956983490e+00 -4.548712104437167e+00 -2.409567639538162e-01 -4.378729063010670e+00 -4.238991335131818e-01 -1.139139855803628e+00 -2.268923079798699e+00 -1.141188008533671e+00 -3.754249687588974e+00 -3.756337438506221e+00 -2.267463094088713e+00 -3.524917589764715e+00 -2.333161174728142e+00 -2.332865396916134e+00 -1.070000285698075e+00 -3.675692435704583e+00 -3.685700965393092e+00 -1.060033355541287e+00 -3.580764230284780e+00 -3.581250674555038e+00 -2.439051101147699e+00 -9.642565804462363e-01 -2.438806016783760e+00 -9.649891854898139e-01 -1.219708044575483e+00 -3.835227493105927e+00 -1.217706742551235e+00 -3.833225536688326e+00 -4.595920256683713e+00 -1.819548829675327e-01 -3.741079286178234e+00 -1.125668003040566e+00 -1.792751819812036e-01 -4.598380202040171e+00 -2.284909217106381e+00 -2.282998061207078e+00 -4.672164219644242e+00 -4.081908441889079e-02 -4.673529969240627e+00 -3.561098327824462e-02 -2.359180980920351e+00 -3.656567979455258e+00 -9.901424126427759e-01 
</DataArray>
</PointData>
<CellData Scalars="pressure_p0," Vectors="velocity_p0," Tensors="">
<DataArray type="Float64" Name="pressure_p0" format="ascii">