<?xml version="1.0"?>
<VTKFile type="UnstructuredGrid" version="0.1" byte_order="LittleEndian">
<UnstructuredGrid>
<Piece NumberOfPoints="567" NumberOfCells="966">
<Points>
<DataArray type="Float64" NumberOfComponents="3" format="ascii">
0.000000000000000e+00 0.000000000000000e+00 0.000000000000000e+00 0.000000000000000e+00 1.000000000000000e+00 0.000000000000000e+00 1.600000000000000e+01 1.000000000000000e+00 0.000000000000000e+00 1.600000000000000e+01 0.000000000000000e+00 0.000000000000000e+00 0.000000000000000e+00 2.499999999993998e-01 0.000000000000000e+00 0.000000000000000e+00 4.999999999990217e-01 0.000000000000000e+00 0.000000000000000e+00 7.499999999993374e-01 0.000000000000000e+00 2.025316455691341e-01 1.000000000000000e+00 0.000000000000000e+00 4.050632911382681e-01 1.000000000000000e+00 0.000000000000000e+00 6.075949367074022e-01 1.000000000000000e+00 0.000000000000000e+00 8.101265822765362e-01 1.000000000000000e+00 0.000000000000000e+00 1.012658227845670e+00 1.000000000000000e+00 0.000000000000000e+00 1.215189873414804e+00 1.000000000000000e+00 0.000000000000000e+00 1.417721518983938e+00 1.000000000000000e+00 0.000000000000000e+00 1.620253164553072e+00 1.000000000000000e+00 0.000000000000000e+00 1.822784810122207e+00 1.000000000000000e+00 0.000000000000000e+00 2.025316455691340e+00 1.000000000000000e+00 0.000000000000000e+00 2.227848101260475e+00 1.000000000000000e+00 0.000000000000000e+00 2.430379746829609e+00 1.000000000000000e+00 0.000000000000000e+00 2.632911392398743e+00 1.000000000000000e+00 0.000000000000000e+00 2.835443037967877e+00 1.000000000000000e+00 0.000000000000000e+00 3.037974683537010e+00 1.000000000000000e+00 0.000000000000000e+00 3.240506329106145e+00 1.000000000000000e+00 0.000000000000000e+00 3.443037974675279e+00 1.000000000000000e+00 0.000000000000000e+00 3.645569620244413e+00 1.000000000000000e+00 0.000000000000000e+00 3.848101265813547e+00 1.000000000000000e+00 0.000000000000000e+00 4.050632911382726e+00 1.000000000000000e+00 0.000000000000000e+00 4.253164556952040e+00 1.000000000000000e+00 0.000000000000000e+00 4.455696202521353e+00 1.000000000000000e+00 0.000000000000000e+00 4.658227848090667e+00 1.000000000000000e+00 0.000000000000000e+00 4.860759493659981e+00 1.000000000000000e+00 0.000000000000000e+00 5.063291139229296e+00 1.000000000000000e+00 0.000000000000000e+00 5.265822784798610e+00 1.000000000000000e+00 0.000000000000000e+00 5.468354430367923e+00 1.000000000000000e+00 0.000000000000000e+00 5.670886075937237e+00 1.000000000000000e+00 0.000000000000000e+00 5.873417721506551e+00 1.000000000000000e+00 0.000000000000000e+00 6.075949367075864e+00 1.000000000000000e+00 0.000000000000000e+00 6.278481012645178e+00 1.000000000000000e+00 0.000000000000000e+00 6.481012658214492e+00 1.000000000000000e+00 0.000000000000000e+00 6.683544303783806e+00 1.000000000000000e+00 0.000000000000000e+00 6.886075949353121e+00 1.000000000000000e+00 0.000000000000000e+00 7.088607594922435e+00 1.000000000000000e+00 0.000000000000000e+00 7.291139240491749e+00 1.000000000000000e+00 0.000000000000000e+00 7.493670886061063e+00 1.000000000000000e+00 0.000000000000000e+00 7.696202531630375e+00 1.000000000000000e+00 0.000000000000000e+00 7.898734177199691e+00 1.000000000000000e+00 0.000000000000000e+00 8.101265822769285e+00 1.000000000000000e+00 0.000000000000000e+00 8.303797468339161e+00 1.000000000000000e+00 0.000000000000000e+00 8.506329113909036e+00 1.000000000000000e+00 0.000000000000000e+00 8.708860759478913e+00 1.000000000000000e+00 0.000000000000000e+00 8.911392405048788e+00 1.000000000000000e+00 0.000000000000000e+00 9.113924050618664e+00 1.000000000000000e+00 0.000000000000000e+00 9.316455696188541e+00 1.000000000000000e+00 0.000000000000000e+00 9.518987341758416e+00 1.000000000000000e+00 0.000000000000000e+00 9.721518987328292e+00 1.000000000000000e+00 0.000000000000000e+00 9.924050632898169e+00 1.000000000000000e+00 0.000000000000000e+00 1.012658227846805e+01 1.000000000000000e+00 0.000000000000000e+00 1.032911392403792e+01 1.000000000000000e+00 0.000000000000000e+00 1.053164556960780e+01 1.000000000000000e+00 0.000000000000000e+00 1.073417721517767e+01 1.000000000000000e+00 0.000000000000000e+00 1.093670886074755e+01 1.000000000000000e+00 0.000000000000000e+00 1.113924050631742e+01 1.000000000000000e+00 0.000000000000000e+00 1.134177215188730e+01 1.000000000000000e+00 0.000000000000000e+00 1.154430379745718e+01 1.000000000000000e+00 0.000000000000000e+00 1.174683544302705e+01 1.000000000000000e+00 0.000000000000000e+00 1.194936708859693e+01 1.000000000000000e+00 0.000000000000000e+00 1.215189873416701e+01 1.000000000000000e+00 0.000000000000000e+00 1.235443037973717e+01 1.000000000000000e+00 0.000000000000000e+00 1.255696202530733e+01 1.000000000000000e+00 0.000000000000000e+00 1.275949367087749e+01 1.000000000000000e+00 0.000000000000000e+00 1.296202531644764e+01 1.000000000000000e+00 0.000000000000000e+00 1.316455696201780e+01 1.000000000000000e+00 0.000000000000000e+00 1.336708860758796e+01 1.000000000000000e+00 0.000000000000000e+00 1.356962025315812e+01 1.000000000000000e+00 0.000000000000000e+00 1.377215189872827e+01 1.000000000000000e+00 0.000000000000000e+00 1.397468354429843e+01 1.000000000000000e+00 0.000000000000000e+00 1.417721518986859e+01 1.000000000000000e+00 0.000000000000000e+00 1.437974683543874e+01 1.000000000000000e+00 0.000000000000000e+00 1.458227848100890e+01 1.000000000000000e+00 0.000000000000000e+00 1.478481012657906e+01 1.000000000000000e+00 0.000000000000000e+00 1.498734177214921e+01 1.000000000000000e+00 0.000000000000000e+00 1.518987341771937e+01 1.000000000000000e+00 0.000000000000000e+00 1.539240506328953e+01 1.000000000000000e+00 0.000000000000000e+00 1.559493670885968e+01 1.000000000000000e+00 0.000000000000000e+00 1.579746835442984e+01 1.000000000000000e+00 0.000000000000000e+00 1.600000000000000e+01 7.500000000003469e-01 0.000000000000000e+00 1.600000000000000e+01 5.000000000013878e-01 0.000000000000000e+00 1.600000000000000e+01 2.500000000010407e-01 0.000000000000000e+00 1.579746835443066e+01 0.000000000000000e+00 0.000000000000000e+00 1.559493670886132e+01 0.000000000000000e+00 0.000000000000000e+00 1.539240506329198e+01 0.000000000000000e+00 0.000000000000000e+00 1.518987341772264e+01 0.000000000000000e+00 0.000000000000000e+00 1.498734177215330e+01 0.000000000000000e+00 0.000000000000000e+00 1.478481012658396e+01 0.000000000000000e+00 0.000000000000000e+00 1.458227848101463e+01 0.000000000000000e+00 0.000000000000000e+00 1.437974683544529e+01 0.000000000000000e+00 0.000000000000000e+00 1.417721518987595e+01 0.000000000000000e+00 0.000000000000000e+00 1.397468354430661e+01 0.000000000000000e+00 0.000000000000000e+00 1.377215189873727e+01 0.000000000000000e+00 0.000000000000000e+00 1.356962025316793e+01 0.000000000000000e+00 0.000000000000000e+00 1.336708860759859e+01 0.000000000000000e+00 0.000000000000000e+00 1.316455696202925e+01 0.000000000000000e+00 0.000000000000000e+00 1.296202531645991e+01 0.000000000000000e+00 0.000000000000000e+00 1.275949367089057e+01 0.000000000000000e+00 0.000000000000000e+00 1.255696202532123e+01 0.000000000000000e+00 0.000000000000000e+00 1.235443037975189e+01 0.000000000000000e+00 0.000000000000000e+00 1.215189873418256e+01 0.000000000000000e+00 0.000000000000000e+00 1.194936708861336e+01 0.000000000000000e+00 0.000000000000000e+00 1.174683544304458e+01 0.000000000000000e+00 0.000000000000000e+00 1.154430379747580e+01 0.000000000000000e+00 0.000000000000000e+00 1.134177215190703e+01 0.000000000000000e+00 0.000000000000000e+00 1.113924050633825e+01 0.000000000000000e+00 0.000000000000000e+00 1.093670886076947e+01 0.000000000000000e+00 0.000000000000000e+00 1.073417721520070e+01 0.000000000000000e+00 0.000000000000000e+00 1.053164556963192e+01 0.000000000000000e+00 0.000000000000000e+00 1.032911392406314e+01 0.000000000000000e+00 0.000000000000000e+00 1.012658227849436e+01 0.000000000000000e+00 0.000000000000000e+00 9.924050632925587e+00 0.000000000000000e+00 0.000000000000000e+00 9.721518987356809e+00 0.000000000000000e+00 0.000000000000000e+00 9.518987341788034e+00 0.000000000000000e+00 0.000000000000000e+00 9.316455696219256e+00 0.000000000000000e+00 0.000000000000000e+00 9.113924050650478e+00 0.000000000000000e+00 0.000000000000000e+00 8.911392405081703e+00 0.000000000000000e+00 0.000000000000000e+00 8.708860759512925e+00 0.000000000000000e+00 0.000000000000000e+00 8.506329113944147e+00 0.000000000000000e+00 0.000000000000000e+00 8.303797468375370e+00 0.000000000000000e+00 0.000000000000000e+00 8.101265822806592e+00 0.000000000000000e+00 0.000000000000000e+00 7.898734177237253e+00 0.000000000000000e+00 0.000000000000000e+00 7.696202531667353e+00 0.000000000000000e+00 0.000000000000000e+00 7.493670886097451e+00 0.000000000000000e+00 0.000000000000000e+00 7.291139240527549e+00 0.000000000000000e+00 0.000000000000000e+00 7.088607594957649e+00 0.000000000000000e+00 0.000000000000000e+00 6.886075949387747e+00 0.000000000000000e+00 0.000000000000000e+00 6.683544303817845e+00 0.000000000000000e+00 0.000000000000000e+00 6.481012658247945e+00 0.000000000000000e+00 0.000000000000000e+00 6.278481012678045e+00 0.000000000000000e+00 0.000000000000000e+00 6.075949367108143e+00 0.000000000000000e+00 0.000000000000000e+00 5.873417721538242e+00 0.000000000000000e+00 0.000000000000000e+00 5.670886075968340e+00 0.000000000000000e+00 0.000000000000000e+00 5.468354430398438e+00 0.000000000000000e+00 0.000000000000000e+00 5.265822784828536e+00 0.000000000000000e+00 0.000000000000000e+00 5.063291139258636e+00 0.000000000000000e+00 0.000000000000000e+00 4.860759493688734e+00 0.000000000000000e+00 0.000000000000000e+00 4.658227848118834e+00 0.000000000000000e+00 0.000000000000000e+00 4.455696202548932e+00 0.000000000000000e+00 0.000000000000000e+00 4.253164556979030e+00 0.000000000000000e+00 0.000000000000000e+00 4.050632911409130e+00 0.000000000000000e+00 0.000000000000000e+00 3.848101265838807e+00 0.000000000000000e+00 0.00000000000000
[...]
<PointData Scalars="pressure_p1," Vectors="" Tensors="">
<DataArray type="Float64" Name="pressure_p1" format="ascii">
-1.125882482381561e-01 -1.044768147161121e-01 -2.552784051417652e+01 -2.552812645295898e+01 -9.939431214563395e-02 -1.343223908862018e-01 -1.501392265408733e-01 -3.387944557599019e-01 -6.784578946689374e-01 -1.031884564194983e+00 -1.375676475787208e+00 -1.717152434788451e+00 -2.061895718697740e+00 -2.412618234246890e+00 -2.757347189690162e+00 -3.098785652372219e+00 -3.442068862425689e+00 -3.786022047842950e+00 -4.130186683304545e+00 -4.474547490400265e+00 -4.817986821412861e+00 -5.159604238906145e+00 -5.498651030605092e+00 -5.833251888878027e+00 -6.208570121135235e+00 -6.562990380823397e+00 -6.892025541665983e+00 -7.232252033106658e+00 -7.575073530823315e+00 -7.918865182481757e+00 -8.263185019913465e+00 -8.607174448616316e+00 -8.951222074106880e+00 -9.295744852558830e+00 -9.640057637063126e+00 -9.984291954163563e+00 -1.032885682075052e+01 -1.067328828889952e+01 -1.101768378704358e+01 -1.136212861159935e+01 -1.170605649544419e+01 -1.205027444462993e+01 -1.239280219585635e+01 -1.272668372777313e+01 -1.308615065232320e+01 -1.344815857481726e+01 -1.378264082043333e+01 -1.412144765591789e+01 -1.446091846353918e+01 -1.480517312442468e+01 -1.515484181030986e+01 -1.549663876206673e+01 -1.583918364226400e+01 -1.618819798946405e+01 -1.652990826246347e+01 -1.687252268560328e+01 -1.722151842068040e+01 -1.756310626111311e+01 -1.790551514397347e+01 -1.825421434332824e+01 -1.859542692967466e+01 -1.893758044349362e+01 -1.928629916314334e+01 -1.962821102654959e+01 -1.996571065840005e+01 -2.030186956265185e+01 -2.063370407716306e+01 -2.100484846469143e+01 -2.135225126713010e+01 -2.167471045630306e+01 -2.200516491958443e+01 -2.233335522961195e+01 -2.266165501449890e+01 -2.298900812171336e+01 -2.330200706689894e+01 -2.360804463383947e+01 -2.390967356551220e+01 -2.419312262038721e+01 -2.445897901692882e+01 -2.470693755456857e+01 -2.493191900357140e+01 -2.512941590007781e+01 -2.529436944973558e+01 -2.541993696036348e+01 -2.549805867655471e+01 -2.552924120400532e+01 -2.552664773905044e+01 -2.552486082387860e+01 -2.550105288235001e+01 -2.542182573085645e+01 -2.529262574496434e+01 -2.512844898140611e+01 -2.493295459981853e+01 -2.470847202723647e+01 -2.445545411627056e+01 -2.418651040843280e+01 -2.390501939535092e+01 -2.360925887971928e+01 -2.330268308320678e+01 -2.298757650659505e+01 -2.266528460778598e+01 -2.233796134572690e+01 -2.200761255191820e+01 -2.167745767967781e+01 -2.135256622577050e+01 -2.099636894577787e+01 -2.063461870507506e+01 -2.030276531643826e+01 -1.996574990940963e+01 -1.962585473210417e+01 -1.928388053126382e+01 -1.894040249670614e+01 -1.859671436541423e+01 -1.825284364516345e+01 -1.790837835289946e+01 -1.756401322976861e+01 -1.721965265098082e+01 -1.687502077935855e+01 -1.653066014301437e+01 -1.618644176071425e+01 -1.584199388925320e+01 -1.549781989463399e+01 -1.515357892709289e+01 -1.480905484627714e+01 -1.446536460474249e+01 -1.412317164582706e+01 -1.378319323407456e+01 -1.344813653972857e+01 -1.308455555068203e+01 -1.272921347805423e+01 -1.240704142826292e+01 -1.205891296921688e+01 -1.170906808074668e+01 -1.136596241286427e+01 -1.101680936677251e+01 -1.067446072098078e+01 -1.033257105844506e+01 -9.983695136001790e+00 -9.641513269814165e+00 -9.299566296283125e+00 -8.950590472593026e+00 -8.608384649490596e+00 -8.266414443027998e+00 -7.916818437356397e+00 -7.572801035355135e+00 -7.232873105703949e+00 -6.894639468071328e+00 -6.563121768652992e+00 -6.200540226947604e+00 -5.834477158559075e+00 -5.500010381816903e+00 -5.161761004151955e+00 -4.822713029027156e+00 -4.479041099120288e+00 -4.129331747630114e+00 -3.786933782337569e+00 -3.444499131886867e+00 -3.094335160834139e+00 -2.749299152718995e+00 -2.407157817125316e+00 -2.063147233840777e+00 -1.718748069717843e+00 -1.374186177832634e+00 -1.028825322904679e+00 -6.848927335698066e-01 -3.533401762582955e-01 -2.521964716206235e+01 -1.192936010078375e+00 -2.458979305279626e+01 -2.011323076968560e+01 -2.229602739616187e+00 -2.376296884058797e+01 -1.911748664923897e+01 -2.282961479212503e+01 -3.264585953317828e+00 -1.808564957455692e+01 -2.184409037951270e+01 -1.705135625737314e+01 -4.299411430046358e+00 -1.601711253873055e+01 -5.300177339942677e+00 -1.498279137809780e+01 -7.061242269030221e+00 -1.397464734427474e+01 -8.087122020332343e+00 -9.119522646695488e+00 -1.015266351288115e+01 -1.118628694745019e+01 -1.216296664778850e+01 -1.306690609734379e+01 -2.096638816924497e+01 -6.165444513045060e+00 -2.542818303778194e+01 -6.553132664407278e-01 -1.170295052685053e+01 -1.067055066631443e+01 -9.637567255988104e+00 -1.445123425809571e+01 -8.604816259233486e+00 -7.557202362288187e+00 -1.549847692553682e+01 -1.653216465298685e+01 -1.756683416298711e+01 -1.859908276934843e+01 -1.964109499494688e+01 -2.232238095160898e+01 -2.494478743376999e+01 -2.330419347996706e+01 -2.417997328445704e+01 -4.829765863883147e+00 -1.697358368485868e+00 -3.782700148482710e+00 -2.764800526517766e+00 -1.962908134626445e+01 -1.860302158429650e+01 -1.756998829400775e+01 -1.653478491665217e+01 -1.550178532929077e+01 -1.446909375356978e+01 -2.731703013671833e+00 -2.420684618752162e+01 -2.493810903789215e+01 -1.707984440380421e+00 -2.330644635577592e+01 -3.780301707293841e+00 -2.234084648751431e+01 -4.811610331876669e+00 -7.569799109496334e+00 -8.602358229790356e+00 -9.634193356714638e+00 -1.066795320092790e+01 -1.169796487235884e+01 -1.263266361288555e+01 -1.269626888014746e+01 -2.136729134604383e+01 -2.142430583053041e+01 -6.576037616779900e+00 -6.634610737687962e+00 -1.350161635122176e+01 -5.769737847326275e+00 -2.057685457822114e+01 -5.759139947218210e+00 -1.350175103971160e+01 -2.056686246836117e+01 -7.229729848313398e-01 -2.540733859993274e+01 -1.498036692540358e+01 -1.226549960806379e+01 -1.118968792378474e+01 -1.601476209232789e+01 -1.015625976718282e+01 -9.123219864699237e+00 -1.704868323896197e+01 -8.089683893416025e+00 -7.068271983562155e+00 -1.808189911583847e+01 -1.911415294702747e+01 -2.184342440779885e+01 -1.202363954583244e+00 -4.302872662811542e+00 -2.521550447521336e+01 -2.282683422176196e+01 -2.458629066533674e+01 -2.234838869508017e+00 -2.376241782163262e+01 -3.266465091126026e+00 -1.911541344962977e+01 -2.375954204014130e+01 -2.458871133248344e+01 -3.268518834061313e+00 -2.282984902418300e+01 -2.230885063546118e+00 -2.521880130142517e+01 -1.808411473838417e+01 -2.184926385380836e+01 -4.299497421853757e+00 -1.704986844324450e+01 -1.195998626322161e+00 -1.601642978799661e+01 -1.498350907234958e+01 -7.064307261386991e+00 -8.088784776552570e+00 -9.120368844107999e+00 -1.015351154918662e+01 -1.118739155608209e+01 -1.221926813197748e+01 -2.012522279776533e+01 -2.012653007860532e+01 -5.316592783615621e+00 -1.396272935811032e+01 -5.320362738519248e+00 -1.396032842524509e+01 -1.308012759887301e+01 -1.308368550735406e+01 -6.252928124068357e+00 -2.100383482742780e+01 -2.105082416935534e+01 -6.206389145822617e+00 -2.548274802223656e+01 -4.256370816164520e-01 -2.536531781767823e+01 -8.482479616064748e-01 -4.622870412353510e-01 -2.547637395797563e+01 -2.906700856372959e+00 -2.406526262123331e+01 -1.886209850440551e+00 -2.482547209412766e+01 -2.314864807136541e+01 -2.217663446985232e+01 -1.945746866105726e+01 -3.954887081777880e+00 -1.842867459379002e+01 -1.739504028015604e+01 -7.744635068680310e+00 -8.775952466476257e+00 -1.636103279330314e+01 -9.808828364339080e+00 -1.084249418841554e+01 -1.532840200447474e+01 -1.187372495744625e+01 -2.406267770533765e+01 -2.483692959794081e+01 -2.908965837064795e+00 -2.315909349955772e+01 -2.217281689643663e+01 -1.868385025160415e+00 -7.728112618809821e+00 -8.764183972664533e+00 -9.796733235711899e+00 -1.083034096729064e+01 -1.947280996293246e+01 -1.185223805540318e+01 -1.844077812594466e+01 -1.740764409458839e+01 -3.942278360682236e+00 -1.637252929572161e+01 -4.980399824220637e+00 -1.533915425118789e+01 -1.429863329188694e+01 -4.982720343735402e+00 -1.429875658545201e+01 -1.187491968045949e+01 -1.083477985337819e+01 -1.533555253709297e+01 -9.801813388920435e+00 -8.768687547480264e+00 -1.636915462044449e+01 -7.731586848360970e+00 -1.740301882280942e+01 -1.843552715750821e+01 -1.946978734183224e+01 -3.947189107363781e+00 -2.216839160168332e+01 -2.315568523916440e+01 -2.483298130007359e+01 -2.404646418710205e+01 -1.875083834287070e+00 -2.503704315251522e+01 -2.431444816678244e+01 -1.541663689460077e+00 -2.928929752951913e+00 -2.595621888498188e+00 -2.344866570098702e+01 -2.248684573859236e+01 -3.623280639833516e+00 -4.661393952572678e+00 -1.875848173157459e+01 -1.772636205318085e+01 -7.400979795138588e+00 -1.669272312213145e+01 -8.445388113723967e+00 -9.478496885955478e+00 -1.565904277100300e+01 -1.051131097623071e+01 -1.154567012374195e+01 -1.462150857686677e+01 -1.429158107325776e+01 -4.990593357267578e+00 -1.979734059614096e+01 -1.366032327554062e+01 -5.893335520848144e+00 -2.041810021069479e+01 -2.148456427173778e+01 -6.694822245532393e+00 -1.273175762780852e+01 -1.669560773807778e+01 -1.566203772891431e+01 -1.876303126125593e+01 -1.462491789712331e+01 -1.773078873814180e+01 -1.979530357450115e+01 -8.441972216176694e+00 -1.153856273345298e+01 -7.398010604602425e+00 -9.473805410748158e+00 -1.050715865853607e+01 -2.432195062188694e+01 -2.585842339773342e+00 -2.504082013879917e+01 -2.345077064445701e+01 -1.534393805545189e+00 -2.249033954600869e+01 -3.619364001795094e+00 -4.656211063932151e+00 -2.546702834698473e+01 -5.102013215937768e-01 -1.670487185679480e+01 -1.463934839231620e+01 -1.877174110201482e+01 -1.773923525767962e+01 -1.567191069355338e+01 -4.643212903456117e+00 -3.611484127725460e+00 -7.402890235033554e+00 -1.153128474802730e+01 -9.464959967598146e+00 -8.432956709979512e+00 -1.049839150107252e+01 -2.250458927977018e+01 -2.345868910993431e+01 -2.503687990491510e+01 -1.541823600769885e+00 -2.433282399194999e+01 -2.572296271546245e+00 -1.979482211610611e+01 -2.536701988190896e+01 -8.401594247035947e-01 -8.569448717129159e-01 -2.536141809402605e+01 -1.332505220194961e+01 -2.075316359435753e+01 -1.332565929790933e+01 -2.075590222141145e+01 -5.951079345902905e+00 -5.954623572922586e+00 -1.255166550625154e+01 -6.747924471667133e+00 -1.257658518533723e+01 -2.153458990619248e+01 -6.737588268645815e+00 -2.152447002670123e+01 -1.197213534166945e+01 -1.094197567018248e+01 -1.522739914249166e+01 -9.908662941773471e+00 -8.875680765938890e+00 -1.626118000487871e+01 -7.839339425518712e+00 -1.729571911828780e+01 -1.832863601124072e+01 -1.936255082816029e+01 -4.054349530512374e+00 -2.200710918248975e+01 -2.305669714227996e+01 -2.390766210266561e+01 -2.476254749097706e+01 -3.094870590089254e+00 -1.981854585066428e+00 -5.147427692288928e+00 -1.413147610436816e+01 -2.044685989961402e+01 -2.044971367970410e+01 -1.363467104342103e+01 -5.641559082261256e+00 -5.645123529797153e+00 -1.363408448139624e+01 -2.440229704305839e+01 -2.513215137246708e+01 -2.482072455211667e+00 -1.368058827058477e+00 -2.354740939507017e+01 -2.259273239085633e+01 -3.511381603492571e+00 -4.549587019035863e+00 -1.886995983426174e+01 -1.783800211751200e+01 -7.233158304687675e+00 -1.680371812606014e+01 -8.334111566938663e+00 -1.576981402560272e+01 -9.366644940886456e+00 -1.039961207600733e+01 -1.473233915557082e+01 -1.143287017093068e+01 -1.995723776989033e+01 -2.550615870000729e+01 -3.026341395196582e-01 -1.244112136131983e+01 -2.120819841324692e+01 -6.412853148439241e+00 -1.240610196631552e+01 -3.015393215290603e+00 -2.053447950409407e+00 -2.397489195318920e+01 -1.515881817942171e+01 -1.619189967070240e+01 -1.722629568121772e+01 -1.826058352520545e+01 -1.929077078528517e+01 -2.471359238978664e+01 -1.203535798488446e+01 -1.101156240700202e+01 -9.977542134076993e+00 -8.944613433210202e+00 -7.912916981863653e+00 -4.123604100900700e+00 -2.299324984787610e+01 -2.201438687683296e+01 -1.413623441009876e+01 -5.141583610427012e+00 -1.481048976732788e+01 -1.584411949289318e+01 -1.687767212887653e+01 -1.791298581543720e+01 -1.894484807326630e+01 -1.135873804886785e+01 -1.032526131535638e+01 -9.291751657810410e+00 -8.260774240812315e+00 -7.232187537534121e+00 -4.471545947457216e+00 -3.438840333301748e+00 -2.266779982018956e+01 -2.361078380027922e+01 -2.513389511456867e+01 -1.364648524636465e+00 -2.446428898594971e+01 -2.400292463319139e+00 -6.450564420649108e+00 -1.284965162020801e+01 -6.462094118894567e+00 -2.124291273662149e+01 -2.125428194125661e+01 -1.284128169448523e+01 -1.995654193270742e+01 -1.321397624594901e+01 -1.321215145329624e+01 -6.059654362664394e+00 -2.080731471743998e+01 -2.086182927027833e+01 -6.003661252265701e+00 -2.027178488663073e+01 -2.027428449715871e+01 -1.381179334746150e+01 -5.460727742853631e+00 -1.381043103439712e+01 -5.464803951919198e+00 -6.906776375411391e+00 -2.169220847435214e+01 -6.894998040484084e+00 -2.167983228735491e+01 -2.529265958758609e+01 -1.030787550054798e+00 -2.117015134558445e+01 -6.374478566051883e+00 -1.015452044304092e+00 -2.529929493382153e+01 -1.294092522503506e+01 -1.292925069950096e+01 -2.551626323544772e+01 -2.312154949863830e-01 -2.551992659741266e+01 -2.016578539246253e-01 -1.336065925301389e+01 -2.069991233611117e+01 -5.607511364119606e+00 
</DataArray>
</PointData>
<CellData Scalars="pressure_p0," Vectors="velocity_p0," Tensors="">
<DataArray type="Float64" Name="pressure_p0" format="ascii">