<?xml version="1.0"?>
<VTKFile type="UnstructuredGrid" version="0.1" byte_order="LittleEndian">
<UnstructuredGrid>
<Piece NumberOfPoints="1532" NumberOfCells="393">
<Points>
<DataArray type="Float64" NumberOfComponents="3" format="ascii">
0.24999999999941211 0 -1 0.27542009602191558 0.2786841073879448 -1 0.14138946044788619 0.141933462342688 -1 0.27864353689002019 0 -0.72105707495041649 0.17663550269374309 0.2000173280584561 -0.80767327345777706 0.24999999999941211 0 -1 0.14192670059260701 0 -0.85802340138044431 0 0.1419064153440632 -0.85809358465605046 0 0 -1 0 0.25000000000104028 -1 0.14138946044788619 0.141933462342688 -1 0 0 -0.74999999999934164 0.17663550269374309 0.2000173280584561 -0.80767327345777706 0.14138946044788619 0.141933462342688 -1 0 0.1419064153440632 -0.85809358465605046 0 0 -0.74999999999934164 0.14138946044788619 0.141933462342688 -1 0.17663550269374309 0.2000173280584561 -0.80767327345777706 0.14192670059260701 0 -0.85802340138044431 0.17663550269374309 0.2000173280584561 -0.80767327345777706 0.27542009602191558 0.2786841073879448 -1 0.14138946044788619 0.141933462342688 -1 0 0.25000000000104028 -1 0.27864353689002019 0 -0.72105707495041649 0.17663550269374309 0.2000173280584561 -0.80767327345777706 0.14192670059260701 0 -0.85802340138044431 0 0 -0.74999999999934164 0.17663550269374309 0.2000173280584561 -0.80767327345777706 0 0.27852182539691489 -0.72147817460311425 0 0.1419064153440632 -0.85809358465605046 0 0 -0.74999999999934164 0 0 -1 0 0 -0.74999999999934164 0.14138946044788619 0.141933462342688 -1 0 0.1419064153440632 -0.85809358465605046 0 0 -1 0.14138946044788619 0.141933462342688 -1 0 0 -0.74999999999934164 0.14192670059260701 0 -0.85802340138044431 0 0 -1 0.14138946044788619 0.141933462342688 -1 0 0.25000000000104028 -1 0 0.27852182539691489 -0.72147817460311425 0.17663550269374309 0.2000173280584561 -0.80767327345777706 0 0.1419064153440632 -0.85809358465605046 0 0.25000000000104028 -1 0.24999999999941211 0 -1 0.17663550269374309 0.2000173280584561 -0.80767327345777706 0.27542009602191558 0.2786841073879448 -1 0.14138946044788619 0.141933462342688 -1 0.27542009602191558 0.2786841073879448 -1 0 0.25000000000104028 -1 0.14138946044788619 0.141933462342688 -1 0.17663550269374309 0.2000173280584561 -0.80767327345777706 0 0.1419064153440632 -0.85809358465605046 0 0.25000000000104028 -1 0.14138946044788619 0.141933462342688 -1 0.17663550269374309 0.2000173280584561 -0.80767327345777706 0.14192670059260701 0 -0.85802340138044431 0.14138946044788619 0.141933462342688 -1 0.24999999999941211 0 -1 0.14192670059260701 0 -0.85802340138044431 0.24999999999941211 0 -1 0 0 -1 0.14138946044788619 0.141933462342688 -1 0 0 -1 0.24999999999941211 0 -1 0.14138946044788619 0.141933462342688 -1 0.49924645474497431 0.19077333889470441 -1 0.27864353689002019 0 -0.72105707495041649 0.24999999999941211 0 -1 0.50013523499221102 0 -0.80867011855167226 0.49999999999869432 0 -1 0.49924645474497431 0.19077333889470441 -1 0.24999999999941211 0 -1 0.50013523499221102 0 -0.80867011855167226 0.27864353689002019 0 -0.72105707495041649 0.36400213509809493 0.30340182266465199 -0.71803582340462213 0.49924645474497431 0.19077333889470441 -1 0.17663550269374309 0.2000173280584561 -0.80767327345777706 0.49924645474497431 0.19077333889470441 -1 0.36400213509809493 0.30340182266465199 -0.71803582340462213 0.27864353689002019 0 -0.72105707495041649 0.50013523499221102 0 -0.80867011855167226 0.49924645474497431 0.19077333889470441 -1 0.17663550269374309 0.2000173280584561 -0.80767327345777706 0.36400213509809493 0.30340182266465199 -0.71803582340462213 0.27542009602191558 0.2786841073879448 -1 0.17663550269374309 0.2000173280584561 -0.80767327345777706 0.24999999999941211 0 -1 0.49924645474497431 0.19077333889470441 -1 0.27864353689002019 0 -0.72105707495041649 0.49924645474497431 0.19077333889470441 -1 0.24999999999941211 0 -1 0.17663550269374309 0.2000173280584561 -0.80767327345777706 0.27542009602191558 0.2786841073879448 -1 0.24999999999941211 0 -1 0.49924645474497431 0.19077333889470441 -1 0.27542009602191558 0.2786841073879448 -1 0.24999999999941211 0 -1 0.49999999999869432 0 -1 0.49924645474497431 0.19077333889470441 -1 0.19099722793781729 0 -0.49920550623183851 0.50109540343913672 0 -0.49621010312562502 0.36400213509809493 0.30340182266465199 -0.71803582340462213 0.42348748445510859 0.33558750152587891 -0.41138750314712519 0.19099722793781729 0 -0.49920550623183851 0.36400213509809493 0.30340182266465199 -0.71803582340462213 0.50109540343913672 0 -0.49621010312562502 0.27864353689002019 0 -0.72105707495041649 0.36400213509809493 0.30340182266465199 -0.71803582340462213 0.27864353689002019 0 -0.72105707495041649 0.50013523499221102 0 -0.80867011855167226 0.50109540343913672 0 -0.49621010312562502 0.27864353689002019 0 -0.72105707495041649 0.17663550269374309 0.2000173280584561 -0.80767327345777706 0.19099722793781729 0 -0.49920550623183851 0.36400213509809493 0.30340182266465199 -0.71803582340462213 0 0 -0.74999999999934164 0.19099722793781729 0 -0.49920550623183851 0 0.27852182539691489 -0.72147817460311425 0 0.190861992945314 -0.49999999999972489 0 0 -0.49999999999869432 0 0 -0.74999999999934164 0 0.190861992945314 -0.49999999999972489 0.19099722793781729 0 -0.49920550623183851 0.36400213509809493 0.30340182266465199 -0.71803582340462213 0 0.190861992945314 -0.49999999999972489 0.19099722793781729 0 -0.49920550623183851 0.42348748445510859 0.33558750152587891 -0.41138750314712519 0 0.27852182539691489 -0.72147817460311425 0.19099722793781729 0 -0.49920550623183851 0 0 -0.74999999999934164 0.17663550269374309 0.2000173280584561 -0.80767327345777706 0.19099722793781729 0 -0.49920550623183851 0.36400213509809493 0.30340182266465199 -0.71803582340462213 0 0.27852182539691489 -0.72147817460311425 0 0.190861992945314 -0.49999999999972489 0 0.27852182539691489 -0.72147817460311425 0.36400213509809493 0.30340182266465199 -0.71803582340462213 0.19099722793781729 0 -0.49920550623183851 0.17663550269374309 0.2000173280584561 -0.80767327345777706 0.17663550269374309 0.2000173280584561 -0.80767327345777706 0.19099722793781729 0 -0.49920550623183851 0 0 -0.74999999999934164 0.27864353689002019 0 -0.72105707495041649 0 0.50017861225427096 -0.49773060372977418 0 0.190861992945314 -0.49999999999972489 0.36400213509809493 0.30340182266465199 -0.71803582340462213 0.42348748445510859 0.33558750152587891 -0.41138750314712519 0 0.50023418051147772 -0.80910018661861283 0.36400213509809493 0.30340182266465199 -0.71803582340462213 0.42348748445510859 0.67651247978210449 -0.75231254100799561 0 0.50017861225427096 -0.49773060372977418 0.36400213509809493 0.30340182266465199 -0.71803582340462213 0 0.190861992945314 -0.49999999999972489 0 0.50017861225427096 -0.49773060372977418 0 0.27852182539691489 -0.72147817460311425 0.36400213509809493 0.30340182266465199 -0.71803582340462213 0 0.50023418051147772 -0.80910018661861283 0 0.27852182539691489 -0.72147817460311425 0 0.50017861225427096 -0.49773060372977418 0.764412522315979 0.33558750152587891 -0.75231254100799561 0.36400213509809493 0.30340182266465199 -0.71803582340462213 0.42348748445510859 0.33558750152587891 -0.41138750314712519 0.42348748445510859 0.67651247978210449 -0.75231254100799561 0.36400213509809493 0.30340182266465199 -0.71803582340462213 0 0.50017861225427096 -0.49773060372977418 0.42348748445510859 0.33558750152587891 -0.41138750314712519 0.42348748445510859 0.67651247978210449 -0.75231254100799561 0.36400213509809493 0.30340182266465199 -0.71803582340462213 0.27542009602191558 0.2786841073879448 -1 0.19232253086422449 0.50146053791918455 -1 0.49631982208178133 0.49903983155338327 -1 0.27542009602191558 0.2786841073879448 -1 0.49924645474497431 0.19077333889470441 -1 0.49631982208178133 0.49903983155338327 -1 0.36400213509809493 0.30340182266465199 -0.71803582340462213 0.19232253086422449 0.50146053791918455 -1 0.42348748445510859 0.67651247978210449 -0.75231254100799561 0.49631982208178133 0.49903983155338327 -1 0.27542009602191558 0.2786841073879448 -1 0.17663550269374309 0.2000173280584561 -0.80767327345777706 0.36400213509809493 0.30340182266465199 -0.71803582340462213 0.19232253086422449 0.50146053791918455 -1 0.27542009602191558 0.2786841073879448 -1 0.49631982208178133 0.49903983155338327 -1 0.19232253086422449 0.50146053791918455 -1 0.49924645474497431 0.19077333889470441 -1 0.27542009602191558 0.2786841073879448 -1 0.36400213509809493 0.30340182266465199 -0.71803582340462213 0.49631982208178133 0.49903983155338327 -1 0.27542009602191558 0.2786841073879448 -1 0.17663550269374309 0.2000173280584561 -0.80767327345777706 0.19232253086422449 0.50146053791918455 -1 0 0.25000000000104028 -1 0 0.25000000000104028 -1 0.19232253086422449 0.50146053791918455 -1 0 0.27852182539691489 -0.72147817460311425 0.17663550269374309 0.2000173280584561 -0.80767327345777706 0 0.50023418051147772 -0.80910018661861283 0.36400213509809493 0.30340182266465199 -0.71803582340462213 0.19232253086422449 0.50146053791918455 -1 0.42348748445510859 0.67651247978210449 -0.75231254100799561 0.19232253086422449 0.50146053791918455 -1 0 0.25000000000104028 -1 0 0.50023418051147772 -0.80910018661861283 0 0.50000000000205869 -1 0 0.25000000000104028 -1 0.19232253086422449 0.50146053791918455 -1 0 0.50000000000205869 -1 0.27542009602191558 0.2786841073879448 -1 0.19232253086422449 0.50146053791918455 -1 0 0.25000000000104028 -1 0 0.27852182539691489 -0.72147817460311425 0.36400213509809493 0.30340182266465199 -0.71803582340462213 0.19232253086422449 0.50146053791918455 -1 0 0.50023418051147772 -0.80910018661861283 0.19232253086422449 0.50146053791918455 -1 0.36400213509809493 0.30340182266465199 -0.71803582340462213 0 0.27852182539691489 -0.72147817460311425 0.17663550269374309 0.2000173280584561 -0.80767327345777706 0 0.27852182539691489 -0.72147817460311425 0.19232253086422449 0.50146053791918455 -1 0 0.25000000000104028 -1 0 0.50023418051147772 -0.80910018661861283 0 0.50023418051147772 -0.809100186618
[...]
<PointData Scalars="pressure_p0," Vectors="velocity_p0," Tensors="anisotropy,">
<DataArray type="Float64" Name="pressure_p0" format="ascii">
-3.7386089473978039 -3.7386089473978039 -3.7386089473978039 -0.26091985727061029 -0.26091985727061029 -0.26091985727061029 -0.26091985727061029 -0.55706459310881662 -0.55706459310881662 -0.55706459310881662 -0.55706459310881662 -0.33386161779366907 -0.33386161779366907 -0.33386161779366907 -0.33386161779366907 -0.33789575071698869 -0.33789575071698869 -0.33789575071698869 -0.33789575071698869 -1.1812535821683849 -1.1812535821683849 -1.1812535821683849 -1.1812535821683849 -0.145113902774058 -0.145113902774058 -0.145113902774058 -0.145113902774058 -0.13257696947931241 -0.13257696947931241 -0.13257696947931241 -0.13257696947931241 -0.23772883720215945 -0.23772883720215945 -0.23772883720215945 -0.23772883720215945 -0.23899852579742795 -0.23899852579742795 -0.23899852579742795 -0.23899852579742795 -3.7385601119690484 -3.7385601119690484 -3.7385601119690484 -0.23678685253178555 -0.23678685253178555 -0.23678685253178555 -0.23678685253178555 -1.1925273130618592 -1.1925273130618592 -1.1925273130618592 -1.1925273130618592 -3.7386087306975613 -3.7386087306975613 -3.7386087306975613 -0.62432677452812357 -0.62432677452812357 -0.62432677452812357 -0.62432677452812357 -0.63871495339055184 -0.63871495339055184 -0.63871495339055184 -0.63871495339055184 -0.55965893160732505 -0.55965893160732505 -0.55965893160732505 -0.55965893160732505 -3.7385602873530335 -3.7385602873530335 -3.7385602873530335 -0.4507285662939931 -0.4507285662939931 -0.4507285662939931 -0.4507285662939931 -0.73546548662021982 -0.73546548662021982 -0.73546548662021982 -0.73546548662021982 -0.73613384156056616 -0.73613384156056616 -0.73613384156056616 -0.73613384156056616 -0.57441943265566464 -0.57441943265566464 -0.57441943265566464 -0.57441943265566464 -1.1870028630183447 -1.1870028630183447 -1.1870028630183447 -1.1870028630183447 -0.71758158887703472 -0.71758158887703472 -0.71758158887703472 -0.71758158887703472 -1.3925842850852628 -1.3925842850852628 -1.3925842850852628 -1.3925842850852628 -3.7386516939020522 -3.7386516939020522 -3.7386516939020522 -3.7386323671516046 -3.7386323671516046 -3.7386323671516046 -0.17143311443643069 -0.17143311443643069 -0.17143311443643069 -0.17143311443643069 -0.13798045255053698 -0.13798045255053698 -0.13798045255053698 -0.13798045255053698 -0.22240116227669984 -0.22240116227669984 -0.22240116227669984 -0.22240116227669984 -0.29640194859502056 -0.29640194859502056 -0.29640194859502056 -0.29640194859502056 -0.033578554686736588 -0.033578554686736588 -0.033578554686736588 -0.033578554686736588 -0.015461302794764362 -0.015461302794764362 -0.015461302794764362 -0.015461302794764362 -0.17351740577774979 -0.17351740577774979 -0.17351740577774979 -0.17351740577774979 -0.11263914780490988 -0.11263914780490988 -0.11263914780490988 -0.11263914780490988 -0.16809432840600702 -0.16809432840600702 -0.16809432840600702 -0.16809432840600702 -0.32059475403109028 -0.32059475403109028 -0.32059475403109028 -0.32059475403109028 -0.094545086895670954 -0.094545086895670954 -0.094545086895670954 -0.094545086895670954 -0.18977604492934905 -0.18977604492934905 -0.18977604492934905 -0.18977604492934905 -0.4848826164221714 -0.4848826164221714 -0.4848826164221714 -0.4848826164221714 -0.15762736490781515 -0.15762736490781515 -0.15762736490781515 -0.15762736490781515 -0.24643368585165326 -0.24643368585165326 -0.24643368585165326 -0.24643368585165326 -0.58956753620863789 -0.58956753620863789 -0.58956753620863789 -0.58956753620863789 -0.39676423853497245 -0.39676423853497245 -0.39676423853497245 -0.39676423853497245 -1.6655264626645323 -1.6655264626645323 -1.6655264626645323 -1.6655264626645323 -3.7387227358824133 -3.7387227358824133 -3.7387227358824133 -1.3757637474398918 -1.3757637474398918 -1.3757637474398918 -1.3757637474398918 -1.2133849901775033 -1.2133849901775033 -1.2133849901775033 -1.2133849901775033 -3.7387240446614181 -3.7387240446614181 -3.7387240446614181 -1.6311774300809845 -1.6311774300809845 -1.6311774300809845 -1.6311774300809845 -1.3781262951960489 -1.3781262951960489 -1.3781262951960489 -1.3781262951960489 -0.69446062888754745 -0.69446062888754745 -0.69446062888754745 -0.69446062888754745 -0.91874367083279307 -0.91874367083279307 -0.91874367083279307 -0.91874367083279307 -0.73507821873307877 -0.73507821873307877 -0.73507821873307877 -0.73507821873307877 -3.7386338556124166 -3.7386338556124166 -3.7386338556124166 -3.7386524055821053 -3.7386524055821053 -3.7386524055821053 -0.60208223654236026 -0.60208223654236026 -0.60208223654236026 -0.60208223654236026 -0.75485624685015895 -0.75485624685015895 -0.75485624685015895 -0.75485624685015895 -0.4472342876037842 -0.4472342876037842 -0.4472342876037842 -0.4472342876037842 -0.70887375008729969 -0.70887375008729969 -0.70887375008729969 -0.70887375008729969 -0.71034574594297073 -0.71034574594297073 -0.71034574594297073 -0.71034574594297073 -1.1639430739347096 -1.1639430739347096 -1.1639430739347096 -1.1639430739347096 -0.60822416333580198 -0.60822416333580198 -0.60822416333580198 -0.60822416333580198 -1.2418221547974917 -1.2418221547974917 -1.2418221547974917 -1.2418221547974917 -3.7386682613173439 -3.7386682613173439 -3.7386682613173439 -3.7386409332524249 -3.7386409332524249 -3.7386409332524249 -0.19280814364131327 -0.19280814364131327 -0.19280814364131327 -0.19280814364131327 -0.28874909682239597 -0.28874909682239597 -0.28874909682239597 -0.28874909682239597 -0.20870330984600602 -0.20870330984600602 -0.20870330984600602 -0.20870330984600602 -0.036640651043802576 -0.036640651043802576 -0.036640651043802576 -0.036640651043802576 -0.01692768388164153 -0.01692768388164153 -0.01692768388164153 -0.01692768388164153 -0.28806439055723376 -0.28806439055723376 -0.28806439055723376 -0.28806439055723376 -0.1182236122464085 -0.1182236122464085 -0.1182236122464085 -0.1182236122464085 -0.068590288426048099 -0.068590288426048099 -0.068590288426048099 -0.068590288426048099 -0.59652545114354016 -0.59652545114354016 -0.59652545114354016 -0.59652545114354016 -0.060077960416429703 -0.060077960416429703 -0.060077960416429703 -0.060077960416429703 -3.7386330830962002 -3.7386330830962002 -3.7386330830962002 -0.308704914635618 -0.308704914635618 -0.308704914635618 -0.308704914635618 -3.7386352503047551 -3.7386352503047551 -3.7386352503047551 -1.0266509894901836 -1.0266509894901836 -1.0266509894901836 -1.0266509894901836 -0.65930360290414836 -0.65930360290414836 -0.65930360290414836 -0.65930360290414836 -3.7385855972433117 -3.7385855972433117 -3.7385855972433117 -0.062184410752245983 -0.062184410752245983 -0.062184410752245983 -0.062184410752245983 -0.81034385624934369 -0.81034385624934369 -0.81034385624934369 -0.81034385624934369 -0.35595300613784048 -0.35595300613784048 -0.35595300613784048 -0.35595300613784048 -0.56112788744711251 -0.56112788744711251 -0.56112788744711251 -0.56112788744711251 -0.49831100598240613 -0.49831100598240613 -0.49831100598240613 -0.49831100598240613 -0.10481950582178073 -0.10481950582178073 -0.10481950582178073 -0.10481950582178073 -1.147221038185797 -1.147221038185797 -1.147221038185797 -1.147221038185797 -0.38931761541952847 -0.38931761541952847 -0.38931761541952847 -0.38931761541952847 -0.54387240412831961 -0.54387240412831961 -0.54387240412831961 -0.54387240412831961 -3.7385841429830928 -3.7385841429830928 -3.7385841429830928 -0.59303552271593174 -0.59303552271593174 -0.59303552271593174 -0.59303552271593174 -1.1502870230142195 -1.1502870230142195 -1.1502870230142195 -1.1502870230142195 -0.68582881901590054 -0.68582881901590054 -0.68582881901590054 -0.68582881901590054 -3.7386711523129232 -3.7386711523129232 -3.7386711523129232 -0.69484759221017922 -0.69484759221017922 -0.69484759221017922 -0.69484759221017922 -3.7386467921679336 -3.7386467921679336 -3.7386467921679336 -1.2393847859153726 -1.2393847859153726 -1.2393847859153726 -1.2393847859153726 -0.25141999976932156 -0.25141999976932156 -0.25141999976932156 -0.25141999976932156 -0.23665111986800663 -0.23665111986800663 -0.23665111986800663 -0.23665111986800663 -0.096662864536349341 -0.096662864536349341 -0.096662864536349341 -0.096662864536349341 -0.24544658082175488 -0.24544658082175488 -0.24544658082175488 -0.24544658082175488 -0.28956874553640144 -0.28956874553640144 -0.28956874553640144 -0.28956874553640144 -3.738728729798602 -3.738728729798602 -3.738728729798602 -1.6981448706454167 -1.6981448706454167 -1.6981448706454167 -1.6981448706454167 -3.7387299385924888 -3.7387299385924888 -3.7387299385924888 -1.6610497095236485 -1.6610497095236485 -1.6610497095236485 -1.6610497095236485 -1.3493976062943509 -1.3493976062943509 -1.3493976062943509 -1.3493976062943509 -1.7183613790040622 -1.7183613790040622 -1.7183613790040622 -1.7183613790040622 -3.7387308893046738 -3.7387308893046738 -3.7387308893046738 -3.738726701985545 -3.738726701985545 -3.738726701985545 -1.1366593232790883 -1.1366593232790883 -1.1366593232790883 -1.1366593232790883 -1.3114274318571522 -1.3114274318571522 -1.3114274318571522 -1.3114274318571522 -1.6297439988565632 -1.6297439988565632 -1.6297439988565632 -1.6297439988565632 -0.44253624371277522 -0.44253624371277522 -0.44253624371277522 -0.44253624371277522 -0.39202137063793946 -0.39202137063793946 -0.39202137063793946 -0.39202137063793946 -0.66200009583984243 -0.66200009583984243 -0.66200009583984243 -0.66200009583984243 -0.38234193076408823 -0.38234193076408823 -0.38234193076408823 -0.38234193076408823 -0.077557708753266008 -0.077557708753266008 -0.077557708753266008 -0.077557708753266008 -0.21078815448102617 -0.21078815448102617 -0.21078815448102617 -0.21078815448102617 -0.23119563129884485 -0.23119563129884485 -0.23119563129884485 -0.23119563129884485 -0.24147873806032172 -0.24147873806032172 -0.24147873806032172 -0.24147873806032172 -0.46290298676735953 -0.46290298676735953 -0.46290298676735953 -0.46290298676735953 -1.2611178460738393 -1.2611178460738393 -1.2611178460738393 -1.2611178460738393 -1.1932854512083955 -1.1932854512083955 -1.1932854512083955 -1.1932854512083955 -0.70004385505460764 -0.70004385505460764 -0.70004385505460764 -0.70004385505460764 -0.64225663820131418 -0.64225663820131418 -0.64225663820131418 -0.64225663820131418 -0.61204728563623489 -0.61204728563623489 -0.61204728563623489 -0.61204728563623489 -3.7386699769960892 -3.7386699769960892 -3.7386699769960892 -3.7386463426072192 -3.7386463426072192 -3.7386463426072192 -0.92550873465635819 -0.92550873465635819 -0.92550873465635819 -0.92550873465635819 -0.099524458609186475 -0.099524458609186475 -0.099524458609186475 -0.099524458609186475 -0.059794918902810121 -0.059794918902810121 -0.059794918902810121 -0.059794918902810121 -0.34390013696858768 -0.34390013696858768 -0.34390013696858768 -0.34390013696858768 -3.7385780683482963 -3.7385780683482963 -3.7385780683482963 -0.060804822338295719 -0.060804822338295719 -0.060804822338295719 -0.060804822338295719 -0.31016277717033436 -0.31016277717033436 -0.31016277717033436 -0.31016277717033436 -0.61841290284425332 -0.61841290284425332 -0.61841290284425332 -0.61841290284425332 -3.7386268457613725 -3.7386268457613725 -3.7386268457613725 -0.35837277940271628 -0.35837277940271628 -0.35837277940271628 -0.35837277940271628 -0.50567562750009099 -0.50567562750009099 -0.50567562750009099 -0.50567562750009099 -3.7386294981370582 -3.7386294981370582 -3.7386294981370582 -1.2716424982866139 -1.2716424982866139 -1.2716424982866139 -1.2716424982866139 -1.1455142457127394 -1.1455142457127394 -1.1455142457127394 -1.1455142457127394 -0.59992699620977474 -0.59992699620977474 -0.59992699620977474 -0.59992699620977474 -0.94656361583134274 -0.94656361583134274 -0.94656361583134274 -0.94656361583134274 -0.60504715652234786 -0.60504715652234786 -0.60504715652234786 -0.60504715652234786 -0.56272975071005649 -0.56272975071005649 -0.56272975071005649 -0.56272975071005649 -3.7385793978198865 -3.7385793978198865 -3.7385793978198865 -0.54468531946961163 -0.54468531946961163 -0.54468531946961163 -0.54468531946961163 -0.39114127841028334 -0.39114127841028334 -0.39114127841028334 -0.39114127841028334 -0.033767542510093972 -0.033767542510093972 -0.033767542510093972 -0.033767542510093972 -0.066809336325185667 -0.066809336325185667 -0.066809336325185667 -0.066809336325185667 -0.081046495723772691 -0.081046495723772691 -0.081046495723772691 -0.081046495723772691 -0.015426071515363666 -0.015426071515363666 -0.015426071515363666 -0.015426071515363666 -0.12025117159887785 -0.12025117159887785 -0.12025117159887785 -0.12025117159887785 -0.25708605077402857 -0.25708605077402857 -0.25708605077402857 -0.25708605077402857 -0.17138655124080687 -0.17138655124080687 -0.17138655124080687 -0.17138655124080687 -0.28414373261171805 -0.28414373261171805 -0.28414373261171805 -0.28414373261171805 -0.17509007411397084 -0.17509007411397084 -0.17509007411397084 -0.17509007411397084 -0.34631829977552697 -0.34631829977552697 -0.34631829977552697 -0.34631829977552697 -0.06313380403381802 -0.06313380403381802 -0.06313380403381802 -0.06313380403381802 -3.7386372006867852 -3.7386372006867852 -3.7386372006867852 -0.78443462842275968 -0.78443462842275968 -0.78443462842275968 -0.78443462842275968 -0.72927107118591783 -0.72927107118591783 -0.72927107118591783 -0.72927107118591783 -0.29185022267230065 -0.29185022267230065 -0.29185022267230065 -0.29185022267230065 -3.7386605272300741 -3.7386605272300741 -3.7386605272300741 -0.77920339563582719 -0.77920339563582719 -0.77920339563582719 -0.77920339563582719 -1.3309788143746213 -1.3309788143746213 -1.3309788143746213 -1.3309788143746213 -0.72986986138885257 -0.72986986138885257 -0.72986986138885257 -0.72986986138885257 -0.27989490467478029 -0.27989490467478029 -0.27989490467478029 -0.27989490467478029 -3.7386357130613899 -3.7386357130613899 -3.7386357130613899 -1.2455193071068611 -1.2455193071068611 -1.2455193071068611 -1.2455193071068611 -0.78106984857899153 -0.78106984857899153 -0.78106984857899153 -0.78106984857899153 -3.7386576305262813 -3.7386576305262813 -3.7386576305262813 -0.31022072066715223 -0.31022072066715223 -0.31022072066715223 -0.31022072066715223 -1.3206814001486786 -1.3206814001486786 -1.3206814001486786 -1.3206814001486786 -0.059180955161156096 -0.059180955161156096 -0.059180955161156096 -0.059180955161156096 -0.52062891460279459 -0.52062891460279459 -0.52062891460279459 -0.52062891460279459 -0.30445690196058695 -0.30445690196058695 -0.30445690196058695 -0.30445690196058695 -0.059173400894880143 -0.059173400894880143 -0.059173400894880143 -0.059173400894880143 -3.738576013787688 -3.738576013787688 -3.738576013787688 -3.7385740166599359 -3.7385740166599359 -3.7385740166599359 -0.68584346764235216 -0.68584346764235216 -0.68584346764235216 -0.68584346764235216 -0.55952636141369383 -0.55952636141369383 -0.55952636141369383 -0.55952636141369383 -1.0157051119057869 -1.0157051119057869 -1.0157051119057869 -1.0157051119057869 -3.7386257771618312 -3.7386257771618312 -3.7386257771618312 -0.32018888256536737 -0.32018888256536737 -0.32018888256536737 -0.32018888256536737 -0.096238071719721652 -0.096238071719721652 -0.096238071719721652 -0.096238071719721652 -0.88317049656148472 -0.88317049656148472 -0.88317049656148472 -0.88317049656148472 -3.7386225064635656 -3.7386225064635656 -3.7386225064635656 -0.35299268467318695 -0.35299268467318695 -0.35299268467318695 -0.35299268467318695 -0.55423577174027794 -0.55423577174027794 -0.55423577174027794 -0.55423577174027794 -0.38870686888279427 -0.38870686888279427 -0.38870686888279427 -0.38870686888279427 -3.7386642028154347 -3.7386642028154347 -3.7386642028154347 -0.58272043236017479 -0.58272043236017479 -0.58272043236017479 -0.58272043236017479 -0.6692295389394699 -0.6692295389394699 -0.6692295389394699 -0.6692295389394699 -0.77713802270967647 -0.77713802270967647 -0.77713802270967647 -0.77713802270967647 -0.70775371111334806 -0.70775371111334806 -0.70775371111334806 -0.70775371111334806 -1.248984618749069 -1.248984618749069 -1.248984618749069 -1.248984618749069 -1.1109033539147095 -1.1109033539147095 -1.1109033539147095 -1.1109033539147095 -3.7386378130522906 -3.7386378130522906 -3.7386378130522906 -1.1105768809460907 -1.1105768809460907 -1.1105768809460907 -1.1105768809460907 -1.676772930009804 -1.676772930009804 -1.676772930009804 -1.676772930009804 -3.7387271855601392 -3.7387271855601392 -3.7387271855601392 -1.3154783966352928 -1.3154783966352928 -1.3154783966352928 -1.3154783966352928 -3.7387250582174709 -3.7387250582174709 -3.7387250582174709 -1.6280604846041671 -1.6280604846041671 -1.6280604846041671 -1.6280604846041671 -0.28463844570294139 -0.28463844570294139 -0.28463844570294139 -0.28463844570294139 -0.22678011374344709 -0.22678011374344709 -0.22678011374344709 -0.22678011374344709 -0.069687421687013015 -0.069687421687013015 -0.069687421687013015 -0.069687421687013015 -0.22181391286615443 -0.22181391286615443 -0.22181391286615443 -0.22181391286615443 -0.4307356870505738 -0.4307356870505738 -0.4307356870505738 -0.4307356870505738 -0.26728117025625614 -0.26728117025625614 -0.26728117025625614 -0.26728117025625614 -0.033687044793767135 -0.033687044793767135 -0.033687044793767135 -0.033687044793767135 -0.12233435820368266 -0.12233435820368266 -0.12233435820368266 -0.12233435820368266 -0.067639538862867332 -0.067639538862867332 -0.067639538862867332 -0.067639538862867332 -0.015512056450310589 -0.015512056450310589 -0.015512056450310589 -0.015512056450310589 -0.087594392846592026 -0.087594392846592026 -0.087594392846592026 -0.087594392846592026 -0.18043975697706754 -0.18043975697706754 -0.18043975697706754 -0.18043975697706754 -0.17356183381803145 -0.17356183381803145 -0.17356183381803145 -0.17356183381803145 -0.064777549447499791 -0.064777549447499791 -0.064777549447499791 -0.064777549447499791 -0.20183514778951867 -0.20183514778951867 -0.20183514778951867 -0.20183514778951867 -0.035309435766993358 -0.035309435766993358 -0.035309435766993358 -0.035309435766993358 -0.030007295990602156 -0.030007295990602156 -0.030007295990602156 -0.030007295990602156 -0.043774721570889658 -0.043774721570889658 -0.043774721570889658 -0.043774721570889658 -0.085979572185300085 -0.085979572185300085 -0.085979572185300085 -0.085979572185300085 -0.015740037423175545 -0.015740037423175545 -0.015740037423175545 -0.015740037423175545 -0.059470390843487111 -0.059470390843487111 -0.059470390843487111 -0.059470390843487111 -0.010562696558182693 -0.010562696558182693 -0.010562696558182693 -0.010562696558182693 -0.040392736479785613 -0.040392736479785613 -0.040392736479785613 -0.040392736479785613 -0.045024019728531664 -0.045024019728531664 -0.045024019728531664 -0.045024019728531664 -0.010061679040335239 -0.010061679040335239 -0.010061679040335239 -0.010061679040335239 -0.013283567272846113 -0.013283567272846113 -0.013283567272846113 -0.013283567272846113 -0.031138223195461907 -0.031138223195461907 -0.031138223195461907 -0.031138223195461907 -0.0377817425383229 -0.0377817425383229 -0.0377817425383229 -0.0377817425383229 -0.10054576435048176 -0.10054576435048176 -0.10054576435048176 -0.10054576435048176 -0.15683669651808169 -0.15683669651808169 -0.15683669651808169 -0.15683669651808169 -0.049077356802559965 -0.049077356802559965 -0.049077356802559965 -0.049077356802559965 -0.13626388983993287 -0.13626388983993287 -0.13626388983993287 -0.13626388983993287 -0.2726202757651503 -0.2726202757651503 -0.2726202757651503 -0.2726202757651503 -0.023765688329582407 -0.023765688329582407 -0.023765688329582407 -0.023765688329582407 -0.065249937142474831 -0.065249937142474831 -0.065249937142474831 -0.065249937142474831 -0.067137114304314613 -0.067137114304314613 -0.067137114304314613 -0.067137114304314613 -0.023708496806960678 -0.023708496806960678 -0.023708496806960678 -0.023708496806960678 -0.031775324734101551 -0.031775324734101551 -0.031775324734101551 -0.031775324734101551 -0.024570030962471758 -0.024570030962471758 -0.024570030962471758 -0.024570030962471758 -0.0064414085959959098 -