<?xml version="1.0"?>
<VTKFile type="UnstructuredGrid" version="0.1" byte_order="LittleEndian">
<UnstructuredGrid>
<Piece NumberOfPoints="558" NumberOfCells="1054">
<Points>
<DataArray type="Float64" NumberOfComponents="3" format="ascii">
0 0 0 1 0 0 1 1 0 0 1 0 0.5 0.29999999999999999 0 1 0.29999999999999999 0 0.5 0.69999999999999996 0 1 0.69999999999999996 0 0.049999999999899652 0 0 0.099999999999814668 0 0 0.14999999999970359 0 0 0.19999999999955789 0 0 0.24999999999941211 0 0 0.29999999999926641 0 0 0.34999999999912063 0 0 0.3999999999989749 0 0 0.44999999999882923 0 0 0.49999999999869432 0 0 0.5499999999988151 0 0 0.59999999999894682 0 0 0.64999999999907843 0 0 0.69999999999921003 0 0 0.74999999999934175 0 0 0.79999999999947335 0 0 0.84999999999960507 0 0 0.89999999999973679 0 0 0.94999999999986839 0 0 1 0.049999999999896842 0 1 0.099999999999753911 0 1 0.14999999999961891 0 1 0.19999999999974799 0 1 0.24999999999987299 0 1 0.34999999999993492 0 1 0.39999999999978308 0 1 0.44999999999963131 0 1 0.49999999999950101 0 1 0.54999999999963112 0 1 0.59999999999973963 0 1 0.64999999999986979 0 1 0.74999999999993494 0 1 0.7999999999998193 0 1 0.84999999999982645 0 1 0.8999999999998336 0 1 0.94999999999997109 0 0.94999999999979179 1 0 0.89999999999958358 1 0 0.84999999999965292 1 0 0.79999999999999982 1 0 0.75000000000034661 1 0 0.7000000000006934 1 0 0.65000000000104008 1 0 0.60000000000138687 1 0 0.55000000000173355 1 0 0.50000000000205869 1 0 0.45000000000187229 1 0 0.40000000000166441 1 0 0.35000000000145642 1 0 0.30000000000124832 1 0 0.25000000000104028 1 0 0.20000000000083221 1 0 0.15000000000062411 1 0 0.10000000000041601 1 0 0.050000000000207989 1 0 0 0.94999999999979179 0 0 0.89999999999958358 0 0 0.84999999999965292 0 0 0.79999999999999982 0 0 0.75000000000034661 0 0 0.7000000000006934 0 0 0.65000000000104008 0 0 0.60000000000138687 0 0 0.55000000000173355 0 0 0.50000000000205869 0 0 0.45000000000187229 0 0 0.40000000000166441 0 0 0.35000000000145642 0 0 0.30000000000124832 0 0 0.25000000000104028 0 0 0.20000000000083221 0 0 0.15000000000062411 0 0 0.10000000000041601 0 0 0.050000000000207989 0 0.54999999999999993 0.29999999999999999 0 0.59999999999999976 0.29999999999999999 0 0.6499999999999998 0.29999999999999999 0 0.69999999999999984 0.29999999999999999 0 0.74999999999999989 0.29999999999999999 0 0.79999999999999982 0.29999999999999999 0 0.84999999999999987 0.29999999999999999 0 0.89999999999999991 0.29999999999999999 0 0.94999999999999996 0.29999999999999999 0 0.54999999999999993 0.69999999999999996 0 0.59999999999999976 0.69999999999999996 0 0.6499999999999998 0.69999999999999996 0 0.69999999999999984 0.69999999999999996 0 0.74999999999999989 0.69999999999999996 0 0.79999999999999982 0.69999999999999996 0 0.84999999999999987 0.69999999999999996 0 0.89999999999999991 0.69999999999999996 0 0.94999999999999996 0.69999999999999996 0 0.28307294598219601 0.50789252727458634 0 0.25676291524611189 0.7436741304886243 0 0.25195515620380449 0.25883339815888678 0 0.57611405284611883 0.50165903596042916 0 0.77846603114747959 0.49850927265137401 0 0.39801143831225599 0.16651381068160659 0 0.39536230704883951 0.84069429572832477 0 0.15720202157091859 0.60665697304410315 0 0.1650278706801647 0.38791388161335733 0 0.43249999999999988 0.43937499999999979 0 0.35864735590330371 0.63903383440414463 0 0.82709327591091286 0.84937141670920724 0 0.61343887413683884 0.856862479058357 0 0.82709327591102189 0.14937141670914489 0 0.6236733212988993 0.14864538214901801 0 0.14474682429600511 0.85524784522713515 0 0.14332333627550789 0.14578431753966009 0 0.36575549820117997 0.31677992835137742 0 0.46666084890304671 0.57634471035397938 0 0.27474541102162192 0.11822029332053539 0 0.27270076654418179 0.87751467830216623 0 0.1215415378367805 0.72939333680004137 0 0.1247745017231483 0.27198077544791172 0 0.6879972333610942 0.43038561374960838 0 0.67323294229744413 0.57556450033612505 0 0.86411095495256451 0.42388805655111889 0 0.86956835336234861 0.571283299838105 0 0.50202631463681879 0.87892870825713787 0 0.51076801031701946 0.1202837388510348 0 0.1216098864341134 0.50637075089503902 0 0.27866744612395528 0.38416094670951489 0 0.7250000000005199 0.89375000000045834 0 0.72500000000001008 0.19776155966387679 0 0.52289427570932567 0.3932284363388488 0 0.40326160981139969 0.73346192995102844 0 0.77354604466818633 0.40378688774472771 0 0.77293540622714185 0.59448302402785813 0 0.57412547362576272 0.58273804879550706 0 0.26573297623774761 0.59828298563722948 0 0.38244435121258652 0.51653317813019495 0 0.72500000000000064 0.7952620967744265 0 0.72525833953073282 0.1032114801687094 0 0.90299850604011456 0.79563452813489832 0 0.90416666666660628 0.9041666666666166 0 0.90299850604006393 0.09563452813493091 0 0.90416666666668166 0.20416666666667119 0 0.54782696902220018 0.79245182748204157 0 0.55306006949600994 0.20198184231352201 0 0.20050006573841939 0.53248514016039872 0 0.33758650185219202 0.23837101504325639 0 0.35312867752657662 0.084946736076730367 0 0.35752321586431363 0.9185439911803448 0 0.42377727103934271 0.25099357235810238 0 0.086179601630648681 0.64647209519980475 0 0.087545339447545459 0.35122518864182262 0 0.083411279318375747 0.91030024466934134 0 0.083411279318303222 0.089699755330707398 0 0.91696753777131557 0.497780560203536 0 0.34258405725730701 0.4444034294386992 0 0.33123028043633618 0.77629643437932982 0 0.2236846579037573 0.67380363126050236 0 0.19901705110390991 0.9175543425573498 0 0.19922788606653311 0.085920220746880993 0 0.19670163708476801 0.31472518408333222 0 0.4656888918609538 0.78493261229743638 0 0.083105206071452636 0.79992298667296435 0 0.083105206071467416 0.20007701332709979 0 0.57724883562309992 0.92155686857100794 0 0.57667858002728545 0.078486105337742612 0 0.49102375406324739 0.49123754822244059 0 0.4409427642593301 0.35743108089689513 0 0.43698630808430822 0.080423614171545449 0 0.4367309254023824 0.92065556789053882 0 0.22278230690790279 0.44824268025881547 0 0.6084546825910605 0.37989672713932537 0 0.43846182030517877 0.64845797726506715 0 0.077693244765132896 0.56932317963405099 0 0.078358742472063481 0.43365249433908948 0 0.6541250972820879 0.49999999999999989 0 0.21858834311891909 0.81980263716112767 0 0.2185883431182947 0.18019736283949719 0 0.31378396441836959 0.70157213313026345 0 0.79680861578988083 0.92656778056766709 0 0.79680861578956375 0.22656778056752541 0 0.65394964615507722 0.22666784374016369 0 0.47357141910802508 0.1873585799078378 0 0.80185942888539485 0.77452061303608133 0 0.64753070846764316 0.77332939069435502 0 0.80185942888501827 0.074520613036224564 0 0.65507451745379841 0.92229208810758578 0 0.29348325746214782 0.31350119524708198 0 0.91750694127107502 0.36982372220068471 0 0.91750694127105259 0.63017627779935648 0 0.65408113592120842 0.073941773121567966 0 0.33122374654748771 0.57588941099433744 0 0.84723782639812573 0.48638347960178252 0 0.50715858906372158 0.63295939104129484 0 0.83573492347052902 0.36590755630746369 0 0.83758014339878906 0.63222013025741819 0 0.6405463747586706 0.63290524857395714 0 0.33084213324567391 0.16272720141332131 0 0.71508799138962864 0.36622814920737751 0 0.71406021706547751 0.63292083137662503 0 0.18269480424590959 0.75905448272264375 0 0.17933913398461551 0.2350063570234002 0 0.4089290844030305 0.58728915500154233 0 0.53245488764484505 0.55078124999999989 0 0.61209567303293111 0.44669033081290321 0 0.7152569930854884 0.5237994455134295 0 0.33403534827021109 0.84402799729020661 0 0.27499999999933927 0.060310814194988557 0 0.27609987656793722 0.94991445621608572 0 0.82862096804812391 0.55037090955459045 0 0.73483647259922602 0.44789725365921768 0 0.049706944316475897 0.72477277076253799 0 0.049706944316556423 0.27522722923869108 0 0.16500388252850301 0.66612077714085194 0 0.62042975506801734 0.54295974692364424 0 0.38083244760691543 0.38531983672244652 0 0.93814194660195893 0.44426664081746747 0 0.93732437411268477 0.55911392101136159 0 0.93677536231884972 0.85000000000000286 0 0.93677536231883773 0.14999999999999089 0 0.52375890611712683 0.059318771819432882 0 0.52122150208832174 0.94089974453840242 0 0.15801167086041079 0.46008690540259539 0 0.14617343800780541 0.93808063414349496 0 0.14618258501891079 0.062070108745602003 0 0.76901770135486491 0.84293557325473656 0 0.77144070960558853 0.14311854477243749 0 0.68697391633157634 0.84450604838764298 0 0.68391457121233579 0.14440470121196541 0 0.26104540868854792 0.81401944968719064 0 0.065374659239661639 0.8551091961254178 0 0.065374659239632718 0.1448908038746782 0 0.55899371797446828 0.85003102233514438 0 0.56202748619534593 0.15054058349222879 0 0.45677673713123867 0.84253684404072415 0 0.85170973911348691 0.93569607295217616 0 0.8517097391133297 0.2356960729520409 0 0.068743045408989428 0.48853989837882689 0 0.22033343844674469 0.36963382230740238 0 0.85491058998424563 0.76004753345552634 0 0.85491058998398861 0.060047533455626502 0 0.26429849586623999 0.19346700179430079 0 0.14934928745814749 0.55042914607228977 0 0.59814117807200873 0.23398510860739519 0 0.49695729691142171 0.25014895411178018 0 0.59636844454254345 0.75937156204589151 0 0.27820712747429932 0.65530134213254643 0 0.44288491854585582 0.14116182884956319 0 0.14223753364722069 0.3341983344262433 0 0.81973119833356312 0.43505687159469048 0 0.43507373378304309 0.49699695397193322 0 0.49077833859261139 0.35229981449445641 0 0.33277555741076909 0.36432196682010132 0 0.13737030665753211 0.20313708640667491 0 0.1382744753146134 0.79650574229207483 0 0.29124338931648802 0.43334555462578611 0 0.94399509803918602 0.75600490196082126 0 0.94399509803922566 0.056004901960802607 0 0.94399509803919068 0.9439950980391687 0 0.94399509803921056 0.24399509803922639 0 0.65481233915350323 0.35652751921065562 0 0.48858720058566618 0.43964267759203868 0 0.7250000000005199 0.94981617647078953 0 0.72500000000000064 0.2498161764706 0 0.88088768115933802 0.84674609810493673 0 0.88088768115941807 0.14674609810479519 0 0.56836770495988642 0.352306235
[...]
<CellData Scalars="region_id,pressure_p0," Vectors="velocity_p0," Tensors="">
<DataArray type="Float64" Name="region_id" format="ascii">
2 2 2 2 2 2 2 2 2 2 3 3 3 3 3 3 3 3 3 3 1 1 1 1 1 1 1 1 1 1 1 1 1 1 1 1 1 1 1 1 1 1 1 1 1 1 1 1 1 1 1 1 1 1 1 1 1 1 1 1 1 1 1 1 1 1 1 1 1 1 1 1 1 1 1 1 1 1 1 1 1 1 1 1 1 1 1 1 1 1 1 1 1 1 1 1 1 1 1 1 1 1 1 1 1 1 1 1 1 1 1 1 1 1 1 1 1 1 1 1 1 1 1 1 1 1 1 1 1 1 1 1 1 1 1 1 1 1 1 1 1 1 1 1 1 1 1 1 1 1 1 1 1 1 1 1 1 1 1 1 1 1 1 1 1 1 1 1 1 1 1 1 1 1 1 1 1 1 1 1 1 1 1 1 1 1 1 1 1 1 1 1 1 1 1 1 1 1 1 1 1 1 1 1 1 1 1 1 1 1 1 1 1 1 1 1 1 1 1 1 1 1 1 1 1 1 1 1 1 1 1 1 1 1 1 1 1 1 1 1 1 1 1 1 1 1 1 1 1 1 1 1 1 1 1 1 1 1 1 1 1 1 1 1 1 1 1 1 1 1 1 1 1 1 1 1 1 1 1 1 1 1 1 1 1 1 1 1 1 1 1 1 1 1 1 1 1 1 1 1 1 1 1 1 1 1 1 1 1 1 1 1 1 1 1 1 1 1 1 1 1 1 1 1 1 1 1 1 1 1 1 1 1 1 1 1 1 1 1 1 1 1 1 1 1 1 1 1 1 1 1 1 1 1 1 1 1 1 1 1 1 1 1 1 1 1 1 1 1 1 1 1 1 1 1 1 1 1 1 1 1 1 1 1 1 1 1 1 1 1 1 1 1 1 1 1 1 1 1 1 1 1 1 1 1 1 1 1 1 1 1 1 1 1 1 1 1 1 1 1 1 1 1 1 1 1 1 1 1 1 1 1 1 1 1 1 1 1 1 1 1 1 1 1 1 1 1 1 1 1 1 1 1 1 1 1 1 1 1 1 1 1 1 1 1 1 1 1 1 1 1 1 1 1 1 1 1 1 1 1 1 1 1 1 1 1 1 1 1 1 1 1 1 1 1 1 1 1 1 1 1 1 1 1 1 1 1 1 1 1 1 1 1 1 1 1 1 1 1 1 1 1 1 1 1 1 1 1 1 1 1 1 1 1 1 1 1 1 1 1 1 1 1 1 1 1 1 1 1 1 1 1 1 1 1 1 1 1 1 1 1 1 1 1 1 1 1 1 1 1 1 1 1 1 1 1 1 1 1 1 1 1 1 1 1 1 1 1 1 1 1 1 1 1 1 1 1 1 1 1 1 1 1 1 1 1 1 1 1 1 1 1 1 1 1 1 1 1 1 1 1 1 1 1 1 1 1 1 1 1 1 1 1 1 1 1 1 1 1 1 1 1 1 1 1 1 1 1 1 1 1 1 1 1 1 1 1 1 1 1 1 1 1 1 1 1 1 1 1 1 1 1 1 1 1 1 1 1 1 1 1 1 1 1 1 1 1 1 1 1 1 1 1 1 1 1 1 1 1 1 1 1 1 1 1 1 1 1 1 1 1 1 1 1 1 1 1 1 1 1 1 1 1 1 1 1 1 1 1 1 1 1 1 1 1 1 1 1 1 1 1 1 1 1 1 1 1 1 1 1 1 1 1 1 1 1 1 1 1 1 1 1 1 1 1 1 1 1 1 1 1 1 1 1 1 1 1 1 1 1 1 1 1 1 1 1 1 1 1 1 1 1 1 1 1 1 1 1 1 1 1 1 1 1 1 1 1 1 1 1 1 1 1 1 1 1 1 1 1 1 1 1 1 1 1 1 1 1 1 1 1 1 1 1 1 1 1 1 1 1 1 1 1 1 1 1 1 1 1 1 1 1 1 1 1 1 1 1 1 1 1 1 1 1 1 1 1 1 1 1 1 1 1 1 1 1 1 1 1 1 1 1 1 1 1 1 1 1 1 1 1 1 1 1 1 1 1 1 1 1 1 1 1 1 1 1 1 1 1 1 1 1 1 1 1 1 1 1 1 1 1 1 1 1 1 1 1 1 1 1 1 1 1 1 1 1 1 1 1 1 1 1 1 1 1 1 1 1 1 1 1 1 1 1 1 1 1 1 1 1 1 1 1 1 1 1 1 1 1 1 1 1 1 1 1 1 1 1 1 1 1 1 1 1 1 1 1 1 1 1 1 1 1 1 1 1 1 1 1 1 1 1 1 1 1 1 1 1 1 1 1 1 1 1 1 1 1 1 1 1 1 1 1 1 1 1 1 1 1 1 1 1 1 1 1 1 1 1 1 1 1 1 1 1 1 1 1 1 1 1 1 1 1 1 
</DataArray>
<DataArray type="Float64" Name="pressure_p0" format="ascii">
0.041419218840730715 0.044656295791158783 0.050667123960637127 0.059472407913134531 0.07139381682272064 0.086924703373087928 0.10670620614045565 0.13159091301406786 0.16262939254548112 0.20172548989423647 0.11868205664518404 0.1232614825720777 0.1316650423554083 0.14371426714141627 0.15957376297403866 0.17954353449212826 0.20402530676753816 0.23353950251482702 0.26868085989391682 0.31051071054498469 0.0017997233170839266 0.0018162549056714395 0.018464203913761301 0.014771709002469949 3.8472681084108322e-05 2.3063970191045228e-05 3.0884076630502343e-05 1.9189327332423667e-05 0.00010841027080544412 0.00027602697797074303 0.00013403469952544524 0.00022965266296140192 2.8641203871524987e-05 2.5488124385280459e-06 8.137893194359965e-07 0.033401590849246335 0.03469844656115724 0.034077739397712428 0.036410778887586349 0.055643788110002063 0.022202684468102737 0.033606489226638121 0.031566510089784186 1.5980143120119583e-05 0.029748240844609197 0.0025675328240937832 0.00094834670560524511 0.036450359423002635 0.0059056272544364798 0.0011776274805353959 0.0094140353972345728 0.019246178422386899 0.02771213584520996 0.020972362032281304 0.021979826488065034 0.00091992421375453493 0.020777283208677659 0.0044993659244572069 0.095096368023505032 0.094472123255289864 0.14793099499034162 0.010549395093498547 0.11878588316857192 0.010033138345979385 1.710211311677746e-06 -1.0845297231967195e-06 0.011999650544864855 0.01998004693526614 0.065029943936880358 0.0092838338523380578 0.088462031953438686 0.040105386449662134 0.0070397612216198139 0.012594984463096773 0.054704502886741738 0.0045702925876130902 0.0051914642245415848 0.16098472683016546 0.13556495362457455 0.0087206050703748286 0.041004917720100946 0.02092469377411103 0.032918548195810318 0.041434799709371195 0.0096489902291069067 9.3780561195330969e-06 1.4641619624905625e-05 0.075157322561091505 0.11676305049147082 1.3979093564420215e-05 8.4206954367230812e-06 5.9900670428178609e-05 3.4074382814022512e-05 6.3320010823477921e-05 0.018050768446787727 0.013803139816977323 0.19454721966325877 0.0059288204498356822 0.015716862786900255 0.041376956837271987 0.016901216528918021 6.642601131282669e-06 4.3465268600570039e-06 8.0593219791801681e-05 0.054807636227310615 0.019131321258049235 0.012702447034048884 1.2020247406775122e-05 0.00039735652265409624 0.046601901664659738 2.6047978304873692e-05 4.9412052695383688e-06 -9.829418972875826e-08 0.048760424628510171 0.014284971540351413 0.050164498097515074 0.015641905169131793 0.22635385821532408 0.0051052962007989118 0.0047072052783543213 0.20551060197625959 0.0091806164179518701 2.0187413811634547e-05 9.5933941585747005e-06 0.077141650542249474 0.08181034614936393 0.017685629524085106 0.064335276311188738 0.043582057026101295 0.0070616636504926018 0.0082129287555435405 0.1172319046213727 0.00014259288370715306 0.00037657517565929075 0.026546409364782326 0.032423229459003972 0.022803050004217132 0.017077280695030374 0.044127710755797314 0.028883342260123956 0.071248380000568448 0.017621172502449881 0.012849347892898958 0.019099239471877291 0.029604551462394067 0.025452763949318419 0.018909628018534904 0.0030865428407710668 0.00199543411755653 0.0030032066689845384 0.035487155223543482 0.0058025663148347124 0.0004791462708693949 0.00064189101959589902 0.0017863332577235614 0.0013528321362622879 0.022016046759561841 0.0011632991715940218 0.048641519670111599 0.0059525390289008806 0.00053816741638714784 0.01345078072581996 0.042766730796260283 0.019541301693215357 0.03635522849701274 0.02210344105705269 4.4752300602481139e-06 8.2242139509524119e-07 0.01450820069874921 0.00037545600273978331 0.0047885593019106158 1.1165462033587639e-05 7.2240931533198871e-06 -2.2076026517394969e-07 1.3367488637864139e-06 0.0025576488694218132 0.00080142494237828144 0.00022945154016401138 0.00060380583256449576 0.0019986769406093599 0.00027887868340922611 0.0003707574379157566 6.1829080276166477e-06 3.9783591201906949e-06 0.082542298036548348 7.1261063320565568e-05 0.0093062058389142208 0.031713504341792619 8.8311847391155579e-05 0.00021903607879491491 0.022180365211781204 0.0001207266201753774 0.00062431754890384468 0.00015717486230144802 7.4378059586503048e-05 0.00021528763944089817 0.00207712743840673 0.023270164738786854 0.086018585641472162 0.0073983137696488482 6.8371053426598135e-06 -1.7582472526202769e-07 6.5532457758359554e-06 2.7113711181688163e-06 0.014273977670703625 0.017133024815855658 0.020235732081673518 0.02566335067752561 0.0103669791963949 0.0068987543795279655 4.6695293646189205e-05 0.015887079438511701 0.01196442314815724 0.06304781885116853 0.031209554694488516 4.7047260030455364e-05 0.0093124578037185671 3.0729269740923659e-05 5.4555873269703073e-05 0.028453802969208093 1.7518924628634529e-05 4.2524574341913087e-05 0.0023819252114286285 0.00085893810004424628 0.026627871383673306 0.041938091596727727 0.0087464230208331075 0.0075979501375456563 0.030699055403358211 0.032878369805910503 8.0500233079936189e-05 0.0019115763622386895 0.047622259982720717 0.0040875114290523677 0.017141498419220975 0.039122080225434272 0.00030337270452376604 0.024498070208607253 0.0002521148465977973 0.00041998030294460427 0.00053582329358715984 0.0070137333837100441 0.00017979235144034407 0.034987355107428376 0.032351775763759423 0.020478419885691889 0.010533579128135722 0.0091854373687852483 0.0097357302038431383 -1.2686956478631255e-07 -1.1865890725761437e-06 0.00011813970710440121 0.014500283080163431 0.00023836716645249582 -2.6833835741258368e-06 8.338313711193625e-05 4.179401292725459e-05 0.0015425986665592675 5.5662080430020733e-06 0.039527888881733794 0.0014698654669423029 0.037917535334879134 3.605199170458752e-05 0.026567770428813024 0.033525432407865069 5.5351832789389238e-06 0.0024507292427155963 0.069289553760264661 0.027243301342302725 0.016307760801487405 0.04183092710171038 0.0031436005147847191 0.0021036620537137848 0.0019596068394135413 0.0053018898565073483 0.005749665135853883 9.5635329046110029e-06 0.10084323868057993 3.2098971361162617e-05 1.5824956557387823e-05 0.007213351466004464 2.313067509383326e-05 6.1583154574969818e-05 0.00043624292608518899 0.0003766949332662083 0.086791277913121023 0.0092552147406415146 0.077695510730826284 0.05181777182680776 0.00021388104598545646 0.094553034668428584 0.1705728406065975 0.06678953547287185 0.0012644652743095922 0.03599705366676597 0.0010018824729598993 0.00027569726339563065 0.0043469126938282896 0.0070198872844489391 0.00021171486895550797 0.002128202261034111 0.00013938038102292752 0.00030800718688940083 0.0016393610306431451 0.0042930992246769878 1.198819236015912e-05 6.8989720194052356e-06 8.8267053602631611e-05 0.00024793425184066302 5.8477356850619105e-05 0.014219213930527622 8.1070931087704029e-05 0.017318097036337486 0.047204890790570969 4.6085231750423536e-05 0.00012789117723748918 3.1747271198665399e-05 0.01282288935571433 0.0054609017472794239 0.060324873841701127 0.0065079855541258814 0.0045599484294719592 9.6895644135483043e-05 4.4431665461112154e-05 0.0013008321154773417 1.7031121829312575e-05 0.020986195236398282 0.00010179470279090466 4.7347079282454001e-05 0.0016802267443334431 0.013538212260344226 0.038047188925330003 0.0010357787689230275 0.0012684481995432154 0.0027041591965756154 0.0036608808652089861 2.2633148563441282e-05 3.8198603413209518e-05 1.2749111702774725e-05 7.26025144468706e-06 0.025332260271427265 0.0026507739397459702 0.00048296039511758757 0.046727426268693813 0.0083619186973917913 0.039377781867532359 0.001468647021400738 0.0024808711071208096 0.01891361610972421 0.021367143510534932 3.425502606999879e-05 1.8880016639615445e-05 0.013610783027306408 0.11608198893772731 0.20387795086607324 0.0012853132213150455 0.0010776881810122458 0.0300216730562234 0.027744440390919792 0.029070473321705311 0.013264673243566363 0.066135302248449365 0.081036866338567756 0.12922164882241055 0.061453383873980971 0.014115810085809762 3.6446722789841728e-05 7.2673085391559194e-05 0.064908596001703317 0.0088175864572068337 2.1035237191803431e-05 1.0937302661274317e-05 0.040766216992921864 2.5796209548826487e-05 1.5186161692080327e-05 0.0083255846920240444 0.081213047662926544 0.010410749810771601 0.0063033439413090666 0.0054341554296761102 0.038050580152862612 0.013607704459216882 0.0094204227576261037 0.0034597905382465436 0.017119366776137318 0.07403274701901498 0.13218439073820071 0.0068992103369744998 0.0094700174343798817 0.0044993600329401966 0.00980030482269411 0.11752531244454742 0.007502273361662622 0.0032086834080815611 0.061496829295382367 0.027298701568872707 0.0018301848038597534 3.0990014438113939e-05 0.0015855287355589641 0.0001176441808760142 0.0003303121109963809 0.003375881151754352 0.0038676730320142136 -3.2372842993355595e-06 0.00075543733902122372 0.021102478404714652 0.0041705306505121402 0.00016115599092469165 3.6903894288907649e-06 0.0010098781343922821 0.022532000358347015 0.04839778083791902 0.00048914527998624824 0.15418766249432497 0.0045217342908984654 0.00013211975850828986 0.00020153122231707986 0.0099639359237939096 0.057378194445152783 0.00022723564815083211 0.00035020195668679344 9.7073809881736148e-05 6.7062689420338339e-05 0.0016297310478074552 0.0026670244594072245 5.1148825864332751e-05 0.052199994032876715 0.031939835179859329 0.023676619411151879 0.00023364343751587153 -3.0451355212543685e-06 0.0038078152586921957 0.040104377729084317 0.017372259723158409 6.0266623315832937e-05 0.0025160791977138336 0.0027953567848616415 -1.5754959818828621e-06 0.0068094498782456806 0.0061935873025868796 0.071072347334909747 0.11925710734069825 0.0025302314304820016 0.029631988644413923 0.021499275338304043 0.00025472067398046448 0.0055846453705772139 0.0898119117833171 0.00020277393826171995 0.045171235394687301 0.016500493021102527 6.6966871176491849e-05 0.0075106502733384047 0.11158717940913537 0.005332178420609345 0.00017268366328359892 0.00046681920501973133 0.018931227581580314 0.00014939917138267634 0.14204202470867511 0.16821809369452473 0.26214916314966541 0.2209747490043128 0.05619961517576387 0.092683987635642978 0.16035017424634679 0.075090354280549665 0.10772998843557484 0.10533506503389152 0.0178714914218286 0.010657784274354452 0.064129628071281045 9.3463812207724263e-05 0.12974176456811121 0.0079655867443080147 0.0051703708387692872 0.013556593467294988 0.077555237306355745 0.025906439797463751 0.015181844461557514 0.01243920897437735 0.00048409283697268179 0.024919279804196739 0.0018507436180407242 0.0062462397333551724 0.0039032452863117023 0.00097924067978331572 0.02509315513057854 0.030590247137455624 0.0017981125409704064 0.00064110572601713822 1.003109031838832e-06 -2.9065305233098043e-07 0.0018129058669836011 0.0013461335125373808 0.00073327604480237659 7.4143952279372692e-05 3.4206255785298579e-05 0.068387115227254894 5.8449479027591976e-05 2.8184281556175808e-05 0.031013016350024451 0.047031941187863135 0.00062218628323466732 0.055400847792021521 3.3773670060276378e-06 1.687580708217228e-06 6.9486900908321745e-05 0.00016205347848585123 0.0028713921215188518 0.037284781207094816 0.0038668781977231705 0.00072214346967826542 0.0009654309393816935 0.0038590497576725452 0.0031126118932189072 0.053935641103164358 0.038052679096114018 0.0094121134406075606 0.014598529399799417 4.7940505989116429e-05 9.8850183012802603e-05 0.040531884668746618 0.0082311334721618945 0.00017200702024299333 3.7139279769016999e-05 1.8998016593253068e-05 3.7805499463431024e-05 0.0033996324257738963 0.083113207367269515 5.0415996718013718e-05 0.0062529770238397286 0.0572865400071077 0.047328535657191542 0.0083937348142920816 0.041506204658632459 0.00061753841388437723 0.0042815069423066962 0.21320114627934206 0.0057842838261477868 0.13419975645370119 0.0096736229134137767 0.000647595355425695 0.00046513651016564215 0.0011632078575482744 0.00069814478838580861 0.00046876980500711957 0.0014488805930347409 0.00054067876207926 0.0065227663233237377 2.7527469686850674e-05 2.0228817649399078e-05 4.6864355771564577e-05 6.4827898159920441e-05 0.0035631783787409355 0.0045519404433913141 1.3631193538495525e-05 1.6556134714968149e-05 3.005799779842712e-06 3.0388216747219902e-06 0.048195545884773164 0.01279091188096991 3.6954370689848255e-05 0.00010566893634116723 0.001299553258427628 3.7863201639276538e-05 9.4605115894619469e-05 0.021211676855646039 0.00056643807231130977 3.9847118181909318e-06 2.3512953817044188e-06 0.0062555421936947237 0.03380211566368331 0.00076564459455319162 0.028421762741588905 0.00063746299249781808 0.0012664629870115947 3.4883522981660986e-05 2.0851324396534904e-05 0.0058379477352992135 0.00044619001718245279 0.00062352969694139311 0.00056104632291512286 0.0054313887157810478 0.0030070429903535454 0.0089306460175271954 0.00119780172860729 0.00042117323997165106 0.026742876362508088 0.01684092224255114 0.00054381054146828518 0.0061376892572730154 0.075614181116869239 0.051785033296398844 0.0022702642698254672 0.089539387709672666 0.00025545187372782606 0.00071706613149427113 0.00033507052028494482 0.0009573999427169189 1.5697252601188155e-05 2.562075286430883e-05 0.0027276745584110433 0.0038936391789940851 0.075388567414566149 0.15336097154180148 0.099033871674343715 0.13586244376717121 0.060075315882949752 0.00078480055362956525 0.0030437888192276028 0.0044806774953622727 0.0014654384693391738 0.0045469556051811067 0.0047313165377085098 0.017131313945956794 0.01408479561120168 0.044682636419253977 0.00091656391186410073 0.00032396718452644511 0.0040150928398490311 0.0093778268627096213 0.0099136925542232315 0.032085730543976954 0.029343674429699231 0.093448593018658196 0.0069568134451227165 1.9594206283614579e-05 5.3362327218625237e-05 0.019175579813950697 0.017057267298955868 0.016226686148828988 0.012687665052606757 0.017835381516061889 0.0236772483512444 4.0282575830623755e-06 7.6032517987531643e-06 0.0010928891895075469 0.0029401337492464836 0.00021906624038349969 0.00018522703133580141 0.053706008114896731 0.00018220132892330867 0.00024223821368461049 4.5578628644376629e-05 0.12501689934053073 0.000406392356328713 0.0011479274306577033 0.029696162482723054 0.00012200861978643696 0.00018319763025411508 0.033258482837374662 0.0001300424473542194 5.821303856849774e-05 0.019637842576274787 0.018559074095378273 0.00088234169449540197 0.0015534204584047332 0.00059413441555726098 0.026321635401144228 0.0004133240973396316 0.00030219217392619507 0.11638828944441329 0.002366687629057799 0.0007366062105748463 0.00026387756591383438 0.0050009511587142024 0.00010477106414847233 0.00012619350081528719 0.0059096619484275848 0.0031630675667459517 0.027117199597561148 0.18005754720573325 0.0037662828922927901 0.0038861377799131527 0.0066922071310594007 0.0020284378134029545 0.0068990933449826815 0.07277941398970228 0.00014315267230123043 0.0088786095028582247 0.00023608223556076076 0.043935983951972166 7.9866131711801402e-05 0.0019618900810678785 9.2442630471438437e-05 7.2405608273954286e-05 0.0097469379268321117 1.5909365090513996e-05 2.2817815731932318e-05 1.0036671811426226e-05 6.4922102823589049e-06 0.0016303831151175995 0.012146528660509861 0.010940194802153642 0.053326367380107029 0.0085782808209238972 0.10441589803983863 0.046543377316881712 0.00043465349408059384 0.0012220523953619051 0.074272087157572345 0.11864498946755808 0.00088779672832705778 -3.4773173306201083e-06 0.00065003554535203434 0.00033780485005888627 0.03389303204144016 3.0780566270484022e-05 2.5391845492152203e-05 4.5478525195333187e-05 5.7611798139471202e-05 0.0011923709902391382 0.023810041827332262 0.041853072795287743 0.041046103548774776 9.1869616059162801e-05 0.0021643864118468625 0.00011163777275138037 0.077697836547593269 -2.2825037195056238e-06 0.016438185058938494 0.064076811983025533 0.0030700166709474218 -1.2759711999982789e-06 8.1389630434411824e-06 1.6573056699352433e-05 0.00030951842627104098 0.00054917388396334059 0.001562347235069958 0.10185328329547698 0.0042609345785068128 0.10588991545514026 0.0033129582988489937 0.081089723214943663 0.00011966090591990577 8.5908721500873901e-07 0.00017074531581007553 0.017629752641499082 0.025633428512885404 0.005454313162879045 0.005342160525313608 0.067478169571915353 0.078101577040008877 0.058326825976163718 0.059726684273578558 -1.4379570803443822e-06 0.11836690773548755 0.092876548838921102 0.0022856405292452408 0.001470197827065809 0.0037118316046492279 0.0020839387637665019 0.0028174553543045969 5.605770806345533e-05 -2.9187109881132502e-06 0.00013615074996852123 5.911839064343367e-05 7.9481335729043829e-05 0.12948418691995137 0.0032372687742193693 -6.7410750815628695e-07 0.00053888098796927219 0.0048053208881787676 0.00091454856014633378 0.0045649179113450298 0.001644522565326986 0.0113313001725772 0.00091722292781936787 0.0025268106305579513 0.036036908687312644 0.043144155899503892 0.00013340973878334561 0.00011239651840189234 0.00078153712399116392 0.00016608526496550202 0.00033630009434028384 0.034697899440216923 0.012780960931851241 -1.3453056522292611e-06 0.10791225071950408 0.013877220984824544 0.0031353747263712663 0.010863427437017445 0.0099859114741043913 0.00031017353136678538 0.00012240611876783013 0.0045345953801374664 0.0048838422835213863 0.013394845645128477 0.014473252603771095 0.00066036049290241314 0.0018842601679957731 0.0084670266580346536 0.055379430506616353 0.03285063112851408 0.0025774218326225238 0.0002435839071389067 0.00028279793098873705 0.0014657688177009136 0.007751554407968729 0.0004706758840215563 0.0073252538110622628 -9.258243341545533e-07 0.039155451981587951 0.00021671169231432077 0.00059601039534414903 0.0017661754878427268 0.0065337330035211624 0.0092337268194204961 0.0006098048068058549 0.018259445698