<?xml version="1.0"?>
<VTKFile type="UnstructuredGrid" version="0.1" byte_order="LittleEndian">
<UnstructuredGrid>
<Piece NumberOfPoints="558" NumberOfCells="1054">
<Points>
<DataArray type="Float64" NumberOfComponents="3" format="ascii">
0 0 0 1 0 0 1 1 0 0 1 0 0.5 0.29999999999999999 0 1 0.29999999999999999 0 0.5 0.69999999999999996 0 1 0.69999999999999996 0 0.049999999999899652 0 0 0.099999999999814668 0 0 0.14999999999970359 0 0 0.19999999999955789 0 0 0.24999999999941211 0 0 0.29999999999926641 0 0 0.34999999999912063 0 0 0.3999999999989749 0 0 0.44999999999882923 0 0 0.49999999999869432 0 0 0.5499999999988151 0 0 0.59999999999894682 0 0 0.64999999999907843 0 0 0.69999999999921003 0 0 0.74999999999934175 0 0 0.79999999999947335 0 0 0.84999999999960507 0 0 0.89999999999973679 0 0 0.94999999999986839 0 0 1 0.049999999999896842 0 1 0.099999999999753911 0 1 0.14999999999961891 0 1 0.19999999999974799 0 1 0.24999999999987299 0 1 0.34999999999993492 0 1 0.39999999999978308 0 1 0.44999999999963131 0 1 0.49999999999950101 0 1 0.54999999999963112 0 1 0.59999999999973963 0 1 0.64999999999986979 0 1 0.74999999999993494 0 1 0.7999999999998193 0 1 0.84999999999982645 0 1 0.8999999999998336 0 1 0.94999999999997109 0 0.94999999999979179 1 0 0.89999999999958358 1 0 0.84999999999965292 1 0 0.79999999999999982 1 0 0.75000000000034661 1 0 0.7000000000006934 1 0 0.65000000000104008 1 0 0.60000000000138687 1 0 0.55000000000173355 1 0 0.50000000000205869 1 0 0.45000000000187229 1 0 0.40000000000166441 1 0 0.35000000000145642 1 0 0.30000000000124832 1 0 0.25000000000104028 1 0 0.20000000000083221 1 0 0.15000000000062411 1 0 0.10000000000041601 1 0 0.050000000000207989 1 0 0 0.94999999999979179 0 0 0.89999999999958358 0 0 0.84999999999965292 0 0 0.79999999999999982 0 0 0.75000000000034661 0 0 0.7000000000006934 0 0 0.65000000000104008 0 0 0.60000000000138687 0 0 0.55000000000173355 0 0 0.50000000000205869 0 0 0.45000000000187229 0 0 0.40000000000166441 0 0 0.35000000000145642 0 0 0.30000000000124832 0 0 0.25000000000104028 0 0 0.20000000000083221 0 0 0.15000000000062411 0 0 0.10000000000041601 0 0 0.050000000000207989 0 0.54999999999999993 0.29999999999999999 0 0.59999999999999976 0.29999999999999999 0 0.6499999999999998 0.29999999999999999 0 0.69999999999999984 0.29999999999999999 0 0.74999999999999989 0.29999999999999999 0 0.79999999999999982 0.29999999999999999 0 0.84999999999999987 0.29999999999999999 0 0.89999999999999991 0.29999999999999999 0 0.94999999999999996 0.29999999999999999 0 0.54999999999999993 0.69999999999999996 0 0.59999999999999976 0.69999999999999996 0 0.6499999999999998 0.69999999999999996 0 0.69999999999999984 0.69999999999999996 0 0.74999999999999989 0.69999999999999996 0 0.79999999999999982 0.69999999999999996 0 0.84999999999999987 0.69999999999999996 0 0.89999999999999991 0.69999999999999996 0 0.94999999999999996 0.69999999999999996 0 0.28307294598219601 0.50789252727458634 0 0.25676291524611189 0.7436741304886243 0 0.25195515620380449 0.25883339815888678 0 0.57611405284611883 0.50165903596042916 0 0.77846603114747959 0.49850927265137401 0 0.39801143831225599 0.16651381068160659 0 0.39536230704883951 0.84069429572832477 0 0.15720202157091859 0.60665697304410315 0 0.1650278706801647 0.38791388161335733 0 0.43249999999999988 0.43937499999999979 0 0.35864735590330371 0.63903383440414463 0 0.82709327591091286 0.84937141670920724 0 0.61343887413683884 0.856862479058357 0 0.82709327591102189 0.14937141670914489 0 0.6236733212988993 0.14864538214901801 0 0.14474682429600511 0.85524784522713515 0 0.14332333627550789 0.14578431753966009 0 0.36575549820117997 0.31677992835137742 0 0.46666084890304671 0.57634471035397938 0 0.27474541102162192 0.11822029332053539 0 0.27270076654418179 0.87751467830216623 0 0.1215415378367805 0.72939333680004137 0 0.1247745017231483 0.27198077544791172 0 0.6879972333610942 0.43038561374960838 0 0.67323294229744413 0.57556450033612505 0 0.86411095495256451 0.42388805655111889 0 0.86956835336234861 0.571283299838105 0 0.50202631463681879 0.87892870825713787 0 0.51076801031701946 0.1202837388510348 0 0.1216098864341134 0.50637075089503902 0 0.27866744612395528 0.38416094670951489 0 0.7250000000005199 0.89375000000045834 0 0.72500000000001008 0.19776155966387679 0 0.52289427570932567 0.3932284363388488 0 0.40326160981139969 0.73346192995102844 0 0.77354604466818633 0.40378688774472771 0 0.77293540622714185 0.59448302402785813 0 0.57412547362576272 0.58273804879550706 0 0.26573297623774761 0.59828298563722948 0 0.38244435121258652 0.51653317813019495 0 0.72500000000000064 0.7952620967744265 0 0.72525833953073282 0.1032114801687094 0 0.90299850604011456 0.79563452813489832 0 0.90416666666660628 0.9041666666666166 0 0.90299850604006393 0.09563452813493091 0 0.90416666666668166 0.20416666666667119 0 0.54782696902220018 0.79245182748204157 0 0.55306006949600994 0.20198184231352201 0 0.20050006573841939 0.53248514016039872 0 0.33758650185219202 0.23837101504325639 0 0.35312867752657662 0.084946736076730367 0 0.35752321586431363 0.9185439911803448 0 0.42377727103934271 0.25099357235810238 0 0.086179601630648681 0.64647209519980475 0 0.087545339447545459 0.35122518864182262 0 0.083411279318375747 0.91030024466934134 0 0.083411279318303222 0.089699755330707398 0 0.91696753777131557 0.497780560203536 0 0.34258405725730701 0.4444034294386992 0 0.33123028043633618 0.77629643437932982 0 0.2236846579037573 0.67380363126050236 0 0.19901705110390991 0.9175543425573498 0 0.19922788606653311 0.085920220746880993 0 0.19670163708476801 0.31472518408333222 0 0.4656888918609538 0.78493261229743638 0 0.083105206071452636 0.79992298667296435 0 0.083105206071467416 0.20007701332709979 0 0.57724883562309992 0.92155686857100794 0 0.57667858002728545 0.078486105337742612 0 0.49102375406324739 0.49123754822244059 0 0.4409427642593301 0.35743108089689513 0 0.43698630808430822 0.080423614171545449 0 0.4367309254023824 0.92065556789053882 0 0.22278230690790279 0.44824268025881547 0 0.6084546825910605 0.37989672713932537 0 0.43846182030517877 0.64845797726506715 0 0.077693244765132896 0.56932317963405099 0 0.078358742472063481 0.43365249433908948 0 0.6541250972820879 0.49999999999999989 0 0.21858834311891909 0.81980263716112767 0 0.2185883431182947 0.18019736283949719 0 0.31378396441836959 0.70157213313026345 0 0.79680861578988083 0.92656778056766709 0 0.79680861578956375 0.22656778056752541 0 0.65394964615507722 0.22666784374016369 0 0.47357141910802508 0.1873585799078378 0 0.80185942888539485 0.77452061303608133 0 0.64753070846764316 0.77332939069435502 0 0.80185942888501827 0.074520613036224564 0 0.65507451745379841 0.92229208810758578 0 0.29348325746214782 0.31350119524708198 0 0.91750694127107502 0.36982372220068471 0 0.91750694127105259 0.63017627779935648 0 0.65408113592120842 0.073941773121567966 0 0.33122374654748771 0.57588941099433744 0 0.84723782639812573 0.48638347960178252 0 0.50715858906372158 0.63295939104129484 0 0.83573492347052902 0.36590755630746369 0 0.83758014339878906 0.63222013025741819 0 0.6405463747586706 0.63290524857395714 0 0.33084213324567391 0.16272720141332131 0 0.71508799138962864 0.36622814920737751 0 0.71406021706547751 0.63292083137662503 0 0.18269480424590959 0.75905448272264375 0 0.17933913398461551 0.2350063570234002 0 0.4089290844030305 0.58728915500154233 0 0.53245488764484505 0.55078124999999989 0 0.61209567303293111 0.44669033081290321 0 0.7152569930854884 0.5237994455134295 0 0.33403534827021109 0.84402799729020661 0 0.27499999999933927 0.060310814194988557 0 0.27609987656793722 0.94991445621608572 0 0.82862096804812391 0.55037090955459045 0 0.73483647259922602 0.44789725365921768 0 0.049706944316475897 0.72477277076253799 0 0.049706944316556423 0.27522722923869108 0 0.16500388252850301 0.66612077714085194 0 0.62042975506801734 0.54295974692364424 0 0.38083244760691543 0.38531983672244652 0 0.93814194660195893 0.44426664081746747 0 0.93732437411268477 0.55911392101136159 0 0.93677536231884972 0.85000000000000286 0 0.93677536231883773 0.14999999999999089 0 0.52375890611712683 0.059318771819432882 0 0.52122150208832174 0.94089974453840242 0 0.15801167086041079 0.46008690540259539 0 0.14617343800780541 0.93808063414349496 0 0.14618258501891079 0.062070108745602003 0 0.76901770135486491 0.84293557325473656 0 0.77144070960558853 0.14311854477243749 0 0.68697391633157634 0.84450604838764298 0 0.68391457121233579 0.14440470121196541 0 0.26104540868854792 0.81401944968719064 0 0.065374659239661639 0.8551091961254178 0 0.065374659239632718 0.1448908038746782 0 0.55899371797446828 0.85003102233514438 0 0.56202748619534593 0.15054058349222879 0 0.45677673713123867 0.84253684404072415 0 0.85170973911348691 0.93569607295217616 0 0.8517097391133297 0.2356960729520409 0 0.068743045408989428 0.48853989837882689 0 0.22033343844674469 0.36963382230740238 0 0.85491058998424563 0.76004753345552634 0 0.85491058998398861 0.060047533455626502 0 0.26429849586623999 0.19346700179430079 0 0.14934928745814749 0.55042914607228977 0 0.59814117807200873 0.23398510860739519 0 0.49695729691142171 0.25014895411178018 0 0.59636844454254345 0.75937156204589151 0 0.27820712747429932 0.65530134213254643 0 0.44288491854585582 0.14116182884956319 0 0.14223753364722069 0.3341983344262433 0 0.81973119833356312 0.43505687159469048 0 0.43507373378304309 0.49699695397193322 0 0.49077833859261139 0.35229981449445641 0 0.33277555741076909 0.36432196682010132 0 0.13737030665753211 0.20313708640667491 0 0.1382744753146134 0.79650574229207483 0 0.29124338931648802 0.43334555462578611 0 0.94399509803918602 0.75600490196082126 0 0.94399509803922566 0.056004901960802607 0 0.94399509803919068 0.9439950980391687 0 0.94399509803921056 0.24399509803922639 0 0.65481233915350323 0.35652751921065562 0 0.48858720058566618 0.43964267759203868 0 0.7250000000005199 0.94981617647078953 0 0.72500000000000064 0.2498161764706 0 0.88088768115933802 0.84674609810493673 0 0.88088768115941807 0.14674609810479519 0 0.56836770495988642 0.352306235
[...]
<CellData Scalars="region_id,pressure_p0," Vectors="velocity_p0," Tensors="">
<DataArray type="Float64" Name="region_id" format="ascii">
2 2 2 2 2 2 2 2 2 2 3 3 3 3 3 3 3 3 3 3 1 1 1 1 1 1 1 1 1 1 1 1 1 1 1 1 1 1 1 1 1 1 1 1 1 1 1 1 1 1 1 1 1 1 1 1 1 1 1 1 1 1 1 1 1 1 1 1 1 1 1 1 1 1 1 1 1 1 1 1 1 1 1 1 1 1 1 1 1 1 1 1 1 1 1 1 1 1 1 1 1 1 1 1 1 1 1 1 1 1 1 1 1 1 1 1 1 1 1 1 1 1 1 1 1 1 1 1 1 1 1 1 1 1 1 1 1 1 1 1 1 1 1 1 1 1 1 1 1 1 1 1 1 1 1 1 1 1 1 1 1 1 1 1 1 1 1 1 1 1 1 1 1 1 1 1 1 1 1 1 1 1 1 1 1 1 1 1 1 1 1 1 1 1 1 1 1 1 1 1 1 1 1 1 1 1 1 1 1 1 1 1 1 1 1 1 1 1 1 1 1 1 1 1 1 1 1 1 1 1 1 1 1 1 1 1 1 1 1 1 1 1 1 1 1 1 1 1 1 1 1 1 1 1 1 1 1 1 1 1 1 1 1 1 1 1 1 1 1 1 1 1 1 1 1 1 1 1 1 1 1 1 1 1 1 1 1 1 1 1 1 1 1 1 1 1 1 1 1 1 1 1 1 1 1 1 1 1 1 1 1 1 1 1 1 1 1 1 1 1 1 1 1 1 1 1 1 1 1 1 1 1 1 1 1 1 1 1 1 1 1 1 1 1 1 1 1 1 1 1 1 1 1 1 1 1 1 1 1 1 1 1 1 1 1 1 1 1 1 1 1 1 1 1 1 1 1 1 1 1 1 1 1 1 1 1 1 1 1 1 1 1 1 1 1 1 1 1 1 1 1 1 1 1 1 1 1 1 1 1 1 1 1 1 1 1 1 1 1 1 1 1 1 1 1 1 1 1 1 1 1 1 1 1 1 1 1 1 1 1 1 1 1 1 1 1 1 1 1 1 1 1 1 1 1 1 1 1 1 1 1 1 1 1 1 1 1 1 1 1 1 1 1 1 1 1 1 1 1 1 1 1 1 1 1 1 1 1 1 1 1 1 1 1 1 1 1 1 1 1 1 1 1 1 1 1 1 1 1 1 1 1 1 1 1 1 1 1 1 1 1 1 1 1 1 1 1 1 1 1 1 1 1 1 1 1 1 1 1 1 1 1 1 1 1 1 1 1 1 1 1 1 1 1 1 1 1 1 1 1 1 1 1 1 1 1 1 1 1 1 1 1 1 1 1 1 1 1 1 1 1 1 1 1 1 1 1 1 1 1 1 1 1 1 1 1 1 1 1 1 1 1 1 1 1 1 1 1 1 1 1 1 1 1 1 1 1 1 1 1 1 1 1 1 1 1 1 1 1 1 1 1 1 1 1 1 1 1 1 1 1 1 1 1 1 1 1 1 1 1 1 1 1 1 1 1 1 1 1 1 1 1 1 1 1 1 1 1 1 1 1 1 1 1 1 1 1 1 1 1 1 1 1 1 1 1 1 1 1 1 1 1 1 1 1 1 1 1 1 1 1 1 1 1 1 1 1 1 1 1 1 1 1 1 1 1 1 1 1 1 1 1 1 1 1 1 1 1 1 1 1 1 1 1 1 1 1 1 1 1 1 1 1 1 1 1 1 1 1 1 1 1 1 1 1 1 1 1 1 1 1 1 1 1 1 1 1 1 1 1 1 1 1 1 1 1 1 1 1 1 1 1 1 1 1 1 1 1 1 1 1 1 1 1 1 1 1 1 1 1 1 1 1 1 1 1 1 1 1 1 1 1 1 1 1 1 1 1 1 1 1 1 1 1 1 1 1 1 1 1 1 1 1 1 1 1 1 1 1 1 1 1 1 1 1 1 1 1 1 1 1 1 1 1 1 1 1 1 1 1 1 1 1 1 1 1 1 1 1 1 1 1 1 1 1 1 1 1 1 1 1 1 1 1 1 1 1 1 1 1 1 1 1 1 1 1 1 1 1 1 1 1 1 1 1 1 1 1 1 1 1 1 1 1 1 1 1 1 1 1 1 1 1 1 1 1 1 1 1 1 1 1 1 1 1 1 1 1 1 1 1 1 1 1 1 1 1 1 1 1 1 1 1 1 1 1 1 1 1 1 1 1 1 1 1 1 1 1 1 1 1 1 1 1 1 1 1 1 1 1 1 1 1 1 1 1 1 1 1 1 1 1 1 1 1 1 1 1 1 1 1 1 1 1 1 1 1 1 1 1 1 1 1 1 1 1 1 1 1 1 1 1 1 1 1 1 1 1 1 1 1 1 1 1 1 1 1 1 1 1 1 1 1 1 1 1 1 1 1 1 1 1 1 1 
</DataArray>
<DataArray type="Float64" Name="pressure_p0" format="ascii">
0.021703963190197084 0.023904610190167205 0.028170661202942874 0.034705102790747004 0.043940987324882295 0.056512523692983381 0.073270850254170086 0.09537978385232182 0.1242150046371671 0.16206617118169273 0.070648362075790408 0.074178573430359954 0.080895846027619109 0.090861522200386874 0.1043744523315128 0.12187840830493692 0.1439523016348179 0.1713381691733363 0.20483499720704532 0.24575447312122292 0.00042154745663496116 0.00041526157540579505 0.0073071271606393821 0.0055857263629583787 1.0818531082884233e-06 3.1560814502491436e-07 7.2326135371686052e-07 2.1070230552242207e-07 8.2437119333856731e-06 2.6964318468096757e-05 2.1063242806993148e-05 3.6688180824491602e-05 3.9778783919593594e-06 4.0333897395440988e-07 1.2844655653915766e-07 0.015686516915319262 0.015101520907527985 0.013516715792040574 0.012438893784786085 0.02185592875037351 0.0076632452945163809 0.01134634457211384 0.012458735878360125 2.4212062226946756e-06 0.012277146457786641 0.00043235564102979385 0.00014477719360072287 0.018073442003854259 0.0014624300450513119 0.00021112501858158115 0.0024034866756087892 0.0065848178722777689 0.0087922228638666802 0.0074754438898706659 0.0064982126538569527 0.00015687152370303203 0.0068145863441911123 0.0010196005584527385 0.052847613349301631 0.054736481972451165 0.085324776520155854 0.0029268763231951544 0.078431651651401993 0.0021379410120328565 8.185078684016151e-07 3.1043444689830188e-07 0.0034964994179982854 0.0066798403698843638 0.032685601642086948 0.0019606642910291253 0.053450937954694099 0.013247331172376482 0.0016556195982577748 0.003153005419478239 0.022492752691201573 0.00082878276762731698 0.0010851516011976072 0.099415979968816279 0.095662846199545556 0.0017395850584635587 0.016515577098174705 0.0091914729312006435 0.011856905339103161 0.01529776270503682 0.0028651766269823086 1.0122287777875623e-07 3.4739306432516498e-07 0.038552689940097778 0.060109712758133177 5.6767808709790177e-07 1.6701622792593094e-07 9.2117434715232869e-06 7.8565292471912427e-07 2.6840849573470072e-06 0.0047420202102451672 0.0034662328078190478 0.12782057377602471 0.0012694731009767765 0.0039636159373588739 0.014269422607563892 0.0047425605405284708 1.5913717920844003e-07 4.6526488961482172e-08 1.1906640087528859e-05 0.021735084155751212 0.0063971060708094361 0.0040653331567047958 3.4186323023404228e-06 6.0520190076751915e-05 0.017159187701324401 5.3855365822730092e-06 2.3940874356178753e-06 1.5600725696161068e-06 0.022607260835123873 0.0038293994198692442 0.018500222866580492 0.0048723785372418371 0.15966622995161689 0.0010213606214686984 0.0009240992204658209 0.1405298996583097 0.0026361438170552126 3.7661063740083427e-06 2.2052192199789406e-06 0.036781867380742329 0.039761619743526072 0.0053092289888029944 0.025552306716369294 0.016558610811702616 0.0018691105463317168 0.0016140463144296568 0.079260106358902072 1.2957699815215498e-05 4.1827504171062264e-05 0.0087965067259252062 0.015897973577428538 0.0067780767159965572 0.0045638483059200121 0.019190347189783852 0.009075034745656697 0.03061034071743244 0.0055931270734459922 0.003993617552516952 0.0058103955684038165 0.0095933589212614766 0.0076563178543183445 0.0071221042732140475 0.00054298382427203705 0.00046731262768448826 0.0007741707796009731 0.012480019951644649 0.001162612891942518 7.3712943023539196e-05 0.00010565120732975506 0.00032310222098962756 0.00023066247471318507 0.0067391678260159248 0.00018670413943162851 0.020174318846371945 0.0013654406978290915 8.9840661973916025e-05 0.0033344770843357018 0.01947511408095735 0.0058791921625227185 0.012612454554886989 0.0060670387348848928 8.7480250034039325e-07 2.825569911254693e-07 0.0050651937567327042 5.4617412675416757e-05 0.0011545973019974885 2.7380906889915501e-06 2.3508067695386637e-06 1.1711342374991952e-06 1.1918002457960053e-06 0.00055744430277252779 0.00013983089336507405 3.6103802191481959e-05 0.00010103335656078469 0.00040070391545309124 4.6298474079917002e-05 6.4944311579180419e-05 1.8633584269593494e-07 5.4739139244599788e-08 0.042640358599857681 1.1119037285501651e-05 0.003027113487887144 0.0096525175031685791 6.009788959657765e-06 1.9950083080183121e-05 0.0059792316697865923 1.1825781792068318e-05 9.6304728067176445e-05 1.7241818682271748e-05 8.9441879990690519e-06 3.0043256586579993e-05 0.00042424772223216849 0.0077155354031890715 0.040798856742050409 0.0018098698422669124 1.8262439871428114e-06 6.9143076082495233e-07 7.8644825228715911e-07 2.4553704413294186e-07 0.0049016874540171954 0.0061215205577057289 0.0064236589657086299 0.0090126254380172993 0.0032749027774442081 0.0019318180898525313 8.2202757436219099e-06 0.0042250687391195522 0.0030158665546502856 0.03315471976744528 0.0092496099981352053 6.7910791031529244e-06 0.0025826979270621242 5.6179876541753942e-07 1.9213661536336944e-06 0.0093993584884332019 1.3662582459269245e-06 4.4413170423620049e-06 0.00041028918743911229 0.00013308516533929837 0.01047351044150055 0.018975574333032021 0.0027020407582951742 0.0021924158472020421 0.011424781120796309 0.0099474158235634824 1.2699407599369519e-05 0.00041851118810927034 0.016466926059101772 0.00079773136035321502 0.0046101853879973922 0.016984155756205727 4.8234818533197032e-05 0.010043112509300355 4.0261361830509219e-05 6.9937131790045705e-05 8.3553765356899837e-05 0.0018814369374044694 1.8446495142200908e-05 0.012282942142347479 0.011160066881793924 0.0060914032688363737 0.0030484484405710866 0.0025777006613932935 0.0030124557490710763 3.7175048239408232e-07 1.582686462636684e-07 1.8113564325364715e-05 0.0058157272221848562 2.8315014802126375e-05 6.0543881142814744e-07 4.3683403992535168e-06 1.2817327383548974e-06 0.00027535761419877154 2.3347796390556556e-06 0.016844671144064502 0.00027222622471409903 0.014274512173085185 6.5846779041902971e-06 0.0082269359742275384 0.01359485743934959 2.1714299099099616e-06 0.00048426585310801202 0.029917508496400427 0.0084382298777397405 0.0050881269542403639 0.018160334581190693 0.00068766366211984824 0.00044391084441701401 0.0003879698390242921 0.0011542460195844593 0.0013417081913862591 1.8930498921667476e-06 0.056484513559137139 2.3466055261157594e-06 6.9567787028533676e-07 0.0018833571329230658 2.2298132576660236e-06 7.2807764325949329e-06 5.9903783880336549e-05 4.7124073134223115e-05 0.041054781714133522 0.002426995633711744 0.033793511510839896 0.021994975196570236 3.3243923672779525e-05 0.059155890070778247 0.10860124038713828 0.027702880981756731 0.00024834647829053401 0.011779504350218673 0.00016573808932304529 4.2517479855028881e-05 0.0011396716567638079 0.0020854359534323158 3.2096291633059321e-05 0.00046777007986934611 1.8809178395438513e-05 4.7349397061276419e-05 0.00032584141824470303 0.00092822365239686574 6.3883683926838169e-07 1.8950358786813448e-07 1.057880787681222e-05 3.4503674453622263e-05 8.1852888684229533e-06 0.0055155311238240393 1.3212180512825511e-05 0.0046561143062242068 0.021781118864453362 4.7777098178468055e-06 1.6084438539315451e-05 6.1015618020562746e-06 0.0046548636429372993 0.00099102751303679405 0.034378032800203857 0.001647885351926716 0.0011189683448409396 6.9630060470708955e-06 2.065077758577526e-06 0.00026078882265121318 4.0637651155290125e-06 0.0077362284561646108 6.8098520501428709e-06 2.0198629182599594e-06 0.00031192475005853063 0.004121794897196435 0.013405965957892103 0.00019744408200010236 0.00026427589036278964 0.00070715884597778874 0.0010341892775329875 3.0568025359357517e-06 5.0686634625421952e-06 1.5973409488420234e-06 9.410957225021022e-07 0.0081645450905814022 0.00053037092471899512 8.2900825652762735e-05 0.018063899994048969 0.0022226205302663359 0.014645364214197942 0.00030053926006504345 0.00056212410179114604 0.0056435925919535211 0.0065160112170429708 1.6990406811981424e-06 4.9740747475039369e-07 0.0047526047766268432 0.078885560919724637 0.14001898335431784 0.00023051807845572367 0.00020706427734762389 0.0085981559827964273 0.0077722946906043904 0.0090321451673125962 0.0032136015352739015 0.034720738180575625 0.04359031918004564 0.069838588822000724 0.025529209964234047 0.0042482507877991751 6.8402959750823611e-06 1.1929456703641573e-05 0.027711664190951002 0.0023144193313988089 1.4427824162186418e-06 4.2955476463490085e-07 0.016337649015021948 1.0254981413653299e-06 3.0033796005447254e-07 0.0016932883534025644 0.048114875789841097 0.0031086530842794561 0.001665146672635134 0.0014215963399360437 0.014438028809496066 0.0038509382071143993 0.0025040353943760144 0.0008335711951900904 0.0065798367228892974 0.040994434932482365 0.07466706216067974 0.001568279048296068 0.0026823969434398901 0.0010821775174938951 0.003520733903474715 0.062847324032375806 0.0018026814808169652 0.00070254124113924691 0.026312592414635877 0.0075896663997904535 0.00036886228499106782 5.1672334806116592e-06 0.00025618078743014583 1.6096561403952358e-05 5.4526297685947567e-05 0.00071950829772596313 0.0006698030849106426 8.6519377734787555e-07 0.00013910805390163238 0.0071101264569119731 0.00089309000384402073 2.3373125773582339e-05 2.2080058164725116e-06 0.00019156507504194077 0.0083511241739938416 0.021607210418489106 7.2455938406379617e-05 0.094139562334478843 0.00090343494355981833 2.0944616626201422e-05 3.2199674328156703e-05 0.0022105682673273048 0.029418634379249381 3.5459612323043582e-05 5.5591181400476627e-05 1.5614633228176779e-05 5.3767975302881437e-06 0.00038124097744087138 0.00069356712200794603 3.2428735669060935e-06 0.023259974212420986 0.01055541740770761 0.0085109118594278305 3.7626985927558069e-05 4.6674429334131237e-07 0.00094934027397588887 0.014074093726170391 0.004403195099214237 9.7796123352409969e-06 0.00050738428776088624 0.00056747611751512385 2.294009303456357e-07 0.0014803167408552619 0.001333627123932141 0.03711263283181087 0.063058777554785908 0.00057091812638433563 0.0097062405054287402 0.0080556920902294053 3.8841869365791646e-05 0.0014545600381150484 0.047227356349583756 3.1693141646941555e-05 0.016817974501320616 0.005267980417576144 1.0315325322256405e-05 0.0023934721603126145 0.059196586791983169 0.0011597225079432115 1.6533765301903415e-05 5.3959481400241206e-05 0.0064767586858022847 1.9741689118499446e-05 0.098138868147325808 0.12586114849218966 0.19352997056278401 0.15081893660979168 0.025770290011127989 0.043591990447658477 0.10300868195851581 0.045250274221869474 0.061482895083890668 0.053212360193682279 0.0048093046014991 0.0028877789051195281 0.032604500638574743 1.4384645086320014e-05 0.072072820722811667 0.0019390314503700953 0.0011515828604661553 0.0032864136955470598 0.043132682884659601 0.010959744613367236 0.0048992346069230142 0.0035453815276946139 8.0034376599834271e-05 0.008240703346274466 0.00031104368214197365 0.0017175434723509329 0.00096460878706149111 0.00018255766180138666 0.0069951769366929945 0.0092118008110914917 0.00028339689711504235 9.0332541127010539e-05 3.7449441328839728e-07 1.299917818911439e-07 0.00038711177042213715 0.00026323756524927462 0.00013289411954207626 5.4139842514477839e-06 1.5560815374365138e-06 0.031863092041931676 3.9593159894500479e-06 1.1450465394981507e-06 0.011273726310363965 0.020835950752278107 0.00011042220200162933 0.022381992316881413 3.167142835076943e-07 9.7011451707845915e-08 3.6724839234068352e-06 1.244192189313543e-05 0.00071246663790286706 0.018359247604610503 0.00095915680694479751 0.00012113446817190295 0.00016738727102702779 0.0009583827064432299 0.00073870803402559357 0.020028858628232383 0.018379126253718507 0.0033395517900245576 0.0058520487860737967 1.6314352820950583e-06 5.5460657026517576e-06 0.012897732071121109 0.0023784261703014434 2.7175705705468275e-05 2.3653362429440347e-06 6.9432842183241309e-07 6.0364763018088572e-06 0.00070975741761552819 0.038188612646208625 7.5872907982681986e-06 0.0011862998186886716 0.031191758509769778 0.024449924472678138 0.001955997938863945 0.020563466944285014 0.00011158424676354609 0.0009094448585947923 0.1439540790703249 0.0012125940198567519 0.091716970668669781 0.002012216678885083 0.00010983673460236007 7.7582958277620589e-05 0.00024677340099082159 0.00010140056247693223 6.013386049119602e-05 0.00028688998942960403 0.00010065653022138825 0.0020954888101040658 1.7634429632276389e-06 1.2873621425240333e-06 4.3460511885121205e-06 6.010369213660253e-06 0.00074803090908057319 0.0010251499597730849 2.2341603242802533e-06 2.9866459183239179e-06 9.4730529982675453e-07 6.731810047242032e-07 0.018450213269272632 0.003773641644799609 3.9169818475165019e-06 1.3428741609678165e-05 0.00028882849294439177 3.082106652607523e-06 1.0054375269518448e-05 0.0093821321285157983 0.00010306998216438206 2.2572961522520989e-07 6.7344330507466045e-08 0.0017343245344527852 0.0099425076509564586 0.00015042165858315514 0.012628589416677136 0.00010518766173286805 0.00025823560334816288 1.0831973449175452e-06 3.1563838632725225e-07 0.0018388337872063884 7.0774302302788308e-05 0.000119080871234862 9.4632678036787453e-05 0.0010089805236857922 0.00080277772554492055 0.0022530625647540639 0.00025836034969560045 6.63844056562748e-05 0.011120037391932614 0.0059961182371202895 0.00010010430849755647 0.0011275071515195005 0.045975482382689094 0.028325701878417014 0.00046360892876045625 0.048155371386764206 3.0901745498780493e-05 9.9810919537371263e-05 4.4384774460409689e-05 0.00014422085272051567 2.2547162631213761e-07 7.7280607549749141e-07 0.00067018096284541433 0.0010544088594560191 0.044251822405749187 0.095195640406750506 0.054097103725522441 0.081392320771104601 0.032906812709413771 0.00015773834696440224 0.00081298578765621381 0.0013026055737705921 0.00027440736498522266 0.00079534214335261265 0.0010318825555345932 0.0060044127324746371 0.0047154226869477126 0.023509952275157269 0.00012890027629022371 3.9666972229059293e-05 0.00088910022864798269 0.0021522672957446621 0.0022914530062921575 0.013807787039191173 0.012353145010890729 0.06014195138145171 0.0013094141111297639 2.1477187266274106e-06 6.6983474596764509e-06 0.0067467542732175083 0.0058536927935907822 0.005336179818759312 0.0039733024402992942 0.0049834040374828505 0.0072494268766496554 1.7462726663225065e-07 5.8159169361568888e-07 0.00019154264843861566 0.00056408285390358319 2.8338227175625661e-05 2.8020234559365972e-05 0.019716598716306676 1.71608196405387e-05 2.5001896523767706e-05 7.7677220531721277e-06 0.07415556281464708 5.317661670278991e-05 0.00017041169950328733 0.013721435160212545 1.2890787957775342e-05 2.230058699417948e-05 0.013302936813275761 8.979413812110778e-06 2.6220983100007935e-06 0.0051273012016061015 0.00495137610641312 0.00014982007708987084 0.00031628181999200357 0.00010250086489593203 0.010010937685085888 6.4740212816428658e-05 5.0933948230982295e-05 0.067670857671166609 0.00041811096211476792 9.5869629205243964e-05 2.9489608236563937e-05 0.0011495483696574707 9.4889989439280866e-06 1.1393017021633383e-05 0.0016094088900965322 0.00060670308543151938 0.010391344748452956 0.1194887318919195 0.00069981205149552731 0.00093117153109776858 0.0021888233187891369 0.00048724627314360983 0.0013207455473994551 0.042460606702334092 2.0870029616331572e-05 0.0026527346725844711 2.8937255008426109e-05 0.022892021627775285 7.9852099534115108e-06 0.00032472803365296804 7.2058628978824214e-06 4.8869798706759348e-06 0.0023204384272335191 1.8419765634395052e-06 2.2830158071618361e-06 7.1567036447814147e-07 5.9605724092757625e-07 0.00038142510401093389 0.003246002263880104 0.0027372193947708106 0.029350085065862778 0.0020009441349870655 0.055428189527978886 0.022473602455668255 5.574634509683001e-05 0.00017754742651919351 0.036238750935408411 0.065276062476022356 0.00017055095633528917 6.0885925556402072e-07 0.00011229450375859065 5.4771360848921505e-05 0.013453348013282039 7.7812092386003776e-07 5.4702554698985047e-07 1.8801391027563307e-06 2.6695327802626322e-06 0.00018347616317754758 0.0085938251150781183 0.021115357320363976 0.013495982607887392 1.2288052823412604e-05 0.00043581081917204169 1.1311692764275309e-05 0.037598843516312264 2.9638381097517692e-07 0.0041654354953311375 0.030766454055845632 0.00051283406601776622 1.2959996614873174e-06 4.0542907059853006e-07 1.353970560651758e-06 4.7813016147686254e-05 8.183926501471025e-05 0.0002609699551135346 0.052755873967031387 0.00087489211261365554 0.058573606310422799 0.00077501869913368686 0.040058576531418422 1.8159796376626882e-05 1.2975562115921613e-06 2.6323593398751918e-05 0.0059252163729906935 0.0095773946030211794 0.0012657654920164888 0.0012023561158516403 0.029909984661902055 0.036240513733469662 0.024920763097482375 0.0259530779848186 1.3511563857942476e-07 0.067821076042257566 0.047515865327095744 0.00042038247405503634 0.00024037474462705474 0.00065553777479719513 0.00044136660558913738 0.00064268768841747057 9.3682111604017581e-06 6.5927766378716588e-07 1.050482879073352e-05 3.081666271331119e-06 6.5239359986201144e-06 0.075723726018193965 0.00060061562171022061 6.1016162649080903e-07 9.3202308367488248e-05 0.0011877905475097736 0.00016445958825190291 0.0013448303525368018 0.00034127749683799665 0.0029674039087415451 0.0001575639493529448 0.00047806245826414301 0.010897105604576999 0.014194349224312111 1.5520964985288264e-05 1.296562881433567e-05 0.00015550116551718427 1.7429974198247902e-05 4.3730111739488054e-05 0.010651045729316905 0.003405680531997528 1.2090259997018744e-07 0.059847814746614811 0.0046731248154678892 0.00065118708990363197 0.0033674816278531361 0.0030572917962208403 4.9257031900837786e-05 1.8315351127494285e-05 0.00088190273075980006 0.0013681167182339271 0.0042316048806570698 0.0040682490094167056 0.00010142113458974314 0.00032441239565817609 0.0017787984951976501 0.028505033600338674 0.014147789513696196 0.00058259256389160284 3.1157499767430565e-05 3.8808001748226542e-05 0.000264262