<?xml version="1.0"?>
<VTKFile type="UnstructuredGrid" version="0.1" byte_order="LittleEndian">
<UnstructuredGrid>
<Piece NumberOfPoints="558" NumberOfCells="1054">
<Points>
<DataArray type="Float64" NumberOfComponents="3" format="ascii">
0 0 0 1 0 0 1 1 0 0 1 0 0.5 0.29999999999999999 0 1 0.29999999999999999 0 0.5 0.69999999999999996 0 1 0.69999999999999996 0 0.049999999999899652 0 0 0.099999999999814668 0 0 0.14999999999970359 0 0 0.19999999999955789 0 0 0.24999999999941211 0 0 0.29999999999926641 0 0 0.34999999999912063 0 0 0.3999999999989749 0 0 0.44999999999882923 0 0 0.49999999999869432 0 0 0.5499999999988151 0 0 0.59999999999894682 0 0 0.64999999999907843 0 0 0.69999999999921003 0 0 0.74999999999934175 0 0 0.79999999999947335 0 0 0.84999999999960507 0 0 0.89999999999973679 0 0 0.94999999999986839 0 0 1 0.049999999999896842 0 1 0.099999999999753911 0 1 0.14999999999961891 0 1 0.19999999999974799 0 1 0.24999999999987299 0 1 0.34999999999993492 0 1 0.39999999999978308 0 1 0.44999999999963131 0 1 0.49999999999950101 0 1 0.54999999999963112 0 1 0.59999999999973963 0 1 0.64999999999986979 0 1 0.74999999999993494 0 1 0.7999999999998193 0 1 0.84999999999982645 0 1 0.8999999999998336 0 1 0.94999999999997109 0 0.94999999999979179 1 0 0.89999999999958358 1 0 0.84999999999965292 1 0 0.79999999999999982 1 0 0.75000000000034661 1 0 0.7000000000006934 1 0 0.65000000000104008 1 0 0.60000000000138687 1 0 0.55000000000173355 1 0 0.50000000000205869 1 0 0.45000000000187229 1 0 0.40000000000166441 1 0 0.35000000000145642 1 0 0.30000000000124832 1 0 0.25000000000104028 1 0 0.20000000000083221 1 0 0.15000000000062411 1 0 0.10000000000041601 1 0 0.050000000000207989 1 0 0 0.94999999999979179 0 0 0.89999999999958358 0 0 0.84999999999965292 0 0 0.79999999999999982 0 0 0.75000000000034661 0 0 0.7000000000006934 0 0 0.65000000000104008 0 0 0.60000000000138687 0 0 0.55000000000173355 0 0 0.50000000000205869 0 0 0.45000000000187229 0 0 0.40000000000166441 0 0 0.35000000000145642 0 0 0.30000000000124832 0 0 0.25000000000104028 0 0 0.20000000000083221 0 0 0.15000000000062411 0 0 0.10000000000041601 0 0 0.050000000000207989 0 0.54999999999999993 0.29999999999999999 0 0.59999999999999976 0.29999999999999999 0 0.6499999999999998 0.29999999999999999 0 0.69999999999999984 0.29999999999999999 0 0.74999999999999989 0.29999999999999999 0 0.79999999999999982 0.29999999999999999 0 0.84999999999999987 0.29999999999999999 0 0.89999999999999991 0.29999999999999999 0 0.94999999999999996 0.29999999999999999 0 0.54999999999999993 0.69999999999999996 0 0.59999999999999976 0.69999999999999996 0 0.6499999999999998 0.69999999999999996 0 0.69999999999999984 0.69999999999999996 0 0.74999999999999989 0.69999999999999996 0 0.79999999999999982 0.69999999999999996 0 0.84999999999999987 0.69999999999999996 0 0.89999999999999991 0.69999999999999996 0 0.94999999999999996 0.69999999999999996 0 0.28307294598219601 0.50789252727458634 0 0.25676291524611189 0.7436741304886243 0 0.25195515620380449 0.25883339815888678 0 0.57611405284611883 0.50165903596042916 0 0.77846603114747959 0.49850927265137401 0 0.39801143831225599 0.16651381068160659 0 0.39536230704883951 0.84069429572832477 0 0.15720202157091859 0.60665697304410315 0 0.1650278706801647 0.38791388161335733 0 0.43249999999999988 0.43937499999999979 0 0.35864735590330371 0.63903383440414463 0 0.82709327591091286 0.84937141670920724 0 0.61343887413683884 0.856862479058357 0 0.82709327591102189 0.14937141670914489 0 0.6236733212988993 0.14864538214901801 0 0.14474682429600511 0.85524784522713515 0 0.14332333627550789 0.14578431753966009 0 0.36575549820117997 0.31677992835137742 0 0.46666084890304671 0.57634471035397938 0 0.27474541102162192 0.11822029332053539 0 0.27270076654418179 0.87751467830216623 0 0.1215415378367805 0.72939333680004137 0 0.1247745017231483 0.27198077544791172 0 0.6879972333610942 0.43038561374960838 0 0.67323294229744413 0.57556450033612505 0 0.86411095495256451 0.42388805655111889 0 0.86956835336234861 0.571283299838105 0 0.50202631463681879 0.87892870825713787 0 0.51076801031701946 0.1202837388510348 0 0.1216098864341134 0.50637075089503902 0 0.27866744612395528 0.38416094670951489 0 0.7250000000005199 0.89375000000045834 0 0.72500000000001008 0.19776155966387679 0 0.52289427570932567 0.3932284363388488 0 0.40326160981139969 0.73346192995102844 0 0.77354604466818633 0.40378688774472771 0 0.77293540622714185 0.59448302402785813 0 0.57412547362576272 0.58273804879550706 0 0.26573297623774761 0.59828298563722948 0 0.38244435121258652 0.51653317813019495 0 0.72500000000000064 0.7952620967744265 0 0.72525833953073282 0.1032114801687094 0 0.90299850604011456 0.79563452813489832 0 0.90416666666660628 0.9041666666666166 0 0.90299850604006393 0.09563452813493091 0 0.90416666666668166 0.20416666666667119 0 0.54782696902220018 0.79245182748204157 0 0.55306006949600994 0.20198184231352201 0 0.20050006573841939 0.53248514016039872 0 0.33758650185219202 0.23837101504325639 0 0.35312867752657662 0.084946736076730367 0 0.35752321586431363 0.9185439911803448 0 0.42377727103934271 0.25099357235810238 0 0.086179601630648681 0.64647209519980475 0 0.087545339447545459 0.35122518864182262 0 0.083411279318375747 0.91030024466934134 0 0.083411279318303222 0.089699755330707398 0 0.91696753777131557 0.497780560203536 0 0.34258405725730701 0.4444034294386992 0 0.33123028043633618 0.77629643437932982 0 0.2236846579037573 0.67380363126050236 0 0.19901705110390991 0.9175543425573498 0 0.19922788606653311 0.085920220746880993 0 0.19670163708476801 0.31472518408333222 0 0.4656888918609538 0.78493261229743638 0 0.083105206071452636 0.79992298667296435 0 0.083105206071467416 0.20007701332709979 0 0.57724883562309992 0.92155686857100794 0 0.57667858002728545 0.078486105337742612 0 0.49102375406324739 0.49123754822244059 0 0.4409427642593301 0.35743108089689513 0 0.43698630808430822 0.080423614171545449 0 0.4367309254023824 0.92065556789053882 0 0.22278230690790279 0.44824268025881547 0 0.6084546825910605 0.37989672713932537 0 0.43846182030517877 0.64845797726506715 0 0.077693244765132896 0.56932317963405099 0 0.078358742472063481 0.43365249433908948 0 0.6541250972820879 0.49999999999999989 0 0.21858834311891909 0.81980263716112767 0 0.2185883431182947 0.18019736283949719 0 0.31378396441836959 0.70157213313026345 0 0.79680861578988083 0.92656778056766709 0 0.79680861578956375 0.22656778056752541 0 0.65394964615507722 0.22666784374016369 0 0.47357141910802508 0.1873585799078378 0 0.80185942888539485 0.77452061303608133 0 0.64753070846764316 0.77332939069435502 0 0.80185942888501827 0.074520613036224564 0 0.65507451745379841 0.92229208810758578 0 0.29348325746214782 0.31350119524708198 0 0.91750694127107502 0.36982372220068471 0 0.91750694127105259 0.63017627779935648 0 0.65408113592120842 0.073941773121567966 0 0.33122374654748771 0.57588941099433744 0 0.84723782639812573 0.48638347960178252 0 0.50715858906372158 0.63295939104129484 0 0.83573492347052902 0.36590755630746369 0 0.83758014339878906 0.63222013025741819 0 0.6405463747586706 0.63290524857395714 0 0.33084213324567391 0.16272720141332131 0 0.71508799138962864 0.36622814920737751 0 0.71406021706547751 0.63292083137662503 0 0.18269480424590959 0.75905448272264375 0 0.17933913398461551 0.2350063570234002 0 0.4089290844030305 0.58728915500154233 0 0.53245488764484505 0.55078124999999989 0 0.61209567303293111 0.44669033081290321 0 0.7152569930854884 0.5237994455134295 0 0.33403534827021109 0.84402799729020661 0 0.27499999999933927 0.060310814194988557 0 0.27609987656793722 0.94991445621608572 0 0.82862096804812391 0.55037090955459045 0 0.73483647259922602 0.44789725365921768 0 0.049706944316475897 0.72477277076253799 0 0.049706944316556423 0.27522722923869108 0 0.16500388252850301 0.66612077714085194 0 0.62042975506801734 0.54295974692364424 0 0.38083244760691543 0.38531983672244652 0 0.93814194660195893 0.44426664081746747 0 0.93732437411268477 0.55911392101136159 0 0.93677536231884972 0.85000000000000286 0 0.93677536231883773 0.14999999999999089 0 0.52375890611712683 0.059318771819432882 0 0.52122150208832174 0.94089974453840242 0 0.15801167086041079 0.46008690540259539 0 0.14617343800780541 0.93808063414349496 0 0.14618258501891079 0.062070108745602003 0 0.76901770135486491 0.84293557325473656 0 0.77144070960558853 0.14311854477243749 0 0.68697391633157634 0.84450604838764298 0 0.68391457121233579 0.14440470121196541 0 0.26104540868854792 0.81401944968719064 0 0.065374659239661639 0.8551091961254178 0 0.065374659239632718 0.1448908038746782 0 0.55899371797446828 0.85003102233514438 0 0.56202748619534593 0.15054058349222879 0 0.45677673713123867 0.84253684404072415 0 0.85170973911348691 0.93569607295217616 0 0.8517097391133297 0.2356960729520409 0 0.068743045408989428 0.48853989837882689 0 0.22033343844674469 0.36963382230740238 0 0.85491058998424563 0.76004753345552634 0 0.85491058998398861 0.060047533455626502 0 0.26429849586623999 0.19346700179430079 0 0.14934928745814749 0.55042914607228977 0 0.59814117807200873 0.23398510860739519 0 0.49695729691142171 0.25014895411178018 0 0.59636844454254345 0.75937156204589151 0 0.27820712747429932 0.65530134213254643 0 0.44288491854585582 0.14116182884956319 0 0.14223753364722069 0.3341983344262433 0 0.81973119833356312 0.43505687159469048 0 0.43507373378304309 0.49699695397193322 0 0.49077833859261139 0.35229981449445641 0 0.33277555741076909 0.36432196682010132 0 0.13737030665753211 0.20313708640667491 0 0.1382744753146134 0.79650574229207483 0 0.29124338931648802 0.43334555462578611 0 0.94399509803918602 0.75600490196082126 0 0.94399509803922566 0.056004901960802607 0 0.94399509803919068 0.9439950980391687 0 0.94399509803921056 0.24399509803922639 0 0.65481233915350323 0.35652751921065562 0 0.48858720058566618 0.43964267759203868 0 0.7250000000005199 0.94981617647078953 0 0.72500000000000064 0.2498161764706 0 0.88088768115933802 0.84674609810493673 0 0.88088768115941807 0.14674609810479519 0 0.56836770495988642 0.352306235
[...]
<CellData Scalars="pressure_p0,region_id," Vectors="velocity_p0," Tensors="">
<DataArray type="Float64" Name="pressure_p0" format="ascii">
0.01052701781645422 0.011865438248004241 0.01456188375205485 0.018871912370828449 0.025250998752376665 0.034394348871816978 0.047308493870190399 0.065476389187964446 0.090822634943713176 0.12650400478629639 0.038559528705363277 0.041034416013279076 0.045904334742420991 0.053374740346920913 0.063845671373524815 0.07790545652802619 0.096348293533899537 0.12024405158143459 0.1508372321319818 0.19005584428677141 0.00010600795990001825 0.00010185547085860377 0.0027587977676086783 0.0020335434412688588 3.5231500333753705e-05 2.4340846420907532e-05 3.2499695073531584e-05 2.2579152912734949e-05 3.3489799416176665e-05 5.710991270145996e-05 8.4372975362941161e-06 1.116609096939077e-05 1.2421686571785515e-05 4.6729317165820794e-06 4.4756966691633908e-06 0.0068367621745777287 0.006066138037485464 0.0049009757185485047 0.0040468460774608101 0.0078760206425921905 0.0025107646965037383 0.0036862961564387629 0.0045395347686851793 1.1732822200376686e-05 0.0046611031990761113 0.00014502427717704824 6.1050376673736683e-05 0.0083357902906576482 0.00039885070902027605 7.4304123086181586e-05 0.00062620108524510541 0.0021560276088402179 0.0027187365686724991 0.0025289398148705916 0.0019158918148083489 5.9698460404697131e-05 0.0021542622307981689 0.00027992624957999014 0.026788722214214425 0.028522874247263651 0.044141338221245871 0.00080916066678196662 0.046630289558049619 0.00050728489597294687 4.6687844082437992e-06 5.2614178882432609e-06 0.0010299472497700864 0.0021519727433407182 0.014984957474522269 0.00046914329861163872 0.029067997414214595 0.0042387448425264991 0.00040442525420465746 0.00082166345019167066 0.0085564789922479654 0.00021641885602976803 0.00025953000121909227 0.055480257548864563 0.062706419064360641 0.00039517705072464944 0.0062334348472994012 0.0037782509592965237 0.0041169857083731675 0.0053234624422255038 0.0008561177068819256 1.4447856359398005e-05 2.0170542377566394e-05 0.017753139123149412 0.027575882185853658 1.8085063697861134e-05 1.3594257783551758e-05 9.9443702070983397e-06 2.7222969918035937e-05 4.042000885931743e-05 0.0012860604451455141 0.00090642828106325896 0.076057250601864454 0.00030312376728187473 0.0010415134973496836 0.004714711613006144 0.0013553798258806155 1.0960057601126631e-05 7.9819198201776923e-06 1.1837988649441082e-05 0.0079480019249716875 0.0020642500878760238 0.0012775976152577698 4.9916619380244367e-06 3.0237926176436074e-05 0.005974138205868655 5.0645235998640178e-06 5.0443031761380247e-06 5.2943331728559259e-06 0.0096204641034756538 0.001048176727174668 0.006437890663541731 0.0014732654065358381 0.10531814178859812 0.00023343785345035248 0.0002110020721180331 0.089023932137489867 0.00073578275911670194 8.5002401642949351e-06 8.94618308910022e-06 0.015909866191220368 0.017531821594623121 0.0015690217641056822 0.0094338936098681894 0.0059937573915023658 0.00048827759231662095 0.00036645339243505069 0.049214860829412413 3.4272400694770807e-05 6.0147127249945165e-05 0.0028126214655560702 0.0072341487490070154 0.0020010026259896889 0.0012498457199404422 0.0074892978085868908 0.0027734177746059022 0.011853563089930104 0.0017214531578110851 0.0012141006896407374 0.0017868125495799144 0.0030341242570311147 0.0022892090322153991 0.0025354149641851217 0.00016657639175323325 0.00013045068945430924 0.00021870803107244168 0.0042521819269785805 0.00029882244783749367 4.2133492784252624e-05 4.9103099012693735e-05 0.00011259540259717736 9.1269668797678394e-05 0.002077420714178841 6.8379183851986102e-05 0.0076752264673866002 0.00033384856154175383 1.3571747855075423e-05 0.00088089866365312634 0.0080271841950942946 0.0017451743361577856 0.0042467432575826036 0.0016972956140122661 6.7495792063703388e-06 6.8229053559944162e-06 0.0016972162742382372 3.3495112693666766e-05 0.00030971298576748968 6.6400411650435833e-06 5.6657723430981417e-06 6.6222815586786465e-06 7.6726902552212994e-06 0.00014607950928148837 2.2341838925659154e-05 1.3244450168565577e-05 3.4684933484874084e-05 7.8642405776787819e-05 1.8800486843970492e-05 2.0951998060008205e-05 1.0313459347256627e-05 7.6495410674910049e-06 0.019942799845274865 7.4796795830038454e-06 0.00097920294457883722 0.0029225826585693392 3.1812856262659911e-05 5.2724458838617239e-05 0.0016466707040707798 2.894607649376001e-05 5.0083600255516287e-05 3.0189638565629571e-05 1.8012148477500253e-05 2.3369164986167712e-05 0.00011831144868238196 0.00253302828631827 0.01736351431065471 0.00047625586537592324 6.8782217478000309e-06 7.6244098795941802e-06 9.1940886758524145e-06 8.3574256457650109e-06 0.0016546408842869995 0.0021335568525272597 0.0019903838705805478 0.0030138784030495983 0.00098367388286722422 0.00055915360998162961 5.6529863585936208e-06 0.0011722340313030408 0.00081499287085118343 0.015752633702646353 0.0027254743149593367 1.1705627818016461e-05 0.00073432346486274102 2.680015900118281e-05 3.9707067115953411e-05 0.0030037722414337359 1.6659981498078864e-05 2.0032800612417468e-05 0.00014132476928569755 5.8867561474635148e-05 0.0038308480551795107 0.0078709133426481948 0.00083074409048575258 0.00064476018952675808 0.0039819326675664436 0.0029891835062978455 8.4314378456839793e-06 0.00011965324093283963 0.0054679050748064678 0.00022297174099554382 0.0012796494157083084 0.0066898650870375973 1.0738636800143999e-05 0.003885991382368217 7.0451898963298767e-06 1.1326330096873294e-05 4.0116074770146841e-05 0.00053040583103482327 3.9485174893210908e-05 0.0040987074383929834 0.0036733208206873639 0.0018114329168899877 0.0008935806971947294 0.00074208184417100123 0.00088666322585999606 2.2832718295612237e-06 2.7111018640074532e-06 7.4824291174901451e-06 0.0022019808691462741 3.778519687612813e-05 3.0812956914981331e-06 4.3102663878831325e-05 2.8411004677841661e-05 8.5978167017914834e-05 5.9601914806305895e-06 0.006700049578305574 4.9160563991338356e-05 0.0050143002020590199 6.148589248722203e-06 0.0025038397481295964 0.0050734823841853856 6.6577590290594714e-06 9.7891251360727197e-05 0.011757009474832691 0.0025613295624161694 0.0015534271778797461 0.0071532349015161764 0.00018946991482184306 0.00012731955415939145 0.00011194202255326745 0.00031338705798116483 0.00036992907514054468 1.0157836322344998e-05 0.028867812361073698 2.382727740814877e-05 1.8559407031841615e-05 0.00051638759535565864 1.6167678290304274e-05 1.9067172499201364e-05 4.7565788264189283e-05 5.0440757264213743e-05 0.017447370897066702 0.00066481149554988581 0.013505737312654687 0.0087406786151031941 1.9570439847959101e-05 0.033603977924876523 0.062855273449477098 0.010558873454577525 7.9061533867655115e-05 0.0037919548244982979 7.0869669854034439e-05 8.5956027445535294e-06 0.00032276273322447374 0.00062640462519106255 2.1040487934442354e-05 0.00013231297401501064 2.0384849202494264e-05 2.1663747609885483e-05 9.7918242310806423e-05 0.00025831081473946213 1.5704341176455554e-05 1.2215574490362389e-05 1.9518828696926278e-05 2.6769473680836404e-05 1.3309652421631572e-05 0.0020364158807721919 5.7579003529690429e-06 0.0012923031060629317 0.0090556091078315415 1.8094508645275428e-05 2.2645262156777878e-05 4.9509870399204502e-06 0.0016146373393014879 0.00023918719939941167 0.018130881089033279 0.00044877306717865714 0.00029078582989855103 3.886804246754615e-05 2.6329920979677007e-05 5.4248476473155296e-05 5.2178467692993211e-06 0.0027583087789358586 4.2034315928023147e-05 2.7759402272417789e-05 5.8102104510907178e-05 0.0012440469044628997 0.0044653327660757938 6.6410791925394316e-05 8.0072936722612293e-05 0.00019225399840665144 0.00029714942810139539 1.3152799664046523e-05 1.4251253007209533e-05 1.3152773478918988e-05 1.2227906177405062e-05 0.0026177280905404082 0.00011139432406050495 1.4513553690746538e-05 0.0064976562586852721 0.00061793608248842421 0.0051183217803571117 6.5764970413464594e-05 0.00013000036456512382 0.0016756697593257987 0.0019607465884957285 2.8783078328012447e-05 2.1182791861600835e-05 0.00159054419366319 0.049665818799310438 0.089630216708556476 4.2061603329924041e-05 3.8283455827582113e-05 0.0024653647734612909 0.0021943859447566463 0.0027670867905865322 0.00083293433974731927 0.016239737855345621 0.02093571836056039 0.033557155202888947 0.0097217507570903795 0.0012693005537334154 4.8538625544025284e-06 4.7787229247023286e-06 0.010764250901616592 0.00063584591365881821 2.0468791828384773e-05 1.6216052030497043e-05 0.0060458524030680364 2.6725326410906089e-05 1.961360204091883e-05 0.00039911508585689068 0.025643056020205248 0.00091347375822148954 0.00045621259926166265 0.00039795890579130992 0.0051157249591337953 0.0011120278676550568 0.00070327273599994026 0.00023026588244483422 0.0023829330411365814 0.020450175014379318 0.037827074973469606 0.00037695179423235766 0.00078725524161064333 0.00025748268540272488 0.0012160432832592867 0.030037578285419642 0.00046625695906999005 0.00015335847647686445 0.010368222782211535 0.0021292930560939888 7.149258295324694e-05 9.1784025500493695e-06 7.8770115257823799e-05 1.6997450742708877e-05 1.0799697025335814e-05 0.00015557941806780161 0.00018411416127646268 4.6694646104670718e-06 2.9037152795838275e-05 0.0023655570419379903 0.00022790535414695789 1.5947172172131097e-05 4.785700062939076e-06 4.383252120718258e-05 0.0029895230129217908 0.0088632620984313813 4.2388286322252225e-05 0.051818464301782642 0.00021263212183501084 6.9537578746840465e-06 7.4907509487590049e-06 0.00054934180379351846 0.013494753958620417 6.1130304252204652e-06 8.4562580964867198e-06 5.194573527997541e-06 2.4889833689997684e-05 0.00010194497250984609 0.00019082037446910922 2.4998845633446364e-05 0.0094780921046601352 0.0033664936185824105 0.0028838316404616944 1.172411855029093e-05 3.0225830965210643e-06 0.00023287411204150519 0.0047183264156533972 0.0011618941930982849 5.3963027815416743e-06 0.00013862560136078579 0.00015171273493449182 1.5058066798976354e-06 0.00038674918086054012 0.00035201750762740998 0.017393884763935399 0.029709734690909859 0.00013500700551496222 0.0031339596232738162 0.0028087138232619985 1.7964538468745415e-05 0.00038952741463039461 0.022504130219235981 9.5480516222242809e-06 0.0058573663614489126 0.0016404624875270054 8.5585025052059963e-06 0.00076091803181716736 0.028007216817814561 0.00028715395326236402 3.668078869265461e-05 6.6282753185240806e-05 0.0021080582341681509 2.2195685082371048e-05 0.061257458511602872 0.088573581047308642 0.13490961520768963 0.093287318221239673 0.010786207907805557 0.018437537403179487 0.061237819600857828 0.025241161446638134 0.031990874231039898 0.023889304725083892 0.001330494076640784 0.0008038117667804669 0.014672457057959113 5.4976411253726417e-06 0.03584422280413628 0.00050387965520049579 0.00026626005386398813 0.00084930781101729205 0.021401198042369018 0.0042984702269444524 0.0015784469404874174 0.001042715260435997 2.5675686474201479e-05 0.0026271854085674548 8.8901536523785247e-05 0.00046255849246829093 0.0002430248614252722 3.1764180529917461e-05 0.0019741795053837656 0.0027535331481889089 0.00011717986297241607 5.1942244557943515e-05 3.1805474435823891e-06 3.4063984544290686e-06 8.1785319872298588e-05 4.8345448492748906e-05 2.4127026768141409e-05 3.3583133098179939e-05 2.3917475830695126e-05 0.013412063932647617 3.1622485679373492e-05 2.2959389484334062e-05 0.0039552663943749023 0.0084751520142777488 2.1686708241349904e-05 0.0083771288712329636 5.794437974328691e-06 5.0501659378413764e-06 3.1547019433947318e-05 5.0919797272880993e-05 0.00019950730857966852 0.0083180035853393647 0.00025089131045868203 1.8869290446698056e-05 2.7763650730634567e-05 0.00023046836901756737 0.00017135178300516085 0.0070018811180971082 0.0082185091728302715 0.0011572879117854751 0.0022324208638507923 2.9748070595826121e-05 4.6116869546361243e-05 0.0040058038442154983 0.00067507509357975551 6.040403077116671e-06 2.7064890397074394e-05 2.0409724381467526e-05 9.0488856746877918e-06 0.00015685889275883551 0.015882563874628712 1.035969707785287e-05 0.0002837667723528971 0.015480144053906582 0.011558887729771403 0.00048150334050075247 0.0094431388525790336 2.4262684079570224e-05 0.00020323249848673965 0.088034726858154028 0.00028403121828207494 0.056500281546873712 0.00046770031040100626 2.0395861395232291e-05 1.5748221610259846e-05 5.9345334659812966e-05 6.4077974667257402e-05 5.7383408841408376e-05 7.2111429263104325e-05 3.1710206652759656e-05 0.00066375925360848912 2.0139366433142765e-05 1.8463376453285404e-05 2.3196965131435772e-05 2.6207496358135232e-05 0.00019345041281813762 0.00026741984873838526 1.0052454231998607e-05 9.1037378061877617e-06 9.4543514416512116e-06 9.8932327337695409e-06 0.0065681910421262306 0.0011127789262558216 1.6694670073699519e-05 1.9810685746599613e-05 7.5279325265559884e-05 1.9965416155009761e-05 2.6175263805890292e-05 0.0039166161360078703 2.3842004858875726e-05 6.8396638599874916e-06 5.503325115044925e-06 0.00046576391185127022 0.0028995437746806942 4.5868604381357564e-05 0.0051846337226642411 1.7920407087448997e-05 5.7738917448609896e-05 3.2947131282988591e-05 2.3180202518677614e-05 0.00057008258612209592 1.0958992431743291e-05 3.2233183186220548e-05 4.3299676406237926e-05 0.0002498290677103031 0.00022648599943099216 0.00060175031304027476 7.1274281050373521e-05 1.1087479319169605e-05 0.0043601408509498108 0.0020004015707233602 3.3463505983961593e-05 0.00026192243700708594 0.025806611468353897 0.014324748154759627 0.00013241054523828618 0.023416147090911395 3.6710958064691538e-05 6.9844461176162936e-05 3.9206478007061867e-05 7.8961270047283612e-05 2.0185425062259469e-05 2.8157279873393885e-05 0.00017294333047003529 0.00029337043026740151 0.023718437745572606 0.053835407008175837 0.026751499228401841 0.044389896264133838 0.016489797963948245 4.2988704677888506e-05 0.00022363447762393851 0.00038189850153693469 5.4046839696487863e-05 0.00020249581300271763 0.00023974137725142662 0.0019873157463935961 0.0014916076656567572 0.01143751713738448 8.2341714433769689e-05 4.1165135324532318e-05 0.00021038760461143273 0.00055674790362133858 0.00059174074771412087 0.0054808083618432292 0.0048168295704682056 0.035708877336063358 0.00029788088267410594 1.4699513673855666e-05 1.663993257497103e-05 0.0022631112036558894 0.0019306106231853917 0.0016988494765091341 0.0012274959101278061 0.0014190096788319442 0.0021940523622841308 9.3413477452744019e-06 1.1188107825683829e-05 6.9036622753805454e-05 0.00017269714852239377 3.0145598099252386e-05 6.7105803197564182e-06 0.0068278611756979373 4.4507055432955981e-05 4.8913368505445794e-05 7.2097150491892556e-06 0.040416466461530021 4.3943180923856391e-05 9.1624138023395206e-05 0.00587701195271087 2.9957331382725078e-05 2.9558263135004272e-05 0.0049347810960421118 4.787434798323726e-05 3.0317149782142582e-05 0.0013846826774766112 0.0013696823534008898 2.5255409077737509e-05 7.5269439343411763e-05 1.6255972707418853e-05 0.0035448895887000547 3.6533025446705734e-05 1.673227324435578e-05 0.035977357785293401 0.00010941797041603171 7.8039959006074018e-05 4.0336785758002834e-05 0.00026967486365093502 3.3202532225499781e-05 3.7001963004209538e-05 0.00042121651116620005 0.00015178654937364505 0.0038057309447792342 0.073577428982559354 0.00016032237160042937 0.00023943257620977017 0.00070199429409661842 0.00013451472306384645 0.0003077240756096134 0.022449248593489606 1.6830015140703896e-05 0.00076684398415038501 3.4362013741441599e-05 0.011057770293237491 2.2810333434132051e-05 8.9461791534039203e-05 2.997699979430446e-05 2.8514487907836385e-05 0.00061252160695632611 1.3862729668759367e-05 1.727196068275373e-05 1.4737603648144076e-05 1.2445662901566451e-05 9.8500344239220336e-05 0.00088099697278168658 0.00070829046524800883 0.014945778406525313 0.00049709042561906446 0.026602712483003152 0.0099958908271060055 4.5824422447730592e-05 9.6374497162781547e-05 0.016009675166233448 0.032355352342382536 5.7117512728448182e-05 4.5206678428664544e-06 3.3321912307328066e-05 1.7236270141924457e-05 0.0049525738429649557 2.5787226563235839e-05 2.4434225680919126e-05 3.476214402208834e-05 3.734595494007139e-05 6.7029538404561519e-05 0.0029404606538332625 0.0097869033586591245 0.0042970988469170149 1.6449791607793673e-05 9.3223817519590271e-05 2.6673619582024128e-05 0.016458799658628342 3.8053120710275346e-06 0.0011048607928936997 0.013398790682316461 0.00015726825692716396 4.3030865562570706e-06 1.406938908274027e-05 1.7023515089466579e-05 7.6303527716019318e-06 4.6963288697702575e-05 0.00010491626028353543 0.024499792964197024 0.00021476400049641418 0.029387653225047303 0.00019299621664389309 0.017925729188913872 6.3358680930003354e-06 4.6007116741566541e-06 1.5775653238248864e-05 0.0019022705232915348 0.0033507417048780535 0.00033011484883767718 0.00030673132143198045 0.012034277311540017 0.015171777528290976 0.0097315683680665802 0.010284465967324552 1.3178033638300183e-06 0.035356320440417928 0.021969265353149636 0.00011383045218094632 7.7254194871377298e-05 0.00018544387211364376 8.9344556629689244e-05 0.00014133376789563754 4.9194725850884261e-06 5.3564725908694973e-06 4.508293818983127e-05 2.8927019572936509e-05 2.6627908505428895e-05 0.040289266929479171 0.00014480988697350796 3.1653584624976697e-06 2.2802809310870286e-05 0.00032442498836255583 4.8395794392594186e-05 0.00040155430664398726 6.8601755946111646e-05 0.00082090710503472143 6.1131089580715426e-05 0.00015140850105534555 0.0032460958726795051 0.004514178243679846 2.5215655075830713e-05 2.302568340350433e-05 3.9192749413985553e-05 3.2732306104160504e-05 4.1257876812170085e-05 0.0032343712628706426 0.00094831394055908754 1.666428319603036e-06 0.030127426255296144 0.0014853394081087443 0.00018800880353011265 0.00099813407618801783 0.0008929995125648623 2.6602349822929603e-05 1.3535921735953181e-05 0.00023915013070891628 0.00039361209064793295 0.0012817802295914656 0.0011835022947976948 5.1352619023863316e-05 0.00012008992776954161 0.0004327136717481399 0.013210378238626712 0.0057135521447756899 0.00012704065053466713 3.3036017851992996e-05 3.3448533284643647e-05 9.25668810293207e-05 0.0008676431796275075 3.653568901949306e-05 0.00048470334215438703 1.3836444080430114e-06 0.006886298523465879 3.7833996825252714e-05 7.0529984557334168e-05 9.4073130459053518e-05 0.00063632232656128218 0.001061753597016179 3.9333193536917393e-05 0.0019008692403507522 0.00023353574284959986 3.1273982113513477e-05 0.00093985574314415588 7.6097480405604884e-06 4.9195580788467862e-05 0.00010906867667387674 0.00013003391230802122 0.035215756400191207 0.030450384505517784 0.00013156084771333979 0.062131358742535406 0.0078643140361867123 0.0054253755908977557 0.071691003627119845 0.11807432403286541 0.00015594009228919837 2.109516003436277e-05 5.0390428378016945e-06 0.00063707299802573153 0.0059335820372998851 4.116119454892649e-06 8.4000858002925959e-05 0.041787331884062376 1.5572571106042949e-05 0.007778737985236572 0.0053040456537652835 0.028073093414382057 0.045816191531695 0.077530748657980958 0.046860439489063058 3.9168578206796219e-05 0.010966160593889072 0.0059557536547584985 0.00013426593416847378 2.8644161085606678e-05 3.1092460914939008e-05 0.0079391590316838789 0.015091254084928335 0.027055149992778329 5.283675690350324e-06 0.0031037563765748755 7.2658734484286601e-06 0.00072227512839432109 5.6197010056375006e-06 0.0035354786092027871 0.005974882910567865 0.00076693657090198646 0.028426258669396107 4.5329165712439992e-06 0.00011603527639552833 0.00023449178735167052 0.14498416387052571 0.10057414978581758 0.066350656768806943 0.00038554950911493798 0.00028543479135553209 0.095825052852269818 0.00046713374423220684 2.5672516081196838e-06 0.00096348951626323994 4.3906061857404408e-05 0.00025171599028156791 1.2909363333615797e-05 0.0022442635852430127 0.003426396515624854 0.0382147211118435 0.076596584911447108 0.036567904022086352 5.8792875107537449e-05 0.019620980426807454 0.051538075953049226 0.0009703636844186883 4.7287006176942411e-06 0.0047094723377306639 0.0011072409393541745 0.014185865396326922 0.012982724375