<?xml version="1.0"?>
<VTKFile type="UnstructuredGrid" version="0.1" byte_order="LittleEndian">
<UnstructuredGrid>
<Piece NumberOfPoints="558" NumberOfCells="1054">
<Points>
<DataArray type="Float64" NumberOfComponents="3" format="ascii">
0 0 0 1 0 0 1 1 0 0 1 0 0.5 0.29999999999999999 0 1 0.29999999999999999 0 0.5 0.69999999999999996 0 1 0.69999999999999996 0 0.049999999999899652 0 0 0.099999999999814668 0 0 0.14999999999970359 0 0 0.19999999999955789 0 0 0.24999999999941211 0 0 0.29999999999926641 0 0 0.34999999999912063 0 0 0.3999999999989749 0 0 0.44999999999882923 0 0 0.49999999999869432 0 0 0.5499999999988151 0 0 0.59999999999894682 0 0 0.64999999999907843 0 0 0.69999999999921003 0 0 0.74999999999934175 0 0 0.79999999999947335 0 0 0.84999999999960507 0 0 0.89999999999973679 0 0 0.94999999999986839 0 0 1 0.049999999999896842 0 1 0.099999999999753911 0 1 0.14999999999961891 0 1 0.19999999999974799 0 1 0.24999999999987299 0 1 0.34999999999993492 0 1 0.39999999999978308 0 1 0.44999999999963131 0 1 0.49999999999950101 0 1 0.54999999999963112 0 1 0.59999999999973963 0 1 0.64999999999986979 0 1 0.74999999999993494 0 1 0.7999999999998193 0 1 0.84999999999982645 0 1 0.8999999999998336 0 1 0.94999999999997109 0 0.94999999999979179 1 0 0.89999999999958358 1 0 0.84999999999965292 1 0 0.79999999999999982 1 0 0.75000000000034661 1 0 0.7000000000006934 1 0 0.65000000000104008 1 0 0.60000000000138687 1 0 0.55000000000173355 1 0 0.50000000000205869 1 0 0.45000000000187229 1 0 0.40000000000166441 1 0 0.35000000000145642 1 0 0.30000000000124832 1 0 0.25000000000104028 1 0 0.20000000000083221 1 0 0.15000000000062411 1 0 0.10000000000041601 1 0 0.050000000000207989 1 0 0 0.94999999999979179 0 0 0.89999999999958358 0 0 0.84999999999965292 0 0 0.79999999999999982 0 0 0.75000000000034661 0 0 0.7000000000006934 0 0 0.65000000000104008 0 0 0.60000000000138687 0 0 0.55000000000173355 0 0 0.50000000000205869 0 0 0.45000000000187229 0 0 0.40000000000166441 0 0 0.35000000000145642 0 0 0.30000000000124832 0 0 0.25000000000104028 0 0 0.20000000000083221 0 0 0.15000000000062411 0 0 0.10000000000041601 0 0 0.050000000000207989 0 0.54999999999999993 0.29999999999999999 0 0.59999999999999976 0.29999999999999999 0 0.6499999999999998 0.29999999999999999 0 0.69999999999999984 0.29999999999999999 0 0.74999999999999989 0.29999999999999999 0 0.79999999999999982 0.29999999999999999 0 0.84999999999999987 0.29999999999999999 0 0.89999999999999991 0.29999999999999999 0 0.94999999999999996 0.29999999999999999 0 0.54999999999999993 0.69999999999999996 0 0.59999999999999976 0.69999999999999996 0 0.6499999999999998 0.69999999999999996 0 0.69999999999999984 0.69999999999999996 0 0.74999999999999989 0.69999999999999996 0 0.79999999999999982 0.69999999999999996 0 0.84999999999999987 0.69999999999999996 0 0.89999999999999991 0.69999999999999996 0 0.94999999999999996 0.69999999999999996 0 0.28307294598219601 0.50789252727458634 0 0.25676291524611189 0.7436741304886243 0 0.25195515620380449 0.25883339815888678 0 0.57611405284611883 0.50165903596042916 0 0.77846603114747959 0.49850927265137401 0 0.39801143831225599 0.16651381068160659 0 0.39536230704883951 0.84069429572832477 0 0.15720202157091859 0.60665697304410315 0 0.1650278706801647 0.38791388161335733 0 0.43249999999999988 0.43937499999999979 0 0.35864735590330371 0.63903383440414463 0 0.82709327591091286 0.84937141670920724 0 0.61343887413683884 0.856862479058357 0 0.82709327591102189 0.14937141670914489 0 0.6236733212988993 0.14864538214901801 0 0.14474682429600511 0.85524784522713515 0 0.14332333627550789 0.14578431753966009 0 0.36575549820117997 0.31677992835137742 0 0.46666084890304671 0.57634471035397938 0 0.27474541102162192 0.11822029332053539 0 0.27270076654418179 0.87751467830216623 0 0.1215415378367805 0.72939333680004137 0 0.1247745017231483 0.27198077544791172 0 0.6879972333610942 0.43038561374960838 0 0.67323294229744413 0.57556450033612505 0 0.86411095495256451 0.42388805655111889 0 0.86956835336234861 0.571283299838105 0 0.50202631463681879 0.87892870825713787 0 0.51076801031701946 0.1202837388510348 0 0.1216098864341134 0.50637075089503902 0 0.27866744612395528 0.38416094670951489 0 0.7250000000005199 0.89375000000045834 0 0.72500000000001008 0.19776155966387679 0 0.52289427570932567 0.3932284363388488 0 0.40326160981139969 0.73346192995102844 0 0.77354604466818633 0.40378688774472771 0 0.77293540622714185 0.59448302402785813 0 0.57412547362576272 0.58273804879550706 0 0.26573297623774761 0.59828298563722948 0 0.38244435121258652 0.51653317813019495 0 0.72500000000000064 0.7952620967744265 0 0.72525833953073282 0.1032114801687094 0 0.90299850604011456 0.79563452813489832 0 0.90416666666660628 0.9041666666666166 0 0.90299850604006393 0.09563452813493091 0 0.90416666666668166 0.20416666666667119 0 0.54782696902220018 0.79245182748204157 0 0.55306006949600994 0.20198184231352201 0 0.20050006573841939 0.53248514016039872 0 0.33758650185219202 0.23837101504325639 0 0.35312867752657662 0.084946736076730367 0 0.35752321586431363 0.9185439911803448 0 0.42377727103934271 0.25099357235810238 0 0.086179601630648681 0.64647209519980475 0 0.087545339447545459 0.35122518864182262 0 0.083411279318375747 0.91030024466934134 0 0.083411279318303222 0.089699755330707398 0 0.91696753777131557 0.497780560203536 0 0.34258405725730701 0.4444034294386992 0 0.33123028043633618 0.77629643437932982 0 0.2236846579037573 0.67380363126050236 0 0.19901705110390991 0.9175543425573498 0 0.19922788606653311 0.085920220746880993 0 0.19670163708476801 0.31472518408333222 0 0.4656888918609538 0.78493261229743638 0 0.083105206071452636 0.79992298667296435 0 0.083105206071467416 0.20007701332709979 0 0.57724883562309992 0.92155686857100794 0 0.57667858002728545 0.078486105337742612 0 0.49102375406324739 0.49123754822244059 0 0.4409427642593301 0.35743108089689513 0 0.43698630808430822 0.080423614171545449 0 0.4367309254023824 0.92065556789053882 0 0.22278230690790279 0.44824268025881547 0 0.6084546825910605 0.37989672713932537 0 0.43846182030517877 0.64845797726506715 0 0.077693244765132896 0.56932317963405099 0 0.078358742472063481 0.43365249433908948 0 0.6541250972820879 0.49999999999999989 0 0.21858834311891909 0.81980263716112767 0 0.2185883431182947 0.18019736283949719 0 0.31378396441836959 0.70157213313026345 0 0.79680861578988083 0.92656778056766709 0 0.79680861578956375 0.22656778056752541 0 0.65394964615507722 0.22666784374016369 0 0.47357141910802508 0.1873585799078378 0 0.80185942888539485 0.77452061303608133 0 0.64753070846764316 0.77332939069435502 0 0.80185942888501827 0.074520613036224564 0 0.65507451745379841 0.92229208810758578 0 0.29348325746214782 0.31350119524708198 0 0.91750694127107502 0.36982372220068471 0 0.91750694127105259 0.63017627779935648 0 0.65408113592120842 0.073941773121567966 0 0.33122374654748771 0.57588941099433744 0 0.84723782639812573 0.48638347960178252 0 0.50715858906372158 0.63295939104129484 0 0.83573492347052902 0.36590755630746369 0 0.83758014339878906 0.63222013025741819 0 0.6405463747586706 0.63290524857395714 0 0.33084213324567391 0.16272720141332131 0 0.71508799138962864 0.36622814920737751 0 0.71406021706547751 0.63292083137662503 0 0.18269480424590959 0.75905448272264375 0 0.17933913398461551 0.2350063570234002 0 0.4089290844030305 0.58728915500154233 0 0.53245488764484505 0.55078124999999989 0 0.61209567303293111 0.44669033081290321 0 0.7152569930854884 0.5237994455134295 0 0.33403534827021109 0.84402799729020661 0 0.27499999999933927 0.060310814194988557 0 0.27609987656793722 0.94991445621608572 0 0.82862096804812391 0.55037090955459045 0 0.73483647259922602 0.44789725365921768 0 0.049706944316475897 0.72477277076253799 0 0.049706944316556423 0.27522722923869108 0 0.16500388252850301 0.66612077714085194 0 0.62042975506801734 0.54295974692364424 0 0.38083244760691543 0.38531983672244652 0 0.93814194660195893 0.44426664081746747 0 0.93732437411268477 0.55911392101136159 0 0.93677536231884972 0.85000000000000286 0 0.93677536231883773 0.14999999999999089 0 0.52375890611712683 0.059318771819432882 0 0.52122150208832174 0.94089974453840242 0 0.15801167086041079 0.46008690540259539 0 0.14617343800780541 0.93808063414349496 0 0.14618258501891079 0.062070108745602003 0 0.76901770135486491 0.84293557325473656 0 0.77144070960558853 0.14311854477243749 0 0.68697391633157634 0.84450604838764298 0 0.68391457121233579 0.14440470121196541 0 0.26104540868854792 0.81401944968719064 0 0.065374659239661639 0.8551091961254178 0 0.065374659239632718 0.1448908038746782 0 0.55899371797446828 0.85003102233514438 0 0.56202748619534593 0.15054058349222879 0 0.45677673713123867 0.84253684404072415 0 0.85170973911348691 0.93569607295217616 0 0.8517097391133297 0.2356960729520409 0 0.068743045408989428 0.48853989837882689 0 0.22033343844674469 0.36963382230740238 0 0.85491058998424563 0.76004753345552634 0 0.85491058998398861 0.060047533455626502 0 0.26429849586623999 0.19346700179430079 0 0.14934928745814749 0.55042914607228977 0 0.59814117807200873 0.23398510860739519 0 0.49695729691142171 0.25014895411178018 0 0.59636844454254345 0.75937156204589151 0 0.27820712747429932 0.65530134213254643 0 0.44288491854585582 0.14116182884956319 0 0.14223753364722069 0.3341983344262433 0 0.81973119833356312 0.43505687159469048 0 0.43507373378304309 0.49699695397193322 0 0.49077833859261139 0.35229981449445641 0 0.33277555741076909 0.36432196682010132 0 0.13737030665753211 0.20313708640667491 0 0.1382744753146134 0.79650574229207483 0 0.29124338931648802 0.43334555462578611 0 0.94399509803918602 0.75600490196082126 0 0.94399509803922566 0.056004901960802607 0 0.94399509803919068 0.9439950980391687 0 0.94399509803921056 0.24399509803922639 0 0.65481233915350323 0.35652751921065562 0 0.48858720058566618 0.43964267759203868 0 0.7250000000005199 0.94981617647078953 0 0.72500000000000064 0.2498161764706 0 0.88088768115933802 0.84674609810493673 0 0.88088768115941807 0.14674609810479519 0 0.56836770495988642 0.352306235
[...]
<CellData Scalars="pressure_p0,region_id," Vectors="velocity_p0," Tensors="">
<DataArray type="Float64" Name="pressure_p0" format="ascii">
0.050691775583161972 0.05430457356840622 0.060916328195963432 0.070459067915034798 0.083204048232188729 0.099592107323535989 0.12020069232836882 0.14580328879990778 0.17738039567959116 0.21676467708101821 0.13972894951920217 0.14467340323615624 0.15363813829452647 0.1663439185023621 0.18290307392678229 0.20357048966210686 0.22869998939718197 0.2587588015645107 0.29429861099208021 0.33633361982515109 0.0030015219706249372 0.003064472363648792 0.024792596511884313 0.02017694526115554 9.5106948767884048e-05 6.0423657299328749e-05 7.708518288699053e-05 5.1086048958880107e-05 0.00022908466598857039 0.00056886103820825236 0.00036316849595684913 0.00054171517284443756 0.00012207586908468296 1.9903662979939647e-05 1.3122132392490841e-05 0.042246703321490213 0.045104041565291214 0.044450371502480955 0.050319118749208053 0.073239481087221725 0.030394499556894002 0.046763427886560308 0.04137106861005041 9.2588268650810516e-05 0.039274485373113663 0.004626273263369487 0.0017563834881093535 0.045379726690019287 0.0093245500530817899 0.0021289017154297262 0.014703859313172927 0.026537534315416132 0.039423322922995663 0.028557650244080759 0.032092528623129793 0.0017059911633068641 0.029570888454251543 0.0073400322038816006 0.11415834682016307 0.11097850463530705 0.17413024309352187 0.016022461580576706 0.1340541505485196 0.016489534531999583 3.4949199608192612e-05 2.3992803313426693e-05 0.017801978118997745 0.028188154413915055 0.080521209281282091 0.015338170282309839 0.10251794064938395 0.056215958044331556 0.011352495083962666 0.019649493029256865 0.071763939644880204 0.0080165607291646408 0.0085523403984273123 0.1861882612724855 0.15065375301904826 0.014662065641326168 0.054063370114127166 0.027078385854152301 0.045090241763368476 0.056298022793715541 0.014083334282307259 2.7567325054378693e-05 3.9836670374367037e-05 0.091457757512711221 0.14181440429573783 4.4496388720971728e-05 2.9461038710562552e-05 0.00020427173792509956 8.4411741936649151e-05 0.0001497086886456613 0.027544160863860981 0.021465733399549769 0.22086406750569504 0.0096646881642252352 0.024332040634459616 0.057302190945149017 0.025212112608591176 1.9183361047227054e-05 1.3602503075788465e-05 0.00024422100047669895 0.072099076793339684 0.02655410304218276 0.018045044997938492 0.00010657424151354225 0.00081862689432315246 0.063239913391222285 0.00014398789442033206 8.6812281368339023e-05 6.7701758081578503e-05 0.061545559741989497 0.021790789284645919 0.067879559034457942 0.022726131197727609 0.25259778529874705 0.0085189203078356365 0.0079145975276258725 0.23137523817665906 0.013818789248369158 0.00011807535261203118 8.6679267369352313e-05 0.096484189044085233 0.10172263308697331 0.025930945591290749 0.084765984406054207 0.058450338118287273 0.010976599317999223 0.013894530145769652 0.13187097842403639 0.00029557545496608625 0.00076011142785231158 0.037518230503778595 0.040492867514911227 0.033388813736081324 0.02596758151250389 0.055877633926848087 0.041087563053114777 0.091087787364165881 0.024825610060791106 0.018664158610456061 0.027855799973493078 0.042084111941981597 0.03707822779128981 0.025489787812737738 0.0054833619547261323 0.0032355408186287397 0.004685943903830099 0.048870194211682191 0.0098254952517041194 0.00089727071971988539 0.0011733289109765992 0.0031675864619396168 0.002451746006162795 0.031947375704233338 0.0021224321024035844 0.063562686738476384 0.0097134030123358587 0.0011231092523026369 0.020955450520127664 0.053768505876115202 0.028586671994050399 0.050224620284067878 0.0331352454801776 3.7765818129691931e-05 2.4309457153555171e-05 0.020064136180378292 0.00077457295866690493 0.0076542673439326248 8.8642986286638836e-05 8.0091021029638727e-05 5.8487152441547176e-05 6.0117032606346666e-05 0.0042887462668672934 0.0015818942273081392 0.00053648113514756144 0.0011806558518676238 0.0035476167274388131 0.00058551511103898432 0.0007477534541409953 1.918102968130464e-05 1.3424864718329698e-05 0.10106499792404769 0.00023545999887096184 0.013444843566086202 0.045576048586669339 0.00019106803630195457 0.00045948789883174467 0.033380783437809584 0.000260884058468293 0.0012034415048345934 0.00032859609712945564 0.00019946982252134517 0.00049072432860453995 0.0035635068873324542 0.032948653571898447 0.10716094137650148 0.011508946660858891 6.7052749871209717e-05 4.3906900301321771e-05 3.8048371825913184e-05 2.4388087798898629e-05 0.020131906821292685 0.023801359239418549 0.028975059524839985 0.035544179547105349 0.015073600277636908 0.010542092089065721 0.00018924415823890877 0.024210279878981545 0.018588112164464876 0.076463003200196361 0.045327725948846716 0.00016549464048870339 0.014079569846828746 7.6272935151178612e-05 0.00012928767755809336 0.040215226628341705 7.5956233836871079e-05 0.0001407036980738288 0.0042664717781042069 0.0015852329353758989 0.03570077158001965 0.053731150895610993 0.012645493473775629 0.011235421348638152 0.041766013371884812 0.047264743596604972 0.00025359370551501916 0.003157350306829153 0.065604787102460316 0.0070068732708485557 0.025902136595526072 0.049828190677866861 0.00068296956437322129 0.03239060568720839 0.00060030935800820353 0.00090402869275381576 0.0010545216733905123 0.010619414378102029 0.00039655039286230379 0.048172782763198363 0.044835144128425319 0.029920257301885834 0.015452937438410752 0.01364077688165562 0.014269346725650164 1.7331132230422908e-05 1.276630493536521e-05 0.00033176509642303148 0.019351692421206532 0.0005130757179735119 3.1120648661980405e-05 0.00019095399271856946 9.9752840718769168e-05 0.0027189735413560051 8.8092951100375089e-05 0.051364186004129529 0.0027186661160086547 0.051108171875981684 0.00016156567213051107 0.038085199015303661 0.043592572232770674 8.4857376395143112e-05 0.0043210336797359708 0.088694321059545 0.038997720950266469 0.023146263112664042 0.053149878637061054 0.0052223020659122581 0.0035075077729997805 0.003334243860778986 0.0087429378216314219 0.0092686874532380923 8.0315597825295336e-05 0.12071815156025292 0.00010466720252993401 6.0961028138722385e-05 0.011261133901867646 9.4217195947280993e-05 0.00018786211155047625 0.00086967253284283294 0.00075998966474406988 0.10812157261613266 0.014029399115937459 0.099578308117871162 0.067156769164069152 0.00046076063701318358 0.10895649464793536 0.19599259100375907 0.086926294155167713 0.0021742802304496869 0.050577033183852392 0.0018504269215420415 0.00064266313534564303 0.0066884265456872618 0.010309262592230559 0.00045190067540378572 0.0035021468587905606 0.00031828823237555067 0.0006680819286086823 0.0027939152495288218 0.0071163472178691631 4.2653336468333081e-05 2.7866540447552332e-05 0.00022220294484232085 0.00054682461803861183 0.0001938454095323989 0.01914833760583716 0.00026364523722423186 0.026170122825195551 0.058964610180866392 0.00014092832543124317 0.0003209590955638382 0.00016022960717413894 0.017592033560848715 0.0095530161271058563 0.071749668183670262 0.0100396172164335 0.0073449552870343219 0.00022771435017407714 0.00011193078422807633 0.002341865605754309 0.00012318524478048187 0.028787131295977243 0.00023288301519654999 0.00011425115694013946 0.0030774872256306971 0.019449271954184659 0.052160433905818059 0.0018052311244013723 0.0021508903313030817 0.0042595593349502008 0.005569072700034039 0.0001021591527783453 0.00014367738737683367 7.6607815270809975e-05 5.7502587132793033e-05 0.03609473288318267 0.0046349423052208898 0.0010071973381983105 0.062277448346338929 0.012642127135908621 0.053258224244438407 0.0026011722096752989 0.0041533915068814233 0.027622205909453048 0.030930235596771837 9.9186305066004964e-05 6.0159578727753828e-05 0.018838514612902996 0.13074807678626138 0.22961599183162434 0.0024148182501879138 0.0020046230227442159 0.043932921901272681 0.040940374914251426 0.041832533260280268 0.020821234408065239 0.079504575307092706 0.097183730608643798 0.15479019870437555 0.079724057354979144 0.020322173561920703 0.00017033036342671345 0.00025034629084383364 0.083562426129728209 0.013368822132013595 7.5389897212607275e-05 4.6430734913767186e-05 0.053933407076905658 7.5341603640694839e-05 4.8240653130873426e-05 0.013947093627287212 0.094744476546244599 0.015359552129754917 0.0097481598735112487 0.0083293141691241288 0.051307018953979495 0.020324383974338434 0.014435251675031933 0.0054839731997028789 0.02299287593439503 0.088307004117935795 0.15687386672510265 0.011236955911348344 0.014338149478515839 0.007299375132936073 0.013574464290951264 0.14125097126412323 0.01173667009046701 0.0054263588526290932 0.079653257432205277 0.040432110330390375 0.0032573859938605796 0.0001377819250317037 0.0028805463477193172 0.00031184411752168805 0.00073445497855030052 0.0057431906878680945 0.0068920679394015999 4.5656208899128665e-05 0.0014531510954992511 0.029784552627902007 0.0068455323417841007 0.00040029382055139574 8.0899698966265427e-05 0.001866896984002765 0.030830138898514658 0.061722667974061625 0.00097034364180416659 0.17899466053189986 0.0075729475309942677 0.00036425516826989586 0.00049947472226256591 0.016185614317251941 0.069667338519842983 0.0005575695120196778 0.00078809802269531697 0.00029915027185884363 0.00016412309437155353 0.0026842350403838379 0.0041847713128629867 0.00013062099182242922 0.06688846771692436 0.044760011002712263 0.032031212630516184 0.00053668123945100298 2.6840181893003335e-05 0.0061040901911598644 0.055339600797461218 0.026773584385020345 0.00022299034825941377 0.0042427803152513058 0.0046967228708300213 1.2935142946815479e-05 0.011200401102669951 0.010230488265759483 0.086127239152763935 0.14394130069081454 0.004229546092130069 0.041828740922887381 0.029345318538597759 0.00057565483939646411 0.0087022664340074204 0.10935440915328666 0.00048953267177106422 0.060752789697278466 0.023271262495935887 0.0002215565362209465 0.010955099560355154 0.13462403921777097 0.0086691134075413054 0.00035206418391551999 0.00093025692808200336 0.026539731198647609 0.00033196498282187035 0.15851959976028701 0.18403114788854952 0.28886526624392517 0.24819742683372517 0.070926976095904287 0.11579239072455888 0.18439854005736575 0.087850791038578832 0.12827122838316715 0.12841311514978571 0.026969969829342653 0.01594604489181084 0.077609429547220193 0.00029258401874068666 0.15420350156271903 0.012397055085788901 0.0085493629001040898 0.021260791692123578 0.091687217025308215 0.033663340701290539 0.021828305883503915 0.018674318760894665 0.00098229874952902516 0.035126110332938214 0.0033179394827353038 0.0095642233990700393 0.0062507862973732731 0.0018568359326589989 0.03729761595889302 0.044307160972851804 0.0033082141140891998 0.0012134748805669796 1.7652046011166705e-05 1.2017365637460049e-05 0.0031482608612611531 0.0024598596334864603 0.001432518002178744 0.00018825400648791118 9.607363298302251e-05 0.086152192019066487 0.00015635539673142444 8.4035826395284903e-05 0.042443331305983795 0.060487447622599895 0.0012377930547140411 0.072995641042891662 1.8261751556764624e-05 1.2120724053417084e-05 0.00015265911666002564 0.00034667529517981002 0.0045312976779649993 0.046360238880323958 0.0062320444456340131 0.0014556629748335732 0.0018762586101464078 0.0062039119269094081 0.0051061146861934555 0.072671655856089409 0.047696573695402616 0.013202346246395942 0.019556544498037901 0.00011024997257999666 0.00022016865242944529 0.057257699010054973 0.012329376184659326 0.00044735492868874544 0.00011207997026503376 6.5203568063749014e-05 0.00015702952676268565 0.0058115229350684649 0.10481648791744139 0.00017841108011169707 0.010766700609135003 0.068822254688032894 0.057844045055305673 0.013500172354088659 0.051623731670868443 0.001210674419704345 0.0072209784550766615 0.24003043926319551 0.0094914764795626973 0.1498976366122303 0.0160218645179083 0.0013022199951340508 0.00097031863142869293 0.0020417237777664962 0.0013363988135211774 0.00092801525446971865 0.0025668246885398576 0.0010133361650005528 0.009466612626687701 9.2031351463506777e-05 7.761639479685986e-05 0.00014562979331346086 0.00018198928380300551 0.0058987665883019494 0.0073401400492470233 7.9331954379773456e-05 9.4969370130766183e-05 5.4435151752188726e-05 4.5621461177294625e-05 0.064271560751708715 0.018560753482494419 0.00012569552454467109 0.00028158246529739323 0.0022029385238886432 0.00011708990060668286 0.00024658821331285333 0.027499362556116808 0.001110920648725278 1.6360554551947358e-05 1.1104291551239894e-05 0.0095643269928821842 0.04892232227597143 0.0013652530917594168 0.036418069170912268 0.0012999778003243297 0.0022644039461051282 9.0225112140566253e-05 5.7506732227931962e-05 0.0084971935936754561 0.00096550431278175043 0.001164808873471492 0.001029530939725941 0.0094363735240812902 0.0046575389978178493 0.014014587535779955 0.0020373983180527952 0.00091658684128831608 0.035191494403571895 0.023411680092853573 0.0010130959138280405 0.010672507081319194 0.088111134336201449 0.062406605606785008 0.0038792947901964072 0.10841436129802193 0.00050590043209155578 0.0013777716303790006 0.00064950620173588331 0.0017979568740917661 4.6070204757364409e-05 7.0036728574293335e-05 0.0044358339934716506 0.0060633340832813212 0.088695823250245359 0.17776360035260796 0.11929970252662486 0.15923258074604918 0.072244293800898085 0.0014098858725361697 0.004763675048887946 0.0067714403131929161 0.0026906162703942867 0.0080660512557546513 0.0078891103409236014 0.02391014155552635 0.01998343931937463 0.054523699146872259 0.0017454849267199237 0.00063436474658232699 0.0067020482591828925 0.015087049908728736 0.015897506150348496 0.041285904575545165 0.038055848467787763 0.10693583787027502 0.011973656373205079 9.0879664974743599e-05 0.00017482178128247163 0.026273410800623238 0.023603672757956995 0.022717894271165683 0.018127424230280104 0.026612445644185762 0.034182805888216067 2.2342776904002703e-05 3.4169058508174953e-05 0.0019445920577983852 0.0050866138161948507 0.00044414233885026015 0.00047294078522714078 0.072569216952068666 0.00039445047458598332 0.00050706269787757037 0.00018003652446800224 0.14720101430991248 0.00078397593384025904 0.0021528481408567141 0.03776123960538956 0.00029609212369953203 0.00041911876132298199 0.04420518520012947 0.000284129813078734 0.00013139552085787026 0.029881810904224412 0.028128882493042764 0.0017343476517020927 0.002730236614369008 0.0012119205167948994 0.035597838400089461 0.00078255029280782954 0.00064026664985963378 0.13779809728096851 0.0041659020862982246 0.0014274973995913904 0.0005241307254117832 0.0082036137354155412 0.00025482923635702139 0.00029250182846797876 0.009116202768646102 0.0054035359705628628 0.036603824230576447 0.20488749246564386 0.0064700766343156598 0.0062656201921357626 0.0095949895027439332 0.0032715396618074569 0.011820822117402735 0.085524283489786912 0.0003374718649070596 0.013151998526093132 0.00047092731150467535 0.053826219898155295 0.00019587542515382323 0.003530708833788723 0.00020282927024404607 0.0001655345088170607 0.015471278091855029 7.5132407777878736e-05 9.0773608487027224e-05 5.4013459578875078e-05 4.6154465090162338e-05 0.0027067917789209933 0.018606395769516827 0.017125047319195064 0.064212028719075928 0.013784000512499364 0.12658181638976029 0.05817751020492043 0.00084090407791701026 0.0023015767188360411 0.092460044855238413 0.14213843764272949 0.001557817103179435 3.6468482486742139e-05 0.0012627861899119153 0.00073115745969958728 0.045195336981252554 8.0871983337193104e-05 6.9981968059819324e-05 0.00011724415941342965 0.00014245465642991113 0.0022018528570987676 0.032774886040718938 0.051607358157629693 0.057533484716693679 0.00023946294511960372 0.0038088306870503099 0.00024823492100187156 0.096790821890042469 2.1497323002245198e-05 0.02535566961087609 0.080275840233759319 0.005540604782014855 5.6125723478186196e-05 4.1497474210179397e-05 6.7103633692024416e-05 0.00071522272708616336 0.0010286555284650589 0.0028349364932920154 0.12394995033711437 0.0070828033985662585 0.12707331924905338 0.0054116114069761882 0.10052683441949646 0.00034190380615218554 5.2526168848903383e-05 0.00039395084183680297 0.024979991268418239 0.034947734623892814 0.0086836924839820955 0.0085870525195755245 0.086085477162661406 0.098152894795733622 0.075390112002520132 0.076826366027786086 9.1081379697769165e-06 0.14059858060993438 0.113863632726874 0.0039736877058781424 0.0026637521221486446 0.006577148958645058 0.0036209965333932883 0.0047148287749262888 0.00021540270757913009 3.9866787592859285e-05 0.00030042827636525256 0.00013670115222453319 0.00018457461663690908 0.15264804265933657 0.0055833561526543504 2.7932164342816133e-05 0.0010843386608671063 0.0075117339408076571 0.0017009919553914842 0.0067967728187777457 0.0029026017605181449 0.017390650613846904 0.0016456676279755528 0.0043973205792498578 0.051742161393049817 0.060335028129515897 0.00029361297175299958 0.00025913412769664081 0.0014259065863590512 0.00034212225876114753 0.00069366585194842348 0.049610647367069591 0.019469078937645795 9.2420989692190444e-06 0.12932958512395121 0.019702703231430491 0.0052868058065775551 0.01590209023524855 0.014689229142245703 0.00061632913141911386 0.00031005507753506122 0.0077739471011504324 0.0075036101769845286 0.01942119218399916 0.021757694846382861 0.0012245990321282524 0.0033824314262172902 0.014037605406577211 0.067306480206236058 0.042689878935119316 0.0043367185317778429 0.00052940009886674993 0.00055564382593452724 0.0026183059536027714 0.010991252044821875 0.00088035999905316706 0.011479355542582167 1.10509758599858e-05 0.05058882453010876 0.00043519845553453233 0.0011679972617445551 0.0031031788604332176 0.0094751252332819728 0.012939896579338929 0.0011140456229816716 0.026170934157190399 0.0063354803242513438 0.00078381685923089531 0.019204436087455968 0.00013014493121449408 0.0010641499525529869 0.0029212984587680063 0.0051015335091328592 0.14256133405924201 0.13108485785930019 0.0054711993062825605 0.18611375834570915 0.065796873300230541 0.040858154989176956 0.16148222615398222 0.26683541829882218 0.0044771611389869109 0.00017417845479069923 0.00039049198907155472 0.015504222183116929 0.0403617231911889 4.7722081591923107e-05 0.0022876587630127959 0.14944033978385884 0.00023503906988064612 0.066532947581404933 0.055192532892880883 0.10773188892529235 0.13100034653983375 0.22112662232269858 0.17890375655656052 0.0022379596602480206 0.074724557137179015 0.053703939409540324 0.0046339039230893445 0.00049164656348279719 0.00068317428019874934 0.042990764801511233 0.079057832477380255 0.13611151776500263 0.00038708989610525127 0.050601848681703886 0.00011794083463049177 0.015829328753140259 0.00010679188823491729 0.043636909738040713 0.060881291573298434 0.01457459793366379 0.11666065004551776 6.2721180222580713e-05 0.0044842671034843792 0.0087835649582397556 0.29924750340463468 0.25568627003219518 0.16285156646404128 0.014798513110657083 0.0095923551516732194 0.19126461443037773 0.016103281454699164 2.3899206284770491e-05 0.021663139795166812 0.0012102704081664662 0.0068247778646395333 0.00037039124782539874 0.035721524224592592 0.034708642418891579 0.11082267371072574 0.20878007140370014 0.13889283006449638 0.0016446665706642382 0.075313742651258481 0.16735877245964503 0.014679216232250686 0.00028254937645889617 0.040361365930441331 0.023457704996355404 0.091477754076560391 0.086704074677937615 0.00021726344271065376 0.0068964274448868618 0.031495476028530103 0.021114889540169032 0.049042289115561563 0.11698591075408067 0.09162570583361257 0.00011604194518924028 0.0037826274038340307 0.0044325021474813237 0.030023740139817033 0.039340446137200488 0.16178518219913735 0.0062338905430994827 0.0044194594343993331 0.00019358358789001802 0.00015234423793767263 8.1735812500332913e-05 0.00080060855887746619 3.617612620728128e-05 2.3608437586124194e-05 5.1899803054908364e-05 3.314572846995454e-05 0.0063013049953094917 9.154451492346982e-05 0.099422659753608478 0.01742411057565842 0.0081442271506067844 0.011677218652721144 0.0247406606