<?xml version="1.0"?>
<VTKFile type="UnstructuredGrid" version="0.1" byte_order="LittleEndian">
<UnstructuredGrid>
<Piece NumberOfPoints="558" NumberOfCells="1054">
<Points>
<DataArray type="Float64" NumberOfComponents="3" format="ascii">
0 0 0 1 0 0 1 1 0 0 1 0 0.5 0.29999999999999999 0 1 0.29999999999999999 0 0.5 0.69999999999999996 0 1 0.69999999999999996 0 0.049999999999899652 0 0 0.099999999999814668 0 0 0.14999999999970359 0 0 0.19999999999955789 0 0 0.24999999999941211 0 0 0.29999999999926641 0 0 0.34999999999912063 0 0 0.3999999999989749 0 0 0.44999999999882923 0 0 0.49999999999869432 0 0 0.5499999999988151 0 0 0.59999999999894682 0 0 0.64999999999907843 0 0 0.69999999999921003 0 0 0.74999999999934175 0 0 0.79999999999947335 0 0 0.84999999999960507 0 0 0.89999999999973679 0 0 0.94999999999986839 0 0 1 0.049999999999896842 0 1 0.099999999999753911 0 1 0.14999999999961891 0 1 0.19999999999974799 0 1 0.24999999999987299 0 1 0.34999999999993492 0 1 0.39999999999978308 0 1 0.44999999999963131 0 1 0.49999999999950101 0 1 0.54999999999963112 0 1 0.59999999999973963 0 1 0.64999999999986979 0 1 0.74999999999993494 0 1 0.7999999999998193 0 1 0.84999999999982645 0 1 0.8999999999998336 0 1 0.94999999999997109 0 0.94999999999979179 1 0 0.89999999999958358 1 0 0.84999999999965292 1 0 0.79999999999999982 1 0 0.75000000000034661 1 0 0.7000000000006934 1 0 0.65000000000104008 1 0 0.60000000000138687 1 0 0.55000000000173355 1 0 0.50000000000205869 1 0 0.45000000000187229 1 0 0.40000000000166441 1 0 0.35000000000145642 1 0 0.30000000000124832 1 0 0.25000000000104028 1 0 0.20000000000083221 1 0 0.15000000000062411 1 0 0.10000000000041601 1 0 0.050000000000207989 1 0 0 0.94999999999979179 0 0 0.89999999999958358 0 0 0.84999999999965292 0 0 0.79999999999999982 0 0 0.75000000000034661 0 0 0.7000000000006934 0 0 0.65000000000104008 0 0 0.60000000000138687 0 0 0.55000000000173355 0 0 0.50000000000205869 0 0 0.45000000000187229 0 0 0.40000000000166441 0 0 0.35000000000145642 0 0 0.30000000000124832 0 0 0.25000000000104028 0 0 0.20000000000083221 0 0 0.15000000000062411 0 0 0.10000000000041601 0 0 0.050000000000207989 0 0.54999999999999993 0.29999999999999999 0 0.59999999999999976 0.29999999999999999 0 0.6499999999999998 0.29999999999999999 0 0.69999999999999984 0.29999999999999999 0 0.74999999999999989 0.29999999999999999 0 0.79999999999999982 0.29999999999999999 0 0.84999999999999987 0.29999999999999999 0 0.89999999999999991 0.29999999999999999 0 0.94999999999999996 0.29999999999999999 0 0.54999999999999993 0.69999999999999996 0 0.59999999999999976 0.69999999999999996 0 0.6499999999999998 0.69999999999999996 0 0.69999999999999984 0.69999999999999996 0 0.74999999999999989 0.69999999999999996 0 0.79999999999999982 0.69999999999999996 0 0.84999999999999987 0.69999999999999996 0 0.89999999999999991 0.69999999999999996 0 0.94999999999999996 0.69999999999999996 0 0.28307294598219601 0.50789252727458634 0 0.25676291524611189 0.7436741304886243 0 0.25195515620380449 0.25883339815888678 0 0.57611405284611883 0.50165903596042916 0 0.77846603114747959 0.49850927265137401 0 0.39801143831225599 0.16651381068160659 0 0.39536230704883951 0.84069429572832477 0 0.15720202157091859 0.60665697304410315 0 0.1650278706801647 0.38791388161335733 0 0.43249999999999988 0.43937499999999979 0 0.35864735590330371 0.63903383440414463 0 0.82709327591091286 0.84937141670920724 0 0.61343887413683884 0.856862479058357 0 0.82709327591102189 0.14937141670914489 0 0.6236733212988993 0.14864538214901801 0 0.14474682429600511 0.85524784522713515 0 0.14332333627550789 0.14578431753966009 0 0.36575549820117997 0.31677992835137742 0 0.46666084890304671 0.57634471035397938 0 0.27474541102162192 0.11822029332053539 0 0.27270076654418179 0.87751467830216623 0 0.1215415378367805 0.72939333680004137 0 0.1247745017231483 0.27198077544791172 0 0.6879972333610942 0.43038561374960838 0 0.67323294229744413 0.57556450033612505 0 0.86411095495256451 0.42388805655111889 0 0.86956835336234861 0.571283299838105 0 0.50202631463681879 0.87892870825713787 0 0.51076801031701946 0.1202837388510348 0 0.1216098864341134 0.50637075089503902 0 0.27866744612395528 0.38416094670951489 0 0.7250000000005199 0.89375000000045834 0 0.72500000000001008 0.19776155966387679 0 0.52289427570932567 0.3932284363388488 0 0.40326160981139969 0.73346192995102844 0 0.77354604466818633 0.40378688774472771 0 0.77293540622714185 0.59448302402785813 0 0.57412547362576272 0.58273804879550706 0 0.26573297623774761 0.59828298563722948 0 0.38244435121258652 0.51653317813019495 0 0.72500000000000064 0.7952620967744265 0 0.72525833953073282 0.1032114801687094 0 0.90299850604011456 0.79563452813489832 0 0.90416666666660628 0.9041666666666166 0 0.90299850604006393 0.09563452813493091 0 0.90416666666668166 0.20416666666667119 0 0.54782696902220018 0.79245182748204157 0 0.55306006949600994 0.20198184231352201 0 0.20050006573841939 0.53248514016039872 0 0.33758650185219202 0.23837101504325639 0 0.35312867752657662 0.084946736076730367 0 0.35752321586431363 0.9185439911803448 0 0.42377727103934271 0.25099357235810238 0 0.086179601630648681 0.64647209519980475 0 0.087545339447545459 0.35122518864182262 0 0.083411279318375747 0.91030024466934134 0 0.083411279318303222 0.089699755330707398 0 0.91696753777131557 0.497780560203536 0 0.34258405725730701 0.4444034294386992 0 0.33123028043633618 0.77629643437932982 0 0.2236846579037573 0.67380363126050236 0 0.19901705110390991 0.9175543425573498 0 0.19922788606653311 0.085920220746880993 0 0.19670163708476801 0.31472518408333222 0 0.4656888918609538 0.78493261229743638 0 0.083105206071452636 0.79992298667296435 0 0.083105206071467416 0.20007701332709979 0 0.57724883562309992 0.92155686857100794 0 0.57667858002728545 0.078486105337742612 0 0.49102375406324739 0.49123754822244059 0 0.4409427642593301 0.35743108089689513 0 0.43698630808430822 0.080423614171545449 0 0.4367309254023824 0.92065556789053882 0 0.22278230690790279 0.44824268025881547 0 0.6084546825910605 0.37989672713932537 0 0.43846182030517877 0.64845797726506715 0 0.077693244765132896 0.56932317963405099 0 0.078358742472063481 0.43365249433908948 0 0.6541250972820879 0.49999999999999989 0 0.21858834311891909 0.81980263716112767 0 0.2185883431182947 0.18019736283949719 0 0.31378396441836959 0.70157213313026345 0 0.79680861578988083 0.92656778056766709 0 0.79680861578956375 0.22656778056752541 0 0.65394964615507722 0.22666784374016369 0 0.47357141910802508 0.1873585799078378 0 0.80185942888539485 0.77452061303608133 0 0.64753070846764316 0.77332939069435502 0 0.80185942888501827 0.074520613036224564 0 0.65507451745379841 0.92229208810758578 0 0.29348325746214782 0.31350119524708198 0 0.91750694127107502 0.36982372220068471 0 0.91750694127105259 0.63017627779935648 0 0.65408113592120842 0.073941773121567966 0 0.33122374654748771 0.57588941099433744 0 0.84723782639812573 0.48638347960178252 0 0.50715858906372158 0.63295939104129484 0 0.83573492347052902 0.36590755630746369 0 0.83758014339878906 0.63222013025741819 0 0.6405463747586706 0.63290524857395714 0 0.33084213324567391 0.16272720141332131 0 0.71508799138962864 0.36622814920737751 0 0.71406021706547751 0.63292083137662503 0 0.18269480424590959 0.75905448272264375 0 0.17933913398461551 0.2350063570234002 0 0.4089290844030305 0.58728915500154233 0 0.53245488764484505 0.55078124999999989 0 0.61209567303293111 0.44669033081290321 0 0.7152569930854884 0.5237994455134295 0 0.33403534827021109 0.84402799729020661 0 0.27499999999933927 0.060310814194988557 0 0.27609987656793722 0.94991445621608572 0 0.82862096804812391 0.55037090955459045 0 0.73483647259922602 0.44789725365921768 0 0.049706944316475897 0.72477277076253799 0 0.049706944316556423 0.27522722923869108 0 0.16500388252850301 0.66612077714085194 0 0.62042975506801734 0.54295974692364424 0 0.38083244760691543 0.38531983672244652 0 0.93814194660195893 0.44426664081746747 0 0.93732437411268477 0.55911392101136159 0 0.93677536231884972 0.85000000000000286 0 0.93677536231883773 0.14999999999999089 0 0.52375890611712683 0.059318771819432882 0 0.52122150208832174 0.94089974453840242 0 0.15801167086041079 0.46008690540259539 0 0.14617343800780541 0.93808063414349496 0 0.14618258501891079 0.062070108745602003 0 0.76901770135486491 0.84293557325473656 0 0.77144070960558853 0.14311854477243749 0 0.68697391633157634 0.84450604838764298 0 0.68391457121233579 0.14440470121196541 0 0.26104540868854792 0.81401944968719064 0 0.065374659239661639 0.8551091961254178 0 0.065374659239632718 0.1448908038746782 0 0.55899371797446828 0.85003102233514438 0 0.56202748619534593 0.15054058349222879 0 0.45677673713123867 0.84253684404072415 0 0.85170973911348691 0.93569607295217616 0 0.8517097391133297 0.2356960729520409 0 0.068743045408989428 0.48853989837882689 0 0.22033343844674469 0.36963382230740238 0 0.85491058998424563 0.76004753345552634 0 0.85491058998398861 0.060047533455626502 0 0.26429849586623999 0.19346700179430079 0 0.14934928745814749 0.55042914607228977 0 0.59814117807200873 0.23398510860739519 0 0.49695729691142171 0.25014895411178018 0 0.59636844454254345 0.75937156204589151 0 0.27820712747429932 0.65530134213254643 0 0.44288491854585582 0.14116182884956319 0 0.14223753364722069 0.3341983344262433 0 0.81973119833356312 0.43505687159469048 0 0.43507373378304309 0.49699695397193322 0 0.49077833859261139 0.35229981449445641 0 0.33277555741076909 0.36432196682010132 0 0.13737030665753211 0.20313708640667491 0 0.1382744753146134 0.79650574229207483 0 0.29124338931648802 0.43334555462578611 0 0.94399509803918602 0.75600490196082126 0 0.94399509803922566 0.056004901960802607 0 0.94399509803919068 0.9439950980391687 0 0.94399509803921056 0.24399509803922639 0 0.65481233915350323 0.35652751921065562 0 0.48858720058566618 0.43964267759203868 0 0.7250000000005199 0.94981617647078953 0 0.72500000000000064 0.2498161764706 0 0.88088768115933802 0.84674609810493673 0 0.88088768115941807 0.14674609810479519 0 0.56836770495988642 0.352306235
[...]
<CellData Scalars="region_id,pressure_p0," Vectors="velocity_p0," Tensors="">
<DataArray type="Float64" Name="region_id" format="ascii">
2 2 2 2 2 2 2 2 2 2 3 3 3 3 3 3 3 3 3 3 1 1 1 1 1 1 1 1 1 1 1 1 1 1 1 1 1 1 1 1 1 1 1 1 1 1 1 1 1 1 1 1 1 1 1 1 1 1 1 1 1 1 1 1 1 1 1 1 1 1 1 1 1 1 1 1 1 1 1 1 1 1 1 1 1 1 1 1 1 1 1 1 1 1 1 1 1 1 1 1 1 1 1 1 1 1 1 1 1 1 1 1 1 1 1 1 1 1 1 1 1 1 1 1 1 1 1 1 1 1 1 1 1 1 1 1 1 1 1 1 1 1 1 1 1 1 1 1 1 1 1 1 1 1 1 1 1 1 1 1 1 1 1 1 1 1 1 1 1 1 1 1 1 1 1 1 1 1 1 1 1 1 1 1 1 1 1 1 1 1 1 1 1 1 1 1 1 1 1 1 1 1 1 1 1 1 1 1 1 1 1 1 1 1 1 1 1 1 1 1 1 1 1 1 1 1 1 1 1 1 1 1 1 1 1 1 1 1 1 1 1 1 1 1 1 1 1 1 1 1 1 1 1 1 1 1 1 1 1 1 1 1 1 1 1 1 1 1 1 1 1 1 1 1 1 1 1 1 1 1 1 1 1 1 1 1 1 1 1 1 1 1 1 1 1 1 1 1 1 1 1 1 1 1 1 1 1 1 1 1 1 1 1 1 1 1 1 1 1 1 1 1 1 1 1 1 1 1 1 1 1 1 1 1 1 1 1 1 1 1 1 1 1 1 1 1 1 1 1 1 1 1 1 1 1 1 1 1 1 1 1 1 1 1 1 1 1 1 1 1 1 1 1 1 1 1 1 1 1 1 1 1 1 1 1 1 1 1 1 1 1 1 1 1 1 1 1 1 1 1 1 1 1 1 1 1 1 1 1 1 1 1 1 1 1 1 1 1 1 1 1 1 1 1 1 1 1 1 1 1 1 1 1 1 1 1 1 1 1 1 1 1 1 1 1 1 1 1 1 1 1 1 1 1 1 1 1 1 1 1 1 1 1 1 1 1 1 1 1 1 1 1 1 1 1 1 1 1 1 1 1 1 1 1 1 1 1 1 1 1 1 1 1 1 1 1 1 1 1 1 1 1 1 1 1 1 1 1 1 1 1 1 1 1 1 1 1 1 1 1 1 1 1 1 1 1 1 1 1 1 1 1 1 1 1 1 1 1 1 1 1 1 1 1 1 1 1 1 1 1 1 1 1 1 1 1 1 1 1 1 1 1 1 1 1 1 1 1 1 1 1 1 1 1 1 1 1 1 1 1 1 1 1 1 1 1 1 1 1 1 1 1 1 1 1 1 1 1 1 1 1 1 1 1 1 1 1 1 1 1 1 1 1 1 1 1 1 1 1 1 1 1 1 1 1 1 1 1 1 1 1 1 1 1 1 1 1 1 1 1 1 1 1 1 1 1 1 1 1 1 1 1 1 1 1 1 1 1 1 1 1 1 1 1 1 1 1 1 1 1 1 1 1 1 1 1 1 1 1 1 1 1 1 1 1 1 1 1 1 1 1 1 1 1 1 1 1 1 1 1 1 1 1 1 1 1 1 1 1 1 1 1 1 1 1 1 1 1 1 1 1 1 1 1 1 1 1 1 1 1 1 1 1 1 1 1 1 1 1 1 1 1 1 1 1 1 1 1 1 1 1 1 1 1 1 1 1 1 1 1 1 1 1 1 1 1 1 1 1 1 1 1 1 1 1 1 1 1 1 1 1 1 1 1 1 1 1 1 1 1 1 1 1 1 1 1 1 1 1 1 1 1 1 1 1 1 1 1 1 1 1 1 1 1 1 1 1 1 1 1 1 1 1 1 1 1 1 1 1 1 1 1 1 1 1 1 1 1 1 1 1 1 1 1 1 1 1 1 1 1 1 1 1 1 1 1 1 1 1 1 1 1 1 1 1 1 1 1 1 1 1 1 1 1 1 1 1 1 1 1 1 1 1 1 1 1 1 1 1 1 1 1 1 1 1 1 1 1 1 1 1 1 1 1 1 1 1 1 1 1 1 1 1 1 1 1 1 1 1 1 1 1 1 1 1 1 1 1 1 1 1 1 1 1 1 1 1 1 1 1 1 1 1 1 1 1 1 1 1 1 1 1 1 1 1 1 1 1 1 1 1 1 1 1 1 1 1 1 1 1 1 1 1 1 1 1 1 1 1 1 1 1 1 1 1 1 1 1 1 1 1 1 1 1 1 1 1 1 1 1 1 1 1 1 1 1 1 1 1 1 1 1 1 1 1 1 1 1 1 1 1 1 1 1 1 1 1 1 1 1 1 1 1 1 1 1 1 1 1 1 1 1 1 1 1 1 1 1 1 1 1 1 1 1 
</DataArray>
<DataArray type="Float64" Name="pressure_p0" format="ascii">
0.041695367620215376 0.044942970934263984 0.050969744374195047 0.059793196944093699 0.071733345288546621 0.087282161869237651 0.10707939333325954 0.13197617963099709 0.16302155315156175 0.20211760623033659 0.1196880151371381 0.12428782430379466 0.13272264872599865 0.14480768408070621 0.16070401884058355 0.18070877262190554 0.20522095876455568 0.23475827034241478 0.26991260861708949 0.31174218306128493 0.0018522645274547025 0.0018728392339130821 0.018636022311772374 0.014923713516262939 1.3137887732680258e-05 4.0936156861090932e-06 9.1054334699833403e-06 2.8318315676812987e-06 7.4253805307946489e-05 0.0002277465576920602 0.00016505665638877088 0.00026361027581283243 3.7001877580084313e-05 4.4106791642306566e-06 1.5497423189557879e-06 0.033641564114588712 0.035145708192402078 0.034214199452416105 0.036692268930183146 0.056042052770542541 0.022299963319389059 0.03388042021751108 0.031701930031775488 2.4094091027746721e-05 0.030153586537619709 0.0025594921414727047 0.00092699569838130083 0.036703995471156659 0.0059876801895024975 0.0011792795035916906 0.0095928165283106666 0.019354605764218762 0.027979711247599948 0.021094345783313588 0.022202433452565014 0.00092083111200352884 0.021081529616431005 0.0045488131801234045 0.095965784011669691 0.094755083620641653 0.14873322342837919 0.010748872864775811 0.11910963228233257 0.010128423692453542 8.8726129307524673e-06 3.7654282610181793e-06 0.01216416054645802 0.020245228769845119 0.065699622341146166 0.0093743435454818058 0.088769415925694165 0.040443695910429275 0.0071873731912736102 0.012785502839672764 0.055253989127720129 0.004603682903860375 0.0052189936873842293 0.16195865974665347 0.13592551662134109 0.0088050083152429841 0.041220385978451395 0.021099735667389437 0.033117126246747654 0.041884774836191505 0.0097263193659551644 1.3591981223794805e-06 4.3585968833402623e-06 0.075410860725557027 0.11744455667460196 6.6186842432921785e-06 2.0931044360765539e-06 8.0328784140144913e-05 9.322362942707045e-06 2.9775072688734432e-05 0.018272295915523554 0.013999795328475714 0.1955488590159109 0.005960733118323085 0.015919523670096823 0.041757009342031699 0.017095375191882221 1.997915176535811e-06 6.2560322890541538e-07 9.9720783429707027e-05 0.055219121768673697 0.019221505780055714 0.012800208229910105 3.492968329898888e-05 0.00040606750999357751 0.04703460911305174 5.2141547779208956e-05 2.5770816769157579e-05 1.7619488890208541e-05 0.049008201857243236 0.014502153004593114 0.05058757708873185 0.0158999561438989 0.2274816053155429 0.005132890027467649 0.0047322829061649599 0.20662925877440674 0.0093759170565940117 3.7126915761226456e-05 2.3016353910528594e-05 0.077839347113003277 0.082521313362636808 0.01795223023287916 0.064771357141950495 0.043786345431651774 0.0072275896814522978 0.0082935277675696157 0.11758752296262809 0.0001090759141733814 0.00033021976924339699 0.026890532792811041 0.032657475750326251 0.023093624720375169 0.01730721486108577 0.044290814809767681 0.029114824194714863 0.071726141677506308 0.017701653942911261 0.013044544430503246 0.019269698035043525 0.029948234779723748 0.025749989917064262 0.01905799696840068 0.003090040294922743 0.0020151878233474092 0.0030357465910948829 0.03568605920286827 0.0058559282224223477 0.00045783510118470051 0.00062281167705871803 0.0017786005867621081 0.0013375939188143137 0.022195273417112492 0.0011464325706415875 0.049171568558308218 0.0060713484141065588 0.00059301523905229598 0.013585097235923851 0.042968177589151155 0.019819366845426699 0.036554153230009268 0.022347109161257053 9.3434656288514975e-06 3.3616615670493375e-06 0.014629830697868555 0.0003751417212193006 0.0048616172398460939 2.7669385045196894e-05 2.4318028777333272e-05 1.3390141868240549e-05 1.3403217079615558e-05 0.002605332812502375 0.00086390513542639253 0.00025916111925236096 0.00062348506630401773 0.0020871281974170724 0.00029449868766988395 0.00039192546148971374 2.2653085704098594e-06 7.1414224412714092e-07 0.083330037130650472 9.6000460100988209e-05 0.0094278260084027475 0.031916001470330815 5.5807745951165999e-05 0.00017334193399297246 0.022412980915110795 9.5546835883589189e-05 0.0006139772337207908 0.00013199162325715791 7.2389467706099098e-05 0.00022278306440962574 0.0021053064117789984 0.023451986036585423 0.086670636895553738 0.0074393616946752767 1.9071709809990831e-05 8.0938223173335657e-06 8.5010892635572684e-06 2.905229949905744e-06 0.014425839476316017 0.017298765388263554 0.02049098979331717 0.025983918879240085 0.010573505083138819 0.0070091028546901465 7.4464104768472568e-05 0.016053542694458318 0.012099518293579426 0.063332565448263378 0.031487273781269913 5.8926116872010142e-05 0.0094485829083238125 6.9513475846589752e-06 2.225501623480435e-05 0.028805346801283153 1.4190742425706983e-05 4.2449614340177003e-05 0.0023710956235715409 0.00083644966308891403 0.026990593246000259 0.042438519168874693 0.0088267587611004644 0.0076643791659771632 0.031100030252323059 0.033085770464361564 0.00010651197523879803 0.0019195486353502155 0.047957319860509474 0.0041126581758776449 0.017306421706851038 0.039303035666814055 0.00034049872184328963 0.024698494119290672 0.00029545473063039441 0.00046988137535968573 0.00053686209359599633 0.0070671099562660145 0.00015289865043899308 0.035344172819520028 0.032695737659845965 0.020705599454623604 0.010603121738872276 0.0092499071923593072 0.0099386215953193371 4.1412011351193696e-06 1.9625812345129716e-06 0.00014677290751239887 0.014641267532594395 0.00021859784474340246 7.0995530346957116e-06 4.5809532329103589e-05 1.4386615290337358e-05 0.0015337040499172633 2.5278047038217601e-05 0.039754356612807129 0.0015461100838783186 0.038345551624584126 6.0906423943186521e-05 0.026800053340968192 0.033673888617051569 2.34898704389396e-05 0.002541095438166152 0.069771200368632019 0.027469269186602321 0.016385296178185165 0.041993355180933743 0.003181652192622994 0.0021070928890720257 0.0019590739026279854 0.0053516326763969908 0.0058107854624403306 1.9778732120286148e-05 0.10174724499213426 2.4368203368644968e-05 7.8054286321657774e-06 0.0073310928268404685 2.1849118904245167e-05 6.5307140515414534e-05 0.00041412347646433708 0.00034486952506162686 0.087414810622234218 0.0093047611439824509 0.078195070754193852 0.052032190267400809 0.00022029777670644365 0.094891181544446368 0.17161210288311365 0.067312056744845555 0.0012593875676964975 0.036197083098240518 0.00098897372374557278 0.00031500024422685403 0.0043844370434000818 0.0070866069488526194 0.00021385321341140938 0.0021370342312498469 0.00013627207452114116 0.0003271042723384254 0.0016364445040390266 0.0043305049455721421 7.2193550048271985e-06 2.3098458885408766e-06 8.3382716461611117e-05 0.00025108597359459601 7.2528671683008157e-05 0.014350439836218134 0.00011247210331920927 0.017478475064243538 0.047401617683178396 4.2125776714963499e-05 0.00013018852444523178 5.9200579287031581e-05 0.012942181046181984 0.0055104835625988773 0.060630013006146441 0.0065522487171726009 0.0046556039166877521 6.6453715091393362e-05 2.1117424898510258e-05 0.0013653622056426212 4.1455963840731344e-05 0.021167943564803875 6.6307587518214011e-05 2.1059963911854594e-05 0.0017579514263246097 0.013617814992141139 0.038401775155627427 0.0010288610761007982 0.0012716225795616786 0.0027597961322003957 0.003722364393849445 3.0286393339905875e-05 4.7713701362967414e-05 1.6572940225378264e-05 1.0309763276697715e-05 0.025517798537709122 0.0027383829225349427 0.00053339061240525011 0.047175440095472129 0.0084147233387794566 0.039792946535340899 0.0015316827603376543 0.0025635608138225401 0.01914214098989234 0.021617815825371665 1.8694931483046577e-05 5.8854799618755266e-06 0.013730374382025914 0.11644352542543315 0.20499999383711659 0.0013523840482125519 0.0011450318367497666 0.030245750146096942 0.027960800644245234 0.029387057939894722 0.01338959776112064 0.066379534507030727 0.0813074004953242 0.12997697151219031 0.061922425320910683 0.014188451038380394 6.4697032341030903e-05 0.00010506315417206476 0.065445773340628816 0.008868008828812661 1.5590208575600284e-05 5.0200231722565112e-06 0.041234902083251063 1.1831652344120814e-05 3.7204354912082105e-06 0.008408175486037681 0.081520101514783394 0.010581906250728659 0.0064113069674250969 0.0054782452586952524 0.038504185540885312 0.013781435837086749 0.0095428003001644668 0.0034839639496731839 0.017266293800194527 0.074330129367474032 0.13306505522387288 0.0070351600263348609 0.00960010862912789 0.004630639252438719 0.0099068265593067473 0.11828662271324983 0.0075423961089707506 0.0033179642418560687 0.062080737008091941 0.027534203413637326 0.0019167875602828048 4.8389937291782579e-05 0.0015762912484186572 0.00013034406848000412 0.00037387245977164331 0.0034843104033030975 0.0038877397197184279 1.0223718842148157e-05 0.00080612342959978723 0.021279994085816774 0.0041917235032406068 0.00017940925489727451 2.3788254242053276e-05 0.0010579235956891015 0.022718751307994646 0.048634903632338952 0.00048109947405216918 0.15517103050273054 0.0045451285265014517 0.00016593494978245935 0.0002402481738773809 0.010063602126870855 0.057628976478119265 0.00026969917522487696 0.00039794168119896872 0.00013100764815163622 4.7649279738032452e-05 0.0016617669386639502 0.0027125360919980192 3.0872672078700864e-05 0.052768944735591891 0.032221131018207276 0.023794172030107023 0.0002622929436918243 5.620563566458766e-06 0.0039190579155707166 0.040507739004730051 0.017574498141490751 8.9635688148673371e-05 0.002521796445704977 0.002804113868977181 2.7260592922687591e-06 0.006878891726208463 0.0062545868479892408 0.071345086635237864 0.12002638402901407 0.0026072912561607578 0.029823845836599049 0.021832894257450126 0.00027675004712752641 0.0056924302968955898 0.090643130459084592 0.00023357491808767659 0.045549648993002137 0.016587129809082495 8.8590295468536293e-05 0.0076183807120609372 0.1123898054970284 0.0053607128900876461 0.00013731802865503789 0.00041820158895787622 0.019202013782007605 0.0001423640329885663 0.142383774862506 0.16858764878429131 0.26328966690118422 0.22200462220212461 0.056437269537107163 0.093311916132154463 0.16143898170055238 0.075419647214360938 0.1086728726689371 0.10599354936822612 0.018028676797228197 0.010711599122948123 0.064348824238202068 0.00012529147111738076 0.13052061827571756 0.0080075255506748683 0.005297499958495099 0.013681613644388677 0.077810240825786386 0.026097515529107627 0.015338100659932824 0.0125846647751169 0.00051117042667110191 0.025220225613755583 0.0018459437699321775 0.006386116491123953 0.0040010877568793287 0.0010461325602367259 0.025342536484350579 0.030882629265776319 0.0017726096359899268 0.00061304040304371627 4.1151463697239012e-06 1.5941754350309657e-06 0.0018921932375366999 0.001422602205192174 0.00079015434770500536 5.235864215246351e-05 1.6261362099911333e-05 0.069071074206029537 3.9636748977471451e-05 1.236938080071598e-05 0.031211161170636964 0.04756310623850335 0.00067243288284542474 0.055927439535649229 3.526086820707065e-06 1.1778723556958915e-06 3.668962166972892e-05 0.00011595882925475142 0.0028977590553568911 0.037537566410124568 0.00395329191341094 0.00078113715193041475 0.0010297852985041965 0.0039792868385435422 0.0032165406653849593 0.054343868763462061 0.038306736323551208 0.0095290486415277875 0.014745725369135855 1.7999716619777521e-05 5.7171878484215438e-05 0.040813448610299397 0.008386922249081788 0.0002107502485520261 2.4829778757726679e-05 7.8568548473771917e-06 5.5544309191413902e-05 0.0034958204399904297 0.083742978451344596 6.5986163075187524e-05 0.0063134275332279374 0.057572117393705061 0.047597604538924053 0.0085430390442214881 0.041769505691082065 0.000658893323511802 0.0043923441367509685 0.21423310977645019 0.0058155180939949728 0.13453427834737555 0.0097653125760994216 0.00069627186656474416 0.00050661193635055332 0.0012061127350617789 0.00066917713023690445 0.00043264328695743765 0.0014912804850561428 0.00055652352501027978 0.0066177046000966515 1.7803664942314418e-05 1.3495372793887298e-05 4.2025285705437192e-05 5.6080010388698885e-05 0.0035798431695773128 0.004577640732821556 2.2740518040973639e-05 2.9542220611279268e-05 1.0614105519633813e-05 7.6890008241680996e-06 0.04861107233860705 0.012863050760193239 3.5714840191500334e-05 0.00011176775929606832 0.0013318384093972012 2.8961665665752611e-05 8.7691188052933344e-05 0.02139434582361318 0.00060375753115377798 2.5946761314304306e-06 8.3774043398903714e-07 0.0064038651522649965 0.034035991882816335 0.00077753782443097739 0.028631380382461196 0.000689048769285215 0.0013192866719187971 1.2907669468654468e-05 4.026230083029805e-06 0.005919768440026842 0.0004955763582801735 0.00064954484055974328 0.00054719676308473083 0.0054797204522647027 0.0030509909325322575 0.0090635313686045649 0.0012180133287027716 0.00046754540690347195 0.026951174008278577 0.01711909599784071 0.00055478548248201671 0.0061969369335145748 0.075943030904959408 0.052078908387126213 0.0022936951246797506 0.090376727911091997 0.00022532403747987315 0.00068034042834201722 0.00030661597669869625 0.00092594888974298155 2.915053629635974e-06 9.3266905902993812e-06 0.0027966330884310548 0.003972469000581247 0.075708500065958612 0.15439362887103472 0.099924616619141524 0.13686723572315296 0.060374978227025089 0.00080900511597773274 0.0031072792892441097 0.0045600855623883513 0.0015318627485444419 0.0045812022330206587 0.0048404637301703093 0.017399826935384576 0.01432668964648896 0.044962372192075585 0.00087656348146501056 0.00029137035004772637 0.0041121225660836749 0.009478788149569135 0.01001933093031398 0.032277310236067384 0.029529212839807292 0.093795634980445963 0.0070254170969331984 2.1329309873067634e-05 6.0748880307276613e-05 0.019300072648603304 0.017175750126412172 0.016330252510297363 0.012780146458378269 0.018028645272873015 0.023924727558168938 2.1092845552047849e-06 6.4607406211209204e-06 0.0010778494005622185 0.002946043899413533 0.00019879421338385417 0.00022137530997895985 0.054099628353886001 0.00014666011778693676 0.00020351782707283162 6.9689830515341628e-05 0.12602055510699911 0.00037513817022123155 0.0011119863105134898 0.029921966033144842 0.00010942853400281358 0.0001754550856623275 0.033672196987451906 8.6764870067351511e-05 2.719904814893528e-05 0.019831935687982392 0.018738439178802659 0.00094181565344019533 0.001605687098227579 0.00065048832735959056 0.026676074586640057 0.00039785447640914559 0.00032571367746833657 0.11736857953013477 0.0023692641844133282 0.00069035687038641067 0.0002288259102218013 0.0051314467976699904 8.5022321988178416e-05 0.00010056049111583132 0.0060628744817781462 0.0031746097223174542 0.027317133569873572 0.1811702788710452 0.0037842358317256991 0.003966431791606502 0.0067757290201905466 0.0020549571864669743 0.0069672246772673491 0.073089936975597514 0.00014978274417095554 0.009051704220395633 0.00020864255537693323 0.044214989948242335 6.614940533032549e-05 0.0019589266112541477 6.3458754852223874e-05 4.5247318741138351e-05 0.0098560453452126752 1.913653806232898e-05 2.3302387885616013e-05 7.9456589022895932e-06 6.7576069751363959e-06 0.0016721150972725594 0.012351407262704773 0.011124800113899285 0.053627356197382473 0.0087207015205981904 0.10525756035127549 0.046802154619491103 0.0004023262567950653 0.0011842060645292239 0.075005743478489997 0.11951421743147259 0.0008855520365474742 7.3624456564889739e-06 0.00067804854845413096 0.00036914629656907452 0.034327583739048817 9.0682381261061666e-06 6.585114672729395e-06 2.1097830146082201e-05 2.9010876048777441e-05 0.0011756140673154466 0.024124944073475166 0.042115222447350775 0.041374341497178793 9.5225403133700193e-05 0.0022402971308658481 9.0754924588883e-05 0.078427986062895153 3.6532622264084514e-06 0.016616396846833498 0.06474510163672334 0.0030727829502844328 1.4620190293544261e-05 4.7361573712221125e-06 1.4539652892668973e-05 0.00035455737023757126 0.00052392839566297732 0.001541577031307722 0.10265104349947579 0.0042821092886837836 0.10680504118836819 0.0033922834684488989 0.081855233251441686 0.00015130718094992786 1.4132776254006449e-05 0.00018291623309053535 0.01791485725339927 0.025997708922231515 0.005485751521451347 0.0053717279773560396 0.06808348163880816 0.078759553709779828 0.058899131427322005 0.060323975337870789 1.6651767753135636e-06 0.11932255289954533 0.093686278757890956 0.0022872261394510105 0.001458827371283935 0.0037281742984651939 0.0021763014468204446 0.0029230474348306301 8.6319821297595753e-05 7.9138066888702781e-06 9.7262616531592196e-05 3.0663188411308088e-05 5.6740821798628899e-05 0.13044249686175885 0.0032498559992832098 6.815118376696881e-06 0.00057833651136720036 0.0048404286938509922 0.00093946726300987661 0.0046247757642457294 0.0017239786167412372 0.011470614245401904 0.00090057221018335258 0.0025277555465908924 0.036302359915318994 0.043461406590581467 0.00011744811030187337 0.00010025365501798087 0.0008137110465611453 0.0001365382647097853 0.00031732700069358219 0.034908625210365522 0.012935342780685945 1.5123799725498814e-06 0.10881821178300077 0.014130822205658776 0.0031569444384446986 0.01108244941227198 0.010194960022261548 0.00030811891820976378 0.00013592651705921592 0.0045669991518483069 0.0049738507302870046 0.013639386291106314 0.014629074315393271 0.00063634975984415963 0.0018680819604775672 0.0085524801848905364 0.055638242428283385 0.033075015369604617 0.0026771470095464257 0.00023356310973643717 0.00026111877400295034 0.001462129347787053 0.0078520938380082471 0.00046221606072747849 0.0074901131199654764 2.443444145107871e-06 0.039386238590445981 0.00018228697472099886 0.00055006593321508244 0.0017603393526805142 0.0066060382412043046 0.0093314531659277854 0.00061343594666898448 0.018427732222991516 0.00394088849