<?xml version="1.0"?>
<VTKFile type="UnstructuredGrid" version="0.1" byte_order="LittleEndian">
<UnstructuredGrid>
<Piece NumberOfPoints="558" NumberOfCells="1054">
<Points>
<DataArray type="Float64" NumberOfComponents="3" format="ascii">
0 0 0 1 0 0 1 1 0 0 1 0 0.5 0.29999999999999999 0 1 0.29999999999999999 0 0.5 0.69999999999999996 0 1 0.69999999999999996 0 0.049999999999899652 0 0 0.099999999999814668 0 0 0.14999999999970359 0 0 0.19999999999955789 0 0 0.24999999999941211 0 0 0.29999999999926641 0 0 0.34999999999912063 0 0 0.3999999999989749 0 0 0.44999999999882923 0 0 0.49999999999869432 0 0 0.5499999999988151 0 0 0.59999999999894682 0 0 0.64999999999907843 0 0 0.69999999999921003 0 0 0.74999999999934175 0 0 0.79999999999947335 0 0 0.84999999999960507 0 0 0.89999999999973679 0 0 0.94999999999986839 0 0 1 0.049999999999896842 0 1 0.099999999999753911 0 1 0.14999999999961891 0 1 0.19999999999974799 0 1 0.24999999999987299 0 1 0.34999999999993492 0 1 0.39999999999978308 0 1 0.44999999999963131 0 1 0.49999999999950101 0 1 0.54999999999963112 0 1 0.59999999999973963 0 1 0.64999999999986979 0 1 0.74999999999993494 0 1 0.7999999999998193 0 1 0.84999999999982645 0 1 0.8999999999998336 0 1 0.94999999999997109 0 0.94999999999979179 1 0 0.89999999999958358 1 0 0.84999999999965292 1 0 0.79999999999999982 1 0 0.75000000000034661 1 0 0.7000000000006934 1 0 0.65000000000104008 1 0 0.60000000000138687 1 0 0.55000000000173355 1 0 0.50000000000205869 1 0 0.45000000000187229 1 0 0.40000000000166441 1 0 0.35000000000145642 1 0 0.30000000000124832 1 0 0.25000000000104028 1 0 0.20000000000083221 1 0 0.15000000000062411 1 0 0.10000000000041601 1 0 0.050000000000207989 1 0 0 0.94999999999979179 0 0 0.89999999999958358 0 0 0.84999999999965292 0 0 0.79999999999999982 0 0 0.75000000000034661 0 0 0.7000000000006934 0 0 0.65000000000104008 0 0 0.60000000000138687 0 0 0.55000000000173355 0 0 0.50000000000205869 0 0 0.45000000000187229 0 0 0.40000000000166441 0 0 0.35000000000145642 0 0 0.30000000000124832 0 0 0.25000000000104028 0 0 0.20000000000083221 0 0 0.15000000000062411 0 0 0.10000000000041601 0 0 0.050000000000207989 0 0.54999999999999993 0.29999999999999999 0 0.59999999999999976 0.29999999999999999 0 0.6499999999999998 0.29999999999999999 0 0.69999999999999984 0.29999999999999999 0 0.74999999999999989 0.29999999999999999 0 0.79999999999999982 0.29999999999999999 0 0.84999999999999987 0.29999999999999999 0 0.89999999999999991 0.29999999999999999 0 0.94999999999999996 0.29999999999999999 0 0.54999999999999993 0.69999999999999996 0 0.59999999999999976 0.69999999999999996 0 0.6499999999999998 0.69999999999999996 0 0.69999999999999984 0.69999999999999996 0 0.74999999999999989 0.69999999999999996 0 0.79999999999999982 0.69999999999999996 0 0.84999999999999987 0.69999999999999996 0 0.89999999999999991 0.69999999999999996 0 0.94999999999999996 0.69999999999999996 0 0.28307294598219601 0.50789252727458634 0 0.25676291524611189 0.7436741304886243 0 0.25195515620380449 0.25883339815888678 0 0.57611405284611883 0.50165903596042916 0 0.77846603114747959 0.49850927265137401 0 0.39801143831225599 0.16651381068160659 0 0.39536230704883951 0.84069429572832477 0 0.15720202157091859 0.60665697304410315 0 0.1650278706801647 0.38791388161335733 0 0.43249999999999988 0.43937499999999979 0 0.35864735590330371 0.63903383440414463 0 0.82709327591091286 0.84937141670920724 0 0.61343887413683884 0.856862479058357 0 0.82709327591102189 0.14937141670914489 0 0.6236733212988993 0.14864538214901801 0 0.14474682429600511 0.85524784522713515 0 0.14332333627550789 0.14578431753966009 0 0.36575549820117997 0.31677992835137742 0 0.46666084890304671 0.57634471035397938 0 0.27474541102162192 0.11822029332053539 0 0.27270076654418179 0.87751467830216623 0 0.1215415378367805 0.72939333680004137 0 0.1247745017231483 0.27198077544791172 0 0.6879972333610942 0.43038561374960838 0 0.67323294229744413 0.57556450033612505 0 0.86411095495256451 0.42388805655111889 0 0.86956835336234861 0.571283299838105 0 0.50202631463681879 0.87892870825713787 0 0.51076801031701946 0.1202837388510348 0 0.1216098864341134 0.50637075089503902 0 0.27866744612395528 0.38416094670951489 0 0.7250000000005199 0.89375000000045834 0 0.72500000000001008 0.19776155966387679 0 0.52289427570932567 0.3932284363388488 0 0.40326160981139969 0.73346192995102844 0 0.77354604466818633 0.40378688774472771 0 0.77293540622714185 0.59448302402785813 0 0.57412547362576272 0.58273804879550706 0 0.26573297623774761 0.59828298563722948 0 0.38244435121258652 0.51653317813019495 0 0.72500000000000064 0.7952620967744265 0 0.72525833953073282 0.1032114801687094 0 0.90299850604011456 0.79563452813489832 0 0.90416666666660628 0.9041666666666166 0 0.90299850604006393 0.09563452813493091 0 0.90416666666668166 0.20416666666667119 0 0.54782696902220018 0.79245182748204157 0 0.55306006949600994 0.20198184231352201 0 0.20050006573841939 0.53248514016039872 0 0.33758650185219202 0.23837101504325639 0 0.35312867752657662 0.084946736076730367 0 0.35752321586431363 0.9185439911803448 0 0.42377727103934271 0.25099357235810238 0 0.086179601630648681 0.64647209519980475 0 0.087545339447545459 0.35122518864182262 0 0.083411279318375747 0.91030024466934134 0 0.083411279318303222 0.089699755330707398 0 0.91696753777131557 0.497780560203536 0 0.34258405725730701 0.4444034294386992 0 0.33123028043633618 0.77629643437932982 0 0.2236846579037573 0.67380363126050236 0 0.19901705110390991 0.9175543425573498 0 0.19922788606653311 0.085920220746880993 0 0.19670163708476801 0.31472518408333222 0 0.4656888918609538 0.78493261229743638 0 0.083105206071452636 0.79992298667296435 0 0.083105206071467416 0.20007701332709979 0 0.57724883562309992 0.92155686857100794 0 0.57667858002728545 0.078486105337742612 0 0.49102375406324739 0.49123754822244059 0 0.4409427642593301 0.35743108089689513 0 0.43698630808430822 0.080423614171545449 0 0.4367309254023824 0.92065556789053882 0 0.22278230690790279 0.44824268025881547 0 0.6084546825910605 0.37989672713932537 0 0.43846182030517877 0.64845797726506715 0 0.077693244765132896 0.56932317963405099 0 0.078358742472063481 0.43365249433908948 0 0.6541250972820879 0.49999999999999989 0 0.21858834311891909 0.81980263716112767 0 0.2185883431182947 0.18019736283949719 0 0.31378396441836959 0.70157213313026345 0 0.79680861578988083 0.92656778056766709 0 0.79680861578956375 0.22656778056752541 0 0.65394964615507722 0.22666784374016369 0 0.47357141910802508 0.1873585799078378 0 0.80185942888539485 0.77452061303608133 0 0.64753070846764316 0.77332939069435502 0 0.80185942888501827 0.074520613036224564 0 0.65507451745379841 0.92229208810758578 0 0.29348325746214782 0.31350119524708198 0 0.91750694127107502 0.36982372220068471 0 0.91750694127105259 0.63017627779935648 0 0.65408113592120842 0.073941773121567966 0 0.33122374654748771 0.57588941099433744 0 0.84723782639812573 0.48638347960178252 0 0.50715858906372158 0.63295939104129484 0 0.83573492347052902 0.36590755630746369 0 0.83758014339878906 0.63222013025741819 0 0.6405463747586706 0.63290524857395714 0 0.33084213324567391 0.16272720141332131 0 0.71508799138962864 0.36622814920737751 0 0.71406021706547751 0.63292083137662503 0 0.18269480424590959 0.75905448272264375 0 0.17933913398461551 0.2350063570234002 0 0.4089290844030305 0.58728915500154233 0 0.53245488764484505 0.55078124999999989 0 0.61209567303293111 0.44669033081290321 0 0.7152569930854884 0.5237994455134295 0 0.33403534827021109 0.84402799729020661 0 0.27499999999933927 0.060310814194988557 0 0.27609987656793722 0.94991445621608572 0 0.82862096804812391 0.55037090955459045 0 0.73483647259922602 0.44789725365921768 0 0.049706944316475897 0.72477277076253799 0 0.049706944316556423 0.27522722923869108 0 0.16500388252850301 0.66612077714085194 0 0.62042975506801734 0.54295974692364424 0 0.38083244760691543 0.38531983672244652 0 0.93814194660195893 0.44426664081746747 0 0.93732437411268477 0.55911392101136159 0 0.93677536231884972 0.85000000000000286 0 0.93677536231883773 0.14999999999999089 0 0.52375890611712683 0.059318771819432882 0 0.52122150208832174 0.94089974453840242 0 0.15801167086041079 0.46008690540259539 0 0.14617343800780541 0.93808063414349496 0 0.14618258501891079 0.062070108745602003 0 0.76901770135486491 0.84293557325473656 0 0.77144070960558853 0.14311854477243749 0 0.68697391633157634 0.84450604838764298 0 0.68391457121233579 0.14440470121196541 0 0.26104540868854792 0.81401944968719064 0 0.065374659239661639 0.8551091961254178 0 0.065374659239632718 0.1448908038746782 0 0.55899371797446828 0.85003102233514438 0 0.56202748619534593 0.15054058349222879 0 0.45677673713123867 0.84253684404072415 0 0.85170973911348691 0.93569607295217616 0 0.8517097391133297 0.2356960729520409 0 0.068743045408989428 0.48853989837882689 0 0.22033343844674469 0.36963382230740238 0 0.85491058998424563 0.76004753345552634 0 0.85491058998398861 0.060047533455626502 0 0.26429849586623999 0.19346700179430079 0 0.14934928745814749 0.55042914607228977 0 0.59814117807200873 0.23398510860739519 0 0.49695729691142171 0.25014895411178018 0 0.59636844454254345 0.75937156204589151 0 0.27820712747429932 0.65530134213254643 0 0.44288491854585582 0.14116182884956319 0 0.14223753364722069 0.3341983344262433 0 0.81973119833356312 0.43505687159469048 0 0.43507373378304309 0.49699695397193322 0 0.49077833859261139 0.35229981449445641 0 0.33277555741076909 0.36432196682010132 0 0.13737030665753211 0.20313708640667491 0 0.1382744753146134 0.79650574229207483 0 0.29124338931648802 0.43334555462578611 0 0.94399509803918602 0.75600490196082126 0 0.94399509803922566 0.056004901960802607 0 0.94399509803919068 0.9439950980391687 0 0.94399509803921056 0.24399509803922639 0 0.65481233915350323 0.35652751921065562 0 0.48858720058566618 0.43964267759203868 0 0.7250000000005199 0.94981617647078953 0 0.72500000000000064 0.2498161764706 0 0.88088768115933802 0.84674609810493673 0 0.88088768115941807 0.14674609810479519 0 0.56836770495988642 0.352306235
[...]
<CellData Scalars="pressure_p0,region_id," Vectors="velocity_p0," Tensors="">
<DataArray type="Float64" Name="pressure_p0" format="ascii">
0.010529242803120731 0.011867422043825236 0.014563530940788046 0.018873161437745117 0.025251752909699061 0.034394479951594628 0.04730785625443773 0.065474872660798183 0.090820267773583277 0.12650108061133619 0.03856518908432785 0.04103950286995442 0.04590864992271506 0.053378216561835209 0.063848241193752403 0.077907037003796864 0.096348810081318764 0.12024351360331831 0.15083578560168295 0.19005385878124989 0.00010925441025769859 0.00010540201211887591 0.0027606972999017947 0.0020363522781098446 3.0657733093274008e-05 2.1044605750849251e-05 2.839098601040716e-05 1.959200985440707e-05 2.788834813491326e-05 4.7880467328640577e-05 1.1225016963091329e-05 1.4031772949469856e-05 1.2854677290347883e-05 4.8855365662607726e-06 4.4590223887784117e-06 0.0068376323342362148 0.0060815338789269365 0.0048993983770555319 0.0040451475030598436 0.0078739860720901562 0.0025094978779742557 0.0036844198604250211 0.0045380420323460581 1.2233210148922183e-05 0.0046768188382306534 0.00013323573735757836 5.443001986887371e-05 0.0083371035478121327 0.00039745512018301427 7.0651815483062694e-05 0.00063198147317412954 0.0021552429801519786 0.0027172601154775355 0.002528541507769216 0.0019140046812400517 5.6625651391270358e-05 0.0021605144523077677 0.00027569341561130392 0.026797824465089604 0.028517756277890126 0.044135428654751355 0.00081618868963194316 0.046627100979960132 0.00050589736903775256 5.7759593240339818e-06 5.9086322293141717e-06 0.0010306713119896259 0.0021559169730845872 0.014997484799249096 0.00046661725521613214 0.029066809327836774 0.0042362590083567953 0.00040990541256462001 0.00082467006799024354 0.0085581025621632879 0.00020748879417133571 0.0002578936597968191 0.055479123300573419 0.062703833280866927 0.00039360068086388868 0.006231563905442352 0.0037827877101609224 0.0041154064683535559 0.0053251753781871809 0.00085588608569899308 1.2674929092973146e-05 1.7840253876036461e-05 0.017747983882816388 0.027570079041518147 1.6304984046951047e-05 1.2121364165528243e-05 1.183607471747059e-05 2.3277908136704458e-05 3.4754455813789314e-05 0.0012871883887143846 0.0009088369088251847 0.07605361306381006 0.00030219495761278344 0.0010429920778965542 0.0047136433678160406 0.0013533387387065169 9.7432385812109767e-06 7.0296944674584576e-06 1.343290235457293e-05 0.0079459970077699251 0.0020629018734079772 0.0012778369313864752 7.5636838388515452e-06 2.95897593237822e-05 0.0059736795235849956 7.8065823107938642e-06 7.4233797945612704e-06 7.4155673996026858e-06 0.0096197650913203373 0.0010518307668381814 0.0064359338956897407 0.001480880316047155 0.10531569216332687 0.00023239843186170913 0.00020955804303359263 0.089022433183035862 0.0007450844238926686 1.0036739637042272e-05 1.0202713841731932e-05 0.01591337497469069 0.017534832547486258 0.0015741329383916814 0.009428868750064566 0.0059890980123671958 0.00049652355714961314 0.00036423223807636324 0.049213074878497173 2.8639013244581889e-05 5.0747613667383531e-05 0.0028162031793600504 0.0072377189501478239 0.0020031666663714001 0.0012519792566115322 0.0074874921862423003 0.0027719121174214706 0.0118513241375569 0.0017203473276195221 0.0012190168158242255 0.0017872125860545277 0.0030356836935403657 0.00229037109989006 0.0025374157002041658 0.0001555894841350805 0.00012982145084994116 0.00021872515351426005 0.0042492105147847034 0.00029136018042988837 3.7574660447205473e-05 4.4487948917864142e-05 0.00010513403045522305 8.3896749305925058e-05 0.0020771748720486267 6.2127196439256907e-05 0.0076804898022055888 0.000338133164946117 1.8167429556078096e-05 0.00087806716076653394 0.0080269552897718581 0.0017492377671910028 0.0042431283462461746 0.0016975319556467605 7.3916859326684946e-06 7.0243758207408269e-06 0.0016988603820296507 3.1714166526795949e-05 0.00030925651955628959 8.6291583589301983e-06 7.8008414412051088e-06 8.2061232030732951e-06 8.9899910800628322e-06 0.00014635786433077319 2.7355552316835813e-05 1.5608574605319479e-05 3.501090628893396e-05 8.4760522952849205e-05 1.957419882435462e-05 2.2237086733146927e-05 9.2331369788343197e-06 6.7765551767145295e-06 0.019950306992715633 9.6405165381008587e-06 0.00098260519076025514 0.0029188449650733848 2.6624458422018154e-05 4.4372959581255833e-05 0.0016464449044533349 2.4852313625119668e-05 4.6138776946044824e-05 2.5973737782555884e-05 1.7064573066916916e-05 2.3020742280174731e-05 0.00011659692694107962 0.0025330813571474288 0.017363248809934846 0.00047446088339601146 8.4510323082148033e-06 8.5579285730382546e-06 9.2556620686918847e-06 8.1053171161515071e-06 0.0016565692683688789 0.0021348952100021775 0.0019917089222617149 0.0030176815089014881 0.0009946789347009535 0.00056279257903034266 8.4530679205204637e-06 0.0011728580740631828 0.00081125760802503669 0.015752105017161316 0.0027234935731095975 1.2473479516445388e-05 0.00073541892994312148 2.292545134940997e-05 3.4164560912867213e-05 0.0030064026954916955 1.566005782285522e-05 1.9275126569934337e-05 0.00013001957162789437 5.2474559068462206e-05 0.0038432571404161476 0.0078860091845557884 0.00083157908575693393 0.00064467027168590638 0.0039885610932223776 0.0029849287886343319 1.0852065205425212e-05 0.00011725951357821183 0.0054631202194381249 0.00021406874403682557 0.0012772858855342362 0.0066891745093588337 1.3780694653583506e-05 0.003886869571128472 1.0899361126404861e-05 1.5599530191720142e-05 3.8106840191212574e-05 0.00052913189914127301 3.4549961908560709e-05 0.0040988510312196403 0.0036736643832005712 0.0018099468076173638 0.00089241124285687227 0.00074091571833665056 0.00089776971970427152 3.0229475911151548e-06 3.2018549972049692e-06 9.9470121040069953e-06 0.0022067978842444614 3.3681388726350349e-05 4.593838850827525e-06 3.6782239168845184e-05 2.4122992277530268e-05 8.0723142009192592e-05 8.0967921565967288e-06 0.0066996297090402661 5.4652124397861699e-05 0.0050176933083978387 8.7410380741070858e-06 0.0025019147088985701 0.0050721590837595545 8.5609547928362682e-06 0.00010351472404939177 0.011754682188156527 0.0025596141438136624 0.001552195190992246 0.0071514480502401058 0.00018675428812038106 0.00012368800367029131 0.00010769731093425323 0.00030666659769916927 0.00036464967253959735 1.1015741771285407e-05 0.028875493721952656 2.1964765432710689e-05 1.686661862670776e-05 0.00051988818256734691 1.5431578719241726e-05 1.8746281660296963e-05 4.2397112781918747e-05 4.3882092671258536e-05 0.01744598193846204 0.00066331144662709098 0.013500387183806993 0.0087357268442004171 1.9383466874354783e-05 0.03360290099617988 0.062854275972309082 0.010556522756124776 7.5543231956811199e-05 0.0037873096686456271 6.5263976550899283e-05 1.1903842671343577e-05 0.00032185418304706177 0.00062699808684143436 2.0353608011688604e-05 0.00012969791735731177 1.9185878110479851e-05 2.2531996450950532e-05 9.3956340699276659e-05 0.00025205486385092356 1.4399105235058078e-05 1.1045103188400797e-05 1.8198961526856038e-05 2.5773039079925109e-05 1.4379933899432316e-05 0.0020401346418088421 8.7719429842206494e-06 0.001290134148980151 0.0090544237916612858 1.6964914759596192e-05 2.1884303624138417e-05 7.7012444570080348e-06 0.0016175928642691133 0.0002322691935921742 0.018132260079689308 0.00044686548211429755 0.0002949927437692549 3.3726679782204962e-05 2.2714253909916651e-05 5.8898120412213462e-05 7.7556423010166128e-06 0.0027592050115525756 3.6060783966925683e-05 2.3698306765138366e-05 6.3439274788324446e-05 0.0012428753427572597 0.004464612225639192 6.306785526787834e-05 7.7991316128236238e-05 0.00019526964247244119 0.00030017302117219723 1.3713282602122909e-05 1.487992462165199e-05 1.3141180859681854e-05 1.2201320757362539e-05 0.0026169844806968887 0.00011652711524559448 1.8748628841760311e-05 0.0064984925425027474 0.0006162106197515364 0.0051199310514353554 7.0030646208340343e-05 0.0001352314261597053 0.0016750048150174363 0.0019602651247652846 2.5742360755534852e-05 1.8768905864801865e-05 0.0015925976136982596 0.049664181703834326 0.089628794471166937 4.6849862460188904e-05 4.3522122075480171e-05 0.0024620847490841942 0.0021916907246847797 0.002767622198014776 0.00083082998533385828 0.01623814050604442 0.020931153943851841 0.033551674413484653 0.0097200802837157652 0.0012679303279246382 7.7072502254305105e-06 7.8935948670823937e-06 0.010764189226740301 0.00063412571707090139 1.8991219932174653e-05 1.4810963765338378e-05 0.006051851212188394 2.38506277976774e-05 1.7342584485440249e-05 0.00039590802042240985 0.025642634899360511 0.00091877588702762218 0.00045864166652838465 0.00039673191642340081 0.0051196529147341536 0.0011109325779447008 0.00070132006972870443 0.00022824818351881455 0.002386007607264734 0.020448981643009345 0.037825660077557451 0.00038147511379126584 0.00079000329227937177 0.00026511949364183067 0.0012200479606631317 0.030035567315132884 0.00046485547475616501 0.00016011191063435129 0.010369486326146201 0.0021271621176983651 7.7711794396316213e-05 1.0957724316767633e-05 7.2883992336078598e-05 1.7590289608307678e-05 1.4537961892441903e-05 0.00016190645662139626 0.00017394894878150537 6.5012976260928225e-06 3.287182658803158e-05 0.0023661076316119495 0.00022480385911134517 1.7103202836629466e-05 7.1739840632450811e-06 4.6968150517364775e-05 0.0029902870375404732 0.0088617956937545109 3.9193459793768952e-05 0.051818492091961529 0.00021059398717632551 1.0055284710480958e-05 1.0953059146937289e-05 0.00054603003373535986 0.01349476636624161 9.897498989044073e-06 1.2569306135314133e-05 8.4092052247818235e-06 2.177962076178834e-05 0.00010327276316629669 0.00019283606500438745 2.1807598984654346e-05 0.0094862124709774558 0.0033647585158301636 0.0028826971325549592 1.3982806069767958e-05 4.3872668385394834e-06 0.00023983266269564206 0.004718608186073928 0.0011625325078813912 8.1328219242199581e-06 0.00013450882534314364 0.00014774343229143587 2.285334828189849e-06 0.00038023685456672885 0.0003451526958841411 0.017391187956916555 0.029706212035770702 0.00013944741744778886 0.0031320095185051887 0.002822876721763126 1.9330493259099296e-05 0.00039327590936676527 0.022510532458929238 1.2083257377034871e-05 0.0058559731598506557 0.0016391794024376099 1.0373504075638766e-05 0.00076481335624020458 0.028007680694194584 0.00028504185274465276 3.0497721581432938e-05 5.579153003936809e-05 0.0021155066345926368 2.0501991101412988e-05 0.061252309307615854 0.088569454246189797 0.13490544733729243 0.093281592315276662 0.010783024434858793 0.018433520575474351 0.061239325446677199 0.025241328021286352 0.031995565697255091 0.023886311339353997 0.0013289365055727095 0.00080272668606274668 0.014670092544738667 8.3800378499290772e-06 0.035841182213507274 0.00050274537683792195 0.00027208051054602002 0.00084763577403797077 0.021398774090581749 0.0043011461322278299 0.0015797863181679144 0.0010443753802583402 2.7160806026105473e-05 0.0026286975605993358 8.3502511932541891e-05 0.00046997925332502885 0.00024813495493025369 3.7068232854900528e-05 0.0019734118024740468 0.0027523945558509772 0.00010469180123393965 4.5004234134956348e-05 3.6876955032324125e-06 3.6446472741108817e-06 8.7459947439923056e-05 5.4190319870267272e-05 2.8686667808766649e-05 2.9739402568048301e-05 2.1007345057358839e-05 0.013417982493846112 2.8198495165244043e-05 2.0290773945818007e-05 0.0039543952933221663 0.0084853284124777467 2.5683039526046181e-05 0.0083778553820039129 5.6534106470631083e-06 4.7844914375874223e-06 2.6359729229955764e-05 4.277548360000183e-05 0.00019873057344831256 0.0083208746730071871 0.00025512965719348858 2.3602069047089381e-05 3.2704677100971094e-05 0.00023831631624886184 0.00017826061988100917 0.0069981946477923641 0.0082193232650594125 0.0011614209002035131 0.0022366507156439171 2.5053065372607886e-05 3.903257334556953e-05 0.004000900433487449 0.00068177232262532335 9.5701044131441818e-06 2.4530578468547617e-05 1.829153254661336e-05 1.0542950848994984e-05 0.00016191770711561086 0.015880714895914503 1.1545782961459209e-05 0.00027788302480892036 0.01548150625501527 0.011560877479234316 0.00048547236868572228 0.0094439325171680969 2.7366861416085878e-05 0.00020854076075511592 0.088030417587318915 0.00028328694218318195 0.056496463513432418 0.00046659953451774988 2.4167676027179434e-05 1.9024599726822165e-05 6.2143677056548607e-05 5.6632684515993688e-05 4.9601385531607468e-05 7.3775494773843211e-05 3.2209777072764299e-05 0.00066796969012499277 1.8294806779005295e-05 1.6991816455310288e-05 2.1736053549181457e-05 2.4168919945973169e-05 0.00019002077126643418 0.00026455171337510375 1.1014965356955081e-05 1.0540920104724073e-05 1.015452270665113e-05 1.0214947188492926e-05 0.0065673854683228313 0.0011114250445772014 1.5923293443073182e-05 1.9615765023148476e-05 7.6902492160220052e-05 1.8237788218879572e-05 2.4312605896218577e-05 0.0039197582182175523 2.660297971474378e-05 6.3676758318996516e-06 5.0328692240351517e-06 0.00047427792018974363 0.0028951357764213301 4.5654874106748816e-05 0.0051877610595417786 2.1996434762183907e-05 6.1332162692680781e-05 2.8884997678411107e-05 2.0179342663531401e-05 0.00057383325185439817 1.5077179895945134e-05 3.3776418090469394e-05 3.9836761251277526e-05 0.00024244871057633248 0.0002280521006803448 0.0006045335826004299 7.1610967561710074e-05 1.4920343323311257e-05 0.0043608838006231878 0.0020134021583073599 3.3390091224064913e-05 0.00025654222090890468 0.025807272200016447 0.014326625847926598 0.00012939851796528142 0.023421936936535818 3.1244746222270351e-05 6.0706699794787599e-05 3.373413322447314e-05 6.9771200138506984e-05 1.7693955987769197e-05 2.4880332955543228e-05 0.00017686691191090174 0.00029738394869618549 0.023718299410935527 0.053836209334497002 0.026755300135300565 0.044391772507151261 0.016490187318552341 4.4182077791259543e-05 0.0002271290982277046 0.0003858632911071647 5.8586286812721398e-05 0.00019382273233139644 0.00024445963828774735 0.001998146310226771 0.0015027873520639561 0.011439796284623664 7.1245371371815596e-05 3.4796619138845753e-05 0.00021496785137421629 0.00055193931893061888 0.00058730138558663893 0.0054820073005049843 0.0048182700315471481 0.03570865761132086 0.00029400305852737255 1.436504781854762e-05 1.6854976179450416e-05 0.002263277858001476 0.0019309534431790742 0.0016984212907767734 0.0012273148302987048 0.0014167666718772074 0.0021926500837055603 8.6872980826537683e-06 1.0642580876222925e-05 6.3826681489955812e-05 0.00016372652949501733 2.6515954889510974e-05 9.8411924351725293e-06 0.0068236220726572896 3.8209171121163612e-05 4.1770550816257306e-05 9.6443622235954085e-06 0.040419524815441255 3.7471610651161718e-05 8.023037293256624e-05 0.0058782988872311329 2.726552878783237e-05 2.7319184217337775e-05 0.004944394224302969 4.0420204449494751e-05 2.5473569660776621e-05 0.0013843576816380081 0.0013696156691553338 2.9808281404016547e-05 7.8062669827088651e-05 2.0957433703049741e-05 0.0035554021292990437 3.315025739738122e-05 1.8350704088253668e-05 0.035982551178759439 0.0001047708942910387 6.6389480944735498e-05 3.3689478766822041e-05 0.00027620749483811308 2.9578648289356693e-05 3.2471664561698601e-05 0.00043056259404582805 0.00014805003090832429 0.0038061968027780944 0.07357821229384387 0.00015788643573451052 0.00024202396333127208 0.0007054490438286572 0.00013479183377309195 0.00030317465384737438 0.022449812026125622 1.6771432444633216e-05 0.00077523056877516262 2.9499363211872745e-05 0.01105892918977411 2.0410394559771753e-05 8.4204284514100019e-05 2.5386410932335147e-05 2.4286743221412878e-05 0.0006078195855528832 1.3876978453070489e-05 1.6748357685351467e-05 1.3938150873350957e-05 1.205124795145196e-05 0.00010085876460044616 0.00088601381189182824 0.00071253692051748965 0.014946766609159456 0.00050039911933771907 0.026604173458507869 0.0099961469874872144 3.8862570746509578e-05 8.3868196625509444e-05 0.016013450970872083 0.032355659827513247 5.4834042012556009e-05 6.0680699936589809e-06 3.461755869608592e-05 1.9532177312581893e-05 0.0049610192170530479 2.2280659025679152e-05 2.1257463113478359e-05 3.0449694185072143e-05 3.2466414951947759e-05 6.0487883227158713e-05 0.002947250423214357 0.0097893493537762194 0.0042938639996445982 1.6097634146307523e-05 9.7898097688467874e-05 2.3240731510075517e-05 0.016463667621801716 4.7315306484874951e-06 0.0011052860579861237 0.013405396155431903 0.0001456965147165041 6.4255442428191706e-06 1.3081544626417352e-05 1.6162364567749611e-05 1.1501532081068674e-05 4.1320675339306027e-05 9.5333805024222471e-05 0.024501872515225773 0.000211934829776809 0.029390728996558604 0.00019645839931205233 0.01792851470224861 9.1226381506789166e-06 6.4853969238765204e-06 1.6307826583783369e-05 0.0019116722933252299 0.0033607274794700479 0.00032760105955888648 0.00030423676079468229 0.012036324906240074 0.015173460505230069 0.009734701831657604 0.010288475110578853 1.8990114983009035e-06 0.03535882356368461 0.021971360311011837 0.00010915877243506746 7.1274063738631908e-05 0.00017506070942040311 9.598934523122492e-05 0.00014859998522665115 7.8082218792775197e-06 6.8204191614541209e-06 3.8411642152254225e-05 2.4526060942108282e-05 2.3027945764810541e-05 0.040291997630959225 0.0001413803185577399 4.424812818087873e-06 2.5680184402630808e-05 0.00032247136179949982 4.8763099082861579e-05 0.00040377096522456517 7.4468941318523677e-05 0.00081801171478970258 5.6136325577558585e-05 0.00014294512177971826 0.0032419466374626017 0.0045098192986916842 2.2409772186058017e-05 2.0758512056717269e-05 4.1246577030826615e-05 2.7763409024557783e-05 3.693244898513632e-05 0.0032294896081793917 0.00094554898665689014 2.1788803358897081e-06 0.03013194251500435 0.0014978113656321354 0.00018209496663253264 0.0010090140307972442 0.00090403571091098706 2.5257723661520057e-05 1.4301890568942668e-05 0.00023038298215877161 0.00039766938562090187 0.001291900240505426 0.0011846037575021355 4.5537267177117203e-05 0.00011009129677106962 0.00042860030780353245 0.013210989767984687 0.0057141183338553451 0.00013401303169005468 3.0287671201101585e-05 2.9419620511692624e-05 8.7092598574100752e-05 0.00087202420833054682 3.4078867722247457e-05 0.00049215507659248429 2.0244429742132718e-06 0.0068862690640211213 3.1622147402287475e-05 5.9885751454170346e-05 8.8890615753575025e-05 0.00063841047363451058 0.0010650100557111251 3.8282064662974218e-05 0.0019016838014127026 0.00023058427902117586 2.9752028984560353e-05 0.00094135401660788329 9.7263284353118668e-06 4.2473344730465478e-05 9.706770773345818e-05 0.00012623273956985514 0.035219019299173003 0.030454486299552518 0.00012826420270036331 0.062133403740975285 0.007867468292206985 0.0054260197959247738 0.071688115456106968 0.11807155796561244 0.00015059687806079846 1.9154407858761819e-05 8.4379239869334715e-06 0.00063256937363301334 0.0059360838867583369 6.0295868641356147e-06 8.3768352670813046e-05 0.041791628573675847 1.6260871374578694e-05 0.0077813174673594943 0.0053063353240902777 0.028069975093497686 0.045813709260619728 0.077527832572132152 0.046856443885533144 4.4800189511828435e-05 0.010971172431311439 0.0059608820206278343 0.00013003337534735904 2.5793602638471703e-05 2.8761988959253118e-05 0.0079412501793122009 0.015089431520694941 0.027052755420177946 8.5351486018438788e-06 0.0030989564826844314 9.1633260108844448e-06 0.00072451869695147131 8.0528093418112891e-06 0.0035368357236999861 0.0059750571182453577 0.00076540131812504679 0.028433703400500672 6.7300876494375659e-06 0.00011167801240339462 0.00023387661203357819 0.14498058469691072 0.10056964476344192 0.066346501517823384 0.00038463687073762723 0.00028483125567806773 0.095821315835032256 0.00046624653489681837 3.8482484784492211e-06 0.00096453458042846957 4.2310904336294048e-05 0.00024885906973892843 1.4687771908872447e-05 0.0022423648206351251 0.0034255781722657198 0.038214173172549076 0.076596851742728039 0.036571703497515255 5.7435386648967212e-05 0.019621654404301025 0.051540488813877114 0.00097077663173835425 7.8933616616173145e-06 0.0047094963430423659 0.001104466373619239 0.014187937444795634 0.012985134433247194 1.37457647229