<?xml version="1.0"?>
<VTKFile type="UnstructuredGrid" version="0.1" byte_order="LittleEndian">
<UnstructuredGrid>
<Piece NumberOfPoints="558" NumberOfCells="1054">
<Points>
<DataArray type="Float64" NumberOfComponents="3" format="ascii">
0 0 0 1 0 0 1 1 0 0 1 0 0.5 0.29999999999999999 0 1 0.29999999999999999 0 0.5 0.69999999999999996 0 1 0.69999999999999996 0 0.049999999999899652 0 0 0.099999999999814668 0 0 0.14999999999970359 0 0 0.19999999999955789 0 0 0.24999999999941211 0 0 0.29999999999926641 0 0 0.34999999999912063 0 0 0.3999999999989749 0 0 0.44999999999882923 0 0 0.49999999999869432 0 0 0.5499999999988151 0 0 0.59999999999894682 0 0 0.64999999999907843 0 0 0.69999999999921003 0 0 0.74999999999934175 0 0 0.79999999999947335 0 0 0.84999999999960507 0 0 0.89999999999973679 0 0 0.94999999999986839 0 0 1 0.049999999999896842 0 1 0.099999999999753911 0 1 0.14999999999961891 0 1 0.19999999999974799 0 1 0.24999999999987299 0 1 0.34999999999993492 0 1 0.39999999999978308 0 1 0.44999999999963131 0 1 0.49999999999950101 0 1 0.54999999999963112 0 1 0.59999999999973963 0 1 0.64999999999986979 0 1 0.74999999999993494 0 1 0.7999999999998193 0 1 0.84999999999982645 0 1 0.8999999999998336 0 1 0.94999999999997109 0 0.94999999999979179 1 0 0.89999999999958358 1 0 0.84999999999965292 1 0 0.79999999999999982 1 0 0.75000000000034661 1 0 0.7000000000006934 1 0 0.65000000000104008 1 0 0.60000000000138687 1 0 0.55000000000173355 1 0 0.50000000000205869 1 0 0.45000000000187229 1 0 0.40000000000166441 1 0 0.35000000000145642 1 0 0.30000000000124832 1 0 0.25000000000104028 1 0 0.20000000000083221 1 0 0.15000000000062411 1 0 0.10000000000041601 1 0 0.050000000000207989 1 0 0 0.94999999999979179 0 0 0.89999999999958358 0 0 0.84999999999965292 0 0 0.79999999999999982 0 0 0.75000000000034661 0 0 0.7000000000006934 0 0 0.65000000000104008 0 0 0.60000000000138687 0 0 0.55000000000173355 0 0 0.50000000000205869 0 0 0.45000000000187229 0 0 0.40000000000166441 0 0 0.35000000000145642 0 0 0.30000000000124832 0 0 0.25000000000104028 0 0 0.20000000000083221 0 0 0.15000000000062411 0 0 0.10000000000041601 0 0 0.050000000000207989 0 0.54999999999999993 0.29999999999999999 0 0.59999999999999976 0.29999999999999999 0 0.6499999999999998 0.29999999999999999 0 0.69999999999999984 0.29999999999999999 0 0.74999999999999989 0.29999999999999999 0 0.79999999999999982 0.29999999999999999 0 0.84999999999999987 0.29999999999999999 0 0.89999999999999991 0.29999999999999999 0 0.94999999999999996 0.29999999999999999 0 0.54999999999999993 0.69999999999999996 0 0.59999999999999976 0.69999999999999996 0 0.6499999999999998 0.69999999999999996 0 0.69999999999999984 0.69999999999999996 0 0.74999999999999989 0.69999999999999996 0 0.79999999999999982 0.69999999999999996 0 0.84999999999999987 0.69999999999999996 0 0.89999999999999991 0.69999999999999996 0 0.94999999999999996 0.69999999999999996 0 0.28307294598219601 0.50789252727458634 0 0.25676291524611189 0.7436741304886243 0 0.25195515620380449 0.25883339815888678 0 0.57611405284611883 0.50165903596042916 0 0.77846603114747959 0.49850927265137401 0 0.39801143831225599 0.16651381068160659 0 0.39536230704883951 0.84069429572832477 0 0.15720202157091859 0.60665697304410315 0 0.1650278706801647 0.38791388161335733 0 0.43249999999999988 0.43937499999999979 0 0.35864735590330371 0.63903383440414463 0 0.82709327591091286 0.84937141670920724 0 0.61343887413683884 0.856862479058357 0 0.82709327591102189 0.14937141670914489 0 0.6236733212988993 0.14864538214901801 0 0.14474682429600511 0.85524784522713515 0 0.14332333627550789 0.14578431753966009 0 0.36575549820117997 0.31677992835137742 0 0.46666084890304671 0.57634471035397938 0 0.27474541102162192 0.11822029332053539 0 0.27270076654418179 0.87751467830216623 0 0.1215415378367805 0.72939333680004137 0 0.1247745017231483 0.27198077544791172 0 0.6879972333610942 0.43038561374960838 0 0.67323294229744413 0.57556450033612505 0 0.86411095495256451 0.42388805655111889 0 0.86956835336234861 0.571283299838105 0 0.50202631463681879 0.87892870825713787 0 0.51076801031701946 0.1202837388510348 0 0.1216098864341134 0.50637075089503902 0 0.27866744612395528 0.38416094670951489 0 0.7250000000005199 0.89375000000045834 0 0.72500000000001008 0.19776155966387679 0 0.52289427570932567 0.3932284363388488 0 0.40326160981139969 0.73346192995102844 0 0.77354604466818633 0.40378688774472771 0 0.77293540622714185 0.59448302402785813 0 0.57412547362576272 0.58273804879550706 0 0.26573297623774761 0.59828298563722948 0 0.38244435121258652 0.51653317813019495 0 0.72500000000000064 0.7952620967744265 0 0.72525833953073282 0.1032114801687094 0 0.90299850604011456 0.79563452813489832 0 0.90416666666660628 0.9041666666666166 0 0.90299850604006393 0.09563452813493091 0 0.90416666666668166 0.20416666666667119 0 0.54782696902220018 0.79245182748204157 0 0.55306006949600994 0.20198184231352201 0 0.20050006573841939 0.53248514016039872 0 0.33758650185219202 0.23837101504325639 0 0.35312867752657662 0.084946736076730367 0 0.35752321586431363 0.9185439911803448 0 0.42377727103934271 0.25099357235810238 0 0.086179601630648681 0.64647209519980475 0 0.087545339447545459 0.35122518864182262 0 0.083411279318375747 0.91030024466934134 0 0.083411279318303222 0.089699755330707398 0 0.91696753777131557 0.497780560203536 0 0.34258405725730701 0.4444034294386992 0 0.33123028043633618 0.77629643437932982 0 0.2236846579037573 0.67380363126050236 0 0.19901705110390991 0.9175543425573498 0 0.19922788606653311 0.085920220746880993 0 0.19670163708476801 0.31472518408333222 0 0.4656888918609538 0.78493261229743638 0 0.083105206071452636 0.79992298667296435 0 0.083105206071467416 0.20007701332709979 0 0.57724883562309992 0.92155686857100794 0 0.57667858002728545 0.078486105337742612 0 0.49102375406324739 0.49123754822244059 0 0.4409427642593301 0.35743108089689513 0 0.43698630808430822 0.080423614171545449 0 0.4367309254023824 0.92065556789053882 0 0.22278230690790279 0.44824268025881547 0 0.6084546825910605 0.37989672713932537 0 0.43846182030517877 0.64845797726506715 0 0.077693244765132896 0.56932317963405099 0 0.078358742472063481 0.43365249433908948 0 0.6541250972820879 0.49999999999999989 0 0.21858834311891909 0.81980263716112767 0 0.2185883431182947 0.18019736283949719 0 0.31378396441836959 0.70157213313026345 0 0.79680861578988083 0.92656778056766709 0 0.79680861578956375 0.22656778056752541 0 0.65394964615507722 0.22666784374016369 0 0.47357141910802508 0.1873585799078378 0 0.80185942888539485 0.77452061303608133 0 0.64753070846764316 0.77332939069435502 0 0.80185942888501827 0.074520613036224564 0 0.65507451745379841 0.92229208810758578 0 0.29348325746214782 0.31350119524708198 0 0.91750694127107502 0.36982372220068471 0 0.91750694127105259 0.63017627779935648 0 0.65408113592120842 0.073941773121567966 0 0.33122374654748771 0.57588941099433744 0 0.84723782639812573 0.48638347960178252 0 0.50715858906372158 0.63295939104129484 0 0.83573492347052902 0.36590755630746369 0 0.83758014339878906 0.63222013025741819 0 0.6405463747586706 0.63290524857395714 0 0.33084213324567391 0.16272720141332131 0 0.71508799138962864 0.36622814920737751 0 0.71406021706547751 0.63292083137662503 0 0.18269480424590959 0.75905448272264375 0 0.17933913398461551 0.2350063570234002 0 0.4089290844030305 0.58728915500154233 0 0.53245488764484505 0.55078124999999989 0 0.61209567303293111 0.44669033081290321 0 0.7152569930854884 0.5237994455134295 0 0.33403534827021109 0.84402799729020661 0 0.27499999999933927 0.060310814194988557 0 0.27609987656793722 0.94991445621608572 0 0.82862096804812391 0.55037090955459045 0 0.73483647259922602 0.44789725365921768 0 0.049706944316475897 0.72477277076253799 0 0.049706944316556423 0.27522722923869108 0 0.16500388252850301 0.66612077714085194 0 0.62042975506801734 0.54295974692364424 0 0.38083244760691543 0.38531983672244652 0 0.93814194660195893 0.44426664081746747 0 0.93732437411268477 0.55911392101136159 0 0.93677536231884972 0.85000000000000286 0 0.93677536231883773 0.14999999999999089 0 0.52375890611712683 0.059318771819432882 0 0.52122150208832174 0.94089974453840242 0 0.15801167086041079 0.46008690540259539 0 0.14617343800780541 0.93808063414349496 0 0.14618258501891079 0.062070108745602003 0 0.76901770135486491 0.84293557325473656 0 0.77144070960558853 0.14311854477243749 0 0.68697391633157634 0.84450604838764298 0 0.68391457121233579 0.14440470121196541 0 0.26104540868854792 0.81401944968719064 0 0.065374659239661639 0.8551091961254178 0 0.065374659239632718 0.1448908038746782 0 0.55899371797446828 0.85003102233514438 0 0.56202748619534593 0.15054058349222879 0 0.45677673713123867 0.84253684404072415 0 0.85170973911348691 0.93569607295217616 0 0.8517097391133297 0.2356960729520409 0 0.068743045408989428 0.48853989837882689 0 0.22033343844674469 0.36963382230740238 0 0.85491058998424563 0.76004753345552634 0 0.85491058998398861 0.060047533455626502 0 0.26429849586623999 0.19346700179430079 0 0.14934928745814749 0.55042914607228977 0 0.59814117807200873 0.23398510860739519 0 0.49695729691142171 0.25014895411178018 0 0.59636844454254345 0.75937156204589151 0 0.27820712747429932 0.65530134213254643 0 0.44288491854585582 0.14116182884956319 0 0.14223753364722069 0.3341983344262433 0 0.81973119833356312 0.43505687159469048 0 0.43507373378304309 0.49699695397193322 0 0.49077833859261139 0.35229981449445641 0 0.33277555741076909 0.36432196682010132 0 0.13737030665753211 0.20313708640667491 0 0.1382744753146134 0.79650574229207483 0 0.29124338931648802 0.43334555462578611 0 0.94399509803918602 0.75600490196082126 0 0.94399509803922566 0.056004901960802607 0 0.94399509803919068 0.9439950980391687 0 0.94399509803921056 0.24399509803922639 0 0.65481233915350323 0.35652751921065562 0 0.48858720058566618 0.43964267759203868 0 0.7250000000005199 0.94981617647078953 0 0.72500000000000064 0.2498161764706 0 0.88088768115933802 0.84674609810493673 0 0.88088768115941807 0.14674609810479519 0 0.56836770495988642 0.352306235
[...]
<CellData Scalars="region_id,pressure_p0," Vectors="velocity_p0," Tensors="">
<DataArray type="Float64" Name="region_id" format="ascii">
2 2 2 2 2 2 2 2 2 2 3 3 3 3 3 3 3 3 3 3 1 1 1 1 1 1 1 1 1 1 1 1 1 1 1 1 1 1 1 1 1 1 1 1 1 1 1 1 1 1 1 1 1 1 1 1 1 1 1 1 1 1 1 1 1 1 1 1 1 1 1 1 1 1 1 1 1 1 1 1 1 1 1 1 1 1 1 1 1 1 1 1 1 1 1 1 1 1 1 1 1 1 1 1 1 1 1 1 1 1 1 1 1 1 1 1 1 1 1 1 1 1 1 1 1 1 1 1 1 1 1 1 1 1 1 1 1 1 1 1 1 1 1 1 1 1 1 1 1 1 1 1 1 1 1 1 1 1 1 1 1 1 1 1 1 1 1 1 1 1 1 1 1 1 1 1 1 1 1 1 1 1 1 1 1 1 1 1 1 1 1 1 1 1 1 1 1 1 1 1 1 1 1 1 1 1 1 1 1 1 1 1 1 1 1 1 1 1 1 1 1 1 1 1 1 1 1 1 1 1 1 1 1 1 1 1 1 1 1 1 1 1 1 1 1 1 1 1 1 1 1 1 1 1 1 1 1 1 1 1 1 1 1 1 1 1 1 1 1 1 1 1 1 1 1 1 1 1 1 1 1 1 1 1 1 1 1 1 1 1 1 1 1 1 1 1 1 1 1 1 1 1 1 1 1 1 1 1 1 1 1 1 1 1 1 1 1 1 1 1 1 1 1 1 1 1 1 1 1 1 1 1 1 1 1 1 1 1 1 1 1 1 1 1 1 1 1 1 1 1 1 1 1 1 1 1 1 1 1 1 1 1 1 1 1 1 1 1 1 1 1 1 1 1 1 1 1 1 1 1 1 1 1 1 1 1 1 1 1 1 1 1 1 1 1 1 1 1 1 1 1 1 1 1 1 1 1 1 1 1 1 1 1 1 1 1 1 1 1 1 1 1 1 1 1 1 1 1 1 1 1 1 1 1 1 1 1 1 1 1 1 1 1 1 1 1 1 1 1 1 1 1 1 1 1 1 1 1 1 1 1 1 1 1 1 1 1 1 1 1 1 1 1 1 1 1 1 1 1 1 1 1 1 1 1 1 1 1 1 1 1 1 1 1 1 1 1 1 1 1 1 1 1 1 1 1 1 1 1 1 1 1 1 1 1 1 1 1 1 1 1 1 1 1 1 1 1 1 1 1 1 1 1 1 1 1 1 1 1 1 1 1 1 1 1 1 1 1 1 1 1 1 1 1 1 1 1 1 1 1 1 1 1 1 1 1 1 1 1 1 1 1 1 1 1 1 1 1 1 1 1 1 1 1 1 1 1 1 1 1 1 1 1 1 1 1 1 1 1 1 1 1 1 1 1 1 1 1 1 1 1 1 1 1 1 1 1 1 1 1 1 1 1 1 1 1 1 1 1 1 1 1 1 1 1 1 1 1 1 1 1 1 1 1 1 1 1 1 1 1 1 1 1 1 1 1 1 1 1 1 1 1 1 1 1 1 1 1 1 1 1 1 1 1 1 1 1 1 1 1 1 1 1 1 1 1 1 1 1 1 1 1 1 1 1 1 1 1 1 1 1 1 1 1 1 1 1 1 1 1 1 1 1 1 1 1 1 1 1 1 1 1 1 1 1 1 1 1 1 1 1 1 1 1 1 1 1 1 1 1 1 1 1 1 1 1 1 1 1 1 1 1 1 1 1 1 1 1 1 1 1 1 1 1 1 1 1 1 1 1 1 1 1 1 1 1 1 1 1 1 1 1 1 1 1 1 1 1 1 1 1 1 1 1 1 1 1 1 1 1 1 1 1 1 1 1 1 1 1 1 1 1 1 1 1 1 1 1 1 1 1 1 1 1 1 1 1 1 1 1 1 1 1 1 1 1 1 1 1 1 1 1 1 1 1 1 1 1 1 1 1 1 1 1 1 1 1 1 1 1 1 1 1 1 1 1 1 1 1 1 1 1 1 1 1 1 1 1 1 1 1 1 1 1 1 1 1 1 1 1 1 1 1 1 1 1 1 1 1 1 1 1 1 1 1 1 1 1 1 1 1 1 1 1 1 1 1 1 1 1 1 1 1 1 1 1 1 1 1 1 1 1 1 1 1 1 1 1 1 1 1 1 1 1 1 1 1 1 1 1 1 1 1 1 1 1 1 1 1 1 1 1 1 1 1 1 1 1 1 1 1 1 1 1 1 1 1 1 1 1 1 1 1 1 1 1 1 1 1 1 1 1 1 1 1 1 1 1 1 1 1 1 1 1 1 1 1 1 1 1 1 1 1 1 1 1 1 1 1 1 1 1 1 1 1 1 1 1 1 1 1 1 1 1 1 1 1 1 1 1 1 1 1 1 1 1 1 1 1 1 1 1 1 1 
</DataArray>
<DataArray type="Float64" Name="pressure_p0" format="ascii">
0.03188232152158442 0.03466784143986696 0.039935913302953888 0.047799467264779509 0.058634970702767485 0.072999301872038319 0.091619844834471498 0.11546722204993043 0.14570433121746154 0.18435798826265584 0.096146978306970055 0.10028278137513656 0.10798955182213299 0.11920068875609711 0.13414047189447761 0.1531667338023055 0.17674815887304485 0.20548481069437322 0.24003949753846512 0.28155218651260677 0.00099793723337556622 0.00099489762832118372 0.01265376489652641 0.0099264888664103469 6.3641003581092653e-05 4.389476524640453e-05 5.5337276351987412e-05 3.8730989506226241e-05 8.7262915039945662e-05 0.00017991477269952506 8.707579946041035e-05 0.00013142508307051413 4.3279954090031118e-05 9.9043269237599653e-06 8.2057621709884384e-06 0.02460909614321586 0.024702931268052137 0.023647850844356715 0.02361682004425841 0.038353347597907844 0.014502911741076457 0.021657889897034606 0.02182433048301247 3.6409251734321136e-05 0.020732780176306208 0.0012719098484106051 0.00046860028329099532 0.027435911482187516 0.0033353036097607462 0.00062015559117909467 0.0053475829697152855 0.012507598570831509 0.017387694988648682 0.013861618653465503 0.013370738229945818 0.00048493658031087232 0.013157191871119796 0.0024601714610868186 0.074980660676412902 0.076203553434587915 0.11903091416951433 0.0062049023940666057 0.10099000506841517 0.0052782999675752371 1.4273127658065371e-05 1.2535822480155781e-05 0.0072349581755862952 0.012769074990489755 0.049212095582365174 0.0048660515204227714 0.072568700210337456 0.025602153415229249 0.0038606513893465351 0.0071142454833756762 0.038219213711072064 0.0022701154334957797 0.0027179510542382724 0.13291089615067869 0.1180365043527426 0.0044596213289773007 0.028444296018833689 0.014982139412928159 0.021761535114242923 0.027668218520770525 0.0058878920068559165 2.1826635847875556e-05 3.026070261676217e-05 0.057759407152727288 0.089873272432307916 2.9614205790808529e-05 2.1781911044756037e-05 5.5900387954460864e-05 5.407400908173795e-05 8.264942417036676e-05 0.010423710990236233 0.0078123529390718418 0.16468872922175576 0.003134824618773532 0.0089202293821499176 0.02688279141287718 0.010044628687060495 1.5118535178530761e-05 1.1086761043449904e-05 6.6634496783073404e-05 0.037878465651796402 0.012310437959483844 0.008002384293624501 3.0253919189700259e-05 0.00022139555241454563 0.031111728878514044 3.7296972664205685e-05 2.6572119497467195e-05 2.3300362574098163e-05 0.035848696247828597 0.0083014150664256388 0.033547605940037348 0.0096787946500441358 0.19662593335664688 0.0026220947982087293 0.0023990511405605182 0.17637468323919719 0.0054735874181736678 3.7033788010775009e-05 3.163948290334745e-05 0.057321962904217247 0.061270378520952941 0.010788050200233271 0.044437413926398613 0.029498089405180866 0.0040640349745248178 0.0041738751415053626 0.10039431103867455 0.00010146552954569923 0.00022401687895766929 0.016908028377659333 0.024293589611663315 0.013875166593433332 0.0099255927474736997 0.031834651423981813 0.018066993361514707 0.051007263584789124 0.011100636080840161 0.0079534323421159223 0.011724161822076386 0.018687465146900617 0.015570649039203828 0.01274715390692838 0.0015398993381868786 0.0011162266682676011 0.0017340996324762357 0.023238499167491915 0.0029956333263994753 0.00025915202308751829 0.00034026421456465354 0.00092684613993387693 0.00070137447408315581 0.013562188679777737 0.00057485780305764655 0.034115112560758998 0.0032315708259137068 0.00026818369107562497 0.0075715632091381737 0.031335581779299557 0.011937915202446324 0.023680024410949949 0.01301647961555831 1.6749107231351899e-05 1.398153080552667e-05 0.0094732273732764365 0.00021329585843006448 0.002677837621116752 2.8743748142808534e-05 2.5923150516774163e-05 2.2965741979269025e-05 2.4579676315154633e-05 0.0013833263362969437 0.00039667248392161463 0.00013321256878928069 0.0003208127653430073 0.0010245820869200118 0.00015969256931562577 0.00020469555095234859 1.4480145235124544e-05 1.072279437649582e-05 0.063266725028089221 5.8201207050505532e-05 0.0058628884001958384 0.019566125392806451 7.8816868281918342e-05 0.00015453370218977355 0.012974135490898119 9.130125116270897e-05 0.00033719819251269728 0.00010725970673179533 6.682737424498704e-05 0.00013511667033912621 0.0011062617060459781 0.014819035747310588 0.063986900604886973 0.0041534676564685662 2.436336467277462e-05 2.0661489361624517e-05 1.9075975844907782e-05 1.5293430437150716e-05 0.0092102689123057854 0.011245309305177333 0.012667284019063054 0.016756668831591277 0.0064402611773045765 0.0040736718253650619 4.6909391127867359e-05 0.0092152733404436658 0.0067872733059277223 0.048835670054230396 0.019030000508207887 5.103211064639524e-05 0.0055005884732351211 5.1473999065742462e-05 7.7312540050586493e-05 0.018106055149151014 3.8901313757035888e-05 5.5365609386768168e-05 0.001196103874526785 0.00043154346019942007 0.018189703319510045 0.030373902303991118 0.0054220895300987606 0.0045791116844904178 0.020532741600780446 0.020245551586800546 6.3922997850368471e-05 0.001043463774275032 0.031015776935926387 0.0021068512479353136 0.010000870940250501 0.028131331833286737 0.00016048620132771377 0.017060702420877476 0.00013599429887564495 0.0002148451659607861 0.00029135545533772415 0.0040999775228683548 0.00013124603831636441 0.022903904013644592 0.02101585442540501 0.01247701681410998 0.0063635089221628603 0.0054750599503230902 0.0059931224336348399 7.2909820279587933e-06 6.6863091183461257e-06 7.7831605973991181e-05 0.0099981085889625024 0.00015501398214517551 1.2238363440664463e-05 9.3678649825008399e-05 5.8689212406725448e-05 0.0007813850227695742 2.8002051470782552e-05 0.028029547447219992 0.00073240790760575533 0.025541734087118056 4.2333127719423514e-05 0.016497334001542102 0.023434596569585551 2.8285584069568824e-05 0.0012489725830750148 0.049623626627728262 0.016926580442514855 0.010191271130100999 0.030105571942276876 0.0017036756239776185 0.0011279132537256606 0.0010257369107476977 0.002845010874260119 0.0031710059564652032 3.1885320790880049e-05 0.079782057692629166 5.2011288689473044e-05 3.7272340437309777e-05 0.004135589440292492 4.2466630910501403e-05 6.4111362006144702e-05 0.00024838256199274819 0.00022216603114209226 0.064515731916296712 0.0053543114751347064 0.055711144451639147 0.036724020047417726 0.00013000956200981943 0.078485203763410977 0.14236970109962027 0.046959179629340583 0.00067304899107688406 0.022882576194003128 0.00052571071455478804 0.00014537304569917602 0.0025204759376038707 0.0042808475535774052 0.00012960515517060274 0.0011601832049543276 9.6384216054919727e-05 0.00017503637879522907 0.00086579895151401459 0.002306018788224513 2.660171613023835e-05 1.9911530051154647e-05 7.3673024984577325e-05 0.00015208543253830584 5.8037881250096639e-05 0.009671364647347705 6.1775238291782367e-05 0.010099786254229524 0.034814056925449088 5.4700095269119546e-05 9.6641364761150929e-05 3.9801137531670928e-05 0.008496681983163494 0.0026968939359240246 0.048101961259625445 0.0037132519728130696 0.0025454501882052616 9.6571171828619293e-05 5.8973490708967701e-05 0.00067872494090436344 3.338114541287377e-05 0.013965807503052853 0.00010078644750161325 6.0930008302571942e-05 0.00083722624611897486 0.0083654757435662128 0.02498407459982574 0.000551630181460113 0.00068923153216638529 0.0015657854227363898 0.0021855326027205345 3.8872860362165222e-05 4.8972862197425914e-05 3.4812540679590155e-05 2.9124108189146492e-05 0.01595472246568188 0.0013591844053469251 0.00024786661276554026 0.031871057589095669 0.0048706005889260894 0.026395942998755591 0.00077273587771541216 0.0013471841693424823 0.01153941141949236 0.013163055991354733 5.6884593486538457e-05 4.0157501700034281e-05 0.0088861800499994009 0.099461326145736703 0.17510382207508418 0.00063536732463612404 0.00055163038864397486 0.018068815468516797 0.016537290699009846 0.018039325922227956 0.0073876848202750894 0.051401428653179107 0.063503496284482125 0.10140596786251847 0.043283174770027646 0.0086808398330451876 4.1783873404562442e-05 5.7047406239256865e-05 0.046223215099302301 0.0051065174398891872 4.0788642667734069e-05 3.0216582034825968e-05 0.02816636278015109 4.8022723630977861e-05 3.4455335649997903e-05 0.0042953494094016293 0.066074845381353969 0.0063342905835915234 0.0036481670036854113 0.0031451132901346669 0.025688666441194621 0.0081099709284951377 0.0054697058687523097 0.0019412900763283775 0.011626179966550867 0.058583186186668329 0.10535272145283164 0.0037338262040111148 0.0056203174795406603 0.0024836352972904228 0.0064554967077813732 0.091782872280219696 0.0041758711804557036 0.0017026791230846318 0.043684609418264873 0.016211920361682661 0.00094099803529798694 4.162764516996098e-05 0.00076734719733672404 8.7389238625190652e-05 0.00017536051670114417 0.0017724902077502795 0.0018951244911117496 1.7870031609880407e-05 0.00039086485559601525 0.013522095759496287 0.0022155512763476146 0.00010543040300324266 2.5146506292506308e-05 0.00052535491056355328 0.015031388358866277 0.035059093561709435 0.00027018409392165759 0.12670023213430601 0.0023234510376075662 8.476871768698757e-05 0.00011518333435405724 0.0053401306273872986 0.044110699144133195 0.00012340356119123363 0.00017857235447245635 6.7897240132066471e-05 6.7550035119767678e-05 0.0009119534988624267 0.0015444218722851528 6.1112546619742004e-05 0.037655460104023056 0.020400533555370665 0.015728714104675814 0.0001322479573224653 1.1175247118992347e-05 0.0021413476313271403 0.026224364252005146 0.0098905121827890831 5.1954007913477908e-05 0.0013159464930801224 0.0014619549664735385 5.547818008714694e-06 0.0036358921444732606 0.0032985610640126253 0.05498316978886917 0.092704775575243786 0.0013745021953793328 0.018819613888536889 0.01437841207371271 0.00014823933850781747 0.0032108392397495202 0.069341584466723824 0.00011599426833052692 0.030374443475342433 0.010411765653145872 5.7232481209690696e-05 0.004690362272382698 0.086808704152870439 0.0028431990070506537 0.00011428140832548155 0.00026455993728672841 0.012208492415490949 0.00010159457868878547 0.12287702559891757 0.14979486011323953 0.23178097488155774 0.18991613443900437 0.041202744006230391 0.068716702398392088 0.13400703386876048 0.061244134605754105 0.085876001290752429 0.080520427132842659 0.010426428443851747 0.0062536102587712021 0.049276916992783686 6.5625130530525227e-05 0.10288029900819282 0.00445788205429369 0.002768951599999076 0.007551828241631104 0.061677465689372532 0.018324739233043154 0.0095434750945252653 0.0074139538125044709 0.00025850364776757806 0.015881005428182434 0.00090311985208164805 0.003662945309791105 0.0021938424653033931 0.00049531632074608354 0.014893273843504407 0.018759662473753772 0.00089220285502766524 0.00032386539708197933 8.050783738735639e-06 6.9852113708832682e-06 0.00096073050484037916 0.00068746623788122239 0.00037373263846438075 8.2569280020729208e-05 5.2817957742908926e-05 0.050336671361276016 7.3520269404412679e-05 4.8848629288045884e-05 0.020563771458956819 0.033812411384461429 0.0003199165290513656 0.038450473525402651 1.0373232151993935e-05 8.2735995433566606e-06 7.1342693351870664e-05 0.00013034816778981909 0.0016341130779878627 0.028026713067202967 0.0021696780970666754 0.00035369395406794772 0.00047342997684943894 0.0021624445553675284 0.0017144665889885801 0.036204740366984595 0.028362185649142141 0.0061507152496113691 0.010051529501327681 6.1989797300326894e-05 0.00010207185785833648 0.025504739951742732 0.0049336498510217123 0.00010058317538265406 5.7879849452011904e-05 4.0751766687631625e-05 4.5246257926765212e-05 0.0017731158600105231 0.060958172372709257 5.1606916186794888e-05 0.0031403790184393412 0.044942697671713536 0.036323026650512354 0.0045942705453129217 0.031253250424079032 0.0003196679811462383 0.0022489085862330161 0.18249904557471835 0.003030496536362269 0.11568924782888236 0.005036352916780896 0.00032322130541154718 0.00023772962228263159 0.00062660376031863411 0.00037389867897959797 0.00026539775993628372 0.0007627821637084417 0.00029496870822182309 0.0040944177502403485 4.7082795318636816e-05 4.1544918074230293e-05 6.0377314639749267e-05 7.1950895025231122e-05 0.0018818720964975536 0.0024713908882405882 3.0331975527221169e-05 3.2765130335311732e-05 2.5297259201887407e-05 2.3455540043222941e-05 0.0327819988796395 0.007799200545508183 4.9726321335065833e-05 8.4519779269676506e-05 0.0007158384176464464 5.2181798327025316e-05 8.5254031808576681e-05 0.015210672049160216 0.00029713139792261712 1.0672174807558342e-05 8.2246648160651509e-06 0.0036771113366067349 0.02059034444458124 0.00041602873773577116 0.020501244431881442 0.00031392677003178136 0.00066547621293372818 5.9617040232506788e-05 4.160102441063545e-05 0.0036415331374031468 0.00022172458046119741 0.00033571975722894226 0.00030355351660755071 0.0027114777241977876 0.0017589672269700042 0.0050523088245896398 0.00065698857330930558 0.00021064622793040853 0.018732766044118936 0.011018098766360656 0.000296861923514849 0.0030386870046131258 0.061926067908575522 0.040601424104931963 0.0012087917261760076 0.069737335228833908 0.00015130734984571592 0.0003815148283584669 0.00018797761914478268 0.00049796112766321973 3.4304965829749391e-05 4.8161156344458351e-05 0.0015308027347796355 0.002273303142537866 0.060933802821419303 0.12660999806538023 0.077632007101827397 0.11053887954830159 0.047196146974685049 0.00042561451083273987 0.0017735823758336568 0.0026978290206993534 0.00073657962455101812 0.0022218414751207275 0.0025142604615204633 0.011141164718175492 0.0089822022629714934 0.034475831953663098 0.00047309471386204318 0.00018075974473811583 0.0021467409019619672 0.0051086470826124759 0.005415046977015987 0.022901419798908008 0.020745184351029965 0.078349700172592115 0.0034741478097172832 3.9919731972964319e-05 5.8393410541606171e-05 0.012594681699048109 0.011078449620788796 0.010362299866156142 0.0079246428798828983 0.010582611771614568 0.014615548544431659 1.5388483927628939e-05 1.9794104846034273e-05 0.00056249440886421362 0.0015231126883011002 0.0001350384688137731 0.00010490773473010643 0.035888486120740574 0.00013532458191164588 0.00016286704612354419 4.7449846400085828e-05 0.10118790935959207 0.00021833981577915507 0.00058422986910862591 0.02173568257771049 0.00010013596406909618 0.00012577446850397519 0.022914110941295727 0.00011583114475903895 6.6464432452365902e-05 0.011332719871522744 0.010794816928955023 0.00043135209346160019 0.00082074307483751192 0.00029847370037432662 0.017750162659630635 0.00022873259178976215 0.0001685888431312726 0.093471569976263713 0.0011678599720731789 0.00038753692726148749 0.00015359409720950291 0.0027111485358659372 9.5433368411366944e-05 0.00010734710156679251 0.0034426506091463781 0.0016058670092146451 0.018364350073244041 0.15252038884873298 0.0018779817789582472 0.0021644120447599294 0.0042399584466721076 0.0011443326995607347 0.0034721560397258902 0.058760227014814495 9.6214312887109963e-05 0.0053931274145746213 0.00014285614285793302 0.033754791139410399 7.1786001804568221e-05 0.0009477839423059518 7.9948801269170535e-05 7.1356516578211372e-05 0.0053990958522276214 3.3508884281201769e-05 4.0990415271877146e-05 3.0932727232544205e-05 2.6218808251595784e-05 0.00090905857623610736 0.0070421138191649555 0.0061717104478939714 0.041901195230571946 0.0046989153174438409 0.081020870373306048 0.034739224555620743 0.00022913582011765965 0.00061409526065675155 0.055653382130956219 0.093470985667425635 0.00047790927899175255 1.5493010252925867e-05 0.00034245035924804017 0.00018513443266445252 0.023277572754847507 5.1585806765290913e-05 4.6981716123581634e-05 6.8747292419474225e-05 7.7647762831487807e-05 0.0005776568122973023 0.015704074230788352 0.031786475056585335 0.026167895986588301 7.3481078791568156e-05 0.0011151542214998846 8.6723004289081395e-05 0.058069822348133501 1.0492081664784405e-05 0.0093562675861557868 0.047666510119753584 0.001498838574999691 1.9581690376403514e-05 2.6444609048859709e-05 3.4893148677587392e-05 0.00015894931126102788 0.00028884456540976292 0.00079840464121537415 0.078395770392046538 0.0022198472131971197 0.083429412872985775 0.0018267571354726687 0.061081518859286615 7.7196517414700262e-05 1.8889685053899697e-05 0.00010805648892539389 0.011260449322523257 0.01714382169949661 0.0029955193789148451 0.0028950997893749815 0.048736094051165288 0.057509237166488786 0.041452091843560628 0.042732586111582309 4.2572343725453031e-06 0.094579236369118247 0.070990595533031858 0.0011508892024064341 0.00071886965506879111 0.0018381381126287484 0.0010933679378716541 0.0015227619264035015 4.9948243606145283e-05 1.7264518773322182e-05 0.00011676139131567079 6.6272687326425001e-05 7.3429406231702836e-05 0.10439352671566149 0.0016178270448230306 1.1231098126864491e-05 0.00028241788796893599 0.0027172465238874564 0.00047942889658892756 0.0027730322188194434 0.0008606836156543451 0.0065377814032747169 0.0004753510348712612 0.0013102072298058884 0.022201302522698495 0.027533405555364997 9.5600457443397173e-05 8.5634132627606787e-05 0.00041939696239514057 0.00011142496143286867 0.00019981644751147445 0.021499912564038638 0.0074286489656260985 4.6306883997633981e-06 0.085128868521619869 0.0088595455712820615 0.001669990873744173 0.0066922034822384539 0.0061185043484758674 0.00017791169458338777 8.4977871489246731e-05 0.0023259954173128665 0.0028869162211747697 0.0083278380917518168 0.0085812531859647562 0.00034153706732178806 0.00096010649882700711 0.00443410905340327 0.042589921026018621 0.023359128906761738 0.0013894281807152738 0.00015436160360788974 0.00016500426788274236 0.00076600755638391851 0.0049849358043837309 0.00025844835195493627 0.0041675385360610516 4.7729589333927691e-06 0.027984273290951732 0.0001333292530411828 0.00032336188