<?xml version="1.0"?>
<VTKFile type="UnstructuredGrid" version="0.1" byte_order="LittleEndian">
<UnstructuredGrid>
<Piece NumberOfPoints="558" NumberOfCells="1054">
<Points>
<DataArray type="Float64" NumberOfComponents="3" format="ascii">
0.02576622439977887 0.024532886826226379 0 0 0 0 0.049999999999899652 0 0 0.053064897599215843 0.048131547304697528 0 0 0.050000000000207989 0 0 0.10000000000041601 0 0.044310582753132287 0.101412518374475 0 0.083411279318303222 0.089699755330707398 0 0.12372429750337779 0.095814237875728972 0 0.10266856499169109 0.044518360900210059 0 0.099999999999814668 0 0 0.044081577119474857 0.2271058242433576 0 0 0.20000000000083221 0 0.038512288486115001 0.1844147282893184 0 0 0.15000000000062411 0 0.065374659239632718 0.1448908038746782 0 0.1053400320299198 0.12877248826361379 0 0.106902708054812 0.16453234188234539 0 0.083105206071467416 0.20007701332709979 0 0.095326043202144745 0.24554465089224409 0 0.17933913398461551 0.2350063570234002 0 0.14377654328998779 0.2442024734791064 0 0.13737030665753211 0.20313708640667491 0 0.18124454140915969 0.18790916706335251 0 0.14332333627550789 0.14578431753966009 0 0.18652628422869419 0.14162325200928061 0 0.22985637510995899 0.1298347970200906 0 0.2185883431182947 0.18019736283949719 0 0.224700362040408 0.22206622194729711 0 0.184418230509967 0.038773194583122873 0 0.14999999999970359 0 0 0.14618258501891079 0.062070108745602003 0 0.16141998738593399 0.10404039647458049 0 0.19922788606653311 0.085920220746880993 0 0.24218496799700481 0.089025544070598317 0 0.22668068146512929 0.045875643423131329 0 0.19999999999955789 0 0 0.24999999999941211 0 0 0.27499999999933927 0.060310814194988557 0 0.29999999999926641 0 0 0.32541448401678508 0.046215317981507749 0 0.3615861437013822 0.03582617922508851 0 0.34999999999912063 0 0 0.35312867752657662 0.084946736076730367 0 0.32215584939770009 0.1218492143506909 0 0.3096713403101819 0.085471541595262421 0 0.27474541102162192 0.11822029332053539 0 0.25557216766470708 0.15874861286892261 0 0.29336099386129338 0.15892013001050981 0 0.28040350263641872 0.23054717217092141 0 0.26429849586623999 0.19346700179430079 0 0.33758650185219202 0.23837101504325639 0 0.31255190597181792 0.19850845631528771 0 0.33084213324567391 0.16272720141332131 0 0.3572130504031617 0.1874703368446563 0 0.36246644853392812 0.1399454205365751 0 0.39801143831225599 0.16651381068160659 0 0.38831533174504851 0.2189834941785925 0 0.42905200079338551 0.19982395548231649 0 0.46429753744194407 0.22870891180733599 0 0.44288491854585582 0.14116182884956319 0 0.47357141910802508 0.1873585799078378 0 0.48466639505193998 0.1421439844745814 0 0.47881186583059909 0.093591717165689425 0 0.47040171442036788 0.044141676406503738 0 0.49999999999869432 0 0 0.44999999999882923 0 0 0.4320097814748517 0.037406712692169303 0 0.3999999999989749 0 0 0.39591832466117061 0.056982757562006353 0 0.39823268594401579 0.1116623613130045 0 0.43698630808430822 0.080423614171545449 0 0.42161023666869668 0.39493916313643851 0 0.38083244760691543 0.38531983672244652 0 0.38707855792647411 0.42299362914874578 0 0.3908716102680424 0.47010282357248828 0 0.43507373378304309 0.49699695397193322 0 0.43249999999999988 0.43937499999999979 0 0.46111841286828259 0.46690301029591341 0 0.49102375406324739 0.49123754822244059 0 0.48858720058566618 0.43964267759203868 0 0.46655310992796922 0.39650496622958609 0 0.49077833859261139 0.35229981449445641 0 0.46226845272279993 0.31901800744800313 0 0.4409427642593301 0.35743108089689513 0 0.49695729691142171 0.25014895411178018 0 0.4604742573284204 0.27846934318264788 0 0.42377727103934271 0.25099357235810238 0 0.41914690343363781 0.30688979866601612 0 0.3786248352540974 0.27082301512024259 0 0.40076539126862748 0.34589349467022118 0 0.36575549820117997 0.31677992835137742 0 0.32752639306529541 0.32610012995269699 0 0.33277555741076909 0.36432196682010132 0 0.33402499257867951 0.28911035184473982 0 0.29132859388405002 0.27203693976649962 0 0.25195515620380449 0.25883339815888678 0 0.29644548887253103 0.34914008784168082 0 0.29348325746214782 0.31350119524708198 0 0.25966125648670141 0.34351016742083729 0 0.27866744612395528 0.38416094670951489 0 0.29124338931648802 0.43334555462578611 0 0.31778888742534622 0.40581751814196781 0 0.35221190152536241 0.40457127605439203 0 0.35024835142131061 0.48654922671676981 0 0.34258405725730701 0.4444034294386992 0 0.31068898841644388 0.47541502461811092 0 0.25982634974572738 0.46097799597715272 0 0.23975172658309729 0.49475499200540818 0 0.19604738184454831 0.47787523520405789 0 0.22278230690790279 0.44824268025881547 0 0.24049127783545701 0.41270748208749802 0 0.191953871957803 0.42546416763755879 0 0.1650278706801647 0.38791388161335733 0 0.13773355295499351 0.42497777642586831 0 0.15801167086041079 0.46008690540259539 0 0.21049769590865089 0.26857363548218488 0 0.24432083401701241 0.3006253385567515 0 0.19670163708476801 0.31472518408333222 0 0.22615676742807109 0.33458786033114157 0 0.22033343844674469 0.36963382230740238 0 0.18434624290945251 0.35208838264196463 0 0.14223753364722069 0.3341983344262433 0 0.168349569971391 0.28054490850913671 0 0.1247745017231483 0.27198077544791172 0 0.093851963071650835 0.30582068233324772 0 0.087545339447545459 0.35122518864182262 0 0 0.35000000000145642 0 0.046389130980076937 0.32668781832131749 0 0 0.30000000000124832 0 0 0.25000000000104028 0 0.049706944316556423 0.27522722923869108 0 0.068743045408989428 0.48853989837882689 0 0.113541300460994 0.46208784312094731 0 0.1117088112799664 0.38831403004970022 0 0.078358742472063481 0.43365249433908948 0 0.035463093262830522 0.42673416072819947 0 0.050583896093752537 0.38543522283434112 0 0 0.40000000000166441 0 0 0.45000000000187229 0 0.033550201249889847 0.46247875832467239 0 0 0.50000000000205869 0 0 0.55000000000173355 0 0.044576108720083309 0.53509043209532614 0 0.085622222639554768 0.53333248912060549 0 0.1216098864341134 0.50637075089503902 0 0.1024350934457823 0.60772393977513839 0 0.1154888278694548 0.56733818459978413 0 0.077693244765132896 0.56932317963405099 0 0.050069554451969707 0.61308520079857043 0 0.034381862692950467 0.57372682250960894 0 0 0.60000000000138687 0 0 0.65000000000104008 0 0.046634677244967337 0.671418230738282 0 0 0.7000000000006934 0 0.049706944316475897 0.72477277076253799 0 0.1020579365089687 0.69352219419301997 0 0.1215415378367805 0.72939333680004137 0 0.086179601630648681 0.64647209519980475 0 0.1241190223511371 0.64391885572885044 0 0.16500388252850301 0.66612077714085194 0 0.15332765547575641 0.71200081858233666 0 0.19068556247388771 0.71028988922845504 0 0.2248999640082178 0.72584299459689172 0 0.2236846579037573 0.67380363126050236 0 0.2459498854893499 0.63248470766216769 0 0.19914261668318661 0.62286739485272158 0 0.22549374774072969 0.58452645269293457 0 0.20050006573841939 0.53248514016039872 0 0.16618607197337229 0.50652878253548905 0 0.14934928745814749 0.55042914607228977 0 0.15720202157091859 0.60665697304410315 0 0.18381867841758909 0.57774125163628387 0 0.10000000000041601 1 0 0.10266856499240549 0.95548163909968886 0 0.050000000000207989 1 0 0 1 0 0.025766224399875661 0.97546711317377799 0 0 0.94999999999979179 0 0.053064897599294662 0.95186845269532028 0 0 0.89999999999958358 0 0.0443105827531413 0.89858748162559932 0 0.083411279318375747 0.91030024466934134 0 0.1241151115713819 0.9045666525468371 0 0.10562472963403439 0.87143394428979881 0 0.1074251789111534 0.83564394292147814 0 0.065374659239661639 0.8551091961254178 0 0 0.84999999999965292 0 0.038512288486097702 0.8155852717111195 0 0 0.79999999999999982 0 0 0.75000000000034661 0 0.04408157711937423 0.7728941757575627 0 0.090953281884486245 0.7564451946902494 0 0.083105206071452636 0.79992298667296435 0 0.14335651144331049 0.75565258250209677 0 0.1382744753146134 0.79650574229207483 0 0.18269480424590959 0.75905448272264375 0 0.22556077506376701 0.77837424984191617 0 0.21858834311891909 0.81980263716112767 0 0.2401283238295133 0.85648409884788523 0 0.19741632902693801 0.86755867406447229 0 0.17777405986036951 0.81832336108265358 0 0.14474682429600511 0.85524784522713515 0 0.16206583317966519 0.89685560785156404 0 0.24536017905392571 0.90704567837671446 0 0.19901705110390991 0.9175543425573498 0 0.22850979588452081 0.95594428570238643 0 0.20000000000083221 1 0 0.18474005699953849 0.96231585248064622 0 0.14617343800780541 0.93808063414349496 0 0.15000000000062411 1 0 0.35000000000145642 1 0 0.36184234618600131 0.96443954459096326 0 0.32544832635163229 0.95485394099568932 0 0.30000000000124832 1 0 0.25000000000104028 1 0 0.27609987656793722 0.94991445621608572 0 0.27270076654418179 0.87751467830216623 0 0.30864387279288652 0.89906554525974958 0 0.35752321586431363 0.9185439911803448 0 0.35864759629805099 0.87963482415279515 0 0.33403534827021109 0.84402799729020661 0 0.29209212897034281 0.84715728365233667 0 0.26104540868854792 0.81401944968719064 0 0.30857225866488791 0.81101973481716805 0 0.2792923945214143 0.77665808831789485 0 0.33123028043633618 0.77629643437932982 0 0.35642984951668422 0.80994399665655703 0 0.38586766253264881 0.78219501014812498 0 0.42609163930740518 0.80361684430568059 0 0.42676259796334498 0.76772545931379299 0 0.4656888918609538 0.78493261229743638 0 0.45677673713123867 0.84253684404072415 0 0.39536230704883951 0.84069429572832477 0 0.39767323751400468 0.89584229130535065 0 0.4367309254023824 0.92065556789053882 0 0.44003836461056539 0.88093474584252718 0 0.47401147028110507 0.91529957330468115 0 0.47135117303824892 0.95556877749289892 0 0.45000000000187229 1 0 0.4308986359464303 0.96395712492906194 0 0.39641108128798319 0.94356127926187128 0 0.40000000000166441 1 0 0.33122374654748771 0.57588941099433744 0 0.31502927232353312 0.6134992213375432 0 0.35765792684946668 0.6000687869219653 0 0.37272913873093971 0.56192925302619479 0 0.33190227185843768 0.52715113583864037 0 0.28307294598219601 0.50789252727458634 0 0.25115337790845271 0.54719303014923271 0 0.29110487519241501 0.56588143995431
[...]
<CellData Scalars="region_id,pressure_p0," Vectors="velocity_p0," Tensors="">
<DataArray type="Float64" Name="region_id" format="ascii">
1 1 1 1 1 1 1 1 1 1 1 1 1 1 1 1 1 1 1 1 1 1 1 1 1 1 1 1 1 1 1 1 1 1 1 1 1 1 1 1 1 1 1 1 1 1 1 1 1 1 1 1 1 1 1 1 1 1 1 1 1 1 1 1 1 1 1 1 1 1 1 1 1 1 1 1 1 1 1 1 1 1 1 1 1 1 1 1 1 1 1 1 1 1 1 1 1 1 1 1 1 1 1 1 1 1 1 1 1 1 1 1 1 1 1 1 1 1 1 1 1 1 1 1 1 1 1 1 1 1 1 1 1 1 1 1 1 1 1 1 1 1 1 1 1 1 1 1 1 1 1 1 1 1 1 1 1 1 1 1 1 1 1 1 1 1 1 1 1 1 1 1 1 1 1 1 1 1 1 1 1 1 1 1 1 1 1 1 1 1 1 1 1 1 1 1 1 1 1 1 1 1 1 1 1 1 1 1 1 1 1 1 1 1 1 1 1 1 1 1 1 1 1 1 1 1 1 1 1 1 1 1 1 1 1 1 1 1 1 1 1 1 1 1 1 1 1 1 1 1 1 1 1 1 1 1 1 1 1 1 1 1 1 1 1 1 1 1 1 1 1 1 1 1 1 1 1 1 1 1 1 1 1 1 1 1 1 1 1 1 1 1 1 1 1 1 1 1 1 1 1 1 1 1 1 1 1 1 1 1 1 1 1 1 1 1 1 1 1 1 1 1 1 1 1 1 1 1 1 1 1 1 1 1 1 1 1 1 1 1 1 1 1 1 1 1 1 1 1 1 1 1 1 1 1 1 1 1 1 1 1 1 1 1 1 1 1 1 1 1 1 1 1 1 1 1 1 1 1 1 1 1 1 1 1 1 1 1 1 1 1 1 1 1 1 1 1 1 1 1 1 1 1 1 1 1 1 1 1 1 1 1 1 1 1 1 1 1 1 1 1 1 1 1 1 1 1 1 1 1 1 1 1 1 1 1 1 1 1 1 1 1 1 1 1 1 1 1 1 1 1 1 1 1 1 1 1 1 1 1 1 1 1 1 1 1 1 1 1 1 1 1 1 1 1 1 1 1 1 1 1 1 1 1 1 1 1 1 1 1 1 1 1 1 1 1 1 1 1 1 1 1 1 1 1 1 1 1 1 1 1 1 1 1 1 1 1 1 1 1 1 1 1 1 1 1 1 1 1 1 1 1 1 1 1 1 1 1 3 1 1 3 1 1 3 1 1 1 1 1 1 1 1 1 1 1 1 1 3 1 1 1 1 1 3 1 1 1 1 1 1 1 1 1 1 1 1 1 1 1 1 1 1 1 1 1 1 1 1 1 1 1 1 1 1 1 1 1 1 1 1 1 1 1 1 1 1 1 1 1 1 1 1 1 1 1 1 1 1 1 1 1 1 1 1 1 1 1 1 1 1 1 1 1 1 1 1 1 1 1 1 1 1 1 1 1 1 1 1 1 1 1 1 1 1 1 1 1 1 1 1 1 1 1 1 1 1 1 1 1 1 1 1 1 1 1 1 1 1 1 1 1 1 1 1 1 1 1 1 1 1 1 1 1 1 1 1 1 1 1 1 1 1 1 1 1 1 1 1 1 1 1 1 1 1 1 1 1 1 1 1 1 1 1 1 1 1 1 1 1 1 1 1 3 1 1 1 3 1 1 3 1 1 1 1 1 1 1 1 1 1 1 3 1 1 1 1 3 1 1 1 1 1 1 1 1 1 1 1 1 1 1 1 1 1 1 1 1 1 1 1 1 1 1 1 1 1 1 1 1 1 1 1 1 1 1 1 1 1 1 1 1 1 1 1 1 1 1 1 1 1 1 1 1 1 1 2 1 1 1 1 1 1 1 1 1 1 1 1 1 1 2 1 1 2 1 2 1 1 1 1 1 1 1 1 1 1 1 1 1 2 1 1 1 1 1 1 1 1 1 1 1 1 1 1 1 1 1 1 1 1 1 1 1 1 1 1 1 1 1 1 1 1 1 1 1 1 1 1 1 1 1 1 1 1 1 1 1 1 1 1 1 1 1 1 1 1 1 1 1 1 1 1 1 1 1 1 1 1 1 1 1 1 1 1 1 1 1 1 1 1 1 1 1 1 1 1 1 1 1 1 1 1 1 1 1 1 1 1 1 1 1 1 1 1 1 1 1 1 1 1 1 1 1 1 1 1 1 1 1 1 1 1 1 1 1 1 1 1 1 1 1 1 1 1 1 1 2 1 1 2 1 2 1 1 1 1 1 1 1 1 1 1 1 1 1 1 1 1 1 1 1 1 1 1 1 1 1 1 1 1 1 1 1 1 1 1 1 1 1 1 1 1 1 1 1 1 1 1 1 2 1 1 1 1 1 2 1 1 1 1 1 1 1 
</DataArray>
<DataArray type="Float64" Name="pressure_p0" format="ascii">
1.3061884417524582e-05 5.5203917008506266e-06 1.8446230088168603e-05 1.3232856417071151e-05 7.9276771128588994e-06 7.5986612196942119e-06 2.004723927019544e-05 1.43483175970397e-05 1.948336761423511e-05 2.1043700044480709e-05 2.3075900607403542e-05 2.2808432114190871e-05 2.5606688374977414e-05 2.4265346760663642e-05 2.6606556681848536e-05 2.2418790139358481e-05 2.4167792493267178e-05 2.3018715919950735e-05 5.0235781147336928e-06 9.2887190281766052e-06 1.3990313744893072e-05 1.2139925507214178e-05 1.3506129669872193e-05 1.6119168108062795e-05 5.4704373304711416e-06 2.0280536982109564e-05 2.1311796867079097e-05 1.8446899249749188e-05 1.6569810784109078e-05 1.835585972168563e-05 1.4659918085703716e-05 1.2386111490873706e-05 1.6084129409272846e-05 1.6605437951100997e-05 1.7990391598838628e-05 2.1415517699407029e-05 2.001684107816788e-05 1.9844422336363779e-05 2.3196680268934438e-05 2.2656147176953907e-05 2.2862700391243889e-05 2.2030199017237583e-05 2.0959331124207891e-05 1.79034265637452e-05 1.9392891009536274e-05 2.0238118826366419e-05 1.6715168226147278e-05 1.6351915275325281e-05 2.8205239195803923e-05 2.7561499968754849e-05 2.9529640161769448e-05 2.7027456814286929e-05 2.534186460810477e-05 2.3757801780417954e-05 2.4828352685662206e-05 2.6146375313878293e-05 2.4718724919361534e-05 2.6439228352810669e-05 2.6479212200856572e-05 2.8309454383869563e-05 2.975700596816427e-05 2.8718305743099998e-05 3.0094686907156081e-05 3.1313527729846439e-05 3.3238557765544393e-05 3.1577040619559283e-05 3.4011254490612466e-05 3.6397495184861483e-05 3.6407645383867935e-05 3.8863921293244592e-05 3.7534696728255097e-05 4.0012688118172105e-05 4.2821760072323699e-05 3.6166882777511029e-05 3.407852176142267e-05 3.3154985309445296e-05 2.9896155930803398e-05 3.2478429577884728e-05 2.9956724348530879e-05 2.8730702437594423e-05 2.5028699338990707e-05 2.5679128069112033e-05 2.4224278217404678e-05 3.0940746575545565e-05 2.6346563669794181e-05 2.8397304273062424e-05 1.9408305100452645e-05 2.0866037499536608e-05 2.5354282443366528e-05 3.1310575034208587e-05 3.3049043419223988e-05 4.5240523504845187e-05 7.0186845926263359e-05 0.00010029206630461498 3.0786984328226729e-05 3.6139820966050025e-05 3.8844840976424224e-05 5.7978307361630816e-05 4.3355639987907363e-05 5.6365032086566029e-05 0.00012839159049152986 7.8925843237998613e-05 0.00018760111115818514 8.2713479702906608e-05 0.00013234043509608326 0.00022267177036402878 0.00039469518756539472 0.00038904103456599798 0.00052249749123705409 0.00062553406693046038 0.0010435804817428987 0.00019632018804730986 0.00021512703067247505 0.00031094311724261774 0.00011788223701183947 0.00013037162119037781 7.800241691485735e-05 6.0428787280786324e-05 6.8231047435739084e-05 5.8270631183342798e-05 5.1463113405938372e-05 4.8745139343247385e-05 5.0834539081982343e-05 4.3560403187111528e-05 4.6505275107309162e-05 4.5431076654578998e-05 4.0820847579431877e-05 4.1713328982603826e-05 6.5546855928696828e-05 4.8571788738148273e-05 0.00013528190374914145 0.00011667845993873816 0.00016997645401101543 9.1562370145108833e-05 9.5948158418860438e-05 0.00010930733032647418 0.0001539404440220248 0.00020665848368033203 0.00019931902850016679 0.00023537336550941555 0.00054965504674069272 0.00028577379903939901 0.00024656199431572515 0.00038682755139477951 0.00096249840542650422 0.0021934981254916729 0.0011371678486534747 0.00065223088451696202 0.00074779507549989496 0.0021636772228867886 0.0011949918739530062 0.0016869459076574388 0.00085255063234144981 0.00068986089793778981 0.00056020620701144157 0.00029204385934126288 0.00018897442053182064 0.00028831023380807236 0.00037528746257646354 0.00021979337130987177 0.00010422850092348126 0.00010014067259116888 5.839569205802963e-05 3.519320636066319e-05 7.4082387100620004e-05 9.6876332503954111e-05 6.2490514823249115e-05 3.8618007617535531e-05 4.2370542575501877e-05 3.1795343313692433e-05 2.0723080313163646e-05 1.8624791538827433e-05 2.1985912053223483e-05 2.3521159525247992e-05 2.8533762515325281e-05 1.934839789118777e-05 1.6570827544232514e-05 1.6001334285367441e-05 1.1637458846864286e-05 1.0646751505325457e-05 8.535518693574588e-06 1.5555951745022063e-05 2.3924136196565043e-05 3.5657917778483231e-05 3.0726657461507454e-05 2.0100024343173816e-05 4.703293989935868e-05 6.9625261695271706e-05 5.679260190326419e-05 5.6968415100785072e-05 4.1298209713180852e-05 5.3097619882346459e-05 1.7654659541404846e-05 2.7249643871105456e-05 2.4824554861403112e-05 1.0820845135026274e-05 1.0960416422509783e-05 7.5697704155469705e-06 5.2941998469541298e-06 5.5155431129966508e-06 6.6944086295989375e-06 6.0880303060599204e-06 9.494409167635467e-06 7.4790127787400657e-06 7.471998326108703e-06 6.3386095355626087e-06 5.9558938046285747e-06 6.7386308691265165e-06 7.2759762891714786e-06 5.7631466013260542e-06 5.2514337561938819e-06 4.9868694783852951e-06 4.9517517545101339e-06 5.4220490898858089e-06 1.5663042837644245e-05 1.3458899278206174e-05 1.3191202499816279e-05 1.0601589342577109e-05 1.2307067818731702e-05 1.3051785167370636e-05 1.093457452335512e-05 9.7485030315665088e-06 8.5467303515061449e-06 9.0371351034251193e-06 8.4964335470929622e-06 1.0331687697275585e-05 1.1664194111588499e-05 1.2375822622417219e-05 1.4145680343214082e-05 1.4744791058813174e-05 1.5053677578275144e-05 1.2177208864159839e-05 1.4630775976211335e-05 1.3098099967510075e-05 1.1694067882800345e-05 9.8598724952738679e-06 9.4311598733349685e-06 1.0134363772573587e-05 8.936550659044847e-06 7.670857605845388e-06 7.614125348455994e-06 5.2542246312562034e-06 3.3976320195883517e-06 6.7993011727757304e-06 4.4568916732006259e-06 8.3175606199938773e-06 5.3212803457930172e-06 5.0774250795728212e-06 5.9838793510175952e-06 6.6731068779665645e-06 6.6311136998973549e-06 5.3679282777871467e-06 2.7109056476929174e-06 3.810589442321092e-06 1.6712153467955949e-06 2.6844536510075483e-06 3.0417746768260065e-06 4.6926024091172848e-06 4.5376840138949921e-06 1.3257767812366991e-06 3.1035958863855236e-06 1.51755707634083e-06 2.5858946859913506e-06 4.1422541822708991e-06 4.3341032374071733e-06 4.8201286628092415e-06 4.5638717794817549e-06 5.1023732154707288e-06 5.0273160423125277e-06 5.6473752135604352e-06 6.6516796093355634e-06 5.6873475455235118e-06 4.6230716609880817e-06 1.3923949231270726e-06 2.2894579526498096e-06 3.1799796367226172e-06 3.1757024616168978e-06 6.8790379898291709e-06 4.6708706594048962e-06 4.6519101877054091e-06 6.7277831039181426e-06 9.1431942420886073e-06 1.3089783874460929e-05 1.4180209402230286e-05 1.0018819258284171e-05 1.6541111003264844e-05 9.0866887114989778e-06 9.1657452707762289e-06 7.6156123143635541e-06 9.9212466629381441e-06 8.4219643424281138e-06 8.4150355548001962e-06 1.1789868318518582e-05 1.5483019949120803e-05 1.324879055959403e-05 1.2835603441323713e-05 1.6883897974448618e-05 1.5834415158127143e-05 1.7800926701881938e-05 1.7050825580938405e-05 2.2474916805112542e-05 2.5342007673236994e-05 2.8360127127174682e-05 1.1085149469345387e-05 1.3140720967761755e-05 1.3336040419260874e-05 2.1335875207040472e-05 1.0688541482258073e-05 1.4302259718812835e-05 7.459498624071163e-06 6.034146676348609e-06 1.1178793214960356e-05 7.0032857194831526e-06 6.0904110247403342e-06 4.7575163324741904e-06 5.0518700895820811e-06 5.2168939098955228e-06 4.8106399512342621e-06 4.8907666009307975e-06 5.1003118584492965e-06 5.6803647476409845e-06 6.171321068469736e-06 7.2195573003327416e-06 6.9486521925374673e-06 5.7780901352542387e-06 3.9325051712884768e-05 3.2643573101958243e-05 3.2194596345000837e-05 3.4899639127743262e-05 2.6158003794868895e-05 1.8436280218517645e-05 7.7392068192981088e-06 1.8600616393339017e-05 1.9987877172013475e-05 2.7903431232473958e-05 1.0862666745676972e-05 1.0224132625141323e-05 2.6492324075388178e-05 2.8534214548169021e-05 3.444318388458518e-05 3.6997099548168542e-05 3.1345535741551117e-05 3.2018722713954001e-05 2.8468072068913641e-05 2.3639272201134383e-05 2.6839869656869455e-05 1.5578925600773963e-05 1.7932367270923015e-05 6.7878705558918375e-06 2.0311343704003283e-05 1.690278145235915e-05 1.1109627283423597e-05 5.7576609398646189e-06 1.3783095383228649e-05 1.715798348288808e-05 2.3020854964051836e-05 1.9893419902332734e-05 1.8939181517669334e-05 1.9667608993927335e-05 2.2464394729701948e-05 2.1440748670807479e-05 2.9888382993018656e-05 2.6508722036938937e-05 2.3157039366109675e-05 2.9284711167233734e-05 3.3118053261293749e-05 3.2705878698115137e-05 2.9692972979517952e-05 3.2902714869472162e-05 2.596048144084516e-05 2.5995932525309506e-05 3.3281991071084597e-05 3.6453846270028126e-05 3.8500204086998577e-05 3.6653064333745121e-05 3.9096791600057944e-05 3.7402917536240866e-05 4.40591593379389e-05 4.4635199176229853e-05 4.8401855589351076e-05 5.0398418141127383e-05 4.7392963508985016e-05 4.5658351277632961e-05 4.1627195454636213e-05 4.2682298236177462e-05 4.0032030742921147e-05 6.9695791598719208e-05 7.7090176309128059e-05 6.8968490162770772e-05 7.7897868473444137e-05 6.5529713185598267e-05 5.6499754517894279e-05 5.2174174566456443e-05 5.9481494227969173e-05 5.6717628215421231e-05 4.7012606777011018e-05 4.9876801123344239e-05 4.0808849738021503e-05 6.9837182545877613e-05 6.3259046842573113e-05 9.1068905897987039e-05 0.00011611307916517465 0.00014320660644201054 9.164969827980685e-05 7.312214595005923e-05 5.8806971436661695e-05 4.9431290523103331e-05 4.1873000714297542e-05 3.9604771308717195e-05 4.8159593144159417e-05 6.3184351206231452e-05 4.7615958286320207e-05 7.0771674574305043e-05 3.4202196405143921e-05 4.6422889428391964e-05 3.2831246813394454e-05 7.3817818144860631e-05 0.00013220598526790528 0.00010778514412972219 0.00018898861233768507 0.00023787360043904082 0.00075028574356013876 0.00045258904684622805 0.0003812946529607765 0.00023446539939206247 0.00066057752439248579 0.0019443999340506843 0.0037481862875975011 0.0034687649820769884 0.0020630053851257157 0.00089396982530742125 0.0011418624267265443 0.0011882525375479279 0.00071900195490777669 0.00039072359564506121 0.00030339488458923846 0.00018580153174408396 0.00044662624769573468 0.00012996621823079015 8.9876454479262375e-05 0.0001107591642430319 0.00015310206853431406 0.00018452988549774558 0.00027445276968067565 0.00016971246621636492 0.00025343022481701279 0.00014881932756741038 0.00011821500590213782 0.0001391033931351138 0.00011548822723096453 0.00010750984105920383 9.5091200514874617e-05 9.0389441373102947e-05 0.00010333269730166504 8.1284074938608341e-05 8.743417420371782e-05 0.00013828246376356609 0.00026558275362738011 0.00011214878383441546 7.6998726291605847e-05 6.9986415788512253e-05 4.8178261239409552e-05 3.8373198618673124e-05 2.1929141396146046e-05 1.8543610359057084e-05 8.3705498166737766e-06 1.336075473956652e-05 1.5985720677757678e-05 4.734474809223797e-05 3.1140661636830281e-05 3.7525024510258946e-05 2.3699391660178164e-05 2.8536581261941143e-05 8.0078349111775582e-05 5.3174817431442945e-05 6.7169068573905242e-05 4.3043844776060575e-05 6.4460226047856651e-05 0.00012727592433215253 0.00022786642168785146 0.00045567887958741782 0.00012430833219996708 0.00016767008034698072 0.00022547664328036849 0.00041205896744509602 0.00044902347896402133 0.00086739681696181427 0.0014531013685388687 0.00097650816533915866 0.00087361320296764971 0.00096231968901196792 0.0019570308645886674 0.0014593190039724649 0.0045601445395242165 0.0077007405561718145 0.00593469142485906 0.0027772135369932578 0.0016013630267884384 0.0027478504802050047 0.0043751174770899738 0.0032789048921697357 0.0018615381626880712 0.001254195812466104 0.00057056332965209409 0.00071994091699879035 0.00047781635708716989 0.00025195942345248651 0.00020222146143661769 0.00032187921137064555 0.00015011116031413257 0.00015235570987379604 0.0007921724088264427 0.00026090334942037755 0.0002640758694651531 0.00047445332143856739 0.00039632731547045014 0.00061339682398923816 0.000863210200521648 0.0015370096693545184 0.00069448353733797563 0.0010279237808016829 0.0017105013616570824 0.00080658798551552498 0.007708167637104581 0.005012532353379698 0.0027570194949975853 0.0058320492825695344 0.0014421503592824086 0.0038982960122270283 0.0021093448234710561 0.0048469681337189405 0.0081585271183699307 0.0083324117934729901 0.013451412118266148 0.022913785458103478 0.013112995474252119 0.014661500424724808 0.027810375137369055 0.037722294240977478 0.026210254788835853 0.019524103804772899 0.040158024357866098 0.03131012383581714 0.028252685745276226 0.044963683912465538 0.035821862081790425 0.022041533095291922 0.010736516551438549 0.026194983037122203 0.015679222977721657 0.012963509754217391 0.017576143935186708 0.028810954443725844 0.039650355720051919 0.012737604764748984 0.017249034552000907 0.029122418894442677 0.035246109739027351 0.052355817238478722 0.040990159639901935 0.029571080695888596 0.029910617377685599 0.047145046418531976 0.050652841032699299 0.062742461606407104 0.034645093322299737 0.021582075085812127 0.013929736361978163 0.034722065104423216 0.018775822358065741 0.026180900573096636 0.010198844586302096 0.0082483973753810051 0.0084080648789742786 0.0029820314905739404 0.0052299898514186378 0.0027250821153679224 0.0016734488737667203 0.0012659809737277025 0.0022518215250524544 0.0019649469226704439 0.0010248812943973657 0.0012277985509219725 0.00089050179880296293 0.0029472924414353633 0.0076302233626438587 0.0052055141278211075 0.00018252367450056245 0.00018131505433819115 0.00023508339940156423 0.00015487933124855798 0.0001427855428617065 0.00021909859631085441 0.00016390948230578673 0.00030754453558815318 0.00036273176885138846 0.00074897691523671155 0.00047289619017143718 0.00049436580654331876 0.00034574027851247749 0.00080519128334890903 0.0025760989790291769 0.001950540042003659 0.0029517278498607689 0.0010899664002963778 0.00068904844565137902 0.0010086133909206784 0.0021069122710271966 0.002877950147747443 0.0048293005533489178 0.0082939071465753314 0.0092786400713050048 0.0059210189469077346 0.0075214186204086014 0.013143477522249919 0.0049169791716222409 0.0056844664625412614 0.010095060709192721 0.01615035576663959 0.015635914204933838 0.017247702420251317 0.0095613815906555183 0.005029928615237874 0.0036126991202564112 0.004035047045895814 0.0017820206741456629 0.0013325252548088235 0.0019255694879597644 0.0034717451627452036 0.0016443807235065348 0.00093074597917776054 0.0006257782560811822 0.00038003036738977806 0.00037616020986803588 0.00060217682478740727 0.00080158428944505976 0.0013977088696388116 0.00058307376517829717 0.00054814671360704553 0.0003475366694785921 0.00023592071540074193 0.00027998961535269731 0.00024622820330990263 0.00019956655632430962 0.0002939680329864387 0.00021310250399347495 0.00046434811773108156 0.00039474358325061146 0.00054299345222370257 0.00029456172623388877 0.00030405001737520305 0.00025868055631410867 0.00040293981557121186 0.00042741358163672291 0.00079112531523276269 0.00050579421649535479 0.00090445012582167621 0.0010929391830302195 0.0012652264627789254 0.00087047707640284513 0.0012790849161413882 0.0033296406390440625 0.0057923416980596954 0.0064884115597506377 0.0022181801116562517 0.0018901592847102183 0.0026838912120490618 0.0021617439603050575 0.0058914885589827007 0.0044070665175050955 0.010069918516218843 0.011848326621315648 0.00639911461315925 0.014952039760012248 0.024143915890342739 0.017154608929422045 0.027657422519617725 0.010628558999022496 0.017260615440349965 0.029729900055171711 0.023683858748578299 0.035521931213967767 0.028397645702155389 0.048943288562497925 0.054133481568212988 0.032488583276900032 0.020516604447373007 0.0040126695051726832 0.0078100772528060664 0.011758196985520913 0.0036515948441366661 0.011653611576816362 0.0078729582952639186 0.0096209359786114598 0.0024784446554585635 0.00082467304132483152 0.0013184632473478804 0.00084137680096898961 0.0025383264279440162 0.002750042503802912 0.0011095026968805674 0.0016057291066061017 0.0011441287731760764 0.00070597569707678211 0.00069084583463067538 0.00046303176712886025 0.00038211935810775161 0.00046351884614202944 0.00039147079141005418 0.00050261885065801617 0.00036281077210041814 0.0063639704585719981 0.015697115250191081 0.015620882470815847 0.010440802305279204 0.0041936315054610157 0.0026962050574106406 0.0021086607580034079 0.0027199000675900142 0.0019501426369845204 0.0016255328490086922 0.0046480349475296126 0.0058932558323699404 0.0046555156731129159 0.01087201509876403 0.01269946647913852 0.021250796580908646 0.043677208296726069 0.053085724552584868 0.031910639077763099 0.039667884680563911 0.061200704602428789 0.06031228118981484 0.076719226160413503 0.030239252653045657 0.05113785683469578 0.051189176155665379 0.095088115892484351 0.075601277683144411 0.072616177415089897 0.11892761341171798 0.054868366271600529 0.026927569450064796 0.062114006901750299 0.026754986135518188 0.037382548993925402 0.046412115908920221 0.029410698964184426 0.088661266253648591 0.076775335980810294 0.052091265701663031 0.088085876224815118 0.14949364518843733 0.11702283494051338 0.10436532319913085 0.075412603729344885 0.087356676930548854 0.18872560327655588 0.14394932915585074 0.099852652605690734 0.033277791720831298 0.091402243464812905 0.13392794642617212 0.092608469355738743 0.0438055172826377 0.0093572581259403695 0.02736310888827722 0.013399904070204104 0.018407928721069625 0.01113007417131448 0.0069349896324549225 0.011177103787512362 0.018259728129223565 0.0029830155535957876 0.0042556026021441885 0.0044764141628096197 0.0067672755601064479 0.0032202476355648645 0.0054244022841576003 0.0039757468271612757 0.0030828339347062149 0.0032163842064853658 0.0037736061328085195 0.0029718343726400694 0.002879294779294593 0.017689033170408954 0.0087071518724340779 0.0059684684158