<?xml version="1.0"?>
<VTKFile type="UnstructuredGrid" version="0.1" byte_order="LittleEndian">
<UnstructuredGrid>
<Piece NumberOfPoints="558" NumberOfCells="1054">
<Points>
<DataArray type="Float64" NumberOfComponents="3" format="ascii">
0 0 0 1 0 0 1 1 0 0 1 0 0.5 0.29999999999999999 0 1 0.29999999999999999 0 0.5 0.69999999999999996 0 1 0.69999999999999996 0 0.049999999999899652 0 0 0.099999999999814668 0 0 0.14999999999970359 0 0 0.19999999999955789 0 0 0.24999999999941211 0 0 0.29999999999926641 0 0 0.34999999999912063 0 0 0.3999999999989749 0 0 0.44999999999882923 0 0 0.49999999999869432 0 0 0.5499999999988151 0 0 0.59999999999894682 0 0 0.64999999999907843 0 0 0.69999999999921003 0 0 0.74999999999934175 0 0 0.79999999999947335 0 0 0.84999999999960507 0 0 0.89999999999973679 0 0 0.94999999999986839 0 0 1 0.049999999999896842 0 1 0.099999999999753911 0 1 0.14999999999961891 0 1 0.19999999999974799 0 1 0.24999999999987299 0 1 0.34999999999993492 0 1 0.39999999999978308 0 1 0.44999999999963131 0 1 0.49999999999950101 0 1 0.54999999999963112 0 1 0.59999999999973963 0 1 0.64999999999986979 0 1 0.74999999999993494 0 1 0.7999999999998193 0 1 0.84999999999982645 0 1 0.8999999999998336 0 1 0.94999999999997109 0 0.94999999999979179 1 0 0.89999999999958358 1 0 0.84999999999965292 1 0 0.79999999999999982 1 0 0.75000000000034661 1 0 0.7000000000006934 1 0 0.65000000000104008 1 0 0.60000000000138687 1 0 0.55000000000173355 1 0 0.50000000000205869 1 0 0.45000000000187229 1 0 0.40000000000166441 1 0 0.35000000000145642 1 0 0.30000000000124832 1 0 0.25000000000104028 1 0 0.20000000000083221 1 0 0.15000000000062411 1 0 0.10000000000041601 1 0 0.050000000000207989 1 0 0 0.94999999999979179 0 0 0.89999999999958358 0 0 0.84999999999965292 0 0 0.79999999999999982 0 0 0.75000000000034661 0 0 0.7000000000006934 0 0 0.65000000000104008 0 0 0.60000000000138687 0 0 0.55000000000173355 0 0 0.50000000000205869 0 0 0.45000000000187229 0 0 0.40000000000166441 0 0 0.35000000000145642 0 0 0.30000000000124832 0 0 0.25000000000104028 0 0 0.20000000000083221 0 0 0.15000000000062411 0 0 0.10000000000041601 0 0 0.050000000000207989 0 0.54999999999999993 0.29999999999999999 0 0.59999999999999976 0.29999999999999999 0 0.6499999999999998 0.29999999999999999 0 0.69999999999999984 0.29999999999999999 0 0.74999999999999989 0.29999999999999999 0 0.79999999999999982 0.29999999999999999 0 0.84999999999999987 0.29999999999999999 0 0.89999999999999991 0.29999999999999999 0 0.94999999999999996 0.29999999999999999 0 0.54999999999999993 0.69999999999999996 0 0.59999999999999976 0.69999999999999996 0 0.6499999999999998 0.69999999999999996 0 0.69999999999999984 0.69999999999999996 0 0.74999999999999989 0.69999999999999996 0 0.79999999999999982 0.69999999999999996 0 0.84999999999999987 0.69999999999999996 0 0.89999999999999991 0.69999999999999996 0 0.94999999999999996 0.69999999999999996 0 0.28307294598219601 0.50789252727458634 0 0.25676291524611189 0.7436741304886243 0 0.25195515620380449 0.25883339815888678 0 0.57611405284611883 0.50165903596042916 0 0.77846603114747959 0.49850927265137401 0 0.39801143831225599 0.16651381068160659 0 0.39536230704883951 0.84069429572832477 0 0.15720202157091859 0.60665697304410315 0 0.1650278706801647 0.38791388161335733 0 0.43249999999999988 0.43937499999999979 0 0.35864735590330371 0.63903383440414463 0 0.82709327591091286 0.84937141670920724 0 0.61343887413683884 0.856862479058357 0 0.82709327591102189 0.14937141670914489 0 0.6236733212988993 0.14864538214901801 0 0.14474682429600511 0.85524784522713515 0 0.14332333627550789 0.14578431753966009 0 0.36575549820117997 0.31677992835137742 0 0.46666084890304671 0.57634471035397938 0 0.27474541102162192 0.11822029332053539 0 0.27270076654418179 0.87751467830216623 0 0.1215415378367805 0.72939333680004137 0 0.1247745017231483 0.27198077544791172 0 0.6879972333610942 0.43038561374960838 0 0.67323294229744413 0.57556450033612505 0 0.86411095495256451 0.42388805655111889 0 0.86956835336234861 0.571283299838105 0 0.50202631463681879 0.87892870825713787 0 0.51076801031701946 0.1202837388510348 0 0.1216098864341134 0.50637075089503902 0 0.27866744612395528 0.38416094670951489 0 0.7250000000005199 0.89375000000045834 0 0.72500000000001008 0.19776155966387679 0 0.52289427570932567 0.3932284363388488 0 0.40326160981139969 0.73346192995102844 0 0.77354604466818633 0.40378688774472771 0 0.77293540622714185 0.59448302402785813 0 0.57412547362576272 0.58273804879550706 0 0.26573297623774761 0.59828298563722948 0 0.38244435121258652 0.51653317813019495 0 0.72500000000000064 0.7952620967744265 0 0.72525833953073282 0.1032114801687094 0 0.90299850604011456 0.79563452813489832 0 0.90416666666660628 0.9041666666666166 0 0.90299850604006393 0.09563452813493091 0 0.90416666666668166 0.20416666666667119 0 0.54782696902220018 0.79245182748204157 0 0.55306006949600994 0.20198184231352201 0 0.20050006573841939 0.53248514016039872 0 0.33758650185219202 0.23837101504325639 0 0.35312867752657662 0.084946736076730367 0 0.35752321586431363 0.9185439911803448 0 0.42377727103934271 0.25099357235810238 0 0.086179601630648681 0.64647209519980475 0 0.087545339447545459 0.35122518864182262 0 0.083411279318375747 0.91030024466934134 0 0.083411279318303222 0.089699755330707398 0 0.91696753777131557 0.497780560203536 0 0.34258405725730701 0.4444034294386992 0 0.33123028043633618 0.77629643437932982 0 0.2236846579037573 0.67380363126050236 0 0.19901705110390991 0.9175543425573498 0 0.19922788606653311 0.085920220746880993 0 0.19670163708476801 0.31472518408333222 0 0.4656888918609538 0.78493261229743638 0 0.083105206071452636 0.79992298667296435 0 0.083105206071467416 0.20007701332709979 0 0.57724883562309992 0.92155686857100794 0 0.57667858002728545 0.078486105337742612 0 0.49102375406324739 0.49123754822244059 0 0.4409427642593301 0.35743108089689513 0 0.43698630808430822 0.080423614171545449 0 0.4367309254023824 0.92065556789053882 0 0.22278230690790279 0.44824268025881547 0 0.6084546825910605 0.37989672713932537 0 0.43846182030517877 0.64845797726506715 0 0.077693244765132896 0.56932317963405099 0 0.078358742472063481 0.43365249433908948 0 0.6541250972820879 0.49999999999999989 0 0.21858834311891909 0.81980263716112767 0 0.2185883431182947 0.18019736283949719 0 0.31378396441836959 0.70157213313026345 0 0.79680861578988083 0.92656778056766709 0 0.79680861578956375 0.22656778056752541 0 0.65394964615507722 0.22666784374016369 0 0.47357141910802508 0.1873585799078378 0 0.80185942888539485 0.77452061303608133 0 0.64753070846764316 0.77332939069435502 0 0.80185942888501827 0.074520613036224564 0 0.65507451745379841 0.92229208810758578 0 0.29348325746214782 0.31350119524708198 0 0.91750694127107502 0.36982372220068471 0 0.91750694127105259 0.63017627779935648 0 0.65408113592120842 0.073941773121567966 0 0.33122374654748771 0.57588941099433744 0 0.84723782639812573 0.48638347960178252 0 0.50715858906372158 0.63295939104129484 0 0.83573492347052902 0.36590755630746369 0 0.83758014339878906 0.63222013025741819 0 0.6405463747586706 0.63290524857395714 0 0.33084213324567391 0.16272720141332131 0 0.71508799138962864 0.36622814920737751 0 0.71406021706547751 0.63292083137662503 0 0.18269480424590959 0.75905448272264375 0 0.17933913398461551 0.2350063570234002 0 0.4089290844030305 0.58728915500154233 0 0.53245488764484505 0.55078124999999989 0 0.61209567303293111 0.44669033081290321 0 0.7152569930854884 0.5237994455134295 0 0.33403534827021109 0.84402799729020661 0 0.27499999999933927 0.060310814194988557 0 0.27609987656793722 0.94991445621608572 0 0.82862096804812391 0.55037090955459045 0 0.73483647259922602 0.44789725365921768 0 0.049706944316475897 0.72477277076253799 0 0.049706944316556423 0.27522722923869108 0 0.16500388252850301 0.66612077714085194 0 0.62042975506801734 0.54295974692364424 0 0.38083244760691543 0.38531983672244652 0 0.93814194660195893 0.44426664081746747 0 0.93732437411268477 0.55911392101136159 0 0.93677536231884972 0.85000000000000286 0 0.93677536231883773 0.14999999999999089 0 0.52375890611712683 0.059318771819432882 0 0.52122150208832174 0.94089974453840242 0 0.15801167086041079 0.46008690540259539 0 0.14617343800780541 0.93808063414349496 0 0.14618258501891079 0.062070108745602003 0 0.76901770135486491 0.84293557325473656 0 0.77144070960558853 0.14311854477243749 0 0.68697391633157634 0.84450604838764298 0 0.68391457121233579 0.14440470121196541 0 0.26104540868854792 0.81401944968719064 0 0.065374659239661639 0.8551091961254178 0 0.065374659239632718 0.1448908038746782 0 0.55899371797446828 0.85003102233514438 0 0.56202748619534593 0.15054058349222879 0 0.45677673713123867 0.84253684404072415 0 0.85170973911348691 0.93569607295217616 0 0.8517097391133297 0.2356960729520409 0 0.068743045408989428 0.48853989837882689 0 0.22033343844674469 0.36963382230740238 0 0.85491058998424563 0.76004753345552634 0 0.85491058998398861 0.060047533455626502 0 0.26429849586623999 0.19346700179430079 0 0.14934928745814749 0.55042914607228977 0 0.59814117807200873 0.23398510860739519 0 0.49695729691142171 0.25014895411178018 0 0.59636844454254345 0.75937156204589151 0 0.27820712747429932 0.65530134213254643 0 0.44288491854585582 0.14116182884956319 0 0.14223753364722069 0.3341983344262433 0 0.81973119833356312 0.43505687159469048 0 0.43507373378304309 0.49699695397193322 0 0.49077833859261139 0.35229981449445641 0 0.33277555741076909 0.36432196682010132 0 0.13737030665753211 0.20313708640667491 0 0.1382744753146134 0.79650574229207483 0 0.29124338931648802 0.43334555462578611 0 0.94399509803918602 0.75600490196082126 0 0.94399509803922566 0.056004901960802607 0 0.94399509803919068 0.9439950980391687 0 0.94399509803921056 0.24399509803922639 0 0.65481233915350323 0.35652751921065562 0 0.48858720058566618 0.43964267759203868 0 0.7250000000005199 0.94981617647078953 0 0.72500000000000064 0.2498161764706 0 0.88088768115933802 0.84674609810493673 0 0.88088768115941807 0.14674609810479519 0 0.56836770495988642 0.352306235
[...]
<CellData Scalars="pressure_p0,region_id," Vectors="velocity_p0," Tensors="">
<DataArray type="Float64" Name="pressure_p0" format="ascii">
0.032089876366694248 0.034885289521543211 0.040168019146915791 0.048047799339602612 0.058899519942862869 0.073278796511041633 0.091911791995831105 0.11576796657676902 0.14600911256693028 0.18466104193444266 0.096995293652387793 0.10115209930258132 0.108890491669227 0.12013695592393277 0.13511203530271004 0.15417064834411767 0.1777789762298464 0.20653481824064862 0.24109884160522305 0.28260900676238115 0.001011439768951011 0.0010088780352844413 0.012755836785807852 0.010010593707892427 6.0477592017003343e-05 4.1599400950861006e-05 5.2633880719861578e-05 3.6776175178824546e-05 8.3344310833382288e-05 0.00017482957280087462 9.0876125223371049e-05 0.00013607634286039676 4.3924533568090666e-05 1.0023085150972874e-05 8.2117251642201353e-06 0.024777479290238887 0.024985453252874976 0.023715264122588287 0.023767267384642583 0.038586696270768939 0.014546310939339342 0.021806077273592815 0.021893492246679171 3.7006789051266936e-05 0.02097871308142274 0.0012830455046230487 0.00046894762695284917 0.027619640729763955 0.0033799418597883968 0.00062614856573869069 0.005421649324575277 0.012564095072166274 0.017538050963652831 0.01392839926947903 0.013492585783790164 0.00048936811962933281 0.013322959252775241 0.0024914768911078358 0.075683602287111212 0.076379759897912569 0.11961770934661116 0.0062914444046204016 0.10122031632363176 0.0053171549914037154 1.4886418086157126e-05 1.289486384682055e-05 0.0073283724960639153 0.012927871551217048 0.049713122704733229 0.0049047299455499474 0.072788298722845424 0.025785954920131672 0.0039153835047200797 0.0072001086551401706 0.03859283935429117 0.0022939408705220975 0.0027282571200939747 0.13369132550104124 0.11830666535054053 0.0044932316491211339 0.028558791143510717 0.01509575346803602 0.021860100524488814 0.027953689758976601 0.0059311991341366218 2.0903607343524071e-05 2.9015803450201717e-05 0.057905068519379523 0.090341604385062946 2.8672891146619475e-05 2.1010709228616137e-05 5.8121145232494672e-05 5.1049451489459621e-05 7.8481454533709888e-05 0.010530297193151716 0.0079025619682533306 0.16549015156176924 0.0031456591701293324 0.0090143042828419589 0.027101272117151885 0.010154595740812214 1.4572732369291277e-05 1.0674937441185076e-05 6.8800368069469548e-05 0.038126141776601313 0.012351305539403097 0.0080580207733156588 3.2537586603271996e-05 0.00022391895912511617 0.031374817664237956 3.9991746505430148e-05 2.8586184491728115e-05 2.4953497607650861e-05 0.036000764094182153 0.0084047668940141346 0.033798310664162723 0.0098069398947968033 0.19756692066617432 0.002631350021941592 0.002407954361461088 0.17730956514938706 0.0055538684259154869 3.861893605272535e-05 3.2814321544888685e-05 0.057842622705987376 0.06180159631559054 0.010925379911883163 0.044694649662662567 0.029596614856823883 0.004126103092408036 0.0042067133615633009 0.10066183684952101 9.7727863508479139e-05 0.00021962651678070634 0.017107550630607409 0.024461130409102208 0.014031667683561247 0.010038322712114793 0.031919875320616548 0.01818416713939968 0.051301829967317587 0.011134409162258092 0.0080587292695730138 0.011805848811991536 0.018884800301665346 0.015731400541095186 0.012839876343785021 0.001554990205141658 0.0011267350998145375 0.0017506810661943966 0.023332813446435216 0.0030285842688230246 0.00025808995904105087 0.0003400967021826276 0.00093484052442481709 0.00070602418130468478 0.013646387640655327 0.00057636822801825321 0.034485704686197396 0.0032728313112194369 0.00027672183626163336 0.0076365877807533736 0.031460518078150361 0.012085045436013681 0.023772882857160144 0.013136861045298164 1.7130553979015015e-05 1.4111801312311583e-05 0.0095463859333699101 0.00021458393403503388 0.0027147784910628164 3.0335795677848865e-05 2.7565053449895983e-05 2.4168663134167959e-05 2.5613500237419061e-05 0.0014034974015272306 0.00040748609659140196 0.00013737085492716126 0.00032582905029584212 0.0010452061442430963 0.00016213362217115237 0.00020815811775234911 1.4013908440053555e-05 1.035693725869523e-05 0.063885901541862758 6.0833441745846749e-05 0.0059187011494828672 0.019657580963069556 7.5013531992725637e-05 0.00014949630888328876 0.013085976791059288 8.8423973199362437e-05 0.00033857300589210885 0.00010451399254152616 6.6441206696819541e-05 0.00013653499106856197 0.001120933132637014 0.014909749247053345 0.064446605893290806 0.0041707356389300895 2.5486072188106861e-05 2.1313123068075598e-05 1.9153455969327096e-05 1.5195006720850028e-05 0.0092901861562454773 0.011337509892328904 0.012821003768027674 0.01695749981862664 0.0065320744653127394 0.0041168841814526094 4.9894991367181862e-05 0.0092895100772534111 0.0068615604546467587 0.049026960438190395 0.019169986114310349 5.2125592069205654e-05 0.0055739853209427325 4.8585002307383475e-05 7.3299872513929397e-05 0.018311224860544068 3.8252512867567926e-05 5.5133338882637862e-05 0.0012062614121087789 0.00043155780961847469 0.018409161872331128 0.030710068890685942 0.0054679119027224044 0.0046166923136410085 0.020778044818047604 0.020339999662305288 6.6882101069987667e-05 0.001051841789123881 0.031196451672448253 0.0021302893963150316 0.010082585546628824 0.028237916609692316 0.00016545932941286847 0.017187667134033545 0.000141751408033811 0.00022229114860677996 0.00029367825310691104 0.0041296318699816925 0.00012828724424596762 0.023125112880858945 0.021229577139683094 0.012607612506008448 0.0063993435847456495 0.0055090892115700219 0.0060800872870343196 7.6480594002482211e-06 6.9235524988986617e-06 8.1081973765358758e-05 0.01008033757540916 0.0001532018775515988 1.3099159732444146e-05 8.9077087694855393e-05 5.5356481321089786e-05 0.00078519764856898591 2.987667575641229e-05 0.028161739432686232 0.000748198920255115 0.025825277251259271 4.4947741569371002e-05 0.016618625606396445 0.023514170650651853 2.9961503631369139e-05 0.0012713070406442533 0.049925158575487641 0.01704130030765328 0.01022417686495147 0.030192335217509629 0.0017258939216323408 0.0011359459182814944 0.0010323358448742759 0.002879234297333437 0.0032104701374727996 3.2709259313492562e-05 0.080520078282289215 5.0883853447075279e-05 3.6150045599214696e-05 0.004181005440320463 4.2029015838283634e-05 6.4377526353106388e-05 0.00024728776522917837 0.00021956011564193257 0.064945142572321923 0.0053745756034980566 0.056020326198548395 0.036832677073981496 0.00013113350993757699 0.078732765242149172 0.14322151461048782 0.047292276912978354 0.0006770848125244673 0.022974370289508786 0.0005287925747724609 0.00015050948554771117 0.0025425432255025038 0.004318299406562618 0.00013023074063114336 0.0011694028944442382 9.6115123750493289e-05 0.0001783497316723455 0.00087132878156268706 0.0023338926006472149 2.5953317835505883e-05 1.9325301095601599e-05 7.3005441373499039e-05 0.00015314206196912348 5.9508165746335792e-05 0.0097504795488184536 6.5333251639359109e-05 0.010177007550116017 0.03493103440093874 5.3999986866418821e-05 9.7005359203040952e-05 4.264459976153691e-05 0.0085675630157784934 0.0027235829230627335 0.048331737158893572 0.0037369247004246341 0.0025764835244549114 9.2838312124149383e-05 5.6078021874773281e-05 0.00069332296445015224 3.5825682012683975e-05 0.014070125062539312 9.6475289487858273e-05 5.771094153545232e-05 0.0008539618403471806 0.0084044384699840276 0.025196921424142454 0.00055456084403063223 0.00069446902282894085 0.0015839825429723449 0.002208951524418743 3.9505006874431534e-05 4.9843016970426112e-05 3.4941146064493172e-05 2.9198012079589825e-05 0.016043060350839609 0.0013814188580999526 0.00025579144399301505 0.032162936623412547 0.0048966887327923734 0.026666253200405471 0.00078821417441028274 0.0013714306458538423 0.011674119529058212 0.013311344193642398 5.4846427917398635e-05 3.8499149881936782e-05 0.0089578567903189424 0.099733546095557776 0.17604399177380023 0.00064851617495620981 0.00056505053463860736 0.018172353555653886 0.01663594375088422 0.018213307002732118 0.0074439276498419159 0.051558113481238274 0.063667264963843867 0.10194629983027381 0.043579111199589501 0.0087126655077265289 4.4754563194955975e-05 6.0645855919868042e-05 0.046582236331694088 0.0051289697957481962 3.9966039978624547e-05 2.9384578528065794e-05 0.028484620283745835 4.622612408509373e-05 3.3031135724721029e-05 0.0043313335414494692 0.06629675894596293 0.0064209053282257185 0.0036996627123346204 0.0031707368548134175 0.025980897063506304 0.008210772705858042 0.0055400144950670856 0.0019574898748853579 0.011718154457166242 0.058784532221775584 0.10603265116526983 0.0037835126873031833 0.0056764868354318796 0.0025251786133963011 0.0065125409507713044 0.092340840549380396 0.0041912070618696897 0.0017330051224167084 0.044087873735174005 0.016322914733042967 0.0009607169492152495 4.3384494355392691e-05 0.00077042490895758956 8.8956274759115369e-05 0.00018164584889427855 0.0018029232786094997 0.001914495441275121 1.9072291798644211e-05 0.00040051169637632356 0.013614538555315275 0.0022276200015239498 0.00010787090070635714 2.7085854502734175e-05 0.00053621738260702621 0.015138337287072338 0.035196508337423757 0.00027111728178904503 0.12749437585807188 0.0023327757068619601 8.8867624507359469e-05 0.00012019783225357663 0.0053860328286272248 0.044279241191382546 0.00012887378198864381 0.00018523794246991322 7.1803889328529388e-05 6.514675052863962e-05 0.00092241307828729111 0.001561290733130557 5.8567280392983649e-05 0.038062776395642581 0.020556268403348697 0.015788288946447612 0.00013595717952278347 1.1921935060432808e-05 0.0021776644798094094 0.02646573648203597 0.0099835654992715562 5.5097307204891257e-05 0.0013245138565532763 0.0014712899149623522 5.9054107456845252e-06 0.0036777881246654988 0.0033372120457815574 0.055153236427198771 0.093264454052736562 0.0013983594212630579 0.018909073635715572 0.014560385443436663 0.00015161670447983447 0.0032579394310049865 0.070003285451766831 0.00011982240045352084 0.030600859618986436 0.010452458432845219 5.9492907705210081e-05 0.0047366271610180706 0.087415615861235266 0.0028551615256544767 0.00011044662206500848 0.00026033279143419542 0.012363917219371717 0.00010091270247108422 0.12311809714612906 0.15006965325221627 0.2327325979260782 0.19074319551378005 0.041335867120892295 0.069139482664073063 0.13492611354360612 0.061490950126025498 0.086656503301702048 0.080974680698160967 0.010499441435625333 0.0062744065024346457 0.049407797132431458 6.9172485470732998e-05 0.10345165309241687 0.0044733699812932954 0.002810779882644502 0.0076069621560103592 0.061841316786395192 0.018452513956135369 0.0096233656592484441 0.0074809529615626671 0.00026375022628236924 0.016066679358770188 0.00090726461206966022 0.0037188248203221456 0.0022290862025646863 0.00050797798950548477 0.015015483669441321 0.018911726893924757 0.00089743884729905402 0.00032247867892426345 8.2959611213537986e-06 7.1039072810589733e-06 0.00098025830071049114 0.00070338690113169039 0.0003838927944225329 7.980447237911206e-05 5.0519598144193865e-05 0.050849141147506785 7.107866499439115e-05 4.6801667105367869e-05 0.020665155081661953 0.034184016569853676 0.00032868651215270102 0.038798530865746833 1.0323045959135763e-05 8.1672953038972833e-06 6.7460350946736415e-05 0.0001250279347626721 0.0016491301729096657 0.028210955552360258 0.002196462426679281 0.00036347267682998007 0.00048501908745833322 0.0022000196169939751 0.0017452906085971488 0.036440742918754633 0.028541787026062367 0.0062069922261243759 0.010134784363783251 5.8385984568897417e-05 9.7040722528822992e-05 0.025647949413838265 0.0050044379857925522 0.00010541554401143482 5.6207103848794174e-05 3.92714602250738e-05 4.6968973638251702e-05 0.0017999729852212461 0.061389292011301451 5.3125589696594063e-05 0.0031707909561895192 0.045151358179369952 0.03651886770061339 0.0046529362068278022 0.031440475049831634 0.0003264616570744213 0.0022826433028714111 0.18332943294845097 0.0030407367106914246 0.1159284726341957 0.0050728436659955587 0.00033102787689534801 0.00024388442861130127 0.00063606083853260645 0.00037328897001756448 0.00026271656676347033 0.00077558338972830176 0.00029858458616202502 0.0041350046440853825 4.5706477117011866e-05 4.0518319548726483e-05 5.9587278989979743e-05 7.0730569979654277e-05 0.0018932965440964023 0.0024861466600692821 3.1126335453576144e-05 3.3987010002805345e-05 2.5859846804764873e-05 2.3726410860632042e-05 0.033039806634989309 0.0078327352708731854 4.9309926204608613e-05 8.5240397953587622e-05 0.00072478899849655679 5.0901638346181367e-05 8.435554904703539e-05 0.015326287985734849 0.00030324745736238904 1.0471910960526378e-05 8.0305832325695458e-06 0.0037341416904707603 0.020700754760810861 0.00042018708299839622 0.020645574739786635 0.00032210516818850158 0.00067647554470446052 5.6850449587552828e-05 3.9549711538246804e-05 0.0036775609707030005 0.00022891551539281724 0.00034084846498331903 0.00030373632102703545 0.0027391451646030388 0.0017771971332265 0.0051063322046026524 0.00066406239539895814 0.00021727083899949939 0.018865472156757698 0.011162390287939476 0.00029993174505746876 0.0030668560763531571 0.062176093110389408 0.040822816417352886 0.0012239097521848867 0.070407516142560828 0.00014835735898028604 0.00038000335353594755 0.00018551732737210201 0.00049836719358381401 3.2759173343444385e-05 4.6114593726777147e-05 0.0015503998852504633 0.0022995070545668477 0.061166634084474834 0.12746318428828654 0.07835603347926913 0.11136953228859431 0.047412417477519127 0.00043127892266914145 0.0017942245474656441 0.0027270163314742188 0.00075025792142371299 0.0022444928209746666 0.0025488110577221263 0.011285766581374071 0.0091033448735969302 0.034685422743170491 0.00047216503296297288 0.00017777366380387574 0.0021758458812078463 0.0051625195415383861 0.0054699320177794015 0.023024699313024408 0.020864667651048968 0.078614280409638193 0.0035040080129546719 3.9812118977194773e-05 5.906214055019135e-05 0.012665409503623871 0.011146254772500133 0.010418105181297361 0.0079757355217267359 0.010688639056917843 0.014756419097051433 1.5096019680055011e-05 1.9558586849138855e-05 0.00056436812578280246 0.0015388486293842773 0.00013309259727693778 0.00010930720397434363 0.036112092073562793 0.00013132811658537124 0.00015876760219783739 5.0027560309840518e-05 0.10202639164020774 0.0002158047879839197 0.00058499049584254169 0.021892035749697884 9.8662139163673408e-05 0.00012516824998436791 0.0231822199556211 0.00011071305871459971 6.2749356461606033e-05 0.011420048839474841 0.010874628034491136 0.00044168090716265398 0.00083542508768257116 0.00030761225855099525 0.017966139628187522 0.00022812242862325262 0.00017201324945314962 0.094288775750703935 0.0011736194099719664 0.00038493146454583033 0.00015012118285342283 0.0027537814344568241 9.3017711316475753e-05 0.0001043053174598242 0.003497728932125104 0.001613965438894349 0.018479306914211922 0.15345879340466428 0.0018856422760668051 0.0021971088945726548 0.0042800884140279053 0.0011559025641132035 0.0035033592145844753 0.058989678448533665 9.7071545223210363e-05 0.0054706506900893091 0.00014014246870821935 0.033962186400013944 7.0076824007397673e-05 0.00095199892641221399 7.6545584246055418e-05 6.8093229895705717e-05 0.0054599097876173678 3.3655739597418399e-05 4.0818701894022363e-05 3.0471088909797974e-05 2.6032323378220222e-05 0.00092061633203125836 0.0071350816084190961 0.0062518302622409328 0.042127549060305393 0.0047550428644949801 0.081676175997586586 0.034910591168972209 0.00022656821664941674 0.00061493628847086824 0.056213683382886417 0.094146994334891057 0.0004808669572465709 1.6428787926829995e-05 0.00034875839767248696 0.00019007828506612941 0.023551158827658045 4.8896383594431915e-05 4.4648055383411145e-05 6.5653009104904672e-05 7.4047836806639394e-05 0.00057905332565022483 0.015896313769561254 0.031978247186456275 0.026343186189532696 7.3767391195420404e-05 0.0011331854591273872 8.4303719702362304e-05 0.058625041614489018 1.0964063674190139e-05 0.0094350685515544163 0.048162926659558833 0.0015130878162058592 2.1059519009991596e-05 2.5897232296881125e-05 3.4468507640810487e-05 0.00016501328506374102 0.0002875431880463017 0.00080333962634793026 0.079004362506605752 0.0022301597430457293 0.084175229187277656 0.0018557815272522427 0.061670389226793576 8.0807304462252082e-05 2.0107872941035516e-05 0.00010965496558596607 0.011407500858192903 0.017354793772490433 0.003011421444990778 0.0029091779600706417 0.049164542909714642 0.057982088946346148 0.041856120485981398 0.043160619898357899 4.5043673985462186e-06 0.095363231731675269 0.071618610922611292 0.001157204616223503 0.00072164250685192717 0.0018570481064144773 0.00111572557852069 0.0015514971735612602 5.3197197725898709e-05 1.8190587418555137e-05 0.0001121755490848865 6.2833066419880554e-05 7.0687463935233162e-05 0.10517341211417468 0.001625244028322119 1.1875044631620239e-05 0.00028946446844532281 0.0027383509527497199 0.00048687700704226448 0.0028003831936929211 0.00087907117327561146 0.0066178953389840053 0.00047645471132220938 0.001323234895245893 0.02233195161835121 0.02770019997332164 9.3826440065264698e-05 8.4221719197006276e-05 0.00042592521612836733 0.00010821043313176805 0.00019858862722503941 0.021597406056558729 0.0075170695170597296 4.8517931917821733e-06 0.08586332168976904 0.0089804788179119605 0.0016895358837132595 0.0067878464614091454 0.0062074071100349237 0.00017846231531683612 8.6533500158068438e-05 0.0023518721039566511 0.0029189064981759699 0.0084423782102027688 0.00865313193250054 0.00034077038327463599 0.0009672940875775915 0.004474156720166645 0.042768425332380455 0.023501348304040496 0.0014160881014161557 0.00015377780703712548 0.00016314180079217411 0.00077286222584136061 0.0050320261198961696 0.00025891343959103858 0.0042299335337422873 5.0485171656597704e-06 0.028123803072780784 0.00012975389700215878 0.00032009139757386055 0.00089485673986448985 0.004104990010048817 0.0060355547476631105 0.00033371916243942097 0.01157602777212851 0.0021456124875489264 0.00022901952267785001 0.0073572195580482534 4.0172449336428364e-05 0.00028641056305267335 0.00079680349278859878 0.0014598719360041999 0.096495384367089876 0.087028143942783492 0.0015482491736510723 0.13651125796420571 0.035499937692099623 0.022432641256802905 0.12885416481220935 0.21187710128080323 0.0014065469458995291 6.3887147408585738e-05 8.9693314841772848e-05 0.0055573437025255076 0.023139539822839304 1.8594376550448295e-05 0.0007586411544130802 0.10418752495380365 7.0756060426591626e-05 0.035605946847092451 0.027592002651592021 0.074786781686749404 0.098424539419641424 0.1660461411660685 0.12454500539115751 0.00061637695689787785 0.043150984388593411 0.028173412792533596 0.0013812888818642542 0.00014530195267825928 0.00019891013886144608 0.026237422204189627 0.049668548055872966 0.087052653979643638 8.8611976684785642e-05 0.021661193294275724 3.7138675445326117e-05 0.0058968564288482874 3.3279733683572634e-05 0.020627241243148822 0.030885950355491187 0.0058219103277209567 0.078133895210668103 2.2770610745401586e-05 0.0012687772394413259 0.0026998974171849772 0.24350861790278178 0.19875003075942438 0.1285253746774109 0.0044959041428222386 0.0030708520753195082 0.15785836978325854 0.0050923041516497212 1.0375123297082217e-05 0.0080631031945896728 0.00036546700357368894 0.0023203645085636826 9.7686178009674803e-05 0.015333274479464361 0.017651080996112688 0.082079231036687739 0.15721339225840764 0.095248105620940382 0.00051605815691185353 0.05117065222445473 0.11985880095270546 0.0063718410295213398 6.6724557157241994e-05 0.021750149352006264 0.0089554523407245745 0.053706873028475814 0.050370160802933203 6.5147766929818295e-05 0.0028132103743868245 0.017361882218249528 0.0075908194414713998 0.030588168681418546 0.072763290144445436 0.052236977056425091 5.4093229767637173e-05 0.0012203997435859992 0.001425370364903325 0.014814851787365758 0.02061574025836381 0.11467425653509192 0.0021176348886115639 0.0012144501219905858 6.1736465141335584e-05 6.7110090467925387e-05 4.4701702082825651e-05 0.000202864920072