<?xml version="1.0"?>
<VTKFile type="UnstructuredGrid" version="0.1" byte_order="LittleEndian">
<UnstructuredGrid>
<Piece NumberOfPoints="558" NumberOfCells="1054">
<Points>
<DataArray type="Float64" NumberOfComponents="3" format="ascii">
0 0 0 1 0 0 1 1 0 0 1 0 0.5 0.29999999999999999 0 1 0.29999999999999999 0 0.5 0.69999999999999996 0 1 0.69999999999999996 0 0.049999999999899652 0 0 0.099999999999814668 0 0 0.14999999999970359 0 0 0.19999999999955789 0 0 0.24999999999941211 0 0 0.29999999999926641 0 0 0.34999999999912063 0 0 0.3999999999989749 0 0 0.44999999999882923 0 0 0.49999999999869432 0 0 0.5499999999988151 0 0 0.59999999999894682 0 0 0.64999999999907843 0 0 0.69999999999921003 0 0 0.74999999999934175 0 0 0.79999999999947335 0 0 0.84999999999960507 0 0 0.89999999999973679 0 0 0.94999999999986839 0 0 1 0.049999999999896842 0 1 0.099999999999753911 0 1 0.14999999999961891 0 1 0.19999999999974799 0 1 0.24999999999987299 0 1 0.34999999999993492 0 1 0.39999999999978308 0 1 0.44999999999963131 0 1 0.49999999999950101 0 1 0.54999999999963112 0 1 0.59999999999973963 0 1 0.64999999999986979 0 1 0.74999999999993494 0 1 0.7999999999998193 0 1 0.84999999999982645 0 1 0.8999999999998336 0 1 0.94999999999997109 0 0.94999999999979179 1 0 0.89999999999958358 1 0 0.84999999999965292 1 0 0.79999999999999982 1 0 0.75000000000034661 1 0 0.7000000000006934 1 0 0.65000000000104008 1 0 0.60000000000138687 1 0 0.55000000000173355 1 0 0.50000000000205869 1 0 0.45000000000187229 1 0 0.40000000000166441 1 0 0.35000000000145642 1 0 0.30000000000124832 1 0 0.25000000000104028 1 0 0.20000000000083221 1 0 0.15000000000062411 1 0 0.10000000000041601 1 0 0.050000000000207989 1 0 0 0.94999999999979179 0 0 0.89999999999958358 0 0 0.84999999999965292 0 0 0.79999999999999982 0 0 0.75000000000034661 0 0 0.7000000000006934 0 0 0.65000000000104008 0 0 0.60000000000138687 0 0 0.55000000000173355 0 0 0.50000000000205869 0 0 0.45000000000187229 0 0 0.40000000000166441 0 0 0.35000000000145642 0 0 0.30000000000124832 0 0 0.25000000000104028 0 0 0.20000000000083221 0 0 0.15000000000062411 0 0 0.10000000000041601 0 0 0.050000000000207989 0 0.54999999999999993 0.29999999999999999 0 0.59999999999999976 0.29999999999999999 0 0.6499999999999998 0.29999999999999999 0 0.69999999999999984 0.29999999999999999 0 0.74999999999999989 0.29999999999999999 0 0.79999999999999982 0.29999999999999999 0 0.84999999999999987 0.29999999999999999 0 0.89999999999999991 0.29999999999999999 0 0.94999999999999996 0.29999999999999999 0 0.54999999999999993 0.69999999999999996 0 0.59999999999999976 0.69999999999999996 0 0.6499999999999998 0.69999999999999996 0 0.69999999999999984 0.69999999999999996 0 0.74999999999999989 0.69999999999999996 0 0.79999999999999982 0.69999999999999996 0 0.84999999999999987 0.69999999999999996 0 0.89999999999999991 0.69999999999999996 0 0.94999999999999996 0.69999999999999996 0 0.28307294598219601 0.50789252727458634 0 0.25676291524611189 0.7436741304886243 0 0.25195515620380449 0.25883339815888678 0 0.57611405284611883 0.50165903596042916 0 0.77846603114747959 0.49850927265137401 0 0.39801143831225599 0.16651381068160659 0 0.39536230704883951 0.84069429572832477 0 0.15720202157091859 0.60665697304410315 0 0.1650278706801647 0.38791388161335733 0 0.43249999999999988 0.43937499999999979 0 0.35864735590330371 0.63903383440414463 0 0.82709327591091286 0.84937141670920724 0 0.61343887413683884 0.856862479058357 0 0.82709327591102189 0.14937141670914489 0 0.6236733212988993 0.14864538214901801 0 0.14474682429600511 0.85524784522713515 0 0.14332333627550789 0.14578431753966009 0 0.36575549820117997 0.31677992835137742 0 0.46666084890304671 0.57634471035397938 0 0.27474541102162192 0.11822029332053539 0 0.27270076654418179 0.87751467830216623 0 0.1215415378367805 0.72939333680004137 0 0.1247745017231483 0.27198077544791172 0 0.6879972333610942 0.43038561374960838 0 0.67323294229744413 0.57556450033612505 0 0.86411095495256451 0.42388805655111889 0 0.86956835336234861 0.571283299838105 0 0.50202631463681879 0.87892870825713787 0 0.51076801031701946 0.1202837388510348 0 0.1216098864341134 0.50637075089503902 0 0.27866744612395528 0.38416094670951489 0 0.7250000000005199 0.89375000000045834 0 0.72500000000001008 0.19776155966387679 0 0.52289427570932567 0.3932284363388488 0 0.40326160981139969 0.73346192995102844 0 0.77354604466818633 0.40378688774472771 0 0.77293540622714185 0.59448302402785813 0 0.57412547362576272 0.58273804879550706 0 0.26573297623774761 0.59828298563722948 0 0.38244435121258652 0.51653317813019495 0 0.72500000000000064 0.7952620967744265 0 0.72525833953073282 0.1032114801687094 0 0.90299850604011456 0.79563452813489832 0 0.90416666666660628 0.9041666666666166 0 0.90299850604006393 0.09563452813493091 0 0.90416666666668166 0.20416666666667119 0 0.54782696902220018 0.79245182748204157 0 0.55306006949600994 0.20198184231352201 0 0.20050006573841939 0.53248514016039872 0 0.33758650185219202 0.23837101504325639 0 0.35312867752657662 0.084946736076730367 0 0.35752321586431363 0.9185439911803448 0 0.42377727103934271 0.25099357235810238 0 0.086179601630648681 0.64647209519980475 0 0.087545339447545459 0.35122518864182262 0 0.083411279318375747 0.91030024466934134 0 0.083411279318303222 0.089699755330707398 0 0.91696753777131557 0.497780560203536 0 0.34258405725730701 0.4444034294386992 0 0.33123028043633618 0.77629643437932982 0 0.2236846579037573 0.67380363126050236 0 0.19901705110390991 0.9175543425573498 0 0.19922788606653311 0.085920220746880993 0 0.19670163708476801 0.31472518408333222 0 0.4656888918609538 0.78493261229743638 0 0.083105206071452636 0.79992298667296435 0 0.083105206071467416 0.20007701332709979 0 0.57724883562309992 0.92155686857100794 0 0.57667858002728545 0.078486105337742612 0 0.49102375406324739 0.49123754822244059 0 0.4409427642593301 0.35743108089689513 0 0.43698630808430822 0.080423614171545449 0 0.4367309254023824 0.92065556789053882 0 0.22278230690790279 0.44824268025881547 0 0.6084546825910605 0.37989672713932537 0 0.43846182030517877 0.64845797726506715 0 0.077693244765132896 0.56932317963405099 0 0.078358742472063481 0.43365249433908948 0 0.6541250972820879 0.49999999999999989 0 0.21858834311891909 0.81980263716112767 0 0.2185883431182947 0.18019736283949719 0 0.31378396441836959 0.70157213313026345 0 0.79680861578988083 0.92656778056766709 0 0.79680861578956375 0.22656778056752541 0 0.65394964615507722 0.22666784374016369 0 0.47357141910802508 0.1873585799078378 0 0.80185942888539485 0.77452061303608133 0 0.64753070846764316 0.77332939069435502 0 0.80185942888501827 0.074520613036224564 0 0.65507451745379841 0.92229208810758578 0 0.29348325746214782 0.31350119524708198 0 0.91750694127107502 0.36982372220068471 0 0.91750694127105259 0.63017627779935648 0 0.65408113592120842 0.073941773121567966 0 0.33122374654748771 0.57588941099433744 0 0.84723782639812573 0.48638347960178252 0 0.50715858906372158 0.63295939104129484 0 0.83573492347052902 0.36590755630746369 0 0.83758014339878906 0.63222013025741819 0 0.6405463747586706 0.63290524857395714 0 0.33084213324567391 0.16272720141332131 0 0.71508799138962864 0.36622814920737751 0 0.71406021706547751 0.63292083137662503 0 0.18269480424590959 0.75905448272264375 0 0.17933913398461551 0.2350063570234002 0 0.4089290844030305 0.58728915500154233 0 0.53245488764484505 0.55078124999999989 0 0.61209567303293111 0.44669033081290321 0 0.7152569930854884 0.5237994455134295 0 0.33403534827021109 0.84402799729020661 0 0.27499999999933927 0.060310814194988557 0 0.27609987656793722 0.94991445621608572 0 0.82862096804812391 0.55037090955459045 0 0.73483647259922602 0.44789725365921768 0 0.049706944316475897 0.72477277076253799 0 0.049706944316556423 0.27522722923869108 0 0.16500388252850301 0.66612077714085194 0 0.62042975506801734 0.54295974692364424 0 0.38083244760691543 0.38531983672244652 0 0.93814194660195893 0.44426664081746747 0 0.93732437411268477 0.55911392101136159 0 0.93677536231884972 0.85000000000000286 0 0.93677536231883773 0.14999999999999089 0 0.52375890611712683 0.059318771819432882 0 0.52122150208832174 0.94089974453840242 0 0.15801167086041079 0.46008690540259539 0 0.14617343800780541 0.93808063414349496 0 0.14618258501891079 0.062070108745602003 0 0.76901770135486491 0.84293557325473656 0 0.77144070960558853 0.14311854477243749 0 0.68697391633157634 0.84450604838764298 0 0.68391457121233579 0.14440470121196541 0 0.26104540868854792 0.81401944968719064 0 0.065374659239661639 0.8551091961254178 0 0.065374659239632718 0.1448908038746782 0 0.55899371797446828 0.85003102233514438 0 0.56202748619534593 0.15054058349222879 0 0.45677673713123867 0.84253684404072415 0 0.85170973911348691 0.93569607295217616 0 0.8517097391133297 0.2356960729520409 0 0.068743045408989428 0.48853989837882689 0 0.22033343844674469 0.36963382230740238 0 0.85491058998424563 0.76004753345552634 0 0.85491058998398861 0.060047533455626502 0 0.26429849586623999 0.19346700179430079 0 0.14934928745814749 0.55042914607228977 0 0.59814117807200873 0.23398510860739519 0 0.49695729691142171 0.25014895411178018 0 0.59636844454254345 0.75937156204589151 0 0.27820712747429932 0.65530134213254643 0 0.44288491854585582 0.14116182884956319 0 0.14223753364722069 0.3341983344262433 0 0.81973119833356312 0.43505687159469048 0 0.43507373378304309 0.49699695397193322 0 0.49077833859261139 0.35229981449445641 0 0.33277555741076909 0.36432196682010132 0 0.13737030665753211 0.20313708640667491 0 0.1382744753146134 0.79650574229207483 0 0.29124338931648802 0.43334555462578611 0 0.94399509803918602 0.75600490196082126 0 0.94399509803922566 0.056004901960802607 0 0.94399509803919068 0.9439950980391687 0 0.94399509803921056 0.24399509803922639 0 0.65481233915350323 0.35652751921065562 0 0.48858720058566618 0.43964267759203868 0 0.7250000000005199 0.94981617647078953 0 0.72500000000000064 0.2498161764706 0 0.88088768115933802 0.84674609810493673 0 0.88088768115941807 0.14674609810479519 0 0.56836770495988642 0.352306235
[...]
<CellData Scalars="pressure_p0,region_id," Vectors="velocity_p0," Tensors="">
<DataArray type="Float64" Name="pressure_p0" format="ascii">
0.041697795834511497 0.044945077301604339 0.050971075531706642 0.059793260138241676 0.071731730550750217 0.087278614074682848 0.10707387056910525 0.1319688486612145 0.16301281705830353 0.20210810111429967 0.11965397586418028 0.12425445416139005 0.13268994501413062 0.14477529118917026 0.16067150162152091 0.18067575331060773 0.20518719535043048 0.23472368224066648 0.26987730886146655 0.31170647461796763 0.0018705751770296717 0.0018894234563067635 0.018645553521984128 0.014932354176729137 7.4295447643370105e-05 4.9916356591323799e-05 6.2483922650242426e-05 4.3189178517612798e-05 0.00013824734975633726 0.00032183535796299608 0.00019355416485149297 0.00029203108921584993 7.3523051751200324e-05 1.3694667178010195e-05 1.0169416113338611e-05 0.033648632542570514 0.035100707125761299 0.034208755148288389 0.036681227036866652 0.056023378654552557 0.022298078974817767 0.033873890326725574 0.031699597935977583 5.8163491602836691e-05 0.030110730713669206 0.0026353215505267144 0.00097820891385218592 0.036709274097142419 0.0060264140167922628 0.0012421012325531308 0.0095890122888463714 0.019362240414801286 0.027984239474132495 0.021102050742813357 0.022212703614024398 0.00098232309979195704 0.0210681017218287 0.0046005021988370608 0.095928370229814097 0.094744048276084125 0.14869948701081673 0.01073831943467024 0.11909814937515165 0.010132904102696152 2.2318579778030363e-05 1.7198885167400695e-05 0.012186921503295176 0.020249864975428983 0.065660485188473297 0.0093852235177471852 0.088761430731486735 0.040440528180627502 0.0071869164540727462 0.012793182225722148 0.055244486045393691 0.0046543836933041656 0.0052293127245273381 0.16192524314560566 0.13591545054347337 0.0088113377468375907 0.04122101019101676 0.021103698788231796 0.033121119569481945 0.041880477317776513 0.0097456526985363126 2.3843148999914019e-05 3.3258189806626626e-05 0.075401039969433328 0.11741436781068064 3.4762919106076583e-05 2.4621502920314152e-05 0.00011252058532547946 6.5098507581631761e-05 0.00010600894385784229 0.018283211796014665 0.014009306163344133 0.19551194378585787 0.0059664257171126254 0.015931200056443127 0.041754501226256527 0.017116466829054818 1.6321792248525323e-05 1.1939820571837777e-05 0.00013455292954282961 0.055203681735216698 0.019223256947661686 0.012815965854865077 5.9575520638854523e-05 0.00045742537006191884 0.047029862311504203 7.7954485593209312e-05 4.988585443143114e-05 4.0734126876413875e-05 0.049008063992980383 0.01450545032101392 0.05058015849707289 0.015883574022743166 0.22744503936627952 0.0051397153921235832 0.0047415676046782262 0.20659367273591395 0.0093565153170294454 6.8059609506880019e-05 5.3009013326827367e-05 0.077821210615668421 0.082502420362115955 0.017945854342198454 0.064754415449400388 0.043782023494015936 0.0072140876452636404 0.0083032516643674389 0.11757872222968346 0.00017232917964343959 0.00042343317257737575 0.026885922130870092 0.03265970519226389 0.023097639674759661 0.017315418057092725 0.044282696063696975 0.029106524149027292 0.071702260353733421 0.017700813330155787 0.013050583021168623 0.019282610968165713 0.029950473126437633 0.025755708683851092 0.01906774794437607 0.0031600539815224409 0.0020496839336104971 0.0030656951125777416 0.035686925272887089 0.005902318944040837 0.00051263940435057023 0.0006760026092606764 0.0018523245015271742 0.0014139125228322933 0.022206037386272831 0.0011944880229701846 0.049157971937835415 0.0060779933813418577 0.00060811160702902659 0.013598499425970757 0.042967109142539366 0.019816888399517327 0.036553629126117551 0.022356420726773605 2.4790448498924094e-05 1.8136602037783759e-05 0.014642696653271382 0.00043337061960957364 0.0048987458911094574 5.1829203391357313e-05 4.689232134357188e-05 3.7044851020758312e-05 3.8659284858629744e-05 0.0026442709732778184 0.00087547842830007277 0.00029105381431579377 0.00066818341868281632 0.0020895806195333948 0.00032978756041882257 0.00042412385082837953 1.5958962402209452e-05 1.1663078586510407e-05 0.08329969772150897 0.00012540911657997453 0.0094371711268145357 0.031916381617498019 0.00011908621696150903 0.00026507218070264608 0.022422391611463002 0.00015444852621640724 0.00068181145982666095 0.00019057181896784241 0.00011756242902958142 0.00027268563473057685 0.0021551068694364277 0.023462564294140835 0.086648938467126971 0.0074514710379761937 4.0860102415980317e-05 3.0008916698806864e-05 2.6202654498324614e-05 1.8887443500121953e-05 0.014437377490126494 0.017311034810412167 0.020503748738574572 0.025985485372746663 0.010551653325858057 0.0070186807572311834 0.00010112600499068238 0.016067800068989776 0.012128210160920961 0.063329482252371921 0.031489532209258736 9.483678080750391e-05 0.0094729722389757277 6.0487777517229947e-05 9.5220362915675837e-05 0.028804078778313365 5.320570259875663e-05 8.73013074078418e-05 0.0024489661007622622 0.00088928822117871913 0.026961735575695093 0.042396662899756271 0.0088459830993143102 0.0076865067206374647 0.03107992688481629 0.033084400986612493 0.00013653881478435897 0.0019593040512160625 0.047946902125472826 0.0041746947537946461 0.017314955898581143 0.039301954719870622 0.00036395458566013431 0.024708798750085449 0.00031646788096070853 0.00048803746390271429 0.00059539444954967088 0.0070906052196363333 0.00022977007650776265 0.035346881959490158 0.032701000194000532 0.020721862260642154 0.010619485378786968 0.0092687121073824728 0.0099152377971932892 1.1240666959366297e-05 9.1816710109882259e-06 0.00017452432991925415 0.014646782411872368 0.00029063683988349726 1.9804215996990295e-05 0.0001277762495346495 7.34754441663456e-05 0.0015781462353458258 5.1252856402951894e-05 0.039757542436482086 0.0015526728491921872 0.03834195785469742 8.7835229164147269e-05 0.026798996964142653 0.033672394850463042 5.0231411224217751e-05 0.0025448678474013272 0.069749889816573166 0.027463999516862719 0.016386719503352187 0.041987389382627964 0.0032320907017290711 0.0021480607707139911 0.0020007598309388897 0.0054063344483223658 0.0058619581305895448 5.0761605583569853e-05 0.10171208543274946 7.1357350662302229e-05 4.6364643977823289e-05 0.0073406699810893141 6.2362772956490802e-05 0.00011075763591068381 0.00048953290396762069 0.0004271904453489613 0.08739166231365933 0.0093132254490997657 0.078173900313994016 0.052026021500934376 0.00026086904287401342 0.094884191996228634 0.17157905648686378 0.067297555158280759 0.0013050284994493763 0.036194283517931101 0.0010612923536347692 0.00033730675162725143 0.0044139491377542779 0.0071084575584211222 0.00025686690678216451 0.0021763335571734748 0.00018243164722971287 0.00036913048495532038 0.0016803320358246706 0.0043885340881000658 3.230297109443777e-05 2.2907028962223908e-05 0.00013051627891206075 0.00030509571446821616 0.0001096398010232152 0.014359306651675681 0.00013878072248985995 0.017483828018089845 0.047397350234000164 8.7535607056824793e-05 0.00018197885080911463 8.5393098594992631e-05 0.012953481180111087 0.0055464278750254076 0.060628978521562765 0.0065750751411754772 0.0046644210771848126 0.00014384245185790717 7.8367150548904998e-05 0.0013811441108200343 6.7598677010097057e-05 0.021180072640524142 0.00014791695212412485 8.0244896560209848e-05 0.0017646384908593488 0.01362874070107299 0.038400101515621773 0.0010756263221807277 0.0013135798616775443 0.0027783189851886716 0.0037400306118854088 6.2852620579657433e-05 8.481589865874084e-05 5.1093631899553645e-05 4.0310853279422683e-05 0.025526307498533393 0.0027444023651410909 0.00055203444094958779 0.047170642075181513 0.0084322722725923525 0.039792555213409339 0.0015501510305257868 0.0025753741409693933 0.019160584595745413 0.02163320721000362 7.203716551147169e-05 4.7699458754512018e-05 0.013743020569469563 0.11643544470399646 0.20496527750589194 0.0013628580284061251 0.0011563362188879297 0.030247160481832111 0.027964466751529901 0.029391484321243208 0.013396034917934018 0.066371860380521341 0.081297600044161991 0.12994540213112771 0.061906394300155494 0.014193999231615149 9.0555776443921747e-05 0.00013031899205132386 0.065431185451413132 0.0088807362031893527 5.3449579095420105e-05 3.645812621411862e-05 0.041221890109788925 5.7607808225570487e-05 3.9603137497119654e-05 0.008423127642640511 0.081513738795506635 0.010588070240091943 0.0064340244109678309 0.0055054759906997819 0.03849183321672435 0.013807257589341596 0.0095772050010923468 0.0035175266767186481 0.017274833590234028 0.074324527877368846 0.13303568876773472 0.0070397333697445096 0.0096114136985442061 0.0046222801363443207 0.0099170351652223005 0.11825693483700536 0.0075503190174915956 0.003315204840302728 0.062069463423187948 0.027538749480009686 0.0019194148530539963 7.8334192996991732e-05 0.0016166590783953617 0.00017319691480616165 0.00039618492556803676 0.0034832918876218722 0.0039452612923096889 2.9001583573251011e-05 0.00082769846262174709 0.02129218520167913 0.0042162047304727373 0.00021923308119935146 4.6797486491005242e-05 0.001084081242993448 0.022730466423361743 0.048633831144001605 0.0005462103429589427 0.15513878921776872 0.0045581547292274545 0.0001922901720409024 0.00026435690776158187 0.010079703061215263 0.057625222038786686 0.00029076193091129201 0.00041627021025207036 0.00015605360084038896 0.0001034239944277198 0.0016896599617967074 0.002735633081332579 8.6805327581850771e-05 0.052745342287439968 0.032219227190474174 0.023797142710521295 0.00029028067655779668 1.7511996890519134e-05 0.0039197767198801466 0.040506127195372131 0.017586877983187942 0.00011635850897423385 0.002558865705998311 0.0028387471034295973 8.5325672372964275e-06 0.0069242862392646203 0.0063038574578940468 0.071338191915885127 0.1199977237279122 0.0026238274280793623 0.029828587220494078 0.021793211626367243 0.00031555273735661856 0.005709750081756438 0.090614243426430735 0.00026034460269044071 0.04554140722884182 0.016593275518456328 0.00011968265929206278 0.0076275263071886711 0.11236299701040708 0.0053748429792693717 0.00020124135580425889 0.00051356574012844172 0.019194466711511444 0.00019079465797999128 0.14237154892279758 0.16857655937391985 0.26325235159625598 0.22196672283907992 0.056432370195072468 0.093288241581692175 0.16140742236294264 0.07541669959065242 0.10864080835381665 0.10596388331997207 0.018028304988680532 0.010715165888287106 0.064339115944547498 0.00015121996536693642 0.1304883540026795 0.0080132274180456237 0.0052970492217293075 0.013685086403021143 0.077800256187209649 0.026103342083451032 0.015351651611678868 0.012598779029560261 0.00054890523797252887 0.025228925021284546 0.0018832085803370141 0.0063841832531627719 0.0040127692818767505 0.0010566696818550022 0.025349783629574116 0.030886072735581364 0.0018576067642164977 0.00066949992232893257 1.1765682900364922e-05 9.0325706104679921e-06 0.001900937585683028 0.001428990926964701 0.0008064540600028902 0.00012101319799370553 6.8930580265326219e-05 0.069049386443991306 0.00010362441136685393 6.2053699399543485e-05 0.031216933668017859 0.047535509513003005 0.00069295516389840449 0.055918777595153617 1.328282286070536e-05 9.7704708920317372e-06 0.00010020712719340454 0.00020737758271891719 0.0029302985579161681 0.037539867168294994 0.0039630393165954736 0.00079408826853748335 0.0010406133448363256 0.0039736156337266907 0.0032172643383811721 0.054332876335434259 0.038312685559565768 0.0095371559562045256 0.014751611021288594 7.9183811251402973e-05 0.00014336748202738707 0.040805897596694889 0.0083881027274592523 0.00023413575567431734 7.7619244097463017e-05 5.0057870222551285e-05 8.7786227451213858e-05 0.0035011660314599596 0.083723682469537014 0.00010001732434116096 0.0063441010421926847 0.057570758430440697 0.047598343801337789 0.0085492255622341574 0.041774391388968532 0.00068047142145867881 0.004395313149226786 0.21419467646705076 0.0058202255277036742 0.13452169334127947 0.0097686064316369944 0.00071413305026394496 0.00052789746075930001 0.0012278223688973423 0.00075135829686745308 0.00051875782250376866 0.0015254988601508745 0.00059167296793229758 0.0066277007360038102 6.4159094563233702e-05 5.5378615293879809e-05 9.2053543135240025e-05 0.00011277782701564934 0.0036090826888300724 0.0046033385339689144 4.9030409066643084e-05 5.6581528716703257e-05 3.6882743582825417e-05 3.2302289061250471e-05 0.048603056756448729 0.012872761323310288 7.8732737097550454e-05 0.00015935295266613199 0.0013590895107694219 7.6753243782448332e-05 0.00014563622728042838 0.021400169662922307 0.00062737401950145643 1.2674094196581649e-05 9.301075152459674e-06 0.0063955784036734426 0.034033065622516213 0.00081481992013070518 0.028635517804438078 0.00070542672776644562 0.001336365196751876 7.011411257100967e-05 4.7447722103964285e-05 0.0059328148150696557 0.00051288674043641481 0.00067921487819905789 0.00059806586397674285 0.0055197903977726899 0.0030754742311690066 0.009075073329944559 0.0012512656298658076 0.00048629145063376709 0.026961163703598662 0.017088452178876459 0.0005925557434421616 0.006223561004542931 0.075939666194108912 0.052079398094971606 0.0023484077355450418 0.090343395642131202 0.00028577148240953667 0.00076832130956331658 0.00036566042494975937 0.0010114866942157836 3.8621112283321213e-05 5.5595234505537492e-05 0.0028098900570400261 0.0039842195244252157 0.075704596917573738 0.15436272814376428 0.099895698335492417 0.13683820539280911 0.060374314658810747 0.00083980777403080606 0.0031230731020719547 0.0045722783136815824 0.0015432281093020069 0.0046276354069359673 0.0048460722021441199 0.017379282756775145 0.014304990503428611 0.044963969303509169 0.00096795394699671121 0.00035249669329097101 0.0041193548923887649 0.009509758240606932 0.010046796194100201 0.032281480559151504 0.029534568400944029 0.093789908922826654 0.0070437552619118686 5.9599994703617051e-05 0.00010240098879298176 0.01930998982200641 0.017187479735630919 0.016341624313444755 0.012795604660645585 0.018045951457618215 0.023935591665025995 1.8067943109510391e-05 2.5041537622779174e-05 0.0011274127576422002 0.0030166446664898735 0.00025424999456969365 0.0002453097295461245 0.054087843415996692 0.00023028145713246712 0.00029014192347744116 9.8083813684051428e-05 0.12599114399097294 0.00043501002901330727 0.0012016697803564009 0.029928924381928321 0.00017341164836093398 0.00023721737408691359 0.033650789625399677 0.00017541323702332184 8.9572005307315177e-05 0.019843392150039212 0.018750962504226781 0.00095479117781901166 0.001633212366658078 0.00066534074621331244 0.026653986535913179 0.00044990577780752998 0.00035658106227495561 0.11733713626698966 0.0024006932926740809 0.00078534262904304581 0.00029169901766580282 0.0051276613415729899 0.00015417545738481895 0.0001753635665612403 0.0060484346937482751 0.0032005735941287297 0.027326633448098384 0.18113693217701676 0.0037994163730488972 0.0039912847901357271 0.0067895577035649683 0.0020861687162894577 0.0069896136319625938 0.07308580542007799 0.00019023818112881238 0.0090444099477370171 0.00026782805452400934 0.044218657758094984 0.00011858647151748462 0.0019932528959457287 0.00012474347136132307 0.00010559727949484288 0.0098908087116145651 4.9185152955765625e-05 5.9609782226605068e-05 3.9948163017408862e-05 3.408031593354394e-05 0.0016952122107385414 0.012349424750914891 0.011127517545508295 0.053628855619540325 0.0087300097328750631 0.10523404020794287 0.046804336025489654 0.00046237315322792967 0.001275407340990365 0.074981278242469904 0.11948783527431331 0.00093015030813057469 2.3986244152826073e-05 0.00071665595987634016 0.0004016358943125819 0.034299464090016926 6.236580495002557e-05 5.5505278549311029e-05 8.5813704211177842e-05 0.00010051634039827704 0.0012221456315356289 0.024117499639357103 0.04211710973752518 0.041369689525359243 0.00013741319274697281 0.0022496225068415745 0.00014729784671444789 0.078407001517499741 1.4995380660826192e-05 0.016630056723753589 0.064713961101837303 0.0031409626981172846 3.3994628446982923e-05 3.2301654156633485e-05 4.6807419334701295e-05 0.00037404611785914996 0.0005802055758958246 0.0016229655225093505 0.10262662680371305 0.0043014696972047423 0.10677808126823195 0.0034133721986886393 0.081833644695565269 0.00017748023322531378 3.2081892750766277e-05 0.00022017715744986486 0.017890360661481003 0.025967652324971453 0.0055067047291141678 0.0053905999721586264 0.06806928555236133 0.07874132084924422 0.058887641938049733 0.060310238499333375 6.2433015782704106e-06 0.11929528795228916 0.093664495791484448 0.0023226621202063016 0.0015018413914757078 0.0037897887738642493 0.002177073656294951 0.0029200233007381409 0.00011233414955588742 2.6399841536177439e-05 0.00018269558458009632 9.163398612658582e-05 0.0001145272705527474 0.13041373422332206 0.0032719584895312022 1.7826860363121159e-05 0.00060670533869880416 0.0048693944116158403 0.00098273358369992125 0.0046448725330424509 0.0017310575217081567 0.011503248350104026 0.00095155910300621861 0.0025997237372450471 0.036298594981104618 0.043453704928994724 0.00017105384400374599 0.00015175297376523986 0.00084028828888948017 0.00019741105365630665 0.00038961582581424766 0.034905076380128422 0.012965003958901131 6.5292636263418221e-06 0.10879110628520043 0.014099208048601332 0.0032189000811517314 0.011056520204976954 0.010169598423558435 0.00035325561507516139 0.00017226157308804685 0.0046247197568500386 0.0049840345637344671 0.013614423402331276 0.014643828530942246 0.0006914335560598622 0.0019479548787518877 0.0085736037909342738 0.055635677973950609 0.033082557104694696 0.0026765974416658005 0.00029803426386493037 0.00031697671314734782 0.0015308310070276739 0.0078614859498917812 0.00051043766155111129 0.0074799540894453231 7.2821077090490644e-06 0.039390110983832265 0.00024527611230400681 0.00064412373601211229 0.0018019625142590115 0.0066245220973993072 0.0093442781366702039 0.00065507065351044726 0.018441191053511462 0.0039714273801737254 0.00045308440680944678 0.012718947382628302 7.3351817081809259e-05 0.00058894397563798151 0.001641614291832366 0.0029654285494525182 0.12090833547334531 0.11027660638001406 0.0031679518418679352 0.16309946518610241 0.050737048378219199 0.031627384430175855 0.14656536297072692 0.24168339447799403 0.0027037845727646897 0.00010641511264345292 0.00020134233395016055 0.0099815121495003736 0.031895618973966984 2.9361821956268035e-05 0.0014162026186579143 0.1282308670101453 0.00013240515637463613 0.051123118871392211 0.041184370851624935 0.09234389741442689 0.11599045231530143 0.19581487523172517 0.1536618333957975 0.0012781002581218372 0.059299649788647241 0.040897306673183066 0.00273964465536962 0.00028146673826793991 0.00039247524963265091 0.034816289325152398 0.064945610656967703 0.1128388524241738 0.00019910495507954222 0.035375264314545837 6.6839438726016415e-05 0.010351022195689775 6.0243681192302678e-05 0.031815235874672373 0.045783665795574878 0.009858411062057695 0.098420555695646922 3.7478456746594332e-05 0.0025906367368121689 0.0052907949803402323 0.27384535580380365 0.22977312422403806 0.14734522077193343 0.008863100114987893 0.0058810311335329348 0.17612714314056449 0.0098138166754366193 1.5403404478726908e-05 0.014189344687218376 0.00071435963831187549 0.0042872257836883733 0.00020106840563530491 0.024958262531375543 0.026130494562947859 0.097451198591680929 0.18494913857244166 0.11836672854562466 0.00099058809201052369 0.06384277201137635 0.14519173437613048 0.010291151839762085 0.00014601397243199193 0.031144004057039983 0.015543133922052829 0.073102403497783783 0.068986540116118628 0.00012297969323604339 0.004694106818961096 0.024471063417233159 0.013637712449293297 0.040105540159618612 0.095808020088534743 0.072336217556244975 7.8537365396098223e-05 0.0023121923277436653 0.0027069666614540494 0.022240809487634995 0.029898924598199039 0.13978100141549302 0.0039162069717355854 0.0025216196309291411 0.00011201725396550554 9.9529307831586165e-05 5.9774365682304256e-05 0.00043675740558190039 3.1403900588539653e-05 2.0748647692766813e-05 4.3884124312603209e-05 2.8535230283715874e-05 0.0041874906