<?xml version="1.0"?>
<VTKFile type="UnstructuredGrid" version="0.1" byte_order="LittleEndian">
<UnstructuredGrid>
<Piece NumberOfPoints="558" NumberOfCells="1054">
<Points>
<DataArray type="Float64" NumberOfComponents="3" format="ascii">
0 0 0 1 0 0 1 1 0 0 1 0 0.5 0.29999999999999999 0 1 0.29999999999999999 0 0.5 0.69999999999999996 0 1 0.69999999999999996 0 0.049999999999899652 0 0 0.099999999999814668 0 0 0.14999999999970359 0 0 0.19999999999955789 0 0 0.24999999999941211 0 0 0.29999999999926641 0 0 0.34999999999912063 0 0 0.3999999999989749 0 0 0.44999999999882923 0 0 0.49999999999869432 0 0 0.5499999999988151 0 0 0.59999999999894682 0 0 0.64999999999907843 0 0 0.69999999999921003 0 0 0.74999999999934175 0 0 0.79999999999947335 0 0 0.84999999999960507 0 0 0.89999999999973679 0 0 0.94999999999986839 0 0 1 0.049999999999896842 0 1 0.099999999999753911 0 1 0.14999999999961891 0 1 0.19999999999974799 0 1 0.24999999999987299 0 1 0.34999999999993492 0 1 0.39999999999978308 0 1 0.44999999999963131 0 1 0.49999999999950101 0 1 0.54999999999963112 0 1 0.59999999999973963 0 1 0.64999999999986979 0 1 0.74999999999993494 0 1 0.7999999999998193 0 1 0.84999999999982645 0 1 0.8999999999998336 0 1 0.94999999999997109 0 0.94999999999979179 1 0 0.89999999999958358 1 0 0.84999999999965292 1 0 0.79999999999999982 1 0 0.75000000000034661 1 0 0.7000000000006934 1 0 0.65000000000104008 1 0 0.60000000000138687 1 0 0.55000000000173355 1 0 0.50000000000205869 1 0 0.45000000000187229 1 0 0.40000000000166441 1 0 0.35000000000145642 1 0 0.30000000000124832 1 0 0.25000000000104028 1 0 0.20000000000083221 1 0 0.15000000000062411 1 0 0.10000000000041601 1 0 0.050000000000207989 1 0 0 0.94999999999979179 0 0 0.89999999999958358 0 0 0.84999999999965292 0 0 0.79999999999999982 0 0 0.75000000000034661 0 0 0.7000000000006934 0 0 0.65000000000104008 0 0 0.60000000000138687 0 0 0.55000000000173355 0 0 0.50000000000205869 0 0 0.45000000000187229 0 0 0.40000000000166441 0 0 0.35000000000145642 0 0 0.30000000000124832 0 0 0.25000000000104028 0 0 0.20000000000083221 0 0 0.15000000000062411 0 0 0.10000000000041601 0 0 0.050000000000207989 0 0.54999999999999993 0.29999999999999999 0 0.59999999999999976 0.29999999999999999 0 0.6499999999999998 0.29999999999999999 0 0.69999999999999984 0.29999999999999999 0 0.74999999999999989 0.29999999999999999 0 0.79999999999999982 0.29999999999999999 0 0.84999999999999987 0.29999999999999999 0 0.89999999999999991 0.29999999999999999 0 0.94999999999999996 0.29999999999999999 0 0.54999999999999993 0.69999999999999996 0 0.59999999999999976 0.69999999999999996 0 0.6499999999999998 0.69999999999999996 0 0.69999999999999984 0.69999999999999996 0 0.74999999999999989 0.69999999999999996 0 0.79999999999999982 0.69999999999999996 0 0.84999999999999987 0.69999999999999996 0 0.89999999999999991 0.69999999999999996 0 0.94999999999999996 0.69999999999999996 0 0.28307294598219601 0.50789252727458634 0 0.25676291524611189 0.7436741304886243 0 0.25195515620380449 0.25883339815888678 0 0.57611405284611883 0.50165903596042916 0 0.77846603114747959 0.49850927265137401 0 0.39801143831225599 0.16651381068160659 0 0.39536230704883951 0.84069429572832477 0 0.15720202157091859 0.60665697304410315 0 0.1650278706801647 0.38791388161335733 0 0.43249999999999988 0.43937499999999979 0 0.35864735590330371 0.63903383440414463 0 0.82709327591091286 0.84937141670920724 0 0.61343887413683884 0.856862479058357 0 0.82709327591102189 0.14937141670914489 0 0.6236733212988993 0.14864538214901801 0 0.14474682429600511 0.85524784522713515 0 0.14332333627550789 0.14578431753966009 0 0.36575549820117997 0.31677992835137742 0 0.46666084890304671 0.57634471035397938 0 0.27474541102162192 0.11822029332053539 0 0.27270076654418179 0.87751467830216623 0 0.1215415378367805 0.72939333680004137 0 0.1247745017231483 0.27198077544791172 0 0.6879972333610942 0.43038561374960838 0 0.67323294229744413 0.57556450033612505 0 0.86411095495256451 0.42388805655111889 0 0.86956835336234861 0.571283299838105 0 0.50202631463681879 0.87892870825713787 0 0.51076801031701946 0.1202837388510348 0 0.1216098864341134 0.50637075089503902 0 0.27866744612395528 0.38416094670951489 0 0.7250000000005199 0.89375000000045834 0 0.72500000000001008 0.19776155966387679 0 0.52289427570932567 0.3932284363388488 0 0.40326160981139969 0.73346192995102844 0 0.77354604466818633 0.40378688774472771 0 0.77293540622714185 0.59448302402785813 0 0.57412547362576272 0.58273804879550706 0 0.26573297623774761 0.59828298563722948 0 0.38244435121258652 0.51653317813019495 0 0.72500000000000064 0.7952620967744265 0 0.72525833953073282 0.1032114801687094 0 0.90299850604011456 0.79563452813489832 0 0.90416666666660628 0.9041666666666166 0 0.90299850604006393 0.09563452813493091 0 0.90416666666668166 0.20416666666667119 0 0.54782696902220018 0.79245182748204157 0 0.55306006949600994 0.20198184231352201 0 0.20050006573841939 0.53248514016039872 0 0.33758650185219202 0.23837101504325639 0 0.35312867752657662 0.084946736076730367 0 0.35752321586431363 0.9185439911803448 0 0.42377727103934271 0.25099357235810238 0 0.086179601630648681 0.64647209519980475 0 0.087545339447545459 0.35122518864182262 0 0.083411279318375747 0.91030024466934134 0 0.083411279318303222 0.089699755330707398 0 0.91696753777131557 0.497780560203536 0 0.34258405725730701 0.4444034294386992 0 0.33123028043633618 0.77629643437932982 0 0.2236846579037573 0.67380363126050236 0 0.19901705110390991 0.9175543425573498 0 0.19922788606653311 0.085920220746880993 0 0.19670163708476801 0.31472518408333222 0 0.4656888918609538 0.78493261229743638 0 0.083105206071452636 0.79992298667296435 0 0.083105206071467416 0.20007701332709979 0 0.57724883562309992 0.92155686857100794 0 0.57667858002728545 0.078486105337742612 0 0.49102375406324739 0.49123754822244059 0 0.4409427642593301 0.35743108089689513 0 0.43698630808430822 0.080423614171545449 0 0.4367309254023824 0.92065556789053882 0 0.22278230690790279 0.44824268025881547 0 0.6084546825910605 0.37989672713932537 0 0.43846182030517877 0.64845797726506715 0 0.077693244765132896 0.56932317963405099 0 0.078358742472063481 0.43365249433908948 0 0.6541250972820879 0.49999999999999989 0 0.21858834311891909 0.81980263716112767 0 0.2185883431182947 0.18019736283949719 0 0.31378396441836959 0.70157213313026345 0 0.79680861578988083 0.92656778056766709 0 0.79680861578956375 0.22656778056752541 0 0.65394964615507722 0.22666784374016369 0 0.47357141910802508 0.1873585799078378 0 0.80185942888539485 0.77452061303608133 0 0.64753070846764316 0.77332939069435502 0 0.80185942888501827 0.074520613036224564 0 0.65507451745379841 0.92229208810758578 0 0.29348325746214782 0.31350119524708198 0 0.91750694127107502 0.36982372220068471 0 0.91750694127105259 0.63017627779935648 0 0.65408113592120842 0.073941773121567966 0 0.33122374654748771 0.57588941099433744 0 0.84723782639812573 0.48638347960178252 0 0.50715858906372158 0.63295939104129484 0 0.83573492347052902 0.36590755630746369 0 0.83758014339878906 0.63222013025741819 0 0.6405463747586706 0.63290524857395714 0 0.33084213324567391 0.16272720141332131 0 0.71508799138962864 0.36622814920737751 0 0.71406021706547751 0.63292083137662503 0 0.18269480424590959 0.75905448272264375 0 0.17933913398461551 0.2350063570234002 0 0.4089290844030305 0.58728915500154233 0 0.53245488764484505 0.55078124999999989 0 0.61209567303293111 0.44669033081290321 0 0.7152569930854884 0.5237994455134295 0 0.33403534827021109 0.84402799729020661 0 0.27499999999933927 0.060310814194988557 0 0.27609987656793722 0.94991445621608572 0 0.82862096804812391 0.55037090955459045 0 0.73483647259922602 0.44789725365921768 0 0.049706944316475897 0.72477277076253799 0 0.049706944316556423 0.27522722923869108 0 0.16500388252850301 0.66612077714085194 0 0.62042975506801734 0.54295974692364424 0 0.38083244760691543 0.38531983672244652 0 0.93814194660195893 0.44426664081746747 0 0.93732437411268477 0.55911392101136159 0 0.93677536231884972 0.85000000000000286 0 0.93677536231883773 0.14999999999999089 0 0.52375890611712683 0.059318771819432882 0 0.52122150208832174 0.94089974453840242 0 0.15801167086041079 0.46008690540259539 0 0.14617343800780541 0.93808063414349496 0 0.14618258501891079 0.062070108745602003 0 0.76901770135486491 0.84293557325473656 0 0.77144070960558853 0.14311854477243749 0 0.68697391633157634 0.84450604838764298 0 0.68391457121233579 0.14440470121196541 0 0.26104540868854792 0.81401944968719064 0 0.065374659239661639 0.8551091961254178 0 0.065374659239632718 0.1448908038746782 0 0.55899371797446828 0.85003102233514438 0 0.56202748619534593 0.15054058349222879 0 0.45677673713123867 0.84253684404072415 0 0.85170973911348691 0.93569607295217616 0 0.8517097391133297 0.2356960729520409 0 0.068743045408989428 0.48853989837882689 0 0.22033343844674469 0.36963382230740238 0 0.85491058998424563 0.76004753345552634 0 0.85491058998398861 0.060047533455626502 0 0.26429849586623999 0.19346700179430079 0 0.14934928745814749 0.55042914607228977 0 0.59814117807200873 0.23398510860739519 0 0.49695729691142171 0.25014895411178018 0 0.59636844454254345 0.75937156204589151 0 0.27820712747429932 0.65530134213254643 0 0.44288491854585582 0.14116182884956319 0 0.14223753364722069 0.3341983344262433 0 0.81973119833356312 0.43505687159469048 0 0.43507373378304309 0.49699695397193322 0 0.49077833859261139 0.35229981449445641 0 0.33277555741076909 0.36432196682010132 0 0.13737030665753211 0.20313708640667491 0 0.1382744753146134 0.79650574229207483 0 0.29124338931648802 0.43334555462578611 0 0.94399509803918602 0.75600490196082126 0 0.94399509803922566 0.056004901960802607 0 0.94399509803919068 0.9439950980391687 0 0.94399509803921056 0.24399509803922639 0 0.65481233915350323 0.35652751921065562 0 0.48858720058566618 0.43964267759203868 0 0.7250000000005199 0.94981617647078953 0 0.72500000000000064 0.2498161764706 0 0.88088768115933802 0.84674609810493673 0 0.88088768115941807 0.14674609810479519 0 0.56836770495988642 0.352306235
[...]
<CellData Scalars="pressure_p0,region_id," Vectors="velocity_p0," Tensors="">
<DataArray type="Float64" Name="pressure_p0" format="ascii">
0.032089770295957609 0.034885362242634818 0.040168346884631258 0.048048409432849437 0.058900421321650222 0.073279981409242301 0.091913237444767926 0.11576963537173141 0.14601094903663256 0.18466296752027689 0.096994525946043381 0.10115158503625135 0.10889032250506286 0.12013713971450179 0.13511255066874286 0.15417146102865209 0.17778004353115251 0.20653608820384972 0.24110025234765886 0.28261048753866269 0.001008485491575491 0.0010055982296749005 0.012754423447544081 0.010008539059717788 6.3965404585904426e-05 4.4051764316039091e-05 5.5602724887603956e-05 3.8864942678241259e-05 8.7802164680843802e-05 0.00018177705784900764 8.821401459890659e-05 0.00013326411186990859 4.3550688234033987e-05 9.9604833572516809e-06 8.2355899538322512e-06 0.024777369389004007 0.024977630053893224 0.023716040830218329 0.023767706331076884 0.038587206054105705 0.014546941581376035 0.021806986548549775 0.021894540388342459 3.6609117696761342e-05 0.020970725728633049 0.0012894357480074891 0.00047293934239362731 0.027619460258543903 0.0033810243586129955 0.0006289497194169472 0.0054172774884836518 0.012565239710968967 0.017539516392410307 0.013929507780809619 0.013494219276616046 0.00049178454027449245 0.01331895467625528 0.0024942993404966926 0.075681576471921058 0.076382475475248374 0.11962057594915952 0.0062860656192439152 0.10122219018151422 0.0053179425453144177 1.4364083860373244e-05 1.2587600449848166e-05 0.0073285149550482787 0.012926486415410925 0.049709095383569463 0.0049059689455192273 0.072789919939887093 0.025788198309802862 0.0039110051384658763 0.0071986105911980474 0.038593669115295798 0.0022983056304081463 0.0027292136792801966 0.13369281323585383 0.11830853424975961 0.0044941051631682688 0.028560810707527577 0.015094506584407199 0.021861994045772742 0.027954244720787773 0.0059321908635612871 2.1897158701725729e-05 3.0393825112043108e-05 0.057907647390375114 0.090344303281193805 2.9756665988147603e-05 2.1854807322123379e-05 5.6492986049006783e-05 5.428616476137276e-05 8.3143966428662452e-05 0.010530770550544334 0.0079017134965653543 0.16549178426489991 0.0031463334816899734 0.0090144063796531951 0.0271032713060411 0.010156536594741767 1.5181059304693615e-05 1.1120754986990967e-05 6.7372424342933762e-05 0.038127188318711307 0.012352181243158707 0.0080588799831321188 3.0504532096460244e-05 0.00022439813627117154 0.031376675015347286 3.7653066188639971e-05 2.676111320715143e-05 2.344176366584012e-05 0.036002456509100327 0.0084027766869333165 0.033800602072589607 0.00980153042210463 0.19756848406264474 0.0026320727827638317 0.0024088243938082993 0.17731103786252461 0.0055464919179427623 3.7286525452976562e-05 3.1820362672179415e-05 0.057843218536685261 0.061802367168786981 0.010922204859853901 0.044696651863986317 0.029598568122042784 0.0041192605619709581 0.0042078148267982972 0.10066358603968809 0.0001021726857414273 0.0002265748917262999 0.017106075100101446 0.024460594309893231 0.014031420743226459 0.010037910459463591 0.03192072685008078 0.018184557219280612 0.051302322574373456 0.011134967319337415 0.0080560339368396863 0.011806642304755194 0.018885257520285241 0.015732062610436658 0.012840120720270666 0.0015608884485684487 0.0011274464649364824 0.0017510206496587108 0.023334929167184996 0.0030325445240623299 0.00026164910810401454 0.00034360606228017157 0.00093991524969071791 0.00071120535584406419 0.013647685772141137 0.00058009331818280763 0.034484941159014813 0.0032693262373429295 0.00027217425742644304 0.0076382040265993321 0.031461764357070779 0.012082921568628665 0.023774975136036006 0.013138041183539234 1.6852806093337622e-05 1.4035485716860772e-05 0.0095466280372952673 0.00021610194454397896 0.0027151026240201086 2.8969911889725439e-05 2.6120515653434436e-05 2.3085390033354115e-05 2.4703134280377017e-05 0.0014031387655005132 0.00040255934910809511 0.00013504495214948877 0.00032539462081575076 0.0010394216231417455 0.00016134699116479429 0.00020688567784869533 1.4541527927553073e-05 1.0755866789590507e-05 0.063884558586781826 5.8763733586312877e-05 0.0059159672078794596 0.019659526613241191 7.9267941308581454e-05 0.00015602837650976591 0.013087391116591022 9.1944128715065786e-05 0.00034177963998857023 0.00010808664967175879 6.7311822253877785e-05 0.0001367904460524517 0.0011221326146018209 0.014910856399811573 0.064447960626319356 0.0041718784876610413 2.4536365630499849e-05 2.0753366355943174e-05 1.9185213073986755e-05 1.5349209193917449e-05 0.0092887535100487882 0.011336692602569927 0.01282131483283506 0.016956578253213873 0.0065241528218193444 0.0041138367597087326 4.7416979540369683e-05 0.0092901424765873802 0.0068640830526555709 0.049028642838660923 0.019172050793623746 5.1411459660129905e-05 0.0055736672276071354 5.1668575650417098e-05 7.7745935876789973e-05 0.018310682458873261 3.9075129495713077e-05 5.5786790380707441e-05 0.0012126991081444272 0.00043561576318004762 0.018402997902212517 0.030703592633409282 0.0054683081718758554 0.0046175506813443514 0.020774206755237883 0.020341762747553026 6.4672506771046493e-05 0.0010538008977882072 0.03119812140233514 0.0021353403774466389 0.01008399844594641 0.028239176140871243 0.00016243353548674806 0.017187335933597399 0.00013795380814554691 0.00021805282574910916 0.00029534816720323679 0.0041310323498431516 0.00013255615190252857 0.023126363385539229 0.021230781342321647 0.01260937493753273 0.0064006381071614734 0.005510409193824786 0.0060718402465619907 7.3354532755455717e-06 6.7142183540007559e-06 7.8673519015744943e-05 0.010078347641126962 0.00015675844690019519 1.2307559156060086e-05 9.4299407864375086e-05 5.8934511159789858e-05 0.00078850661227738506 2.8186485009901731e-05 0.028163259614508905 0.00074292662878005546 0.025825200649829405 4.2762448351000615e-05 0.016619711541360459 0.023515347547851787 2.8460902646993807e-05 0.0012660878780442382 0.049926109839148483 0.017041971709982534 0.010224892579636637 0.030193419389526778 0.0017277564485509984 0.0011385881314555047 0.0010352262612338095 0.0028833560848432411 0.0032139125283081361 3.2054525812254619e-05 0.080518737607954721 5.2333644172801786e-05 3.7417932490506751e-05 0.0041781682083778526 4.2680224189022616e-05 6.4680308641354835e-05 0.00025153032470748082 0.00022483086168022381 0.06494655943899702 0.0053755447849288445 0.056022429802322395 0.036834775520546266 0.00013127227321898318 0.078734592806810416 0.14322337595026005 0.047294740973694391 0.00067977019157130234 0.022976035803835566 0.00053303698809046207 0.00014721934651539291 0.0025437090487871912 0.0043187193995378008 0.00013083975875273057 0.0011715042009784356 9.7209641029648021e-05 0.00017741823322925258 0.00087418268797581514 0.0023378668315439783 2.6734500280201968e-05 1.9979073661062032e-05 7.4222098898205741e-05 0.00015398197992797088 5.8607510583399877e-05 0.0097494610277983132 6.2527716345937422e-05 0.010178181161576594 0.034932381486681721 5.5030791256578156e-05 9.7677813724397251e-05 4.0183337736927324e-05 0.008566948561284057 0.0027266978713916768 0.048332626063686095 0.0037385103387667217 0.0025727872984700364 9.7305257275583329e-05 5.9244496780964398e-05 0.0006888282748923598 3.3658066756459107e-05 0.014070043421742107 0.00010153783921199882 6.1206642677641177e-05 0.00084888010612440071 0.008405625456977945 0.025198277608992285 0.0005571898350987905 0.00069623263259635916 0.00158152564408118 0.0022067505378061151 3.9160885524549397e-05 4.9385765100127556e-05 3.4980038253149035e-05 2.9250297729689257e-05 0.016044624155105849 0.0013766979889879337 0.00025158201933301818 0.032164057028385915 0.0048980987199610639 0.02666708491945308 0.0007841614528461445 0.0013667103814835782 0.011675496876522917 0.01331271453954732 5.7204148597645761e-05 4.0306958982177946e-05 0.0089578356564090685 0.09973542360434022 0.17604573932156012 0.00064390203928507759 0.00055992388183719261 0.018174362333702777 0.01663796745798345 0.018214456041371851 0.0074449892217530915 0.051559654300249544 0.063669912438970744 0.1019491919691046 0.043580389180833727 0.0087136186187127609 4.220938960036878e-05 5.7724348461883431e-05 0.046583527425509877 0.0051301832078181073 4.1019729632790257e-05 3.0327673282628678e-05 0.028483123072916963 4.8268844815875831e-05 3.4576698824036184e-05 0.0043328462394419467 0.066298260217327445 0.0064176201599895621 0.0036980264641940839 0.0031721105816088012 0.02597934955336547 0.0082121597412856753 0.0055416478674844595 0.001959249332585223 0.011717744558685454 0.058786464036125093 0.10603486597515899 0.0037799923530064936 0.0056744146353219279 0.0025184445849057244 0.006510740396589494 0.092342370782245747 0.0041920732264673554 0.0017268428227667585 0.044089039915180414 0.016324922917110574 0.00095480463761266413 4.2006091383538612e-05 0.00077358989687337167 8.8377131307703898e-05 0.00017793821800275933 0.0017972101024997284 0.0019194501552713765 1.7965813596170705e-05 0.00039670257304508922 0.013615152949783138 0.0022294957572050631 0.00010674208354486081 2.532635336983204e-05 0.00053314665478614042 0.015138547737768751 0.035198469417330881 0.00027378541449034832 0.12749574084446202 0.0023338965429804096 8.5891027520151259e-05 0.00011680617705557488 0.0053877138351457275 0.044280575812897766 0.00012514324993343994 0.0001811539699257942 6.875531211523897e-05 6.794507036256674e-05 0.00092135801459730725 0.0015598394765282174 6.142564194550591e-05 0.038060526859805287 0.020557529111054344 0.0157894081892553 0.0001337177075421124 1.1233820027354054e-05 0.002171651614653305 0.026467204055276472 0.0099843539763654274 5.2498814201312651e-05 0.0013271712155586823 0.001473804914705272 5.578209608751737e-06 0.0036815594325246585 0.0033412137300443722 0.0551555601637925 0.093267162697953848 0.0013943839639000714 0.018911029919171971 0.014551782452064083 0.00015023791466088431 0.0032551631430774745 0.070002567566294138 0.00011731428279886161 0.030602152670247802 0.010453528662720542 5.7754757840668532e-05 0.0047335254322952722 0.087416941246849844 0.0028563820496580101 0.00011512050774440913 0.00026771038701876046 0.012360183182721505 0.00010245928223678952 0.12312070838993978 0.15007194364175058 0.23273466165296075 0.19074575288651224 0.041338213594343351 0.069142230681293354 0.13492716072394301 0.061492228206469678 0.086655714037233253 0.080975955925218848 0.01050014329731561 0.0062750838446137096 0.049409223883792569 6.6373190955039578e-05 0.10345318122726528 0.0044741014211731635 0.0028058459746399134 0.0076077964147683169 0.061842945539368664 0.018452640171699619 0.0096227558768526619 0.0074801809194119436 0.00026221338992308521 0.016067113545121324 0.00091017075604617062 0.003713077250431079 0.0022248105490916023 0.00050278066529589539 0.015017170803217262 0.018913609524632398 0.00090455501321479257 0.00032688486459787392 8.0985127066801113e-06 7.0120076993524928e-06 0.00097490095351098155 0.00069773811143443226 0.00037936933928280357 8.3170444579306615e-05 5.3050406401674712e-05 0.050848553872487233 7.4017770108988874e-05 4.905287374172445e-05 0.020666807457703853 0.034180584072483519 0.00032471482954251176 0.038799945467471571 1.0426962872498432e-05 8.3018757487609123e-06 7.1703030601691931e-05 0.00013145987979498356 0.0016500457983533066 0.028211030519977358 0.0021926934983664977 0.00035882138573127201 0.00048020143359778542 0.0021931157277880844 0.0017391089935016783 0.03644313480745287 0.028542056217311651 0.0062040812149466492 0.010132372485825998 6.2257405063805737e-05 0.00010278222583865891 0.025649353774549005 0.0049997406864379264 0.00010197645639354617 5.823234353681585e-05 4.0910221668726553e-05 4.5596599995768755e-05 0.0017954257575347474 0.061391708170552853 5.2016326737380626e-05 0.0031734890810852481 0.045152378925990916 0.036519578847199509 0.004650120599053181 0.031440933258719064 0.00032340020249728343 0.0022780187320749551 0.18333107544878843 0.0030413515594415958 0.11593042071196233 0.00507354530113168 0.00032730827522768364 0.00024063339274031512 0.0006334232603415705 0.00037886421259844294 0.0002686784346790027 0.00077394448713559872 0.00029808956660951709 0.0041319832074979681 4.729935598238823e-05 4.1725857012794658e-05 6.0820590134247639e-05 7.2516282539657179e-05 0.0018954539699401634 0.0024880463736860698 3.0548707645193216e-05 3.3020919434224942e-05 2.541223354750535e-05 2.3554222927133118e-05 0.033041139733811953 0.0078338754045887814 5.0015715558586825e-05 8.5406975127102683e-05 0.00072336514188339231 5.2456404954525629e-05 8.6032967463971422e-05 0.015324542641778856 0.00030052489984187623 1.0722233160816162e-05 8.2512175381627758e-06 0.0037273979059553428 0.020702416778802375 0.00042038896597572416 0.020645504544530499 0.00031809353962352705 0.00067303215311670459 5.9921671392111487e-05 4.1749374528028548e-05 0.0036751667499972411 0.00022483652625311591 0.00033935579830095773 0.00030657020754679853 0.0027426169640397007 0.0017762460315705257 0.0051044178266026656 0.00066383852890047315 0.00021346984361273608 0.018865470325476537 0.011154339780431507 0.00029997426419757175 0.0030692122733781356 0.06217728201321223 0.040823404377762211 0.0012260425918650907 0.070405750831193228 0.00015259292813960272 0.00038652425495019834 0.00018967033329246697 0.00050472325625190847 3.4423078233597855e-05 4.8395671114685742e-05 0.0015468734881200021 0.0022960730809987624 0.061168131270370456 0.12746460557570391 0.07835549303878489 0.1113705585452925 0.047413569923354375 0.00043015864734292052 0.0017913262061807216 0.002723866637151089 0.00074591245589943457 0.0022484945424717634 0.0025447750473481428 0.011279420314359467 0.0090962333380502445 0.034685700453064294 0.00047941725752741849 0.00018234134257562667 0.002171804697456408 0.0051652715579157023 0.0054724485448762947 0.023025557898856845 0.020865409144313622 0.078615727221674536 0.0035057296102985499 4.0122128466264414e-05 5.8912274897275991e-05 0.012666383072838655 0.011147147665264435 0.010419205023649611 0.0079767446287202209 0.010690537173656896 0.014758045461015036 1.5441168628349623e-05 1.9896476617132487e-05 0.00056792875543233191 0.001544317078887554 0.00013620948214645968 0.00010620547024006349 0.036114350381529672 0.000136618141947537 0.00016455823186431305 4.7947259859587109e-05 0.102026712816702 0.00022032196278102151 0.00059219280826612554 0.021891419301890935 0.00010109164197058095 0.00012717176956190105 0.023178308736321901 0.00011674256229310688 6.6777933214227846e-05 0.011421431980599629 0.010875827848839312 0.00043724094575501725 0.00083278345182277269 0.00030296416147568598 0.017961129840521329 0.00023095497044403498 0.00017040626832573859 0.094288540137983656 0.0011760626833804773 0.00039254334710230173 0.0001548659978069547 0.0027481631181205789 9.6250197581974201e-05 0.0001082943233854964 0.003490037667834984 0.0016159870826971598 0.018480052170134043 0.15345996104097487 0.001886896465774791 0.0021949852702879834 0.0042782009816126837 0.0011558841634216361 0.003505403865679821 0.058990979537288865 9.7092141768961491e-05 0.0054647163985648969 0.00014406804895333495 0.033962421915055892 7.2263896045659243e-05 0.0009546923187296111 8.0435397548057297e-05 7.1752007312673159e-05 0.0054628514114676285 3.3724372275987575e-05 4.1257599125917275e-05 3.105667678588046e-05 2.6322953822972837e-05 0.00091854431147846062 0.0071316602193580141 0.0062490308056634258 0.042128160981748826 0.0047528097966364723 0.0816774577183281 0.034911763845354299 0.00023121008206402691 0.00062246247850111292 0.056212750246724674 0.094148749062035839 0.00048279737843450279 1.556956742402835e-05 0.00034741586368066139 0.00018776852435654207 0.023546227270214933 5.1788515521668573e-05 4.7158793289210354e-05 6.9134845208472837e-05 7.8115650648562975e-05 0.00058272264029449964 0.015893427510961747 0.031978642119358011 0.026345431726735383 7.4073846679652476e-05 0.0011288158153952071 8.7337634421587416e-05 0.058625108710688684 1.0538416252751944e-05 0.0094359273157002231 0.048160108829589057 0.001518942773666172 1.9705695229756931e-05 2.6542121421184357e-05 3.5094077078574263e-05 0.00016116479298441627 0.00029160291032237517 0.00080955398596348075 0.079005437579734245 0.0022317123785199604 0.084175367726319353 0.0018528258761797145 0.061670439933341349 7.8077964934750529e-05 1.9016209219011618e-05 0.00010910357596946775 0.011400948842070227 0.017348487380141334 0.003013057668373619 0.0029107007006873671 0.049165481017084026 0.057983156829879236 0.041856647108136996 0.043160803335850539 4.2780405058708323e-06 0.095363868020815423 0.071619439005123617 0.0011599017598613094 0.00072500119627924423 0.0018623244949755857 0.0011094653928260872 0.0015448253621383867 5.0486473815937939e-05 1.7347280902718158e-05 0.0001177310169444016 6.6599506003190863e-05 7.3875604533090139e-05 0.10517432314057434 0.0016269909609871107 1.1300553627898769e-05 0.00028657702016325934 0.0027400507608801505 0.00048638623278426908 0.0027991840686583625 0.00087346731479652994 0.0066201644620561941 0.00048001096972285703 0.0013285875434863833 0.022333800241482744 0.027702106644484067 9.6346655713774594e-05 8.6285121020502896e-05 0.00042396418841691801 0.00011227181069525802 0.00020225834158370395 0.021598846090848639 0.0075193069881328064 4.6513337740288099e-06 0.085863623892129648 0.0089718015596781005 0.0016934470856081031 0.0067796095172407995 0.0061990152591472657 0.0001796647740918589 8.5766767866646249e-05 0.0023566899741960636 0.002915432568671768 0.0084349683221646762 0.0086531582899528874 0.00034481837926013067 0.00097353637161394588 0.0044761677138738061 0.042769647891940182 0.023501999803134593 0.0014096526990834777 0.00015618073876757631 0.00016649719493288981 0.00077685369886669377 0.0050292972032229032 0.00026103400651807324 0.0042238305164569549 4.8004810576207297e-06 0.028125117976251068 0.00013438654586912232 0.00032742092798516531 0.00089800119659356678 0.0041042720504442659 0.006034342379078606 0.00033465741540183482 0.011576284521829546 0.0021477046938578187 0.00023036897046261869 0.0073568027957743413 3.8525904418182552e-05 0.00029084855020650321 0.00080392677429321369 0.0014617945523269257 0.096496170403275683 0.087028634337454419 0.0015498688491032988 0.13651218220345226 0.035499252286184522 0.022433109829132152 0.12885624732107448 0.21187896057575278 0.0014102038524970253 6.5673457575442319e-05 8.6368910280030983e-05 0.0055602853720634303 0.023139868212548521 1.7497145617602729e-05 0.00075895042851293107 0.10418770977653857 7.0136826026891236e-05 0.035605834462397047 0.027592018847277765 0.074789204994042693 0.09842671146345737 0.16604834473576763 0.12454769196073576 0.00061092035777299215 0.043148958823218654 0.02817094850255009 0.0013837188466713944 0.00014780990812709687 0.00020095790842963044 0.026236851962199353 0.049670662023565251 0.087055176066439782 8.5416306478219807e-05 0.021662633401723412 3.5490258759840609e-05 0.0058955403917241942 3.1432502314093051e-05 0.020628024458328235 0.030887188355331784 0.0058232095402395555 0.078131783367675595 2.1347858817397861e-05 0.0012710324142768386 0.0027004864956221312 0.24351020911726612 0.19875165707411679 0.12852735618610028 0.0044965807273588069 0.0030714254751961429 0.15786035412228933 0.0050929449379720094 9.7969918054283558e-06 0.0080633337307519197 0.00036686880774364661 0.0023223728417274218 9.5978062592831859e-05 0.015334670070140749 0.017652241112267285 0.082080776716409634 0.15721474425587606 0.095247946719949891 0.00051726757494740118 0.051171583681010817 0.11985947858555399 0.0063725458290758664 6.369447375791589e-05 0.021751259107893349 0.0089572369158616386 0.053707525932951312 0.050370444444754622 6.466369681690458e-05 0.0028125738018727519 0.017361527179175738 0.0075908067459814323 0.030588143835515461 0.0727649202809246 0.052238695431136545 5.6527990146856815e-05 0.0012165802165186579 0.0014213583908319733 0.014806778027885256 0.020608691248724425 0.11467484885761448 0.0021107169622641402 0.0012165780228268063 6.1756518989825721e-05 6.9447229928876951e-05 4.6592204036597334e-05 0.0001993852