<?xml version="1.0"?>
<VTKFile type="UnstructuredGrid" version="0.1" byte_order="LittleEndian">
<UnstructuredGrid>
<Piece NumberOfPoints="558" NumberOfCells="1054">
<Points>
<DataArray type="Float64" NumberOfComponents="3" format="ascii">
0 0 0 1 0 0 1 1 0 0 1 0 0.5 0.29999999999999999 0 1 0.29999999999999999 0 0.5 0.69999999999999996 0 1 0.69999999999999996 0 0.049999999999899652 0 0 0.099999999999814668 0 0 0.14999999999970359 0 0 0.19999999999955789 0 0 0.24999999999941211 0 0 0.29999999999926641 0 0 0.34999999999912063 0 0 0.3999999999989749 0 0 0.44999999999882923 0 0 0.49999999999869432 0 0 0.5499999999988151 0 0 0.59999999999894682 0 0 0.64999999999907843 0 0 0.69999999999921003 0 0 0.74999999999934175 0 0 0.79999999999947335 0 0 0.84999999999960507 0 0 0.89999999999973679 0 0 0.94999999999986839 0 0 1 0.049999999999896842 0 1 0.099999999999753911 0 1 0.14999999999961891 0 1 0.19999999999974799 0 1 0.24999999999987299 0 1 0.34999999999993492 0 1 0.39999999999978308 0 1 0.44999999999963131 0 1 0.49999999999950101 0 1 0.54999999999963112 0 1 0.59999999999973963 0 1 0.64999999999986979 0 1 0.74999999999993494 0 1 0.7999999999998193 0 1 0.84999999999982645 0 1 0.8999999999998336 0 1 0.94999999999997109 0 0.94999999999979179 1 0 0.89999999999958358 1 0 0.84999999999965292 1 0 0.79999999999999982 1 0 0.75000000000034661 1 0 0.7000000000006934 1 0 0.65000000000104008 1 0 0.60000000000138687 1 0 0.55000000000173355 1 0 0.50000000000205869 1 0 0.45000000000187229 1 0 0.40000000000166441 1 0 0.35000000000145642 1 0 0.30000000000124832 1 0 0.25000000000104028 1 0 0.20000000000083221 1 0 0.15000000000062411 1 0 0.10000000000041601 1 0 0.050000000000207989 1 0 0 0.94999999999979179 0 0 0.89999999999958358 0 0 0.84999999999965292 0 0 0.79999999999999982 0 0 0.75000000000034661 0 0 0.7000000000006934 0 0 0.65000000000104008 0 0 0.60000000000138687 0 0 0.55000000000173355 0 0 0.50000000000205869 0 0 0.45000000000187229 0 0 0.40000000000166441 0 0 0.35000000000145642 0 0 0.30000000000124832 0 0 0.25000000000104028 0 0 0.20000000000083221 0 0 0.15000000000062411 0 0 0.10000000000041601 0 0 0.050000000000207989 0 0.54999999999999993 0.29999999999999999 0 0.59999999999999976 0.29999999999999999 0 0.6499999999999998 0.29999999999999999 0 0.69999999999999984 0.29999999999999999 0 0.74999999999999989 0.29999999999999999 0 0.79999999999999982 0.29999999999999999 0 0.84999999999999987 0.29999999999999999 0 0.89999999999999991 0.29999999999999999 0 0.94999999999999996 0.29999999999999999 0 0.54999999999999993 0.69999999999999996 0 0.59999999999999976 0.69999999999999996 0 0.6499999999999998 0.69999999999999996 0 0.69999999999999984 0.69999999999999996 0 0.74999999999999989 0.69999999999999996 0 0.79999999999999982 0.69999999999999996 0 0.84999999999999987 0.69999999999999996 0 0.89999999999999991 0.69999999999999996 0 0.94999999999999996 0.69999999999999996 0 0.28307294598219601 0.50789252727458634 0 0.25676291524611189 0.7436741304886243 0 0.25195515620380449 0.25883339815888678 0 0.57611405284611883 0.50165903596042916 0 0.77846603114747959 0.49850927265137401 0 0.39801143831225599 0.16651381068160659 0 0.39536230704883951 0.84069429572832477 0 0.15720202157091859 0.60665697304410315 0 0.1650278706801647 0.38791388161335733 0 0.43249999999999988 0.43937499999999979 0 0.35864735590330371 0.63903383440414463 0 0.82709327591091286 0.84937141670920724 0 0.61343887413683884 0.856862479058357 0 0.82709327591102189 0.14937141670914489 0 0.6236733212988993 0.14864538214901801 0 0.14474682429600511 0.85524784522713515 0 0.14332333627550789 0.14578431753966009 0 0.36575549820117997 0.31677992835137742 0 0.46666084890304671 0.57634471035397938 0 0.27474541102162192 0.11822029332053539 0 0.27270076654418179 0.87751467830216623 0 0.1215415378367805 0.72939333680004137 0 0.1247745017231483 0.27198077544791172 0 0.6879972333610942 0.43038561374960838 0 0.67323294229744413 0.57556450033612505 0 0.86411095495256451 0.42388805655111889 0 0.86956835336234861 0.571283299838105 0 0.50202631463681879 0.87892870825713787 0 0.51076801031701946 0.1202837388510348 0 0.1216098864341134 0.50637075089503902 0 0.27866744612395528 0.38416094670951489 0 0.7250000000005199 0.89375000000045834 0 0.72500000000001008 0.19776155966387679 0 0.52289427570932567 0.3932284363388488 0 0.40326160981139969 0.73346192995102844 0 0.77354604466818633 0.40378688774472771 0 0.77293540622714185 0.59448302402785813 0 0.57412547362576272 0.58273804879550706 0 0.26573297623774761 0.59828298563722948 0 0.38244435121258652 0.51653317813019495 0 0.72500000000000064 0.7952620967744265 0 0.72525833953073282 0.1032114801687094 0 0.90299850604011456 0.79563452813489832 0 0.90416666666660628 0.9041666666666166 0 0.90299850604006393 0.09563452813493091 0 0.90416666666668166 0.20416666666667119 0 0.54782696902220018 0.79245182748204157 0 0.55306006949600994 0.20198184231352201 0 0.20050006573841939 0.53248514016039872 0 0.33758650185219202 0.23837101504325639 0 0.35312867752657662 0.084946736076730367 0 0.35752321586431363 0.9185439911803448 0 0.42377727103934271 0.25099357235810238 0 0.086179601630648681 0.64647209519980475 0 0.087545339447545459 0.35122518864182262 0 0.083411279318375747 0.91030024466934134 0 0.083411279318303222 0.089699755330707398 0 0.91696753777131557 0.497780560203536 0 0.34258405725730701 0.4444034294386992 0 0.33123028043633618 0.77629643437932982 0 0.2236846579037573 0.67380363126050236 0 0.19901705110390991 0.9175543425573498 0 0.19922788606653311 0.085920220746880993 0 0.19670163708476801 0.31472518408333222 0 0.4656888918609538 0.78493261229743638 0 0.083105206071452636 0.79992298667296435 0 0.083105206071467416 0.20007701332709979 0 0.57724883562309992 0.92155686857100794 0 0.57667858002728545 0.078486105337742612 0 0.49102375406324739 0.49123754822244059 0 0.4409427642593301 0.35743108089689513 0 0.43698630808430822 0.080423614171545449 0 0.4367309254023824 0.92065556789053882 0 0.22278230690790279 0.44824268025881547 0 0.6084546825910605 0.37989672713932537 0 0.43846182030517877 0.64845797726506715 0 0.077693244765132896 0.56932317963405099 0 0.078358742472063481 0.43365249433908948 0 0.6541250972820879 0.49999999999999989 0 0.21858834311891909 0.81980263716112767 0 0.2185883431182947 0.18019736283949719 0 0.31378396441836959 0.70157213313026345 0 0.79680861578988083 0.92656778056766709 0 0.79680861578956375 0.22656778056752541 0 0.65394964615507722 0.22666784374016369 0 0.47357141910802508 0.1873585799078378 0 0.80185942888539485 0.77452061303608133 0 0.64753070846764316 0.77332939069435502 0 0.80185942888501827 0.074520613036224564 0 0.65507451745379841 0.92229208810758578 0 0.29348325746214782 0.31350119524708198 0 0.91750694127107502 0.36982372220068471 0 0.91750694127105259 0.63017627779935648 0 0.65408113592120842 0.073941773121567966 0 0.33122374654748771 0.57588941099433744 0 0.84723782639812573 0.48638347960178252 0 0.50715858906372158 0.63295939104129484 0 0.83573492347052902 0.36590755630746369 0 0.83758014339878906 0.63222013025741819 0 0.6405463747586706 0.63290524857395714 0 0.33084213324567391 0.16272720141332131 0 0.71508799138962864 0.36622814920737751 0 0.71406021706547751 0.63292083137662503 0 0.18269480424590959 0.75905448272264375 0 0.17933913398461551 0.2350063570234002 0 0.4089290844030305 0.58728915500154233 0 0.53245488764484505 0.55078124999999989 0 0.61209567303293111 0.44669033081290321 0 0.7152569930854884 0.5237994455134295 0 0.33403534827021109 0.84402799729020661 0 0.27499999999933927 0.060310814194988557 0 0.27609987656793722 0.94991445621608572 0 0.82862096804812391 0.55037090955459045 0 0.73483647259922602 0.44789725365921768 0 0.049706944316475897 0.72477277076253799 0 0.049706944316556423 0.27522722923869108 0 0.16500388252850301 0.66612077714085194 0 0.62042975506801734 0.54295974692364424 0 0.38083244760691543 0.38531983672244652 0 0.93814194660195893 0.44426664081746747 0 0.93732437411268477 0.55911392101136159 0 0.93677536231884972 0.85000000000000286 0 0.93677536231883773 0.14999999999999089 0 0.52375890611712683 0.059318771819432882 0 0.52122150208832174 0.94089974453840242 0 0.15801167086041079 0.46008690540259539 0 0.14617343800780541 0.93808063414349496 0 0.14618258501891079 0.062070108745602003 0 0.76901770135486491 0.84293557325473656 0 0.77144070960558853 0.14311854477243749 0 0.68697391633157634 0.84450604838764298 0 0.68391457121233579 0.14440470121196541 0 0.26104540868854792 0.81401944968719064 0 0.065374659239661639 0.8551091961254178 0 0.065374659239632718 0.1448908038746782 0 0.55899371797446828 0.85003102233514438 0 0.56202748619534593 0.15054058349222879 0 0.45677673713123867 0.84253684404072415 0 0.85170973911348691 0.93569607295217616 0 0.8517097391133297 0.2356960729520409 0 0.068743045408989428 0.48853989837882689 0 0.22033343844674469 0.36963382230740238 0 0.85491058998424563 0.76004753345552634 0 0.85491058998398861 0.060047533455626502 0 0.26429849586623999 0.19346700179430079 0 0.14934928745814749 0.55042914607228977 0 0.59814117807200873 0.23398510860739519 0 0.49695729691142171 0.25014895411178018 0 0.59636844454254345 0.75937156204589151 0 0.27820712747429932 0.65530134213254643 0 0.44288491854585582 0.14116182884956319 0 0.14223753364722069 0.3341983344262433 0 0.81973119833356312 0.43505687159469048 0 0.43507373378304309 0.49699695397193322 0 0.49077833859261139 0.35229981449445641 0 0.33277555741076909 0.36432196682010132 0 0.13737030665753211 0.20313708640667491 0 0.1382744753146134 0.79650574229207483 0 0.29124338931648802 0.43334555462578611 0 0.94399509803918602 0.75600490196082126 0 0.94399509803922566 0.056004901960802607 0 0.94399509803919068 0.9439950980391687 0 0.94399509803921056 0.24399509803922639 0 0.65481233915350323 0.35652751921065562 0 0.48858720058566618 0.43964267759203868 0 0.7250000000005199 0.94981617647078953 0 0.72500000000000064 0.2498161764706 0 0.88088768115933802 0.84674609810493673 0 0.88088768115941807 0.14674609810479519 0 0.56836770495988642 0.352306235
[...]
<CellData Scalars="region_id,pressure_p0," Vectors="velocity_p0," Tensors="">
<DataArray type="Float64" Name="region_id" format="ascii">
2 2 2 2 2 2 2 2 2 2 3 3 3 3 3 3 3 3 3 3 1 1 1 1 1 1 1 1 1 1 1 1 1 1 1 1 1 1 1 1 1 1 1 1 1 1 1 1 1 1 1 1 1 1 1 1 1 1 1 1 1 1 1 1 1 1 1 1 1 1 1 1 1 1 1 1 1 1 1 1 1 1 1 1 1 1 1 1 1 1 1 1 1 1 1 1 1 1 1 1 1 1 1 1 1 1 1 1 1 1 1 1 1 1 1 1 1 1 1 1 1 1 1 1 1 1 1 1 1 1 1 1 1 1 1 1 1 1 1 1 1 1 1 1 1 1 1 1 1 1 1 1 1 1 1 1 1 1 1 1 1 1 1 1 1 1 1 1 1 1 1 1 1 1 1 1 1 1 1 1 1 1 1 1 1 1 1 1 1 1 1 1 1 1 1 1 1 1 1 1 1 1 1 1 1 1 1 1 1 1 1 1 1 1 1 1 1 1 1 1 1 1 1 1 1 1 1 1 1 1 1 1 1 1 1 1 1 1 1 1 1 1 1 1 1 1 1 1 1 1 1 1 1 1 1 1 1 1 1 1 1 1 1 1 1 1 1 1 1 1 1 1 1 1 1 1 1 1 1 1 1 1 1 1 1 1 1 1 1 1 1 1 1 1 1 1 1 1 1 1 1 1 1 1 1 1 1 1 1 1 1 1 1 1 1 1 1 1 1 1 1 1 1 1 1 1 1 1 1 1 1 1 1 1 1 1 1 1 1 1 1 1 1 1 1 1 1 1 1 1 1 1 1 1 1 1 1 1 1 1 1 1 1 1 1 1 1 1 1 1 1 1 1 1 1 1 1 1 1 1 1 1 1 1 1 1 1 1 1 1 1 1 1 1 1 1 1 1 1 1 1 1 1 1 1 1 1 1 1 1 1 1 1 1 1 1 1 1 1 1 1 1 1 1 1 1 1 1 1 1 1 1 1 1 1 1 1 1 1 1 1 1 1 1 1 1 1 1 1 1 1 1 1 1 1 1 1 1 1 1 1 1 1 1 1 1 1 1 1 1 1 1 1 1 1 1 1 1 1 1 1 1 1 1 1 1 1 1 1 1 1 1 1 1 1 1 1 1 1 1 1 1 1 1 1 1 1 1 1 1 1 1 1 1 1 1 1 1 1 1 1 1 1 1 1 1 1 1 1 1 1 1 1 1 1 1 1 1 1 1 1 1 1 1 1 1 1 1 1 1 1 1 1 1 1 1 1 1 1 1 1 1 1 1 1 1 1 1 1 1 1 1 1 1 1 1 1 1 1 1 1 1 1 1 1 1 1 1 1 1 1 1 1 1 1 1 1 1 1 1 1 1 1 1 1 1 1 1 1 1 1 1 1 1 1 1 1 1 1 1 1 1 1 1 1 1 1 1 1 1 1 1 1 1 1 1 1 1 1 1 1 1 1 1 1 1 1 1 1 1 1 1 1 1 1 1 1 1 1 1 1 1 1 1 1 1 1 1 1 1 1 1 1 1 1 1 1 1 1 1 1 1 1 1 1 1 1 1 1 1 1 1 1 1 1 1 1 1 1 1 1 1 1 1 1 1 1 1 1 1 1 1 1 1 1 1 1 1 1 1 1 1 1 1 1 1 1 1 1 1 1 1 1 1 1 1 1 1 1 1 1 1 1 1 1 1 1 1 1 1 1 1 1 1 1 1 1 1 1 1 1 1 1 1 1 1 1 1 1 1 1 1 1 1 1 1 1 1 1 1 1 1 1 1 1 1 1 1 1 1 1 1 1 1 1 1 1 1 1 1 1 1 1 1 1 1 1 1 1 1 1 1 1 1 1 1 1 1 1 1 1 1 1 1 1 1 1 1 1 1 1 1 1 1 1 1 1 1 1 1 1 1 1 1 1 1 1 1 1 1 1 1 1 1 1 1 1 1 1 1 1 1 1 1 1 1 1 1 1 1 1 1 1 1 1 1 1 1 1 1 1 1 1 1 1 1 1 1 1 1 1 1 1 1 1 1 1 1 1 1 1 1 1 1 1 1 1 1 1 1 1 1 1 1 1 1 1 1 1 1 1 1 1 1 1 1 1 1 1 1 1 1 1 1 1 1 1 1 1 1 1 1 1 1 1 1 1 1 1 1 1 1 1 1 1 1 1 1 1 1 1 1 1 1 1 1 1 1 1 1 1 1 1 1 1 1 1 1 1 1 1 1 1 1 1 1 1 1 1 1 1 1 1 1 1 1 1 1 1 1 1 1 1 1 1 1 1 1 1 1 1 1 1 1 1 1 1 1 1 1 1 1 1 1 1 1 1 1 1 1 1 1 1 1 1 1 1 1 1 1 1 1 1 1 1 1 1 1 1 1 1 1 1 1 
</DataArray>
<DataArray type="Float64" Name="pressure_p0" format="ascii">
0.050490988024143181 0.054096215305982048 0.060697088959552371 0.070228194613798561 0.082961899639342473 0.099339809135977938 0.11994003926573353 0.14553669274504244 0.177110837432924 0.21649574395036017 0.13894408416849122 0.14387279788249382 0.15281436247685828 0.16549487476597538 0.1820292972634617 0.2026743727740887 0.22778543642673879 0.25783105208138052 0.29336410842182525 0.33540004275682761 0.0029769215893403764 0.0030384071100324796 0.024665428446334719 0.020068039890838111 9.6973177206597034e-05 6.184665356043131e-05 7.8703975931109426e-05 5.2270723577297484e-05 0.00023078036614541603 0.00056756272628147569 0.00035660445819346174 0.00053292541183533326 0.00012072165393999616 1.9685597747046608e-05 1.3048241723755085e-05 0.04206687034154552 0.044771673591549876 0.044351706441392094 0.050066681290921886 0.072895751721007804 0.030322101072817936 0.046515282507980732 0.041271433021437917 9.1493058772460328e-05 0.038974953708672752 0.0045812144040696893 0.0017466676053417974 0.045192524306605267 0.0092353089795267559 0.0021076443369509178 0.014568860620398076 0.026451355565526545 0.03917259746003543 0.028461201356417151 0.03187662757068109 0.0016888494660709124 0.029325266121961596 0.0072688162779353414 0.11347757629366874 0.11077221505081145 0.17348799654127378 0.015875374080633501 0.13383024867044038 0.016388508603557818 3.4241248871616037e-05 2.3590483650279927e-05 0.017644481492775414 0.027954793086951358 0.079997349751565305 0.015237659699051682 0.1023018144944946 0.055917214250331818 0.011246228679476937 0.019487248260923462 0.071295386083374157 0.0079438590638625656 0.0085245150861244217 0.18542323352634935 0.15040481478968754 0.014569564505380625 0.05389346661190577 0.026952813287968294 0.04492861326453243 0.055907360135515713 0.014014448894509254 2.8088250010009731e-05 4.0550155611206602e-05 0.091267041318607064 0.14125769513290859 4.4943085887424932e-05 2.9870587409364629e-05 0.00020059083298865001 8.6351831857886137e-05 0.00015196180815644898 0.027345580272894975 0.021294588879156001 0.22008382469804905 0.0096360512615498994 0.02415155011286247 0.056968348033875529 0.025014828850207213 1.9483241689247598e-05 1.3820894110297976e-05 0.00024022362077601565 0.071743106884584684 0.026485104025853121 0.017962229753684184 0.00010379737365497082 0.00080962253968859142 0.062863490800647709 0.00014045058040846172 8.4479394075457042e-05 6.5883069698173508e-05 0.061357782370904654 0.02160727124097225 0.067512218062917656 0.022528345038725164 0.25173117482440543 0.0084928066656844471 0.0078890367587615574 0.23051316800362359 0.01368761796801026 0.00011587122984124699 8.5119625166809199e-05 0.095904240145844769 0.10113344773455607 0.02571136196224004 0.084390418610154672 0.05828054101326674 0.010868504264794427 0.013803410628904309 0.1316240280285183 0.00029667562128372622 0.00075646310620289215 0.037223516504545501 0.040322845768537209 0.033132004581096816 0.025764411482360968 0.055761625212508235 0.040875282566250462 0.090684116142453364 0.024764732809843062 0.018499550090855625 0.027712679324380891 0.041780130028124932 0.036812837107127294 0.025373185954440835 0.0054302616535700215 0.0032142697060422894 0.0046561781570516525 0.048704915908368993 0.0097379121368801683 0.00089307254967928946 0.001167123551568461 0.0031367843665941714 0.0024283630562942702 0.031795820779924197 0.002110471575504915 0.0631132737876198 0.0096302293499269682 0.0011064074184449536 0.020814756857548085 0.05361991658326011 0.028350938978061006 0.050057198350092647 0.032915909958564783 3.7215078872138775e-05 2.4080490586899951e-05 0.019966348663137803 0.00076692178697138243 0.007579209465234645 8.6658223937058902e-05 7.8148504196062205e-05 5.7143674589320729e-05 5.8907774563785578e-05 0.0042440913133035361 0.0015601314359602262 0.00052819794057350428 0.0011669120975200951 0.003505841971291653 0.00057994459499731855 0.00074044843335575763 1.9419078338713769e-05 1.3611851366064657e-05 0.10043446350703422 0.0002313184748534485 0.013361514635469047 0.045397994805943177 0.0001929617156503664 0.00045929483073114648 0.033171366996870032 0.00026164889168712796 0.0011923029359274815 0.0003288286280281864 0.00019855645609554324 0.00048526906373497143 0.0035267691007583998 0.03279843916953671 0.10661935099559844 0.011470447258732436 6.5667615772360693e-05 4.3142253049275816e-05 3.7736263603406443e-05 2.4329732452532684e-05 0.020016949894161352 0.023672880430172301 0.028737167379391526 0.035261603051947539 0.014935156709064121 0.010467662604463438 0.00018499565428984304 0.024065961476134615 0.018437949042333132 0.076253690444330113 0.04507922691177859 0.0001634230067509693 0.013950534993236091 7.8124814250477535e-05 0.00013158419241695996 0.03990903247020125 7.6035980400546879e-05 0.00013977116323508063 0.0042249934760752398 0.0015765767681054478 0.035421915183154115 0.053349259519163986 0.012577239093111411 0.011175013687633928 0.041440747728424175 0.047080339985358884 0.00024877891720841166 0.0031374868985671964 0.065308225034215933 0.0069398084679848631 0.025737721082162289 0.049694464933202294 0.00067357403857617169 0.032236777853504116 0.00058996554354311635 0.00088986356236181029 0.0010438733588175068 0.01056640164578696 0.00039551622051787983 0.047847978894913434 0.044519580980388253 0.029697033560326849 0.015390799418239358 0.013581197178670252 0.014136318874921134 1.6949636196819116e-05 1.2521346451853977e-05 0.00032631551148856096 0.019253884414386663 0.00051008148281750485 3.0257356262782765e-05 0.00019317175625126675 0.0001018777558981348 0.002703296088338825 8.5877897506313482e-05 0.051188494137622831 0.0026857504569296657 0.05073242611344788 0.00015793586935903555 0.037868653211592926 0.043482924405611439 8.2856782992006648e-05 0.0042741922386834268 0.088286310332508805 0.038788844629366034 0.023086572496592184 0.053033061530195727 0.0051701431425840924 0.0034864594326311929 0.0033145995868402783 0.0086602258266860917 0.0091811915777779904 7.9118008731487833e-05 0.12000732909813878 0.00010480685239312916 6.149706466224226e-05 0.011177447734320533 9.4008057968670064e-05 0.00018606544084121834 0.00086303723563269899 0.00075532632582120981 0.10760366762794268 0.013986610948041822 0.099155062863038546 0.066984073709350819 0.00045707353586765798 0.10871669975495103 0.19518157033262304 0.086482587629979291 0.002160921645467741 0.050401984149195528 0.0018329259856096395 0.00063308141973037824 0.0066489479386392693 0.010251345772001208 0.0004487209762585864 0.0034804320828352251 0.00031659899632854681 0.00065955152129038063 0.0027769890292968615 0.0070475751220797737 4.2878647155485049e-05 2.8147041321742015e-05 0.0002214081216476527 0.0005412273719325552 0.00019093166230082408 0.019051874907467382 0.00025816010960814917 0.026011697900976828 0.05882194774558875 0.00014065082286331528 0.00031787340846937083 0.00015639099349331898 0.017501349345084009 0.0094735490797116101 0.071529279495786705 0.0099932473900709688 0.0072860096944303157 0.00022890823866975266 0.00011365971806569672 0.0023126536824208811 0.00012008888943303088 0.028643382815911909 0.00023447487912481267 0.00011621963314321627 0.0030420443517931196 0.019382727395621416 0.051840398163345749 0.0017941906502296984 0.0021370502775804111 0.0042289339169456694 0.0055319357645724218 0.00010085034971335179 0.00014176976818318897 7.6034522945108601e-05 5.7107366205058133e-05 0.03593947440991814 0.0045879937195108123 0.00099193190946961088 0.061882833745337415 0.012591935635706417 0.05288776953624278 0.0025698327685319731 0.0041067745440444342 0.027398910738260202 0.030688344216347963 0.00010012547200894471 6.1115305889124563e-05 0.018743617505905134 0.13049528969517635 0.22875139420683782 0.0023869434117883455 0.0019781240584972643 0.043732558366486263 0.040747309910025564 0.041550141490521345 0.020693052874108251 0.079331120823246837 0.096984248709315837 0.15418000658594155 0.079322131525972089 0.020263954867182118 0.0001662714263783171 0.00024493723556699715 0.083104111482590531 0.013323082851600105 7.5516551906330316e-05 4.6808284405773674e-05 0.053536971844854106 7.6258407294545666e-05 4.9054864290538804e-05 0.013851080867399239 0.094527082317430067 0.01521993277615657 0.0096544582298386146 0.0082831390500556525 0.050924733762328644 0.020148857519413546 0.014304294428255919 0.0054514260185343794 0.022880978905283351 0.088090961026438291 0.15617040260574119 0.011136870609522967 0.014240440742911132 0.0072224673646252343 0.013500379904818829 0.14063535127566523 0.011701000575219491 0.0053668355363614799 0.079158560339890591 0.040220763495393788 0.0032180114896030818 0.00013516482206293621 0.0028650823438657299 0.00030776908508113176 0.00072264289832642574 0.0056818367949773583 0.0068277552013987124 4.4422801951571409e-05 0.0014335777008609523 0.029639410422118005 0.0068152104269242888 0.00039467369423615739 7.8691034081252952e-05 0.0018437098355204794 0.030681551858338169 0.061541204472609828 0.00096139364154118959 0.17822110247235967 0.0075466810137552985 0.0003573840208493088 0.00049062790901688617 0.016073834209742486 0.069485883886265504 0.00054783640899997745 0.00077553773860520149 0.00029301548804825858 0.0001651447537147043 0.0026646173057441342 0.0041560324134598901 0.00013196512416018653 0.066422760792947094 0.044502293405179 0.031941293310938305 0.00052973645815150496 2.6106202478034309e-05 0.0060389433027489992 0.054985650277262363 0.026592054871102951 0.00021831773200223849 0.0042191174500937553 0.004671474356671616 1.2589560498625846e-05 0.011100140130691091 0.010136736628683217 0.0859261002358227 0.14331872584578553 0.0041828061344813894 0.041667694177145456 0.029105775762676304 0.0005677707753091424 0.0086167206943083205 0.10868769709396764 0.00048257455581029833 0.060418414739278198 0.023202343907909394 0.00021791522254606418 0.010885490172380686 0.13397387805238153 0.0086386293239182378 0.00035281310243175221 0.00092478974870461358 0.02631781967891306 0.00033056155818848973 0.1582801857406971 0.18377546770205605 0.28799155774249885 0.24739840520462292 0.070745115335926465 0.11527210969719037 0.18355158514612624 0.087614705340302551 0.12752902689197232 0.12787453999518469 0.026817456406210236 0.015902555743930773 0.077455011681958022 0.00028695000212185527 0.15357752376014838 0.012361172810154104 0.0084656126063691415 0.021134180501603993 0.091508220894855413 0.033517898199175528 0.021703864993100445 0.018556540552595029 0.00096973930906113655 0.034848861701830471 0.0033005648738124111 0.0094698786420129889 0.0061856507175007576 0.0018317506221281169 0.037073344022700808 0.044045795056627847 0.003276446999121847 0.0012074606734737113 1.7354092942103185e-05 1.1866755216474794e-05 0.0031104505031304555 0.0024283321237074489 0.0014124311236895257 0.00018903416671064429 9.7403355769283746e-05 0.085587780884002013 0.00015715343929299035 8.5214278699490624e-05 0.042282976366118163 0.060059497145161955 0.0012202754589975531 0.072544702794786198 1.8186389027211471e-05 1.2133851255574723e-05 0.00015487946700957648 0.00034783955440228825 0.0045027958963837723 0.04617404025997026 0.0061822407886030443 0.0014357619779830559 0.001852193920030225 0.0061369142204491956 0.0050494889884005051 0.072317455561111438 0.047505900896692523 0.013125720757899358 0.01945546850119196 0.00011252893228399922 0.0002224241407049296 0.057004516792407277 0.012213162118192233 0.00043908331495156228 0.00011261449767272191 6.6003685619607852e-05 0.00015438830020667586 0.0057554323524132145 0.10429219891975042 0.0001758334100307125 0.01068069960553459 0.068614928168431788 0.057646393182259684 0.013383486152234912 0.05142676514526448 0.0011972702130157256 0.0071510358612417464 0.23922999236041098 0.0094637869596397532 0.14966740814510412 0.015924608288701181 0.001286385207883088 0.00095821726773879894 0.0020236526185231371 0.0013252837029944871 0.00092180795256822771 0.0025378085029799297 0.0010049909962645256 0.0094076348949981431 9.2623341201302005e-05 7.7996301434576752e-05 0.00014512717438318773 0.0001815260390105617 0.0058697365095574921 0.0073060521232521866 7.8098499736282083e-05 9.3235191511563238e-05 5.3665023337758323e-05 4.5150129779695338e-05 0.063906342523456422 0.018500523874096123 0.00012526446328385289 0.00027852593766223514 0.0021857787931192814 0.00011745730505856467 0.00024525775492950809 0.027369197939572144 0.0010989204828410508 1.6413974917394624e-05 1.1184975906717213e-05 0.0094693391696238118 0.048711190207826841 0.001355190732815907 0.036261089478193981 0.0012832931676545216 0.0022427463572122913 9.1814390722725874e-05 5.8757745433414526e-05 0.0084450106661961618 0.00095139878503877813 0.0011542786327183023 0.0010239156985289116 0.0093558031212856926 0.0046268154869876371 0.013910965692864093 0.0020225626144820797 0.00090360233300067292 0.035030554649184899 0.023213627205017982 0.0010052803906129533 0.010589918769480428 0.087876851446014703 0.062192809650865349 0.0038400196861435474 0.10775286149030752 0.00050511356288685688 0.0013666810151443649 0.00064752675723549896 0.001782104980440207 4.6977440873968762e-05 7.1188077450898854e-05 0.0044003675503304553 0.0060190480366812803 0.088465520564800199 0.17695433179485098 0.11859073811893159 0.15844027160203472 0.072025168175137544 0.0013981714718107607 0.0047292716777191223 0.0067254006423393652 0.0026618002068557007 0.0079944494938593829 0.0078177842881136609 0.023708304316262363 0.019808852881775182 0.054319282504975801 0.0017305531868308461 0.00063271516236217086 0.0066427524440720248 0.0149652905337638 0.015773526127535485 0.041140266659465866 0.037913755773454384 0.10669170805665505 0.011887845272795386 9.041034294980485e-05 0.00017279655659186615 0.026173479818993144 0.023507164323688358 0.022632865267393464 0.018048482863949299 0.026417572858826753 0.033945132388336394 2.2437667178989199e-05 3.413228888402814e-05 0.0019333283237202032 0.0050370856091092354 0.00044310398191748008 0.00046518082958892071 0.072226390258297191 0.0003942089474258279 0.00050579469538488255 0.00017626522368649535 0.1464102766656406 0.00078113849855858614 0.0021334170518114066 0.037594036389288848 0.00029480093183843466 0.0004159901752754429 0.043869899645937169 0.00028580119518280207 0.00013363630040271271 0.029708993388213437 0.027971413036108034 0.0017127572109316563 0.0026988299662752987 0.0011940803526065864 0.035316841156970577 0.00077871277515038191 0.00063334635765575757 0.13702602296704486 0.0041456339170002311 0.0014163219138822825 0.0005234674644937307 0.0081208263242926425 0.00025470028726259133 0.00029252804627612894 0.0090238219552968568 0.0053793589067280025 0.036445006509681604 0.20402647817188524 0.0064465215335194892 0.0062015890236186925 0.0095385891134862535 0.0032494494159322996 0.011732973627583725 0.085302506154808361 0.00033463902842584579 0.013028994259825103 0.00047023320772583319 0.053620913154222426 0.00019613084816944576 0.0035130469585187046 0.00020436448130903412 0.00016721824156264189 0.015340922536362895 7.4469826482257654e-05 9.0239698287897585e-05 5.4067622489377518e-05 4.6037903926256152e-05 0.0026857067993958628 0.018442198767220634 0.016975255861227331 0.063992361259563327 0.013671043541270227 0.12590057874389596 0.057982732728632948 0.00083768465112666756 0.0022805790578434206 0.091864189545511232 0.14144016160941805 0.0015479134612872724 3.5527614896958702e-05 0.001247395258852231 0.00072068201704218835 0.044851369859962104 8.2566943657684107e-05 7.1427294347187919e-05 0.00011890571032165096 0.00014432257119637655 0.0021896663566441914 0.032511215471710354 0.05141408610619029 0.057243223495478807 0.00023770450470434926 0.0037712287267135203 0.00024873713719496065 0.096188998624739203 2.1022713750090968e-05 0.025197851491132545 0.079742007869620352 0.005487241872490973 5.4557984519330657e-05 4.1683842153667169e-05 6.6973712318692364e-05 0.00070385614341771682 0.0010237708313529466 0.0028079311424511286 0.12330039206891463 0.0070549280964432989 0.12634284062167023 0.0053546986778138291 0.09990124651829721 0.00033590818247638583 5.1200573016922165e-05 0.00039010884075772561 0.024766975051233805 0.034668464169268866 0.0086476085187826967 0.0085533986257076405 0.085572821792994497 0.097602725006341887 0.074901285011167468 0.076320151567177696 8.8728842241415051e-06 0.13983891076484484 0.11320397377561242 0.00395282049836807 0.0026490659446933703 0.006514836976337402 0.0035776497478056343 0.0046610445352808141 0.0002106638021715579 3.8911121466987307e-05 0.00030155410147221864 0.00013870597623046347 0.00018573667141678297 0.15188769722662482 0.0055601889369199312 2.7258950701102941e-05 0.0010694764286370759 0.0074706477614393564 0.0016816961498805174 0.0067546140674542921 0.0028668223512313415 0.017238762304749349 0.0016362639571342978 0.0043543636052204519 0.051503540571464348 0.06005299768882108 0.00029333270617392125 0.00025875985593343655 0.0014129913307266832 0.0003425788459760311 0.00068862518366870264 0.049421778212009493 0.019303895529669147 9.0283027748877665e-06 0.12860475756761089 0.019529184584873186 0.0052348881139551318 0.015755402291856187 0.014551966270792242 0.00061242510439346132 0.00030667448503443948 0.0077007951638808636 0.0074499465255264234 0.019247525822799733 0.021626828375865322 0.0012183163761526953 0.0033497966660457268 0.013935271450915193 0.067118366039389366 0.042516300383504201 0.0042866827485297607 0.00052530254259985692 0.00055389963553209749 0.002592620097547964 0.010926680725196283 0.00087527791974155314 0.011367695336070141 1.0777894180405499e-05 0.050410782944952992 0.00043521648529974515 0.0011596985525542704 0.0030857310561867969 0.0094201455373040741 0.012868737274864737 0.0011063364347233028 0.026033017174396465 0.0063021837634502365 0.00077880481067070376 0.019080081929426691 0.00012739531856813789 0.001