<?xml version="1.0"?>
<VTKFile type="UnstructuredGrid" version="0.1" byte_order="LittleEndian">
<UnstructuredGrid>
<Piece NumberOfPoints="558" NumberOfCells="1054">
<Points>
<DataArray type="Float64" NumberOfComponents="3" format="ascii">
0.02576622439977887 0.024532886826226379 0 0 0 0 0.049999999999899652 0 0 0.053064897599215843 0.048131547304697528 0 0 0.050000000000207989 0 0 0.10000000000041601 0 0.044310582753132287 0.101412518374475 0 0.083411279318303222 0.089699755330707398 0 0.12372429750337779 0.095814237875728972 0 0.10266856499169109 0.044518360900210059 0 0.099999999999814668 0 0 0.044081577119474857 0.2271058242433576 0 0 0.20000000000083221 0 0.038512288486115001 0.1844147282893184 0 0 0.15000000000062411 0 0.065374659239632718 0.1448908038746782 0 0.1053400320299198 0.12877248826361379 0 0.106902708054812 0.16453234188234539 0 0.083105206071467416 0.20007701332709979 0 0.095326043202144745 0.24554465089224409 0 0.17933913398461551 0.2350063570234002 0 0.14377654328998779 0.2442024734791064 0 0.13737030665753211 0.20313708640667491 0 0.18124454140915969 0.18790916706335251 0 0.14332333627550789 0.14578431753966009 0 0.18652628422869419 0.14162325200928061 0 0.22985637510995899 0.1298347970200906 0 0.2185883431182947 0.18019736283949719 0 0.224700362040408 0.22206622194729711 0 0.184418230509967 0.038773194583122873 0 0.14999999999970359 0 0 0.14618258501891079 0.062070108745602003 0 0.16141998738593399 0.10404039647458049 0 0.19922788606653311 0.085920220746880993 0 0.24218496799700481 0.089025544070598317 0 0.22668068146512929 0.045875643423131329 0 0.19999999999955789 0 0 0.24999999999941211 0 0 0.27499999999933927 0.060310814194988557 0 0.29999999999926641 0 0 0.32541448401678508 0.046215317981507749 0 0.3615861437013822 0.03582617922508851 0 0.34999999999912063 0 0 0.35312867752657662 0.084946736076730367 0 0.32215584939770009 0.1218492143506909 0 0.3096713403101819 0.085471541595262421 0 0.27474541102162192 0.11822029332053539 0 0.25557216766470708 0.15874861286892261 0 0.29336099386129338 0.15892013001050981 0 0.28040350263641872 0.23054717217092141 0 0.26429849586623999 0.19346700179430079 0 0.33758650185219202 0.23837101504325639 0 0.31255190597181792 0.19850845631528771 0 0.33084213324567391 0.16272720141332131 0 0.3572130504031617 0.1874703368446563 0 0.36246644853392812 0.1399454205365751 0 0.39801143831225599 0.16651381068160659 0 0.38831533174504851 0.2189834941785925 0 0.42905200079338551 0.19982395548231649 0 0.46429753744194407 0.22870891180733599 0 0.44288491854585582 0.14116182884956319 0 0.47357141910802508 0.1873585799078378 0 0.48466639505193998 0.1421439844745814 0 0.47881186583059909 0.093591717165689425 0 0.47040171442036788 0.044141676406503738 0 0.49999999999869432 0 0 0.44999999999882923 0 0 0.4320097814748517 0.037406712692169303 0 0.3999999999989749 0 0 0.39591832466117061 0.056982757562006353 0 0.39823268594401579 0.1116623613130045 0 0.43698630808430822 0.080423614171545449 0 0.42161023666869668 0.39493916313643851 0 0.38083244760691543 0.38531983672244652 0 0.38707855792647411 0.42299362914874578 0 0.3908716102680424 0.47010282357248828 0 0.43507373378304309 0.49699695397193322 0 0.43249999999999988 0.43937499999999979 0 0.46111841286828259 0.46690301029591341 0 0.49102375406324739 0.49123754822244059 0 0.48858720058566618 0.43964267759203868 0 0.46655310992796922 0.39650496622958609 0 0.49077833859261139 0.35229981449445641 0 0.46226845272279993 0.31901800744800313 0 0.4409427642593301 0.35743108089689513 0 0.49695729691142171 0.25014895411178018 0 0.4604742573284204 0.27846934318264788 0 0.42377727103934271 0.25099357235810238 0 0.41914690343363781 0.30688979866601612 0 0.3786248352540974 0.27082301512024259 0 0.40076539126862748 0.34589349467022118 0 0.36575549820117997 0.31677992835137742 0 0.32752639306529541 0.32610012995269699 0 0.33277555741076909 0.36432196682010132 0 0.33402499257867951 0.28911035184473982 0 0.29132859388405002 0.27203693976649962 0 0.25195515620380449 0.25883339815888678 0 0.29644548887253103 0.34914008784168082 0 0.29348325746214782 0.31350119524708198 0 0.25966125648670141 0.34351016742083729 0 0.27866744612395528 0.38416094670951489 0 0.29124338931648802 0.43334555462578611 0 0.31778888742534622 0.40581751814196781 0 0.35221190152536241 0.40457127605439203 0 0.35024835142131061 0.48654922671676981 0 0.34258405725730701 0.4444034294386992 0 0.31068898841644388 0.47541502461811092 0 0.25982634974572738 0.46097799597715272 0 0.23975172658309729 0.49475499200540818 0 0.19604738184454831 0.47787523520405789 0 0.22278230690790279 0.44824268025881547 0 0.24049127783545701 0.41270748208749802 0 0.191953871957803 0.42546416763755879 0 0.1650278706801647 0.38791388161335733 0 0.13773355295499351 0.42497777642586831 0 0.15801167086041079 0.46008690540259539 0 0.21049769590865089 0.26857363548218488 0 0.24432083401701241 0.3006253385567515 0 0.19670163708476801 0.31472518408333222 0 0.22615676742807109 0.33458786033114157 0 0.22033343844674469 0.36963382230740238 0 0.18434624290945251 0.35208838264196463 0 0.14223753364722069 0.3341983344262433 0 0.168349569971391 0.28054490850913671 0 0.1247745017231483 0.27198077544791172 0 0.093851963071650835 0.30582068233324772 0 0.087545339447545459 0.35122518864182262 0 0 0.35000000000145642 0 0.046389130980076937 0.32668781832131749 0 0 0.30000000000124832 0 0 0.25000000000104028 0 0.049706944316556423 0.27522722923869108 0 0.068743045408989428 0.48853989837882689 0 0.113541300460994 0.46208784312094731 0 0.1117088112799664 0.38831403004970022 0 0.078358742472063481 0.43365249433908948 0 0.035463093262830522 0.42673416072819947 0 0.050583896093752537 0.38543522283434112 0 0 0.40000000000166441 0 0 0.45000000000187229 0 0.033550201249889847 0.46247875832467239 0 0 0.50000000000205869 0 0 0.55000000000173355 0 0.044576108720083309 0.53509043209532614 0 0.085622222639554768 0.53333248912060549 0 0.1216098864341134 0.50637075089503902 0 0.1024350934457823 0.60772393977513839 0 0.1154888278694548 0.56733818459978413 0 0.077693244765132896 0.56932317963405099 0 0.050069554451969707 0.61308520079857043 0 0.034381862692950467 0.57372682250960894 0 0 0.60000000000138687 0 0 0.65000000000104008 0 0.046634677244967337 0.671418230738282 0 0 0.7000000000006934 0 0.049706944316475897 0.72477277076253799 0 0.1020579365089687 0.69352219419301997 0 0.1215415378367805 0.72939333680004137 0 0.086179601630648681 0.64647209519980475 0 0.1241190223511371 0.64391885572885044 0 0.16500388252850301 0.66612077714085194 0 0.15332765547575641 0.71200081858233666 0 0.19068556247388771 0.71028988922845504 0 0.2248999640082178 0.72584299459689172 0 0.2236846579037573 0.67380363126050236 0 0.2459498854893499 0.63248470766216769 0 0.19914261668318661 0.62286739485272158 0 0.22549374774072969 0.58452645269293457 0 0.20050006573841939 0.53248514016039872 0 0.16618607197337229 0.50652878253548905 0 0.14934928745814749 0.55042914607228977 0 0.15720202157091859 0.60665697304410315 0 0.18381867841758909 0.57774125163628387 0 0.10000000000041601 1 0 0.10266856499240549 0.95548163909968886 0 0.050000000000207989 1 0 0 1 0 0.025766224399875661 0.97546711317377799 0 0 0.94999999999979179 0 0.053064897599294662 0.95186845269532028 0 0 0.89999999999958358 0 0.0443105827531413 0.89858748162559932 0 0.083411279318375747 0.91030024466934134 0 0.1241151115713819 0.9045666525468371 0 0.10562472963403439 0.87143394428979881 0 0.1074251789111534 0.83564394292147814 0 0.065374659239661639 0.8551091961254178 0 0 0.84999999999965292 0 0.038512288486097702 0.8155852717111195 0 0 0.79999999999999982 0 0 0.75000000000034661 0 0.04408157711937423 0.7728941757575627 0 0.090953281884486245 0.7564451946902494 0 0.083105206071452636 0.79992298667296435 0 0.14335651144331049 0.75565258250209677 0 0.1382744753146134 0.79650574229207483 0 0.18269480424590959 0.75905448272264375 0 0.22556077506376701 0.77837424984191617 0 0.21858834311891909 0.81980263716112767 0 0.2401283238295133 0.85648409884788523 0 0.19741632902693801 0.86755867406447229 0 0.17777405986036951 0.81832336108265358 0 0.14474682429600511 0.85524784522713515 0 0.16206583317966519 0.89685560785156404 0 0.24536017905392571 0.90704567837671446 0 0.19901705110390991 0.9175543425573498 0 0.22850979588452081 0.95594428570238643 0 0.20000000000083221 1 0 0.18474005699953849 0.96231585248064622 0 0.14617343800780541 0.93808063414349496 0 0.15000000000062411 1 0 0.35000000000145642 1 0 0.36184234618600131 0.96443954459096326 0 0.32544832635163229 0.95485394099568932 0 0.30000000000124832 1 0 0.25000000000104028 1 0 0.27609987656793722 0.94991445621608572 0 0.27270076654418179 0.87751467830216623 0 0.30864387279288652 0.89906554525974958 0 0.35752321586431363 0.9185439911803448 0 0.35864759629805099 0.87963482415279515 0 0.33403534827021109 0.84402799729020661 0 0.29209212897034281 0.84715728365233667 0 0.26104540868854792 0.81401944968719064 0 0.30857225866488791 0.81101973481716805 0 0.2792923945214143 0.77665808831789485 0 0.33123028043633618 0.77629643437932982 0 0.35642984951668422 0.80994399665655703 0 0.38586766253264881 0.78219501014812498 0 0.42609163930740518 0.80361684430568059 0 0.42676259796334498 0.76772545931379299 0 0.4656888918609538 0.78493261229743638 0 0.45677673713123867 0.84253684404072415 0 0.39536230704883951 0.84069429572832477 0 0.39767323751400468 0.89584229130535065 0 0.4367309254023824 0.92065556789053882 0 0.44003836461056539 0.88093474584252718 0 0.47401147028110507 0.91529957330468115 0 0.47135117303824892 0.95556877749289892 0 0.45000000000187229 1 0 0.4308986359464303 0.96395712492906194 0 0.39641108128798319 0.94356127926187128 0 0.40000000000166441 1 0 0.33122374654748771 0.57588941099433744 0 0.31502927232353312 0.6134992213375432 0 0.35765792684946668 0.6000687869219653 0 0.37272913873093971 0.56192925302619479 0 0.33190227185843768 0.52715113583864037 0 0.28307294598219601 0.50789252727458634 0 0.25115337790845271 0.54719303014923271 0 0.29110487519241501 0.56588143995431
[...]
<CellData Scalars="region_id,pressure_p0," Vectors="velocity_p0," Tensors="">
<DataArray type="Float64" Name="region_id" format="ascii">
1 1 1 1 1 1 1 1 1 1 1 1 1 1 1 1 1 1 1 1 1 1 1 1 1 1 1 1 1 1 1 1 1 1 1 1 1 1 1 1 1 1 1 1 1 1 1 1 1 1 1 1 1 1 1 1 1 1 1 1 1 1 1 1 1 1 1 1 1 1 1 1 1 1 1 1 1 1 1 1 1 1 1 1 1 1 1 1 1 1 1 1 1 1 1 1 1 1 1 1 1 1 1 1 1 1 1 1 1 1 1 1 1 1 1 1 1 1 1 1 1 1 1 1 1 1 1 1 1 1 1 1 1 1 1 1 1 1 1 1 1 1 1 1 1 1 1 1 1 1 1 1 1 1 1 1 1 1 1 1 1 1 1 1 1 1 1 1 1 1 1 1 1 1 1 1 1 1 1 1 1 1 1 1 1 1 1 1 1 1 1 1 1 1 1 1 1 1 1 1 1 1 1 1 1 1 1 1 1 1 1 1 1 1 1 1 1 1 1 1 1 1 1 1 1 1 1 1 1 1 1 1 1 1 1 1 1 1 1 1 1 1 1 1 1 1 1 1 1 1 1 1 1 1 1 1 1 1 1 1 1 1 1 1 1 1 1 1 1 1 1 1 1 1 1 1 1 1 1 1 1 1 1 1 1 1 1 1 1 1 1 1 1 1 1 1 1 1 1 1 1 1 1 1 1 1 1 1 1 1 1 1 1 1 1 1 1 1 1 1 1 1 1 1 1 1 1 1 1 1 1 1 1 1 1 1 1 1 1 1 1 1 1 1 1 1 1 1 1 1 1 1 1 1 1 1 1 1 1 1 1 1 1 1 1 1 1 1 1 1 1 1 1 1 1 1 1 1 1 1 1 1 1 1 1 1 1 1 1 1 1 1 1 1 1 1 1 1 1 1 1 1 1 1 1 1 1 1 1 1 1 1 1 1 1 1 1 1 1 1 1 1 1 1 1 1 1 1 1 1 1 1 1 1 1 1 1 1 1 1 1 1 1 1 1 1 1 1 1 1 1 1 1 1 1 1 1 1 1 1 1 1 1 1 1 1 1 1 1 1 1 1 1 1 1 1 1 1 1 1 1 1 1 1 1 1 1 1 1 1 1 1 1 1 1 1 1 1 1 1 1 1 1 1 1 1 1 1 1 1 1 1 1 1 1 1 1 1 1 1 1 1 1 1 1 1 1 1 1 1 1 1 1 1 1 1 1 1 3 1 1 3 1 1 3 1 1 1 1 1 1 1 1 1 1 1 1 1 3 1 1 1 1 1 3 1 1 1 1 1 1 1 1 1 1 1 1 1 1 1 1 1 1 1 1 1 1 1 1 1 1 1 1 1 1 1 1 1 1 1 1 1 1 1 1 1 1 1 1 1 1 1 1 1 1 1 1 1 1 1 1 1 1 1 1 1 1 1 1 1 1 1 1 1 1 1 1 1 1 1 1 1 1 1 1 1 1 1 1 1 1 1 1 1 1 1 1 1 1 1 1 1 1 1 1 1 1 1 1 1 1 1 1 1 1 1 1 1 1 1 1 1 1 1 1 1 1 1 1 1 1 1 1 1 1 1 1 1 1 1 1 1 1 1 1 1 1 1 1 1 1 1 1 1 1 1 1 1 1 1 1 1 1 1 1 1 1 1 1 1 1 1 1 3 1 1 1 3 1 1 3 1 1 1 1 1 1 1 1 1 1 1 3 1 1 1 1 3 1 1 1 1 1 1 1 1 1 1 1 1 1 1 1 1 1 1 1 1 1 1 1 1 1 1 1 1 1 1 1 1 1 1 1 1 1 1 1 1 1 1 1 1 1 1 1 1 1 1 1 1 1 1 1 1 1 1 2 1 1 1 1 1 1 1 1 1 1 1 1 1 1 2 1 1 2 1 2 1 1 1 1 1 1 1 1 1 1 1 1 1 2 1 1 1 1 1 1 1 1 1 1 1 1 1 1 1 1 1 1 1 1 1 1 1 1 1 1 1 1 1 1 1 1 1 1 1 1 1 1 1 1 1 1 1 1 1 1 1 1 1 1 1 1 1 1 1 1 1 1 1 1 1 1 1 1 1 1 1 1 1 1 1 1 1 1 1 1 1 1 1 1 1 1 1 1 1 1 1 1 1 1 1 1 1 1 1 1 1 1 1 1 1 1 1 1 1 1 1 1 1 1 1 1 1 1 1 1 1 1 1 1 1 1 1 1 1 1 1 1 1 1 1 1 1 1 1 1 2 1 1 2 1 2 1 1 1 1 1 1 1 1 1 1 1 1 1 1 1 1 1 1 1 1 1 1 1 1 1 1 1 1 1 1 1 1 1 1 1 1 1 1 1 1 1 1 1 1 1 1 1 2 1 1 1 1 1 2 1 1 1 1 1 1 1 
</DataArray>
<DataArray type="Float64" Name="pressure_p0" format="ascii">
8.689486258224481e-06 3.1212369962878419e-06 1.4417510131328811e-05 9.0949659769950515e-06 4.9966627621705901e-06 4.7808273286431047e-06 1.9079998991772763e-05 1.080006379401442e-05 1.9749253970105061e-05 2.6185764268173881e-05 3.3781602000939855e-05 4.3144537092161062e-05 4.1646093166157542e-05 3.3334218324307265e-05 3.8301263461856645e-05 2.1738532303747878e-05 2.7378831604263602e-05 2.5454145566305873e-05 3.1986546230465273e-06 6.7081478027518423e-06 1.4119680341911598e-05 9.7780803663433733e-06 1.0982713001721847e-05 1.7247776952716044e-05 3.3980322934089166e-06 2.8732647895471023e-05 4.0663789544673415e-05 2.5491060746000024e-05 3.4420496911678471e-05 3.6407432341900452e-05 1.9859622069212735e-05 1.4942461205731863e-05 4.8183704336876213e-05 7.5937044843251726e-05 9.106485831639854e-05 8.4601961071100685e-05 4.8400233126972856e-05 7.0244434142810772e-05 7.116026094807561e-05 0.00014733336776732859 0.00020932735066095875 0.00027968100802715711 0.00012494968521735525 0.00014683783553671718 0.00017015244900329398 0.0002645305311734182 0.00027947419830439194 0.00018396880637038137 5.8474462098655154e-05 7.1727115870758083e-05 6.8414205837896653e-05 4.4857019469325845e-05 5.1893108332818925e-05 5.3507120624886125e-05 8.5760526788842195e-05 6.8918963440387941e-05 0.0001179896209030637 0.00013915972272430293 0.0002016987424451307 0.00012166050561448223 0.00015913404922091257 9.3706859292713387e-05 8.8993046592732039e-05 0.0001100110129877538 0.00018623131099543332 0.00014825026064316607 0.00025283739119077726 0.00030960947183846502 0.00046197350895966539 0.00060472056566960924 0.00039265940659239735 0.00048151450609989588 0.00097771343533762517 0.00073221292256701745 0.00042612538176276356 0.00050848084557913076 0.00039671156579450061 0.00029824776584766417 0.00028325879272455298 0.00021574342147097868 0.00024503519187744579 0.00034969348813528495 0.00038905651500681338 0.00072769576385939999 0.00056070427427635432 0.00044176209079630879 0.00040204592894695209 0.00039512875652094638 0.00060096265018619842 0.00094780299910876553 0.00094996194170127483 0.0013003955004007779 0.0019659205134901093 0.0026041394358623346 0.00063043654958531829 0.00082669735290133895 0.0010540803694309318 0.0015822567553219564 0.0011515953366647768 0.0014989998169441391 0.0031599041147772873 0.0020873672736633399 0.0040919643970974062 0.0022168763282112399 0.0031923478909205872 0.0045641283266566191 0.0066873286722523833 0.0067890852852980875 0.0086629023222236957 0.0093499139935096717 0.01278953338602047 0.0044475723060366018 0.0045984755907738182 0.006203696543805131 0.0030879760112304889 0.0034312705699221734 0.0021147116209340906 0.0015933979457996243 0.0018909013669985305 0.001536095010504014 0.0011671763830779075 0.0010186315567970521 0.0011767185791640377 0.00073984214065622841 0.00098174322242871931 0.00079687602269929488 0.00059099956078349715 0.00084904179087912915 0.0017477206982792599 0.0011233477034661085 0.0043131129321350272 0.003672787494699477 0.0043242470629631623 0.0036909859756415987 0.0041887835289658483 0.0045030338150328052 0.0056665373923106346 0.006552885204059257 0.0070558710970071836 0.0077222699203103214 0.010372492356370781 0.0071970949405566909 0.0060980129320496214 0.0073653995227405868 0.013263712003753115 0.019352575735536205 0.013033110943836284 0.0093243268757704674 0.010794575394423161 0.019157159951825532 0.013417128730564597 0.016646948744038336 0.010842957588282449 0.0094629394756650404 0.0083687499060412021 0.0054621214912355612 0.0041600155638263116 0.0059396661415034857 0.0066471776092383904 0.0046569790105279929 0.0029073961497434134 0.0029668623573319741 0.0019571464404870066 0.0013552045908341573 0.0021243433662988536 0.0026209217651517484 0.0019794590545344618 0.0013501153434307741 0.0013385631275035078 0.0010934368772671762 0.00068061624049957944 0.00052188218942879859 0.00060309802878110103 0.0010332400302635039 0.001097546799205675 0.00076105214395531849 0.00057239335155435749 0.00069614337932278583 0.00046665534534389688 0.00060725709047414938 0.00056583251617072102 0.00089056956917382257 0.0011300430438468496 0.0015892254397909811 0.0016036770010278679 0.0012162081444430746 0.002193506722177537 0.0026600784844461396 0.0021719857631109854 0.0029615073160120606 0.002310195035244756 0.0025852857581861888 0.0012119428246201796 0.0017764371498213429 0.0016386798939911741 0.00088054025234595508 0.00083387143367696795 0.00063438115444510281 0.00031394606517951029 0.00022304160571108596 0.00039906209819793909 0.00043063285673396434 0.00041862885439001386 0.00017067628197579089 0.00026342295173676175 0.00027176540159441504 0.0001054010182542498 0.00010540229210813276 6.0905337607024856e-05 6.453664115201533e-05 6.4645259505099038e-05 9.7511417506035829e-05 0.00014869291691256716 0.00015624030367984853 0.00033305442586855554 0.00024933388985549421 0.0001594210582401946 0.00019396107916882618 0.00027513644327073657 0.00039128127020599825 0.00034152144241470189 0.00022378640407105826 0.00015852719823994681 9.8004480252344016e-05 6.2257355894798492e-05 0.00011944697573228324 0.00010872768541329476 6.9319003663446762e-05 6.8056681038814143e-05 0.00013818737703142719 9.2791708499162048e-05 1.988904862246699e-05 4.4205030468579876e-05 3.236794829549896e-05 4.3663916605828312e-05 1.2694937254235249e-05 1.6146074269156008e-05 3.2940624360468769e-05 3.6695624900436972e-05 1.7890016579475409e-05 1.0117087399184056e-05 3.8521275557522212e-06 1.8229375825622462e-06 5.1688364788943685e-06 2.8291469180604471e-06 6.428754605193573e-06 2.1588220129471275e-05 3.5646897606897519e-05 3.5796209996863459e-05 3.3665677380475283e-05 1.6450058813043445e-05 7.3086354364687574e-06 1.4405869487095482e-06 2.5733524610293828e-06 7.0603915674556512e-07 1.7511568337522261e-06 4.2857920978633613e-06 9.8081433722776967e-06 6.0966582918650417e-06 8.0233300172414053e-07 6.4032378553089016e-06 1.9942689203157307e-06 5.0351717389738197e-06 1.4291622831609945e-05 1.6809793635803883e-05 3.2096324851786122e-05 2.1611860389650903e-05 4.1453118338427495e-05 5.2273585850170723e-05 5.4588734571159691e-05 4.3054334422641772e-05 3.5677227089426925e-05 1.8064651633651039e-05 2.224200390273898e-06 5.0549233354464289e-06 7.8469819135930157e-06 6.0976465009492423e-06 2.9393219138765092e-05 1.2549853052419205e-05 7.961205467393981e-06 1.5757079393551356e-05 1.6866187678908992e-05 5.7171095474909085e-05 9.0639488981679757e-05 4.0062669406150665e-05 0.0001184759947376504 5.0184296247654906e-05 8.3859806046389978e-05 7.5922300172361437e-05 0.00014321835439799109 0.00018776456005786723 0.00029196407989364771 0.00018114439241863719 0.00017307379200943272 0.00013471988014512561 0.00030081164640664642 0.0002459415416411652 0.00033050268662297033 0.00050099654999749652 0.00065188253184050729 0.00099804477590726077 0.00089985875534371175 0.0011817808809195585 0.00046561805715073401 0.00046138895833164101 0.00071803222925034545 0.0011471314806507011 0.00065255857996653478 0.00091970627033503881 0.00042287188325722301 0.000371828091623449 0.00081818419408186517 0.00052084356295448056 0.00047921438763810916 0.00021245408047268306 0.00031673348660201501 0.00022875809983824173 0.00018191429536766656 0.00010712897011191228 8.3953810157682342e-05 0.0001257742667202556 0.00010175241861225178 0.00011925618854906818 0.00029208718188559839 0.0001953328150845754 8.0204854698573682e-05 5.0292514416499265e-05 4.1033973815976301e-05 5.3735893141253338e-05 2.603858865205821e-05 1.5370825920751865e-05 5.3848638356512024e-06 1.610681892368995e-05 1.9784951362197082e-05 3.6900044651490664e-05 9.0036142194922351e-06 8.9120121484794596e-06 4.021355563110962e-05 5.6724502972930213e-05 7.0645258809257837e-05 9.1669986819001127e-05 0.00010376824288703832 7.4816991793978037e-05 9.9979677794470167e-05 6.0713066429691568e-05 6.6422497891636525e-05 2.0806304877684127e-05 2.208993234667411e-05 7.1891836093849696e-06 3.9777218213446826e-05 3.4042516321695289e-05 1.5517568730910268e-05 7.7229603776273263e-06 3.8471841713484344e-05 4.9966261732292871e-05 9.405191798265972e-05 8.9810989241728175e-05 0.00013110083727454162 0.00021811622260367884 0.00025635020056177994 0.00059219016318628028 0.00074210604094901769 0.0004759457688945668 0.00042041443904574895 0.00035253818151235246 0.00070027173122215773 0.00046080686064854149 0.00023399143789238667 0.00019511262234125882 0.00018615811453886609 0.00012628242384262625 0.00013265456180565721 0.00012260286820247801 0.00017006776629174543 0.00023170982177503143 0.00033299602459479686 0.00044619065593476479 0.00033181839617162117 0.0002404131737814821 0.00044255589668449257 0.00028528395155518496 0.00022461600259109896 0.00016291164196467265 0.00017523674548767674 0.00013555590932801559 9.7947392463385605e-05 0.0010944880402938616 0.0013503738808592041 0.0013008489864376545 0.0017151421529828508 0.00085969408110596649 0.00050336504934647176 0.00039608773207559626 0.00069207045499659794 0.00085691802601519165 0.00079758249819806507 0.00069081254909289665 0.00062363199457270483 0.0017642533748819962 0.0012590500145369381 0.0025214536607686957 0.0034501345882945091 0.0041636721004528927 0.0029458054459004764 0.0020369243395832394 0.0016191727224187185 0.0011249287739356626 0.00089455831831938945 0.00097599954923431858 0.0014918686262455679 0.0019881075516082181 0.0016096364370962674 0.002461734276020562 0.0010969449299082549 0.0018058736479894763 0.0011763457138684143 0.0026212453213925449 0.0040989686636840397 0.0034216787004609584 0.0052681254178376796 0.0060950590458246027 0.012915207073633448 0.0093672921731777093 0.0085198834410396308 0.0061131248202943231 0.012103120751570957 0.023562139572537874 0.035242729792269792 0.035138264670182988 0.026165778200542156 0.015101880857100004 0.017142850167461893 0.01837198772432656 0.013839286548704406 0.0091404828943097566 0.0074887976769057044 0.0050889567640714419 0.0095554534817971059 0.0037632784668138108 0.0023587191155523502 0.0030650231219859899 0.0043557727292774023 0.0051557492708568502 0.0071822659521865503 0.0049607862100231812 0.0069634116188142595 0.0042795989274172228 0.0032787286416064219 0.0041523189412173587 0.0032062539858475252 0.0028244411176115863 0.0022128142707467627 0.0020660210902469322 0.002738204050550988 0.0016641090479281692 0.0034930756133602137 0.0045723217517228253 0.0069637269016998259 0.0041518705646725598 0.0034220767150607702 0.0031351231886576443 0.0026059666852523678 0.0021303075086040466 0.0014849003962880214 0.0013617330692418169 0.00070504505938133271 0.0010334845271075847 0.0011204669761683461 0.0023486292410972312 0.0017548046838895004 0.0019006681934650971 0.0013378588259592419 0.0013596601169023805 0.0030286965267958838 0.0022346174949408729 0.002785596665898565 0.0017687435794556919 0.0024913065673404801 0.004022394548613948 0.0059468763883881691 0.0093655866868454889 0.0041996316717286724 0.0049603586434426045 0.0060433274629242443 0.0089199654835379408 0.0095257265582656611 0.014016109966317913 0.019391888616307452 0.015628846634332835 0.014429477780186715 0.014813239166173128 0.023067206759362722 0.019673327361210635 0.038784334868189406 0.053122697423928653 0.044565569852535042 0.029610904168490697 0.021388798654775443 0.028940465558030894 0.038844486839358164 0.034486240360869148 0.024612582827217944 0.019109600824586213 0.011513864631129012 0.013567193315928551 0.010757438227050416 0.0071241763246073231 0.0060715406387831065 0.0079582476112714795 0.0052757064924698564 0.0055900564617675863 0.015747971122777208 0.0083644376854138634 0.0080200787229757556 0.011255038556180246 0.011135461645487009 0.01444607356001419 0.018306904099463471 0.025553294416616967 0.016845450478261546 0.021462776636895792 0.028185357295379444 0.019350900906229263 0.065073741875376387 0.05069857929767782 0.037033070629491641 0.053075026892709577 0.022380142788000601 0.041239296183700556 0.029156968167822969 0.044641693055795177 0.056619947092020506 0.060282914228268106 0.073013487628210388 0.10739730390257754 0.07944803966823645 0.079706073026292013 0.11559914988928958 0.13852052318483715 0.11310988391886218 0.10009875648966293 0.14344715265562433 0.12713496637233385 0.11962894062344429 0.15237999509983483 0.13770770081887973 0.10833611092385929 0.073932171105560079 0.11821632932090204 0.09154431892832969 0.084796656498765499 0.09956736994402475 0.12595859439991047 0.14599396761874534 0.085841195847240981 0.098474653334946066 0.12693160162448316 0.13662068303147928 0.16504696101044633 0.14822082212472226 0.12822323040471709 0.12998013896255675 0.16053927184216543 0.16608561401662675 0.18156394169901471 0.14142435366629133 0.1128492422237817 0.090593929146269875 0.13943688276437682 0.10714956404314727 0.12552804252873792 0.078873149161596851 0.072274660102190316 0.071024904403365161 0.041579780496276475 0.055671361660722007 0.041353510850618252 0.032745366436896226 0.02718839023395446 0.036626971136021008 0.03295387476866958 0.024003593445331695 0.025608723560912323 0.021153342755021787 0.039711980371827091 0.065810598649607116 0.054563538764659976 0.0064389860589503765 0.0067523503736173305 0.0076195336410913852 0.0054138344449464765 0.0045079936850478102 0.0068594311177783713 0.005355466820932026 0.0085723915062307036 0.0090900175266354043 0.015581050178424925 0.011771636835220466 0.012473346813588936 0.010046683705684902 0.017122171504165284 0.034676797384907254 0.028582148554823245 0.035086364868583651 0.02002122075565985 0.014194535062778717 0.017522415908175847 0.027800038092049527 0.032342092903670475 0.043668524437271164 0.059816252399788855 0.066164523713311954 0.053311453141449854 0.062864627292990805 0.085286415955330097 0.050516571800972868 0.055678126860599461 0.076043946570206467 0.09586888199083779 0.095589791040636751 0.10081135231987218 0.074630823473963798 0.05267091646874366 0.044326341081849518 0.047647961433459507 0.029546646492989076 0.024877514513904308 0.030531238141254472 0.043120313815625741 0.02725066119406204 0.019181803944165791 0.015263631211837471 0.011008098191688629 0.011506531329608015 0.015235449718168304 0.018323092004026313 0.026279367577432499 0.01567155592394321 0.014864533443054618 0.011273520475903062 0.0093953343050568097 0.01059944387398638 0.009276160486230256 0.0079184243245217292 0.0096527291392380712 0.0078659620652217106 0.015148043303249193 0.013764486259352149 0.015977641973218069 0.01180765199169459 0.011651288034942683 0.010511147886798815 0.012946266956346379 0.013844856931112169 0.019188769722908658 0.01491026628269879 0.020442846103342002 0.023172398167336319 0.025610354322682063 0.020701760069704537 0.025886206400920903 0.04432207673769796 0.060197860492981328 0.063674440065969229 0.03534363058773142 0.031725271325091405 0.039001727620966278 0.033785110572753872 0.060277097947357833 0.051635023720164139 0.080414466756894898 0.085283995193863926 0.061648343014572428 0.097291316352368623 0.12294051228234343 0.10629829157499425 0.13360232928214752 0.082828001835904996 0.10728583028653739 0.14026287848330277 0.127530388985091 0.153190659474568 0.14169779151081374 0.18488686268141949 0.19307965896295337 0.1514843041419186 0.12147251943039651 0.049881557333834127 0.072657212723538159 0.090410335843230993 0.046335581187112819 0.0880141138572402 0.071503031132504988 0.079062109767372962 0.037709012658722375 0.020585653908641192 0.026694055830743506 0.021027356535225222 0.038630769065030032 0.04071447834863845 0.024488341096362057 0.029963718299566351 0.024920932612551402 0.019421967270838454 0.019245099789861317 0.015919774533062273 0.014625270869279144 0.015837170920587677 0.01448531644721578 0.016298479643435039 0.013720049887031356 0.067262086558809164 0.10396854976077249 0.1027833944999437 0.086194074444397556 0.05569683944440984 0.044884816443783448 0.040043314940939906 0.043849386097269072 0.036895563382509364 0.033002971285959776 0.054755893137287681 0.06261837792448155 0.056738910751057109 0.085584622646628639 0.090797063887501916 0.11600507475403449 0.15801444607069065 0.17650830056819022 0.14104774230489811 0.15147695249673793 0.18480390471746844 0.18309226826875372 0.20218845044124925 0.13758965786825678 0.17450522279671968 0.17778288337639131 0.22727663967514755 0.20742738428503688 0.20354819346664929 0.25729799421739952 0.1849803006431216 0.13287669782951778 0.19471873185357239 0.13511563851879238 0.15576153639957893 0.17776198244711638 0.14293566110804679 0.22825180167096926 0.21982143876338706 0.18921858724291102 0.23001348753501555 0.29280642276996549 0.26541688276463477 0.2512156413546861 0.21960975980786188 0.23873702884146697 0.33481839086427101 0.29781208653026214 0.254371390333961 0.1537890455019969 0.24357719388583507 0.28745031601020232 0.24689887184918186 0.17307526442552953 0.084120862094866036 0.14089048362322898 0.098859185989150819 0.11631565767538568 0.091451966451934472 0.07206468177150982 0.090468030685375622 0.11493628112316683 0.048924249863941879 0.057023747931827087 0.059833973467809581 0.071976750752042462 0.0513071798925821 0.065080701872981067 0.056800297939397178 0.050204275915789763 0.049250150252776598 0.050235897961484532 0.046910601424531351 0.048528583801369138 0.091081184582755534 0.06681366952434506 0.058114146628014819 0.073547527520229944 0.060224366166052257 0.04854469388473099 0.057050097589064541 0.070572175963232814 0.045231733767786386 0.049894619040793134 0.043556855965800084 0.040576642197592411 0.036039426794297183 0.036460159036732991 0.036709531215947007 0.039369471110562951 0.041513353056331151 0.04257618218887671 0.053733438167705247 0.06137629410017556 0.04477484818198163 0.035793264814308424 0.042133326338112842 0.051033515943275813 0.031654106300611336 0.027827508897935151 0.029556752068410314 0.031