<?xml version="1.0"?>
<VTKFile type="UnstructuredGrid" version="0.1" byte_order="LittleEndian">
<UnstructuredGrid>
<Piece NumberOfPoints="300" NumberOfCells="677">
<Points>
<DataArray type="Float32" NumberOfComponents="3" format="ascii">
0 3.75 0 1.75 5 0 2.25 4.75 0 2.75 4 0 3.5 5 0 3.25 6.25 0 4 5.75 0 5 6.25 0 4.75 7.25 0 4.25 4.75 0 3.5 4 0 4.25 3.5 0 4.75 2.75 0 4.25 1.5 0 5.25 5 0 4.75 4.75 0 5.25 4 0 5 2.25 0 5.75 0.75 0 5.75 2.5 0 5.5 2.75 0 6 3.75 0 6.5 5.25 0 7.25 6 0 6.75 4 0 7 2.25 0 7.5 2 0 7.5 3.75 0 7.5 4.75 0 7.75 6.25 0 7.75 5.5 0 8.25 5 0 8.25 3.75 0 8 2.5 0 8.5 0.75 0 9 8 0 9 5.5 0 9.75 4 0 9 2.75 0 9.75 5.5 0 10.5 4.75 0 11.25 4.25 0 12 3.75 0 12.75 4.5 0 4.75 4 0 2 3 0 6 6.4 0 1 6.2 0 10.4 2.3 0 11.5 1.1 0 0.6 0.75 0 11.9 7 0 0 0.75 0 0 8 0 12.75 0.75 0 12.75 8 0 0.562499999996 4 0 1.125 4.25 0 1.6875 4.5 0 2.875 4.375 0 2.6875 5 0 3.125 5.25 0 3.5625 5.5 0 4.5 6 0 4.50000000001 6.75000000001 0 4.25000000001 6.25000000001 0 4.625 5.375 0 4.75 4.375 0 4.625 1.875 0 5.25 1.75 0 5.5 1.25 0 4.12500000001 4 0 5.125 3.375 0 5.74999999999 4.66666666667 0 6.24999999999 4.33333333334 0 5.91666666667 3.16666666667 0 6.33333333333 3.58333333333 0 5.75 5.25 0 6.25 5.5 0 6.75 5.75 0 6.875 5.625 0 7.6 6.4 0 7.95 6.8 0 8.3 7.2 0 8.65 7.6 0 7.24999999999 4.33333333333 0 7.74999999999 4.66666666666 0 8.75 5.16666666667 0 9.25 5.33333333333 0 8.75 4.66666666667 0 9.25 4.33333333333 0 8.75 3.83333333333 0 9.25 3.91666666667 0 10.25 4.08333333333 0 10.75 4.16666666667 0 11.75 4.33333333333 0 12.25 4.41666666667 0 8.4375 2.875 0 8.875 3.25 0 9.3125 3.625 0 7.75 3.125 0 7.5 2.375 0 8.5 2.625 0 8.16666666667 1.91666666667 0 8.33333333333 1.33333333333 0 2.16666666667 4.16666666667 0 2.08333333333 3.58333333333 0 2.5 2.875 0 2.99999999999 2.75 0 3.5 2.625 0 4 2.5 0 4.5 2.375 0 1.72 2.55 0 1.44 2.1 0 1.16 1.65 0 0.880000000001 1.2 0 3.5 5.825 0 3 5.9 0 2.5 5.975 0 2 6.05 0 1.5 6.125 0 9.7 2.525 0 10.6125 2.7875 0 10.825 3.275 0 11.0375 3.76249999999 0 10.7666666667 1.9 0 11.1333333333 1.5 0 11.77 6.45 0 11.64 5.9 0 11.51 5.35 0 11.38 4.8 0 5.5 6.325 0 6.625 6.2 0 6.375 2.375 0 1.115 0.75 0 1.63 0.75 0 2.14499999999 0.75 0 2.65999999999 0.75 0 3.17499999999 0.75 0 3.68999999999 0.75 0 4.20499999999 0.75 0 4.72 0.75 0 5.235 0.75 0 6.3 0.75 0 6.85 0.75 0 7.4 0.75 0 7.95 0.75 0 9.13196832804 0.75 0 9.85790880989 0.75 0 10.691795501 0.75 0 11.6496799218 0.75 0 12.75 1.72087062454 0 12.75 2.56606277191 0 12.75 3.30184515534 0 12.75 3.94238088162 0 12.75 5.1622251526 0 12.75 5.94974762208 0 12.75 6.88627508484 0 11.7791293755 8 0 10.9339372281 8 0 10.1981548447 8 0 9.55761911837 8 0 8.46483196431 8 0 7.89784138383 8 0 7.29713523535 8 0 6.66071007228 8 0 5.98644096231 8 0 5.272077558 8 0 4.51523577637 8 0 3.71338989099 8 0 2.86386422512 8 0 1.96382251033 8 0 1.01026227291 8 0 0 6.8996799218 0 0 5.94179550097 0 0 5.1079088099 0 0 4.38196832804 0 0 3.18237843307 0 0 2.50735916309 0 0 1.70462120859 0 1.5625 6.2125 0 2.125 6.225 0 2.6875 6.2375 0 3.75 6.58333333333 0 4.25 6.91666666666 0 4.74999999999 1.25000000001 0 5.24999999999 1.00000000001 0 2.375 3.5 0 12.375 4.125 0 1.375 5.6 0 7 5 0 10.125 5.125 0 1.8678796663 7.20365895806 0 7.68584770021 7.4226725841 0 5.96075840821 7.05125925926 0 3.30982492839 7.31852787922 0 1.19791666667 4.96664202591 0 0.59548611111 4.74623615239 0 0.694733796296 5.42709708153 0 1.02356186746 7.27471132845 0 4.04807509929 7.34475464654 0 5.48479522744 7.1472649177 0 6.27213549698 7.46784866745 0 5.75386085255 7.52525720165 0 2.98632855407 6.76126869322 0 7.08214412182 6.4773797695 0 1.65268678639 6.64304647301 0 2.31217515711 6.7323367234 0 6.95867986861 7.45220429741 0 2.55365593588 7.32354621608 0 6.61293854225 6.85096041121 0 5.20579920457 6.68704415295 0 7.29835672177 6.90650379127 0 8.19970420967 7.64453451682 0 2.04181547619 5.44678571429 0 2.60071924603 5.38696428571 0 5.48906122449 5.88381959184 0 6.05200874636 5.90125994169 0 5.10234353741 5.62646993197 0 5.15 4.55833333333 0 0.597481253899 2.95344834153 0 1.04366043865 3.51399432417 0 0.698642067167 2.20313989229 0 1.62757860725 3.87726265381 0 1.2020003858 2.78153893804 0 1.62537302276 3.21669179174 0 0.547728413434 1.50155222018 0 0.440728338509 3.47996421975 0 3.43453125 3.2540625 0 2.92265625 3.3953125 0 2.60981130345 2.12403204785 0 2.07193051824 1.96945957608 0 1.89141926649 1.16797026723 0 4.07003618066 2.00412101796 0 1.38734102393 1.22759249787 0 2.52929671891 1.66215701029 0 3.38062651397 1.26548348597 0 3.0960477416 1.802135085 0 1.67752813777 1.63610157022 0 3.62829736218 1.67283021489 0 2.68392150557 2.51667758912 0 2.3643562065 1.21832647547 0 3.55416904045 2.16242719363 0 2.10690616958 1.53080297986 0 2.27100645716 2.50614004722 0 3.07263213035 2.33708881816 0 3.83078477523 1.18766274017 0 2.86755453016 1.24135034279 0 6.44023819543 1.66472300269 0 6.94898985448 1.80143390326 0 7.56861079853 1.35911153536 0 5.84264962117 1.84206437478 0 6.08330915278 1.22972762078 0 6.81009013295 1.15976888154 0 5.46852992423 2.21841287496 0 6.49723987269 2.92728054729 0 7.18354460841 2.9861902764 0 6.85402777778 3.48986111111 0 8.43333333333 4.35634920635 0 8.85 4.22142857143 0 8.79170591997 1.93531805972 0 9.37097079744 1.42140443508 0 10.0292357423 1.75472444284 0 9.3798728385 2.06166666481 0 8.82559567576 1.23801116563 0 10.6631566755 1.29245407381 0 11.3084502498 2.75086548177 0 11.3994172058 1.97395482798 0 11.9187018542 2.43435586999 0 10.9163514712 2.31835027089 0 12.0253915599 3.04014365268 0 11.4077236349 3.47141818907 0 12.1780198433 1.7575406824 0 10.2039820326 3.04723473784 0 9.49341435185 3.15172550154 0 10.4892476852 3.67464216821 0 9.90771219136 3.61677549511 0 11.9640777778 4.92367911176 0 12.1228155556 5.45713037729 0 6.85416666666 4.53472222222 0 6.33630952381 4.93353174603 0 9.12419606772 4.8891585638 0 9.58319097032 4.93306280123 0 9.90969849505 4.53745491132 0 10.1541398286 6.8733675916 0 11.0439528017 5.81323933588 0 8.41166312136 5.8471993171 0 8.9590460056 6.97554062906 0 9.96764752962 6.1665625 0 10.6436968808 6.34913846525 0 10.9883393989 7.16391251798 0 10.3862965711 5.70065382683 0 9.16175763544 6.20952766317 0 9.5497483927 6.65554259267 0 9.59095248375 7.25573648454 0 8.42207779373 6.54704460155 0 9.14787250694 7.56406038052 0 11.3301834292 6.45897385563 0 10.8850356247 5.11269902325 0 10.2371904837 7.54883609902 0 
</DataArray>
</Points>
<Cells>
<DataArray type="Int32" Name="connectivity" format="ascii">
0 56 56 57 57 58 58 2 2 1 2 59 59 10 10 3 2 60 60 61 61 62 62 6 6 4 6 5 6 63 63 7 8 64 64 65 65 6 6 66 66 14 14 15 10 11 9 67 67 16 13 68 68 17 17 69 69 70 70 18 17 12 17 20 20 19 10 71 71 44 44 16 20 72 72 44 21 24 14 73 73 74 74 24 20 75 75 76 76 24 14 77 77 78 78 79 79 23 23 80 80 22 23 81 81 82 82 83 83 84 84 35 23 29 24 85 85 86 86 31 31 28 30 31 31 36 31 87 87 88 88 39 31 89 89 90 90 37 32 91 91 92 92 37 37 93 93 94 94 41 41 40 41 42 41 95 95 96 96 43 33 97 97 98 98 99 99 37 27 100 100 33 25 101 101 33 33 26 33 102 102 38 33 103 103 104 104 34 16 21 2 105 105 106 106 45 45 107 107 108 108 109 109 110 110 111 111 17 45 112 112 113 113 114 114 115 115 50 6 116 116 117 117 118 118 119 119 120 120 47 38 121 121 48 48 122 122 123 123 124 124 41 48 125 125 126 126 49 51 127 127 128 128 129 129 130 130 41 7 131 131 46 46 132 132 23 19 133 133 25 0 56 176 58 2 1 6 63 65 174 47 173 63 7 65 65 7 64 8 167 168 84 35 162 193 163 164 195 169 170 196 1 189 175 176 197 57 196 197 189 47 198 198 47 174 172 53 199 199 53 173 1 196 58 58 196 57 57 197 56 56 197 176 198 196 189 198 174 175 198 175 197 196 198 197 199 173 47 171 172 199 171 199 192 195 183 200 200 169 195 201 167 8 165 166 202 203 166 167 203 201 194 167 201 203 182 5 204 206 47 180 199 47 206 207 181 182 182 204 207 208 164 165 165 202 208 170 171 209 209 171 192 193 164 208 202 166 203 202 203 194 204 5 183 195 204 183 195 170 209 192 199 206 8 200 184 184 200 183 23 81 205 132 23 205 168 200 8 169 200 168 209 192 207 209 204 195 209 207 204 7 131 211 194 46 210 46 132 210 210 132 205 211 64 7 211 201 8 8 64 211 205 81 212 180 181 206 206 207 192 206 181 207 210 202 194 210 208 202 211 131 46 194 201 46 211 46 201 82 193 212 81 82 212 193 208 212 205 212 210 210 212 208 82 83 193 213 193 83 213 162 163 163 193 213 84 213 83 162 213 84 6 116 5 116 117 5 117 182 5 117 118 182 118 181 182 118 119 181 119 180 181 119 120 180 120 47 180 6 183 65 6 5 183 65 184 64 65 183 184 64 184 8 61 62 116 61 116 117 62 6 116 189 120 47 214 189 1 118 119 214 214 1 2 60 215 2 214 2 215 120 189 119 119 189 214 60 61 215 215 61 117 215 117 118 118 214 215 66 6 63 79 132 23 217 46 132 217 79 78 132 79 217 217 131 46 216 131 217 216 7 131 14 66 218 7 216 218 216 77 218 77 216 217 217 78 77 14 218 77 63 7 218 66 63 218 9 66 15 9 6 66 9 4 6 15 66 14 71 67 44 71 9 67 71 10 9 44 67 16 10 4 9 10 59 4 59 60 4 59 2 60 4 61 62 4 60 61 62 6 4 21 24 74 21 74 73 21 73 16 67 15 9 219 73 14 219 67 16 16 73 219 219 14 15 67 219 15 45 106 187 187 105 3 187 106 105 10 3 59 3 105 59 105 2 59 105 58 2 177 220 178 221 56 57 222 113 114 178 222 179 222 178 220 223 221 57 220 224 222 225 221 223 221 224 220 225 106 45 105 106 223 223 106 225 112 225 45 112 224 225 221 225 224 57 58 223 58 105 223 112 113 224 113 222 224 114 226 222 226 179 222 115 226 114 115 50 52 227 56 221 220 227 221 56 227 0 177 227 220 227 177 0 52 226 115 52 179 226 17 12 111 107 187 45 11 10 228 229 3 187 187 107 229 10 3 229 10 229 228 229 107 108 228 229 108 108 109 228 109 110 11 11 110 111 11 228 109 111 12 11 50 115 134 142 186 18 142 141 186 141 185 186 68 111 17 112 231 113 68 233 111 233 110 111 115 234 134 234 135 134 13 233 68 114 234 115 230 237 235 113 238 114 238 113 231 238 234 114 232 234 238 135 234 232 13 239 233 240 107 108 235 231 230 232 136 135 136 241 137 241 136 232 231 243 238 243 232 238 243 231 235 231 244 230 244 240 230 244 107 240 244 231 112 45 107 244 112 45 244 236 237 239 109 110 242 110 233 242 233 239 242 237 242 239 245 237 230 237 245 242 239 246 236 245 240 108 230 240 245 108 109 245 109 242 245 139 246 140 239 13 246 139 138 236 246 139 236 247 235 237 236 247 237 243 241 232 235 241 243 137 247 138 241 247 137 247 236 138 241 235 247 185 141 13 246 13 140 13 141 140 18 186 70 185 68 69 185 13 68 69 68 17 186 69 70 186 185 69 17 20 12 20 72 12 12 72 11 72 44 11 11 44 71 11 71 10 20 75 72 75 76 21 75 21 72 72 21 16 72 16 44 76 24 21 103 26 33 249 25 26 26 250 249 34 146 104 146 145 250 69 251 70 104 146 250 252 70 251 248 252 251 252 18 70 251 19 133 143 18 252 103 250 26 250 103 104 253 144 143 252 253 143 252 248 253 249 253 248 250 253 249 144 253 145 250 145 253 249 133 25 251 133 248 249 248 133 69 254 251 254 69 17 254 19 251 20 254 17 20 19 254 26 101 33 26 25 101 92 90 37 24 257 76 255 257 256 257 255 76 85 27 24 27 257 24 27 100 256 27 256 257 75 76 255 100 101 256 33 101 100 258 91 32 258 31 89 31 258 86 19 75 255 20 75 19 133 19 255 101 25 256 25 255 256 133 255 25 259 89 90 259 91 258 89 259 258 92 259 90 92 91 259 85 86 27 32 86 258 86 32 27 33 97 100 97 98 32 97 32 100 100 32 27 98 99 91 98 91 32 99 37 92 99 92 91 54 150 49 150 149 49 147 261 148 125 262 48 262 148 261 260 102 38 121 263 38 263 260 38 103 102 260 103 33 102 261 263 262 263 261 260 103 260 104 264 104 260 261 264 260 104 264 34 147 264 261 264 147 34 262 121 48 121 262 263 265 125 126 125 265 262 49 265 126 49 149 265 148 265 149 148 262 265 153 42 154 42 188 154 154 188 43 126 267 49 266 268 267 267 126 125 269 125 48 122 269 48 270 42 153 270 268 266 152 268 270 152 270 153 125 269 267 269 266 267 266 269 122 123 266 122 270 271 42 271 41 42 124 41 271 123 271 266 271 123 124 271 270 266 267 272 49 272 267 268 272 152 151 268 152 272 272 54 49 151 54 272 42 188 95 42 95 41 188 43 96 188 96 95 33 97 102 102 97 38 38 97 98 124 94 41 122 273 123 274 121 38 275 93 94 124 275 94 38 98 274 98 99 274 123 275 124 273 275 123 121 274 273 273 276 275 93 276 37 93 275 276 276 99 37 99 276 274 276 273 274 48 121 273 122 48 273 41 95 130 96 43 155 157 55 51 95 96 277 128 129 278 277 130 95 129 130 277 278 155 156 278 129 277 96 155 277 277 155 278 156 51 127 156 127 128 157 51 156 128 278 156 28 30 190 190 30 80 190 80 22 30 29 23 30 23 80 28 30 31 85 28 86 73 14 77 86 28 31 22 79 80 22 78 79 80 79 23 24 279 85 279 24 74 279 28 85 190 28 279 74 280 279 190 280 22 190 279 280 280 78 22 280 73 77 73 280 74 77 78 280 31 36 87 87 36 88 88 36 39 94 40 41 89 31 87 89 281 90 88 281 87 281 89 87 282 39 191 39 282 88 282 281 88 282 90 281 94 93 40 283 93 37 93 283 40 90 283 37 90 282 283 283 191 40 282 191 283 23 81 29 29 81 82 51 158 55 285 128 129 284 289 288 284 290 289 291 39 288 292 39 36 39 292 288 293 284 288 287 83 84 291 289 285 288 289 291 288 292 293 291 191 39 290 158 51 159 158 290 287 294 293 287 295 83 295 82 83 294 284 293 287 293 292 295 287 292 286 295 292 84 296 287 296 294 287 30 29 286 292 36 286 296 84 35 286 31 30 31 286 36 161 296 35 161 294 296 29 82 295 286 29 295 297 289 290 289 297 285 285 298 291 191 298 40 191 291 298 298 41 40 298 129 130 129 298 285 130 41 298 127 128 297 128 285 297 51 127 297 290 51 297 299 284 294 284 299 290 159 299 160 159 290 299 299 161 160 294 161 299 
</DataArray>
<DataArray type="Int32" Name="offsets" format="ascii">
2 4 6 8 10 12 14 16 18 20 22 24 26 28 30 32 34 36 38 40 42 44 46 48 50 52 54 56 58 60 62 64 66 68 70 72 74 76 78 80 82 84 86 88 90 92 94 96 98 100 102 104 106 108 110 112 114 116 118 120 122 124 126 128 130 132 134 136 138 140 142 144 146 148 150 152 154 156 158 160 162 164 166 168 170 172 174 176 178 180 182 184 186 188 190 192 194 196 198 200 202 204 206 208 210 212 214 216 218 220 222 224 226 228 230 232 234 236 238 240 242 244 246 248 250 252 254 256 258 260 262 264 266 268 270 273 276 279 282 285 288 291 294 297 300 303 306 309 312 315 318 321 324 327 330 333 336 339 342 345 348 351 354 357 360 363 366 369 372 375 378 381 384 387 390 393 396 399 402 405 408 411 414 417 420 423 426 429 432 435 438 441 444 447 450 453 456 459 462 465 468 471 474 477 480 483 486 489 492 495 498 501 504 507 510 513 516 519 522 525 528 531 534 537 540 543 546 549 552 555 558 561 564 567 570 573 576 579 582 585 588 591 594 597 600 603 606 609 612 615 618 621 624 627 630 633 636 639 642 645 648 651 654 657 660 663 666 669 672 675 678 681 684 687 690 693 696 699 702 705 708 711 714 717 720 723 726 729 732 735 738 741 744 747 750 753 756 759 762 765 768 771 774 777 780 783 786 789 792 795 798 801 804 807 810 813 816 819 822 825 828 831 834 837 840 843 846 849 852 855 858 861 864 867 870 873 876 879 882 885 888 891 894 897 900 903 906 909 912 915 918 921 924 927 930 933 936 939 942 945 948 951 954 957 960 963 966 969 972 975 978 981 984 987 990 993 996 999 1002 1005 1008 1011 1014 1017 1020 1023 1026 1029 1032 1035 1038 1041 1044 1047 1050 1053 1056 1059 1062 1065 1068 1071 1074 1077 1080 1083 1086 1089 1092 1095 1098 1101 1104 1107 1110 1113 1116 1119 1122 1125 1128 1131 1134 1137 1140 1143 1146 1149 1152 1155 1158 1161 1164 1167 1170 1173 1176 1179 1182 1185 1188 1191 1194 1197 1200 1203 1206 1209 1212 1215 1218 1221 1224 1227 1230 1233 1236 1239 1242 1245 1248 1251 1254 1257 1260 1263 1266 1269 1272 1275 1278 1281 1284 1287 1290 1293 1296 1299 1302 1305 1308 1311 1314 1317 1320 1323 1326 1329 1332 1335 1338 1341 1344 1347 1350 1353 1356 1359 1362 1365 1368 1371 1374 1377 1380 1383 1386 1389 1392 1395 1398 1401 1404 1407 1410 1413 1416 1419 1422 1425 1428 1431 1434 1437 1440 1443 1446 1449 1452 1455 1458 1461 1464 1467 1470 1473 1476 1479 1482 1485 1488 1491 1494 1497 1500 1503 1506 1509 1512 1515 1518 1521 1524 1527 1530 1533 1536 1539 1542 1545 1548 1551 1554 1557 1560 1563 1566 1569 1572 1575 1578 1581 1584 1587 1590 1593 1596 1599 1602 1605 1608 1611 1614 1617 1620 1623 1626 1629 1632 1635 1638 1641 1644 1647 1650 1653 1656 1659 1662 1665 1668 1671 1674 1677 1680 1683 1686 1689 1692 1695 1698 1701 1704 1707 1710 1713 1716 1719 1722 1725 1728 1731 1734 1737 1740 1743 1746 1749 1752 1755 1758 1761 1764 1767 1770 1773 1776 1779 1782 1785 1788 1791 1794 1797 1800 1803 1806 1809 1812 1815 1818 1821 1824 1827 1830 1833 1836 1839 1842 1845 1848 1851 1854 1857 1860 1863 1866 1869 1872 1875 1878 1881 1884 1887 1890 1893 1896 
</DataArray>
<DataArray type="UInt8" Name="types" format="ascii">
3 3 3 3 3 3 3 3 3 3 3 3 3 3 3 3 3 3 3 3 3 3 3 3 3 3 3 3 3 3 3 3 3 3 3 3 3 3 3 3 3 3 3 3 3 3 3 3 3 3 3 3 3 3 3 3 3 3 3 3 3 3 3 3 3 3 3 3 3 3 3 3 3 3 3 3 3 3 3 3 3 3 3 3 3 3 3 3 3 3 3 3 3 3 3 3 3 3 3 3 3 3 3 3 3 3 3 3 3 3 3 3 3 3 3 3 3 3 3 3 3 3 3 3 3 3 3 3 3 3 3 3 3 3 3 5 5 5 5 5 5 5 5 5 5 5 5 5 5 5 5 5 5 5 5 5 5 5 5 5 5 5 5 5 5 5 5 5 5 5 5 5 5 5 5 5 5 5 5 5 5 5 5 5 5 5 5 5 5 5 5 5 5 5 5 5 5 5 5 5 5 5 5 5 5 5 5 5 5 5 5 5 5 5 5 5 5 5 5 5 5 5 5 5 5 5 5 5 5 5 5 5 5 5 5 5 5 5 5 5 5 5 5 5 5 5 5 5 5 5 5 5 5 5 5 5 5 5 5 5 5 5 5 5 5 5 5 5 5 5 5 5 5 5 5 5 5 5 5 5 5 5 5 5 5 5 5 5 5 5 5 5 5 5 5 5 5 5 5 5 5 5 5 5 5 5 5 5 5 5 5 5 5 5 5 5 5 5 5 5 5 5 5 5 5 5 5 5 5 5 5 5 5 5 5 5 5 5 5 5 5 5 5 5 5 5 5 5 5 5 5 5 5 5 5 5 5 5 5 5 5 5 5 5 5 5 5 5 5 5 5 5 5 5 5 5 5 5 5 5 5 5 5 5 5 5 5 5 5 5 5 5 5 5 5 5 5 5 5 5 5 5 5 5 5 5 5 5 5 5 5 5 5 5 5 5 5 5 5 5 5 5 5 5 5 5 5 5 5 5 5 5 5 5 5 5 5 5 5 5 5 5 5 5 5 5 5 5 5 5 5 5 5 5 5 5 5 5 5 5 5 5 5 5 5 5 5 5 5 5 5 5 5 5 5 5 5 5 5 5 5 5 5 5 5 5 5 5 5 5 5 5 5 5 5 5 5 5 5 5 5 5 5 5 5 5 5 5 5 5 5 5 5 5 5 5 5 5 5 5 5 5 5 5 5 5 5 5 5 5 5 5 5 5 5 5 5 5 5 5 5 5 5 5 5 5 5 5 5 5 5 5 5 5 5 5 5 5 5 5 5 5 5 5 5 5 5 5 5 5 5 5 5 5 5 5 5 5 5 5 5 5 5 5 5 5 5 5 5 5 5 5 5 5 5 5 5 5 5 5 5 5 5 5 5 5 5 5 5 5 5 5 5 5 5 5 5 5 5 5 5 5 5 5 5 5 5 5 5 5 5 5 5 5 5 5 5 5 5 5 5 5 5 5 5 5 5 5 5 5 5 5 5 5 5 5 5 5 5 5 5 5 5 5 5 5 5 5 5 5 5 5 5 5 5 5 5 
</DataArray>
</Cells>
<CellData Scalars="A,B" Vectors="transport_vector">
<DataArray type="Float64" Name="A" format="ascii">
0.845900535583 0.848709821701 0.851354241371 0.853353321552 0.807946264744 0.90395128727 0.918284833431 0.762561559677 0.820065021515 0.829446554184 0.840775191784 0.856138467789 0.234391629696 0.732324779034 0.777014315128 0.805252790451 0.0495212860405 0.245312705636 0.580265760422 0.916092216969 0.931899130344 0.316579580307 0.613918423653 0.876810848713 0.937231242657 0.759473800659 0.84267359972 0.322977095842 0.232092037797 0.115225575864 0.69781011343 0.941272079945 0.967442631721 0.937690317631 0.939616858959 0.94821614027 0.949701070786 0.93585807085 0.973829388618 0.966898560524 0.972338497639 0.974969804287 0.839685738087 0.862920284271 0.898825705051 0.710357666016 0.757295191288 0.797541797161 0.845771849155 0.828768312931 0.865910232067 0.946135044098 0.951054930687 0.958219110966 0.963309824467 0.966975986958 0.809636175632 0.977142870426 0.98026651144 0.982921779156 0.96551322937 0.964198410511 0.646454155445 0.930938541889 0.939227461815 0.945918977261 0.991828680038 0.993213951588 0.994269251823 0.971969485283 0.984047949314 0.990287482738 0.995198607445 0.995754301548 0.996151089668 0.987279891968 0.982713997364 0.998822569847 0.999307572842 0.999675154686 0.981132090092 0.984766185284 0.988432109356 0.991990029812 0.909248709679 0.94586288929 0.971778094769 0.972511470318 0.940314173698 0.978684306145 0.982415735722 0.533542513847 0.611311078072 0.706123173237 0.963409543037 0.751469552517 0.784220576286 0.824988543987 0.853216052055 0.862327873707 0.866320550442 0.868647456169 0.870864927769 0.873023748398 0.828141748905 0.785699784756 0.723667263985 0.641911506653 0.526166915894 0.856144607067 0.849818587303 0.842643082142 0.833955764771 0.822093009949 0.799675285816 0.984061419964 0.98542535305 0.989349722862 0.991121947765 0.992987751961 0.994913339615 0.977166235447 0.97991591692 0.982000887394 0.984999775887 0.981501817703 0.980554878712 0.978910684586 0.977472424507 0.837559700012 0.859401226044 0.875775575638 0.886421144009 0.969466745853 0.970850527287 0.768459916115 0.815007925034 0.322779774666 0.669226288795 0.492840021849 0.249565407634 0.0349248275161 0.942475199699 0.636056125164 0.0172349940985 0.734630763531 0.713467895985 0.7808791399 0.777002990246 0.759979426861 0.144118398428 0.342124164104 0.790172100067 0.79210048914 0.78188097477 0.76984244585 0.717982947826 0.723750829697 0.69788390398 0.714514553547 0.663511157036 0.156426295638 0.168221667409 0.0910440161824 0.0229426641017 0.0538575015962 0.13034054637 0.0483803339303 0.13519051671 0.0675659626722 0.624512970448 0.789785802364 0.684490144253 0.691749870777 0.594132781029 0.318566471338 0.211858987808 0.0432370640337 0.133561402559 0.460041642189 0.0864112079144 0.178612202406 0.571397483349 0.210097298026 0.0499986372888 0.49932923913 0.0198833867908 0.109971612692 0.865718364716 0.77802670002 0.0228598732501 0.0130421863869 0.341280400753 0.190056458116 0.361706644297 0.535685479641 0.406919449568 0.543184220791 0.630793690681 0.419784784317 0.129535034299 0.119441099465 0.787304699421 0.786949455738 0.524661242962 0.667918324471 0.251096576452 0.365347921848 0.482592314482 0.320928156376 0.211918443441 0.802487134933 0.872083008289 0.648645758629 0.643992185593 0.510186910629 0.897323846817 0.895483016968 0.819763481617 0.77831184864 0.945447981358 0.905727744102 0.716179072857 0.735450923443 0.71463984251 0.789324581623 0.782953441143 0.825101912022 0.816334486008 0.819005846977 0.801452040672 0.48568341136 0.61169308424 0.185224846005 0.202623054385 0.0373875685036 0.824259281158 0.813497245312 0.837060153484 0.789995908737 0.746157467365 0.78677713871 0.750396728516 0.781195759773 0.753607034683 0.79219019413 0.766871869564 0.78435510397 0.790657401085 0.795679688454 0.772881925106 0.296406954527 0.718909978867 0.362125635147 0.626634120941 0.532595932484 0.226446285844 0.234247073531 0.151081115007 0.531173467636 0.176260277629 0.297954469919 0.466861277819 0.615813910961 0.516194999218 0.104157947004 0.359670251608 0.634734630585 0.58739900589 0.501431524754 0.209999606013 0.915628314018 0.878377139568 0.859540522099 0.927446186543 0.766242802143 0.732576131821 0.695268273354 0.658958017826 0.129433512688 0.589981615543 0.181887924671 0.95467954874 0.931719362736 0.881158649921 0.802245855331 0.781084895134 0.801939368248 0.843589663506 0.690246701241 0.753591895103 0.459789812565 0.469263285398 0.422425538301 0.71812748909 0.586536705494 0.532887101173 0.756630420685 0.754151284695 0.730704009533 0.715187728405 0.695312380791 0.761537790298 0.741364300251 0.770484268665 0.77886235714 0.783813893795 0.818251609802 0.771824598312 0.789630889893 0.820921480656 0.81399089098 0.792288959026 0.735197126865 0.748665452003 0.786870837212 0.776722371578 0.68163651228 0.674484550953 0.636741042137 0.521533191204 0.720741391182 0.771116137505 0.711472809315 0.763696551323 0.727840662003 0.553570210934 0.569360256195 0.724204599857 0.511568725109 0.685446441174 0.527584731579 0.573842763901 0.576225399971 0.617616772652 0.631145179272 0.674784004688 0.715541958809 0.771954953671 0.790893614292 0.748406946659 0.808920502663 0.00989111419767 0.0485674217343 0.0298972018063 0.0604506731033 0.836686730385 0.245136380196 0.815911710262 0.808132469654 0.0168827753514 0.026169879362 0.738557338715 0.0382286123931 0.38466283679 0.106759659946 0.148756012321 0.0607232637703 0.0846804603934 0.0395156778395 0.703815460205 0.658019065857 0.335544973612 0.0533698908985 0.0925056934357 0.0731378346682 0.192318469286 0.112407550216 0.22994287312 0.386472582817 0.525929093361 0.5826369524 0.319948405027 0.523224592209 0.393233150244 0.330217033625 0.774151563644 0.78701210022 0.688356339931 0.649976789951 0.585520625114 0.629194319248 0.312094390392 0.697864055634 0.57007586956 0.723320186138 0.749849796295 0.22689704597 0.335053265095 0.191680654883 0.216757640243 0.249316036701 0.282866090536 0.12774451077 0.175211578608 0.141053617001 0.11703017354 0.167160212994 0.200523510575 0.287903100252 0.24977876246 0.266554832458 0.076507717371 0.355446070433 0.491209447384 0.476975768805 0.158928930759 0.105167925358 0.884387433529 0.904941022396 0.87865704298 0.896586239338 0.884986996651 0.862823665142 0.617046058178 0.78487432003 0.623152375221 0.509041309357 0.410889536142 0.783657252789 0.716069877148 0.873811602592 0.583067178726 0.625769615173 0.432307392359 0.433259278536 0.494806438684 0.462476700544 0.49261111021 0.193211778998 0.757190465927 0.198410302401 0.619400441647 0.489453345537 0.254827529192 0.23482388258 0.428665161133 0.46927177906 0.499758571386 0.302812278271 0.353492230177 0.876859247684 0.773865580559 0.791273295879 0.648442268372 0.623481810093 0.745362043381 0.69127035141 0.729177236557 0.938318192959 0.934595882893 0.986735403538 0.878291130066 0.894055843353 0.881308376789 0.929286658764 0.890803098679 0.90775424242 0.897365570068 0.864526093006 0.941805243492 0.94868773222 0.969802796841 0.969893634319 0.959761857986 0.881481587887 0.870901823044 0.909207880497 0.941825568676 0.931566894054 0.921664655209 0.978188693523 0.976332604885 0.974612534046 0.982867598534 0.980085670948 0.938370764256 0.963361740112 0.942901492119 0.748348534107 0.963029921055 0.952517151833 0.937242746353 0.972975313663 0.967921972275 0.982204794884 0.979152202606 0.991909146309 0.989553034306 0.954388022423 0.966718137264 0.96421444416 0.910383224487 0.948972582817 0.930001080036 0.867766618729 0.831711053848 0.951786935329 0.939155220985 0.862063765526 0.903124034405 0.924228668213 0.907682657242 0.946348249912 0.9300609231 0.965219795704 0.958114266396 0.977910578251 0.970911204815 0.982467770576 0.986390113831 0.980242550373 0.970377147198 0.9973295331 0.995962738991 0.998579382896 0.989963591099 0.98927795887 0.986892044544 0.981555640697 0.980670511723 0.994781374931 0.991026818752 0.993658900261 0.9973269701 0.984463095665 0.987290561199 0.98327934742 0.981978654861 0.992686152458 0.988969743252 0.984886407852 0.985758602619 0.982007265091 0.98847836256 0.991141200066 0.99243158102 0.997884333134 0.995070099831 0.994608223438 0.998079180717 0.993794858456 0.991965174675 0.99692606926 0.99507945776 0.916641294956 0.931538403034 0.941274225712 0.99213796854 0.984728932381 0.957067847252 0.985126793385 0.988611221313 0.949571430683 0.957679569721 0.987753033638 0.982349336147 0.965501487255 0.977020740509 0.977553188801 0.980782926083 0.971656620502 0.964696228504 0.970718324184 0.973519146442 0.982515275478 0.988432526588 0.998126864433 0.997639477253 0.99339979887 0.989732444286 0.990701496601 0.987730503082 0.997412145138 0.990785837173 0.995480298996 0.993445396423 0.993962347507 0.988784432411 0.99660140276 0.992952048779 0.953955411911 0.944750189781 0.936998307705 0.824579656124 0.863888561726 0.959273099899 0.963978946209 0.849078595638 0.961186051369 0.864174544811 0.898805558681 0.729250371456 0.95439606905 0.939735352993 0.958403170109 0.947893917561 0.924288213253 0.927381515503 0.937265217304 0.921084821224 0.882830440998 0.908450901508 0.872422337532 0.917404830456 0.944702029228 0.952613949776 0.986292660236 0.957954764366 0.967057943344 0.962007045746 0.962835967541 0.968231081963 0.965885996819 0.965273737907 0.970507860184 0.985220849514 0.980697751045 0.982941031456 0.976901590824 0.97292548418 0.976902008057 0.974572479725 0.937553524971 0.941429615021 0.99525141716 0.976228296757 0.973678410053 0.98107790947 0.96227234602 0.955684900284 0.959153115749 0.971394717693 0.968372106552 0.96719378233 0.96432942152 0.967949867249 0.964841246605 0.993051946163 0.990244328976 0.972080528736 0.960807204247 0.958352267742 0.974554359913 0.967004299164 0.963735580444 0.949616014957 0.970897257328 0.972772955894 0.835344851017 0.950866580009 0.974090576172 0.832186698914 0.786171972752 0.976233541965 0.978048026562 0.942863821983 0.943720161915 0.984216809273 0.970992803574 0.967873096466 0.975344240665 0.96734970808 0.977944970131 0.973436236382 0.971436738968 0.970458388329 0.978481352329 0.974802970886 0.980108678341 0.987824201584 0.980344235897 0.982648968697 0.985223948956 0.987825572491 0.982953250408 0.979575991631 
</DataArray>
<DataArray type="Float64" Name="B" format="ascii">