<?xml version="1.0"?>
<VTKFile type="UnstructuredGrid" version="0.1" byte_order="LittleEndian">
<UnstructuredGrid>
<Piece NumberOfPoints="714" NumberOfCells="1306">
<Points>
<DataArray type="Float64" NumberOfComponents="3" format="ascii">
0.000000000000000e+00 0.000000000000000e+00 0.000000000000000e+00 5.000000000000000e+00 0.000000000000000e+00 0.000000000000000e+00 5.000000000000000e+00 1.000000000000000e+00 0.000000000000000e+00 0.000000000000000e+00 1.000000000000000e+00 0.000000000000000e+00 9.999999999992801e-02 0.000000000000000e+00 0.000000000000000e+00 1.999999999998339e-01 0.000000000000000e+00 0.000000000000000e+00 2.999999999997341e-01 0.000000000000000e+00 0.000000000000000e+00 3.999999999996643e-01 0.000000000000000e+00 0.000000000000000e+00 4.999999999995944e-01 0.000000000000000e+00 0.000000000000000e+00 5.999999999995166e-01 0.000000000000000e+00 0.000000000000000e+00 6.999999999992880e-01 0.000000000000000e+00 0.000000000000000e+00 7.999999999989961e-01 0.000000000000000e+00 0.000000000000000e+00 8.999999999987042e-01 0.000000000000000e+00 0.000000000000000e+00 9.999999999984124e-01 0.000000000000000e+00 0.000000000000000e+00 1.099999999998120e+00 0.000000000000000e+00 0.000000000000000e+00 1.199999999997829e+00 0.000000000000000e+00 0.000000000000000e+00 1.299999999997537e+00 0.000000000000000e+00 0.000000000000000e+00 1.399999999997245e+00 0.000000000000000e+00 0.000000000000000e+00 1.499999999996953e+00 0.000000000000000e+00 0.000000000000000e+00 1.599999999996661e+00 0.000000000000000e+00 0.000000000000000e+00 1.699999999996369e+00 0.000000000000000e+00 0.000000000000000e+00 1.799999999996077e+00 0.000000000000000e+00 0.000000000000000e+00 1.899999999995785e+00 0.000000000000000e+00 0.000000000000000e+00 1.999999999995511e+00 0.000000000000000e+00 0.000000000000000e+00 2.099999999995593e+00 0.000000000000000e+00 0.000000000000000e+00 2.199999999995745e+00 0.000000000000000e+00 0.000000000000000e+00 2.299999999995897e+00 0.000000000000000e+00 0.000000000000000e+00 2.399999999996049e+00 0.000000000000000e+00 0.000000000000000e+00 2.499999999996201e+00 0.000000000000000e+00 0.000000000000000e+00 2.599999999996353e+00 0.000000000000000e+00 0.000000000000000e+00 2.699999999996505e+00 0.000000000000000e+00 0.000000000000000e+00 2.799999999996657e+00 0.000000000000000e+00 0.000000000000000e+00 2.899999999996809e+00 0.000000000000000e+00 0.000000000000000e+00 2.999999999996961e+00 0.000000000000000e+00 0.000000000000000e+00 3.099999999997114e+00 0.000000000000000e+00 0.000000000000000e+00 3.199999999997265e+00 0.000000000000000e+00 0.000000000000000e+00 3.299999999997417e+00 0.000000000000000e+00 0.000000000000000e+00 3.399999999997569e+00 0.000000000000000e+00 0.000000000000000e+00 3.499999999997721e+00 0.000000000000000e+00 0.000000000000000e+00 3.599999999997873e+00 0.000000000000000e+00 0.000000000000000e+00 3.699999999998025e+00 0.000000000000000e+00 0.000000000000000e+00 3.799999999998176e+00 0.000000000000000e+00 0.000000000000000e+00 3.899999999998329e+00 0.000000000000000e+00 0.000000000000000e+00 3.999999999998481e+00 0.000000000000000e+00 0.000000000000000e+00 4.099999999998633e+00 0.000000000000000e+00 0.000000000000000e+00 4.199999999998784e+00 0.000000000000000e+00 0.000000000000000e+00 4.299999999998937e+00 0.000000000000000e+00 0.000000000000000e+00 4.399999999999088e+00 0.000000000000000e+00 0.000000000000000e+00 4.499999999999240e+00 0.000000000000000e+00 0.000000000000000e+00 4.599999999999393e+00 0.000000000000000e+00 0.000000000000000e+00 4.699999999999545e+00 0.000000000000000e+00 0.000000000000000e+00 4.799999999999696e+00 0.000000000000000e+00 0.000000000000000e+00 4.899999999999848e+00 0.000000000000000e+00 0.000000000000000e+00 5.000000000000000e+00 9.999999999981467e-02 0.000000000000000e+00 5.000000000000000e+00 1.999999999995579e-01 0.000000000000000e+00 5.000000000000000e+00 2.999999999992664e-01 0.000000000000000e+00 5.000000000000000e+00 3.999999999989749e-01 0.000000000000000e+00 5.000000000000000e+00 4.999999999986943e-01 0.000000000000000e+00 5.000000000000000e+00 5.999999999989468e-01 0.000000000000000e+00 5.000000000000000e+00 6.999999999992100e-01 0.000000000000000e+00 5.000000000000000e+00 7.999999999994734e-01 0.000000000000000e+00 5.000000000000000e+00 8.999999999997368e-01 0.000000000000000e+00 4.899999999999999e+00 1.000000000000000e+00 0.000000000000000e+00 4.800000000000000e+00 1.000000000000000e+00 0.000000000000000e+00 4.699999999999999e+00 1.000000000000000e+00 0.000000000000000e+00 4.600000000000000e+00 1.000000000000000e+00 0.000000000000000e+00 4.499999999999999e+00 1.000000000000000e+00 0.000000000000000e+00 4.399999999999999e+00 1.000000000000000e+00 0.000000000000000e+00 4.299999999999999e+00 1.000000000000000e+00 0.000000000000000e+00 4.199999999999998e+00 1.000000000000000e+00 0.000000000000000e+00 4.099999999999999e+00 1.000000000000000e+00 0.000000000000000e+00 3.999999999999999e+00 1.000000000000000e+00 0.000000000000000e+00 3.899999999999999e+00 1.000000000000000e+00 0.000000000000000e+00 3.799999999999999e+00 1.000000000000000e+00 0.000000000000000e+00 3.699999999999998e+00 1.000000000000000e+00 0.000000000000000e+00 3.599999999999999e+00 1.000000000000000e+00 0.000000000000000e+00 3.499999999999999e+00 1.000000000000000e+00 0.000000000000000e+00 3.399999999999999e+00 1.000000000000000e+00 0.000000000000000e+00 3.299999999999999e+00 1.000000000000000e+00 0.000000000000000e+00 3.199999999999998e+00 1.000000000000000e+00 0.000000000000000e+00 3.099999999999999e+00 1.000000000000000e+00 0.000000000000000e+00 2.999999999999999e+00 1.000000000000000e+00 0.000000000000000e+00 2.899999999999999e+00 1.000000000000000e+00 0.000000000000000e+00 2.799999999999999e+00 1.000000000000000e+00 0.000000000000000e+00 2.699999999999999e+00 1.000000000000000e+00 0.000000000000000e+00 2.599999999999999e+00 1.000000000000000e+00 0.000000000000000e+00 2.500000000000000e+00 1.000000000000000e+00 0.000000000000000e+00 2.399999999999999e+00 1.000000000000000e+00 0.000000000000000e+00 2.299999999999999e+00 1.000000000000000e+00 0.000000000000000e+00 2.199999999999999e+00 1.000000000000000e+00 0.000000000000000e+00 2.100000000000000e+00 1.000000000000000e+00 0.000000000000000e+00 2.000000000000000e+00 1.000000000000000e+00 0.000000000000000e+00 1.899999999999999e+00 1.000000000000000e+00 0.000000000000000e+00 1.799999999999999e+00 1.000000000000000e+00 0.000000000000000e+00 1.699999999999999e+00 1.000000000000000e+00 0.000000000000000e+00 1.599999999999999e+00 1.000000000000000e+00 0.000000000000000e+00 1.500000000000000e+00 1.000000000000000e+00 0.000000000000000e+00 1.399999999999999e+00 1.000000000000000e+00 0.000000000000000e+00 1.299999999999999e+00 1.000000000000000e+00 0.000000000000000e+00 1.199999999999999e+00 1.000000000000000e+00 0.000000000000000e+00 1.100000000000000e+00 1.000000000000000e+00 0.000000000000000e+00 9.999999999999991e-01 1.000000000000000e+00 0.000000000000000e+00 8.999999999999995e-01 1.000000000000000e+00 0.000000000000000e+00 7.999999999999998e-01 1.000000000000000e+00 0.000000000000000e+00 7.000000000000002e-01 1.000000000000000e+00 0.000000000000000e+00 5.999999999999996e-01 1.000000000000000e+00 0.000000000000000e+00 4.999999999999991e-01 1.000000000000000e+00 0.000000000000000e+00 3.999999999999995e-01 1.000000000000000e+00 0.000000000000000e+00 3.000000000000007e-01 1.000000000000000e+00 0.000000000000000e+00 1.999999999999993e-01 1.000000000000000e+00 0.000000000000000e+00 9.999999999999964e-02 1.000000000000000e+00 0.000000000000000e+00 0.000000000000000e+00 8.999999999995836e-01 0.000000000000000e+00 0.000000000000000e+00 7.999999999999998e-01 0.000000000000000e+00 0.000000000000000e+00 7.000000000006934e-01 0.000000000000000e+00 0.000000000000000e+00 6.000000000013869e-01 0.000000000000000e+00 0.000000000000000e+00 5.000000000020587e-01 0.000000000000000e+00 0.000000000000000e+00 4.000000000016644e-01 0.000000000000000e+00 0.000000000000000e+00 3.000000000012483e-01 0.000000000000000e+00 0.000000000000000e+00 2.000000000008322e-01 0.000000000000000e+00 0.000000000000000e+00 1.000000000004160e-01 0.000000000000000e+00 7.477570327540725e-01 4.905967956478702e-01 0.000000000000000e+00 1.346210646643281e+00 4.806066422083806e-01 0.000000000000000e+00 1.949496869330408e+00 5.032480558805372e-01 0.000000000000000e+00 4.449999999999997e+00 5.000000000000384e-01 0.000000000000000e+00 3.859142349610828e+00 5.103468031113156e-01 0.000000000000000e+00 3.246530027037640e+00 5.183101712757180e-01 0.000000000000000e+00 2.657531292711257e+00 5.037429884868682e-01 0.000000000000000e+00 3.824015840967434e-01 6.064457502813875e-01 0.000000000000000e+00 2.306343155343502e+00 6.315316747431162e-01 0.000000000000000e+00 1.049999999998266e+00 3.374999999994497e-01 0.000000000000000e+00 1.641930697057102e+00 3.436055112169133e-01 0.000000000000000e+00 4.150000000000006e+00 6.625000000000185e-01 0.000000000000000e+00 3.552784161359181e+00 6.642488388863971e-01 0.000000000000000e+00 2.940292465243163e+00 6.575992780735344e-01 0.000000000000000e+00 1.641237689750194e+00 6.703960699373966e-01 0.000000000000000e+00 1.050000000000000e+00 6.706367924525535e-01 0.000000000000000e+00 2.960517759676693e+00 3.261740577967960e-01 0.000000000000000e+00 3.551899302943298e+00 3.210887133285832e-01 0.000000000000000e+00 4.150779393876139e+00 3.209867287821391e-01 0.000000000000000e+00 2.213980362532827e+00 3.194901812685164e-01 0.000000000000000e+00 4.927283029162088e-01 3.252862896001115e-01 0.000000000000000e+00 4.696684455724628e+00 3.145438084075651e-01 0.000000000000000e+00 4.690990908683984e+00 6.962960281446974e-01 0.000000000000000e+00 2.487221901830106e+00 2.763334294511438e-01 0.000000000000000e+00 6.215262983536076e-01 7.328515730233995e-01 0.000000000000000e+00 2.065768881873406e+00 7.342557316219342e-01 0.000000000000000e+00 2.543072460766750e+00 7.257064952909391e-01 0.000000000000000e+00 8.105176211436336e-01 2.535517621144286e-01 0.0000000000000
[...]
<CellData Scalars="A_conc,As-lin_conc,Bs-lang_conc,Cs-freund_conc," Vectors="" Tensors="">
<DataArray type="Float64" Name="A_conc" format="ascii">
3.007157671444325e-13 2.934746416881552e-01 1.681189582373641e-207 3.993475207423064e-16 1.379228158866763e-05 6.783542369105594e-134 5.728160844054859e-129 9.003511294688060e-46 2.701133324985490e-01 5.133850057998956e-13 7.971048867460892e-203 6.368510036832325e-21 1.317115699083549e-38 4.109967641988154e-198 2.543780249060234e-16 3.565136535921567e-10 6.760696153972309e-16 8.748849114655812e-13 7.219931348905984e-149 4.766189815276880e-13 1.060872098373599e-76 8.831079462156211e-53 5.902119511607359e-21 1.824380227509668e-27 1.063216724561887e-23 3.271739179456990e-31 1.837002595519407e-13 1.043352574881252e-15 2.885976602212889e-23 1.288438820666972e-13 1.327678888410457e-49 5.196066407318077e-20 1.808401499448252e-47 1.315052380313968e-247 6.065902924087603e-144 2.273745492119849e-01 9.689964020453236e-25 3.833809231465059e-73 1.520491937101085e-24 2.725793691237701e-03 4.641645991218527e-190 5.260329869922991e-45 2.761932904653666e-252 9.627294608562687e-92 4.230944847684284e-85 1.907237006911178e-139 8.486061275716156e-10 4.626017193999724e-91 1.193363904461493e-155 2.297608635932892e-144 2.666063418222608e-01 2.518119335869144e-34 1.348717528787528e-10 1.589277926016113e-01 2.603593808118694e-01 3.113248598364603e-01 1.654325205649389e-72 1.104301115999457e-50 8.076629648138734e-22 1.978696425833482e-10 2.024626548615832e-175 2.214121520737673e-50 2.156520925767230e-111 4.747966839408742e-80 2.065169557211745e-86 6.632705665695852e-127 5.944723118979646e-92 2.172214902115547e-58 2.849784622692686e-01 8.529830385011932e-27 3.291127728795161e-74 1.284993195400683e-226 1.620287582268812e-31 1.127678568764521e-12 5.689910807480675e-86 8.448365507850711e-151 3.103155370579553e-41 5.111760919481297e-141 2.590372298413984e-75 5.440371287098342e-72 2.924676541159130e-10 1.680861576288137e-146 8.707638102250650e-25 3.349217543598472e-185 2.300360246681906e-104 1.373614925285039e-37 5.613204194690985e-146 2.313075847191154e-80 2.190528705736825e-30 3.492259973781228e-59 2.163542788005337e-161 4.490240871125208e-101 3.240000899755047e-35 7.091575088289488e-111 1.467107509147934e-141 4.408887461514839e-16 7.484664476846920e-111 1.800142417846695e-41 3.225090729188611e-212 7.185766802841929e-21 7.062280364366410e-80 5.895050707396989e-27 1.434756550606231e-23 2.615823385334733e-109 3.905648238776175e-41 1.882889060930704e-79 2.928070391239391e-16 3.679144864558634e-13 7.723736300854041e-45 1.865103764046338e-74 4.970271229283357e-68 1.852811751313097e-27 6.859194112559016e-31 1.524874309811778e-43 2.046412605141081e-33 7.984553243522173e-41 2.328538854704158e-16 2.797060328884454e-69 6.574116574331468e-83 4.199248292155463e-14 5.825114879599250e-79 1.074880609126134e-23 2.184749786481901e-52 4.346458652726762e-24 5.083772068271205e-19 2.257142876234463e-69 9.210936765911452e-203 9.630013181303745e-35 1.856020570946892e-34 3.995447489718333e-61 1.250988630917416e-146 1.170188805068894e-61 7.624060082052844e-72 6.085697502469887e-56 2.017323734926574e-121 1.932222449857923e-89 3.954989773166262e-13 3.038640621633507e-01 1.100331346371057e-89 3.802427150377690e-124 4.666138697821141e-65 1.941692102314573e-24 2.100142629151397e-26 3.287633661028802e-82 1.066434975073939e-174 2.622909793499420e-179 2.351866133673508e-87 6.625347609677570e-50 5.994736261014470e-137 2.427910145600876e-82 1.783325089219123e-53 1.006799506103142e-141 1.092273335841469e-121 1.339396914760956e-96 7.743138727164489e-90 1.326537636260342e-178 2.152578752891037e-53 1.447883087522598e-36 4.939030971074714e-28 2.277612486991549e-176 9.291411252156132e-10 4.523417156646063e-63 4.851410197680981e-56 3.358997310376686e-214 2.801970604723026e-79 1.252738464477425e-24 4.315495734328087e-28 2.386817695405321e-59 1.616104594542117e-59 2.150716343043510e-176 4.517926817895311e-27 1.075155527352666e-45 2.736554427731233e-175 2.447855295747503e-180 2.003202009742080e-73 3.598921208629042e-116 1.774581266535377e-50 7.168612891130846e-214 4.785555257107679e-63 3.419650413989249e-74 3.882891609742717e-111 1.992866249611836e-45 4.470274554474990e-02 1.312285291477699e-62 7.237953215958726e-67 8.984027735750255e-46 3.070117245493595e-41 6.953856286440889e-59 2.717727957506082e-211 4.240589029840081e-77 5.326519850607989e-28 1.610175414688794e-45 7.175021097895025e-13 1.646384847294621e-20 8.293796466494165e-31 4.396388636323316e-73 1.316651245989177e-26 1.068577649366181e-30 3.420685162855621e-240 7.245493094985405e-236 2.066324295296473e-31 9.551922300325115e-76 3.371019384174907e-01 3.675575962876767e-51 2.357563758445138e-116 4.248632759851612e-51 9.754974467474548e-79 2.749493558765274e-46 9.096136706941329e-10 2.205354214537279e-01 1.046638264758751e-80 1.010678740215081e-212 2.203488702553099e-126 2.203302889382691e-13 4.484635413658491e-16 2.753457108290580e-70 2.095322683760042e-27 9.793181012806901e-75 1.077824375645271e-20 2.193776982157840e-151 3.732709027590844e-156 1.276875427888396e-10 7.592528975356498e-77 1.330334798558747e-43 2.811446934719384e-39 3.240618904077247e-01 3.116602241067353e-27 1.336380749206287e-17 2.749604826318721e-193 5.083283508438474e-69 3.663562312293868e-65 2.629842008771269e-34 1.058429415323141e-20 1.469663196297967e-24 5.945369609017369e-114 9.247156260129093e-94 1.348822115598120e-84 4.990347064631855e-129 1.081888534658192e-30 1.101627333160841e-188 7.440439405610917e-85 9.109569114886666e-46 2.701149770658759e-137 3.597282990794570e-84 1.770776468408564e-166 3.723939545363378e-106 1.547541720766274e-40 4.420288016919020e-181 8.306652663560930e-10 7.135165938191280e-189 4.927276480199432e-84 2.213887511495578e-82 1.178132815827153e-170 2.580884413817871e-106 3.052427250478470e-45 9.209198594440188e-41 3.453689767523454e-17 4.669382159175168e-243 7.660804507700175e-10 4.899733697616716e-193 1.761568012662132e-69 2.124574067370036e-32 9.207594755620257e-95 9.663774172374240e-100 6.339619491609877e-50 7.154487437482649e-10 1.023386915399486e-20 9.197169695076652e-17 6.113288799118256e-36 1.670809899052710e-188 3.159096127479917e-98 7.539193391170709e-58 1.077572838771880e-76 1.064326619754993e-141 1.120550041252181e-13 6.886465394616787e-10 1.264395018249350e-13 1.300644020783925e-19 4.209149477389568e-45 1.574133032552236e-41 6.189736485603393e-70 1.927155217275075e-66 1.086335400801233e-63 5.110909512338479e-13 4.792580002063417e-19 2.363159862626268e-49 3.237777285458491e-42 3.830000318218707e-61 2.931396503389188e-122 2.672517771057139e-97 3.546317208718156e-54 2.593739522684299e-102 8.946495601222650e-44 4.161103404745117e-40 9.508926172219298e-154 2.661393215176554e-97 7.579308905678788e-55 3.500381758608601e-13 9.123870264673430e-186 6.175438684231662e-59 8.425351230272469e-166 2.679913688740099e-55 3.551826956135441e-101 1.775550804146287e-35 2.289726204771784e-24 3.287767806575502e-10 2.511493184138243e-10 1.979631180028582e-21 7.544254981757943e-101 3.251066343099480e-165 4.932567818912561e-96 2.271224402282975e-160 9.346552404914004e-184 7.885152032840739e-66 4.823758181593157e-180 4.333673033845547e-17 5.965901443471799e-64 3.350462877692538e-60 2.705859265720847e-01 6.873994067162606e-52 8.689997239802067e-57 2.309482784655465e-68 1.415257751903728e-64 2.366108905416168e-34 1.862707213295814e-81 6.169182556209243e-107 5.599479079237765e-112 9.184383628646774e-35 9.178207894030791e-167 2.325300526737713e-16 3.057104841883100e-01 2.987372609597637e-01 3.000837964650334e-01 3.049642767294388e-01 2.099395048720937e-29 5.954038531673112e-13 1.411190452793566e-23 2.975699690800488e-77 9.168776165970087e-120 6.127678771872421e-48 5.373495665698221e-75 1.976023763877071e-30 2.271524054749920e-204 1.045256408391662e-01 2.502173613269441e-195 6.865036406001344e-20 3.242883926851117e-43 1.089334193710145e-190 6.630366031887135e-38 1.986653097121353e-32 3.284032374232176e-01 4.676828776719360e-209 1.230931369725425e-33 5.667314303658642e-84 8.800925690490770e-10 2.156919924392307e-42 1.841970177572771e-74 2.476001415941618e-70 6.266326780886571e-23 1.459333691994572e-62 5.695886505660559e-16 2.646129019610671e-86 8.143541156134198e-13 6.103178024612243e-58 1.585794963068842e-16 1.371618638792665e-54 2.234427468300891e-50 2.404971195135926e-102 3.216400482648840e-117 2.814040055527480e-01 3.380079872814485e-01 3.380079936885802e-01 5.543133899135815e-11 3.061332202232441e-09 1.841751105109646e-170 1.817559923943748e-80 1.851781105522826e-44 2.197284221346842e-80 9.325044819959594e-56 7.711176806124664e-78 2.794852397493710e-01 8.948974133792323e-13 1.343674835084925e-26 1.066969980299017e-95 1.816579552474214e-160 6.008439662776075e-40 8.909808657846526e-70 2.443804614125990e-238 5.650937291892927e-68 7.637789384318577e-14 2.763658205668761e-01 4.152127168924224e-74 3.171886820270143e-38 7.791104307224878e-26 5.837440564499408e-43 8.931347213451757e-13 1.018614561119521e-19 4.250844173453094e-68 1.917031244101746e-73 4.707008109213814e-57 9.039954914593406e-175 2.579362120106392e-01 3.187049618815921e-29 2.162559268037613e-18 3.825458735588349e-23 9.810272683144746e-24 1.451621641402787e-53 1.866185299955103e-136 1.735670367882914e-01 3.037968071659142e-71 1.944543216611803e-183 3.373527694682236e-01 2.055070955121068e-180 1.876280061381891e-34 2.383038780781317e-54 2.656148209801951e-01 2.835374834562246e-42 1.724618731997531e-38 7.544554504163779e-115 6.499681192847518e-76 4.187229185430956e-53 1.931593168438749e-141 5.207266360775634e-76 1.004468934934071e-21 2.942318204343395e-47 1.192324209404608e-17 1.535904436752195e-65 7.653732861687189e-67 1.350680685793068e-151 4.853037998558279e-91 4.021441102112062e-25 4.148084502760104e-13 5.693055931003383e-63 1.631106312379113e-156 5.781949672495968e-96 4.030347111678138e-30 1.167070492176050e-19 8.864328840512719e-86 1.244391233041659e-101 1.219967315440283e-116 2.664376183345636e-171 6.510669217769701e-109 1.032845720457300e-98 1.035111731527283e-65 2.915919846915855e-131 7.845821008788537e-51 2.308528990773430e-116 7.453875928889538e-217 7.220003865731298e-13 3.179046637881114e-01 3.771320938246075e-212 2.871947608392061e-53 1.881936975327665e-131 3.074831224859490e-01 8.956373284297531e-71 3.167408250087238e-136 5.196472496371782e-185 5.101632303578098e-28 1.199423093910489e-244 3.676734127013859e-78 5.708503298724135e-02 2.686163008198523e-01 6.897071087631274e-13 7.888286396865212e-222 3.285140374985216e-18 1.779911803155792e-19 3.091579581007611e-01 3.000983983827883e-01 5.614147956673919e-38 2.371173127564207e-49 4.870738605392401e-193 2.595105248138879e-193 1.699525942143032e-179 2.616486671216071e-01 2.316793466514982e-01 2.548989582406787e-01 1.228055151932280e-41 3.106713482078904e-27 8.433439170104619e-59 1.864092166280944e-221 1.747049288168741e-25 4.996367329169324e-42 3.469673622472449e-08 2.735569956406319e-116 7.961909104834528e-64 3.813817064224842e-80 3.669614011539567e-37 4.499529065573903e-104 4.033977870124780e-109 1.660813873022589e-23 1.730739937576645e-69 2.991958055460117e-01 1.796951127858949e-04 3.882478740881077e-56 1.306703401682357e-45 3.455396427351183e-111 1.292699196388776e-206 2.036467394628984e-14 6.638724239905265e-162 3.244553822845378e-04 3.876003433202588e-52 1.566194544907000e-23 7.710787628733083e-23 1.965695573869404e-76 5.159852850102223e-145 1.062624388944060e-88 6.072041582271739e-119 1.037019867063599e-37 3.629981918685345e-89 2.010079986074856e-249 2.695172979984171e-16 8.660184809106205e-10 2.030782829864688e-217 1.883771202828933e-19 2.452069634796275e-28 1.571382155256272e-30 1.647382573717146e-59 2.886560836218539e-24 1.871372606803322e-02 3.218241732115468e-02 1.137252186475710e-16 6.529899498520457e-13 3.670319565506175e-47 6.091188409095494e-87 1.948425714807710e-01 1.019078138103067e-11 1.296175472651135e-41 1.816521746152133e-44 1.742991510343272e-173 2.330699579458320e-01 1.610884781169430e-168 7.554083513254965e-31 8.223316545652340e-09 2.063309613967928e-34 7.308310074022994e-198 6.452355004151136e-139 3.100519028424928e-186 5.997938183614412e-20 3.405097088473162e-16 9.136966208878304e-15 6.366309296388497e-139 6.981690153200284e-40 3.973774124993037e-88 4.226142705467394e-101 1.478095134959677e-165 3.641373592407946e-86 8.818182236264212e-72 6.096063927916000e-04 1.003013222459911e-190 7.037357527599991e-13 1.136892917004934e-09 6.017847367483782e-24 5.616269936936332e-57 5.847865673915556e-71 1.973703588147750e-136 5.291995933970489e-16 1.031720311598603e-20 2.477823384363977e-01 7.151487513216629e-11 5.610412485184752e-14 2.755609399700805e-81 2.381304502896897e-20 7.569340230402101e-42 3.650406566117162e-156 5.185018248871095e-91 3.868098250925494e-56 1.834479812544132e-59 1.306764859134365e-09 2.856767887832209e-01 9.347324546159653e-13 1.856728470704864e-38 7.022206845067384e-02 1.130319428559950e-02 4.357633049672633e-70 5.814332811416449e-20 1.941263590001714e-16 1.877155814121148e-39 4.776830946626691e-184 8.320265216612851e-106 1.051040490600877e-19 5.488773501849131e-198 2.811867420876574e-01 2.688623867936015e-01 2.044588072119835e-20 2.783835892413308e-57 5.147443535713314e-116 5.349632765296664e-226 6.444014727216561e-202 5.651853991314488e-61 8.009424955722505e-31 1.638265157795984e-68 3.363287585189416e-61 1.229144648212884e-76 6.476783322951833e-65 9.439814242620383e-72 3.079732536480653e-01 2.967731634768517e-01 4.348872377345996e-24 2.109676793384159e-141 4.803465157237386e-10 1.745914919397071e-92 1.270914148304712e-61 7.233928335995569e-81 1.159478843741646e-09 6.430138663786219e-146 2.789956662093993e-01 4.406140532077774e-78 1.253870748955434e-49 7.688795250683489e-78 4.851703687506011e-200 3.456876250327858e-46 8.342485737942094e-13 5.750600999131726e-82 1.181794478179293e-38 9.922340939291939e-16 1.618514076001191e-49 2.763509994474444e-65 5.189799343021838e-229 1.031119796510934e-165 1.936316845009677e-76 1.480961532139854e-60 7.497248602993595e-198 2.664176550081015e-36 8.099947519612248e-10 2.562183847695637e-29 6.748490501541253e-74 8.066827584480241e-219 4.036906128045893e-47 8.730782299934324e-13 7.719326758587479e-20 1.535301538466515e-47 1.722604873604643e-49 2.596022395205730e-73 9.788823351021287e-253 1.581320735225804e-74 7.121351723804825e-37 3.335218217504098e-84 2.405862520569959e-114 2.011315405128807e-45 2.267747522829767e-151 4.018251303832903e-86 2.076591936188719e-61 1.306115337910077e-57 2.825277725639557e-61 1.266377217375868e-79 6.493265777227054e-134 3.688092822518506e-55 1.502459022504540e-195 3.530409210697184e-77 5.565840395487811e-54 1.642665160155277e-26 8.264423232724489e-06 9.272108016786605e-10 4.423766270347195e-42 9.045685546136837e-76 5.168780625374062e-141 4.894017101852505e-30 2.548809267790081e-30 2.288955843988669e-39 2.767741130405537e-41 6.272586531031349e-46 1.036890526279889e-46 1.173844718297687e-16 7.152100241415565e-40 9.898057716117816e-69 5.766028780680312e-85 3.928408955741774e-231 3.878062065504554e-188 1.440858990770123e-223 3.373870720582803e-32 1.266915535312429e-33 8.561420985638122e-47 1.221013513836050e-51 2.344745841730341e-175 2.922131468904812e-76 2.011142800887567e-72 1.736858567733732e-77 1.737331686546588e-10 6.129856527747372e-159 2.159220754303491e-66 5.635335826880035e-74 1.175043230280574e-93 3.124496114720637e-99 8.734939180741818e-10 3.736698841690865e-188 2.028805576984014e-01 6.251166180704137e-13 3.300461509648976e-01 3.285626219558456e-01 1.987769894560615e-41 6.436316333651016e-10 3.303197390753536e-114 3.581427544143962e-119 1.941296062649974e-171 1.362619137368905e-21 7.397687081465237e-25 2.465723818551223e-146 2.578238040484317e-49 5.893086531850282e-81 1.168123509694387e-202 5.198132130239274e-26 2.171806860616326e-54 3.185736272021013e-01 3.293288200275899e-01 3.296279801478325e-01 3.188960188543857e-01 3.148872588557696e-01 3.164690913813630e-01 2.321588118447777e-31 2.476184595041380e-81 5.633364022596323e-170 5.228755164835064e-170 4.524684310293591e-65 3.079380982220663e-48 2.278894673517047e-17 9.605247496582130e-51 5.584535690217475e-02 1.200171356038459e-44 5.148336280957932e-11 2.928223470600499e-33 8.517369698600530e-30 1.512644475404969e-83 5.599645784973622e-124 1.042403655878625e-09 1.260033438757309e-10 2.155781457516544e-27 8.303546463153359e-198 2.264229206141741e-78 5.300662227061793e-27 3.873557970136845e-81 2.074600418278729e-96 4.974479750736591e-154 5.482048857361012e-61 2.070157433913798e-64 1.796189475433775e-126 5.341805528706216e-10 5.805454211731823e-57 3.917033026457641e-93 9.520301778438307e-46 7.670688868561894e-13 5.760387262148616e-96 2.084105792706205e-38 1.699421654334542e-31 4.432444361430813e-156 6.166900531808103e-161 5.488225540708616e-66 1.995692368112390e-61 1.072473380986425e-38 9.266841521318086e-20 8.395019047819619e-169 3.408867606286146e-01 3.408867629302614e-01 1.772827649568351e-65 2.798384805766526e-24 2.623068824130953e-154 3.028031258709219e-10 4.174015480512517e-30 1.097692294287485e-79 2.367052559540501e-49 2.478521732909570e-142 7.407876384270376e-10 2.703605599412609e-121 3.286426674355495e-01 3.286426746047334e-01 2.951580740995689e-86 5.330171509071836e-02 1.884835345329350e-04 5.620654885796513e-16 7.626393562584937e-20 8.016629908721135e-78 2.370728934155864e-01 1.830345003339764e-01 2.828612380703037e-28 2.265791616026581e-76 6.234194921187378e-23 3.801041079355233e-82 2.693921063796692e-84 2.735997319477783e-02 5.101622662035890e-164 3.168026269504431e-01 3.170149054824496e-01 3.145281535479402e-42 3.481887330096322e-38 2.826847872733384e-60 2.065025743908773e-52 5.420825561524629e-126 1.605054270757479e-54 8.558393279010663e-27 2.136315546925786e-39 6.386096332336176e-32 1.127470558604033e-09 1.108348477552601e-09 1.188313999338383e-47 4.338588773824924e-44 2.950898066174675e-183 4.052508696330708e-51 1.005879269572162e-25 2.663231804325506e-135 3.965401488022810e-140 1.984110951834009e-66 2.065404536413289e-71 9.526476515486427e-159 7.391586586893315e-16 1.469377947867692e-124 8.198974593917684e-45 2.876820625558451e-94 4.130156810843804e-35 1.582499731867545e-170 3.712761362154453e-106 2.031192031639331e-40 1.848984266661697e-55 3.744122176359458e-121 1.050848645941280e-163 2.262111381340431e-127 3.640111035358776e-49 1.093083752713109e-94 6.117791750613878e-13 2.700776513734116e-80 1.503834162869312e-19 2.543388352129052e-23 2.541942473342099e-44 7.688261411121949e-164 2.568647645855338e-01 7.604512866296469e-105 3.521941755064537e-31 2.455147650522501e-149 4.008267328520438e-42 9.623854581361414e-90 2.305581284917856e-132 9.780736695954536e-36 5.350383520174377e-181 9.627814799825126e-186 5.254278138930481e-10 6.121687486087516e-16 8.417850340419293e-54 7.340147416688529e-183 2.764034910686070e-01 2.853986406767731e-01 3.644307103347077e-10 4.152846361230581e-101 3.554178602881554e-165 2.604297039171009e-01 1.171572016018825e-81 6.691770767067257e-14 8.349772817195483e-11 1.480014170881865e-01 2.265886061911880e-01 7.567506118632916e-46 9.444146577818873e-71 1.130166112237952e-146 5.129930660446773e-86 1.829536093612062e-26 7.814077710553718e-30 3.571805058083049e-111 2.951104666128401e-66 2.448081606427453e-63 4.950246809775976e-14 5.109004030204812e-262 2.346836171548797e-01 1.694451301391436e-106 4.055199103989752e-226 5.161427545870717e-10 2.852618324975346e-01 3.175197024903746e-01 3.289589141923187e-01 1.876376042161947e-78 1.580347641600502e-67 1.994816764214267e-209 7.315512693725796e-205 3.602128986185834e-81 1.448874547716686e-46 7.859512577869167e-116 6.475311123341655e-23 8.124103231091609e-10 3.550818199153328e-152 3.870725963359522e-157 1.962060412886800e-19 6.079543250919712e-35 1.449721197125222e-19 6.515765046712394e-89 4.699590615881893e-100 8.129091466558091e-66 1.296556292322857e-230 1.009214079863196e-48 6.428279455741531e-131 3.525602798986702e-65 1.388369065443977e-59 1.564871931691358e-55 1.459277226038816e-49 1.242019994649347e-41 2.473388280920983e-257 1.640241337130593e-78 2.00913689