<?xml version="1.0"?>
<VTKFile type="UnstructuredGrid" version="0.1" byte_order="LittleEndian">
<UnstructuredGrid>
<Piece NumberOfPoints="21" NumberOfCells="28">
<Points>
<DataArray type="Float64" NumberOfComponents="3" format="ascii">
0 0 0 0.49999999999981742 0.1726190476194705 0 0.33333333333250248 0 0 0.29166666666652658 0.2916666666668038 0 0 0.33333333333472032 0 0.17261904761971569 0.50000000000021494 0 0 0.66666666666759111 0 0 1 0 0.33333333333472032 1 0 0.29166666666684449 0.7083333333334445 0 0.70833333333346027 0.70833333333323512 0 0.66666666666759111 1 0 0.50000000000021227 0.82738095238030207 0 1 1 0 1 0.66666666666578889 0 1 0.33333333333250248 0 0.82738095238054699 0.49999999999982031 0 1 0 0 0.66666666666578889 0 0 0.50000000000004996 0.49999999999997519 0 0.70833333333327586 0.2916666666665107 0 
</DataArray>
</Points>
<Cells>
<DataArray type="UInt32" Name="connectivity" format="ascii">
0 3 4 0 2 3 2 18 1 2 1 3 19 5 3 19 3 1 4 3 5 6 4 5 6 5 9 7 9 8 7 6 9 8 9 12 19 9 5 19 12 9 19 16 10 19 10 12 11 12 10 11 8 12 13 10 14 13 11 10 14 10 16 15 14 16 15 16 20 17 20 18 17 15 20 18 20 1 19 20 16 19 1 20 
</DataArray>
<DataArray type="UInt32" Name="offsets" format="ascii">
3 6 9 12 15 18 21 24 27 30 33 36 39 42 45 48 51 54 57 60 63 66 69 72 75 78 81 84 
</DataArray>
<DataArray type="UInt32" Name="types" format="ascii">
5 5 5 5 5 5 5 5 5 5 5 5 5 5 5 5 5 5 5 5 5 5 5 5 5 5 5 5 
</DataArray>
</Cells>
<CellData Scalars="pressure_p0,piezo_head_p0," Vectors="velocity_p0," Tensors="">
<DataArray type="Float64" Name="pressure_p0" format="ascii">
0.01558370154853563 0.014926196804448398 0.011155632002955208 0.013144786416135451 0.013960971902967946 0.012419832440204233 0.015527226076686938 0.016032856702040386 0.015647040132691831 0.015222608215869193 0.015841016664504205 0.013379184878511089 0.014019863699024139 0.01254218215757914 0.0077747760854244702 0.010078216257510429 0.0089802983910182918 0.011358670475179617 0.0024787680581646043 0.0052026258185466955 0.0039120761493801164 0.0014807311710602483 0.0039012997932107605 0.0051489035146879813 0.0024648590087969534 0.0088603042492520177 0.0077534515477212847 0.0099946551078363387 
</DataArray>
<DataArray type="Float64" Name="piezo_head_p0" format="ascii">
0.01558370154853563 0.014926196804448398 0.011155632002955208 0.013144786416135451 0.013960971902967946 0.012419832440204233 0.015527226076686938 0.016032856702040386 0.015647040132691831 0.015222608215869193 0.015841016664504205 0.013379184878511089 0.014019863699024139 0.01254218215757914 0.0077747760854244702 0.010078216257510429 0.0089802983910182918 0.011358670475179617 0.0024787680581646043 0.0052026258185466955 0.0039120761493801164 0.0014807311710602483 0.0039012997932107605 0.0051489035146879813 0.0024648590087969534 0.0088603042492520177 0.0077534515477212847 0.0099946551078363387 
</DataArray>
<DataArray type="Float64" Name="velocity_p0" NumberOfComponents="3" format="ascii">
0.0017737446788835373 -0.0014755000953277989 0 0.0089154215494284695 0.0016982186663640235 0 0.017071035501056844 0.00077456190542308763 0 0.012228550171288891 -0.00095301657224002977 0 0.011817571364141903 -0.0015779733386129141 0 0.01648052908659673 -0.0003579440357581367 0 0.0068935720260430017 0.00099495837520465142 0 0.0011019862668965505 -0.0004840628606345434 0 0.0068867423747616648 -0.0019091236567132495 0 0.0090658094948634724 -0.0019453895798712422 0 0.0019212966558040813 0.0007800532755516626 0 0.012717306797794085 0.00056955363431612262 0 0.011974185123381977 0.00076632134058590446 0 0.016685032362163787 -0.00036471496502846722 0 0.021951497225828266 0.00051318406760260567 0 0.01863895737209539 -0.00035778927233443437 0 0.021612292746686374 0.00035234016001399904 0 0.017542844611537375 -0.00085257316628706238 0 0.025213243131344484 6.5027084606588716e-05 0 0.023274479939856478 -0.00067378517260832226 0 0.024143685724363272 -0.00056796228094626406 0 0.025657984954675667 -4.2054801793877522e-05 0 0.024105320157565793 0.00054139950117159871 0 0.022878621471228718 0.00068970487582344694 0 0.025025608703753213 -0.00016995815999142636 0 0.021182423996669635 -0.00069070463054844971 0 0.021723139173316725 -0.00086861338546483872 0 0.018374514403319993 4.2313387096675446e-05 0 
</DataArray>
</CellData>
</Piece>
</UnstructuredGrid>
</VTKFile>
