<?xml version="1.0"?>
<VTKFile type="UnstructuredGrid" version="0.1" byte_order="LittleEndian">
<UnstructuredGrid>
<Piece NumberOfPoints="568" NumberOfCells="1054">
<Points>
<DataArray type="Float64" NumberOfComponents="3" format="ascii">
0 0 0 0 1 0 1 1 0 1 0 0 0.049999999999899652 0 0 0.099999999999814668 0 0 0.14999999999970359 0 0 0.19999999999955789 0 0 0.24999999999941211 0 0 0.29999999999926641 0 0 0.34999999999912063 0 0 0.3999999999989749 0 0 0.44999999999882923 0 0 0.49999999999869432 0 0 0.5499999999988151 0 0 0.59999999999894682 0 0 0.64999999999907843 0 0 0.69999999999921003 0 0 0.74999999999934175 0 0 0.79999999999947335 0 0 0.84999999999960507 0 0 0.89999999999973679 0 0 0.94999999999986839 0 0 1 0.049999999999899652 0 1 0.099999999999814668 0 1 0.14999999999970359 0 1 0.19999999999955789 0 1 0.24999999999941211 0 1 0.29999999999926641 0 1 0.34999999999912063 0 1 0.3999999999989749 0 1 0.44999999999882923 0 1 0.49999999999869432 0 1 0.5499999999988151 0 1 0.59999999999894682 0 1 0.64999999999907843 0 1 0.69999999999921003 0 1 0.74999999999934175 0 1 0.79999999999947335 0 1 0.84999999999960507 0 1 0.89999999999973679 0 1 0.94999999999986839 0 0.94999999999979179 1 0 0.89999999999958358 1 0 0.84999999999965292 1 0 0.79999999999999982 1 0 0.75000000000034661 1 0 0.7000000000006934 1 0 0.65000000000104008 1 0 0.60000000000138687 1 0 0.55000000000173355 1 0 0.50000000000205869 1 0 0.45000000000187229 1 0 0.40000000000166441 1 0 0.35000000000145642 1 0 0.30000000000124832 1 0 0.25000000000104028 1 0 0.20000000000083221 1 0 0.15000000000062411 1 0 0.10000000000041601 1 0 0.050000000000207989 1 0 0 0.94999999999979179 0 0 0.89999999999958358 0 0 0.84999999999965292 0 0 0.79999999999999982 0 0 0.75000000000034661 0 0 0.7000000000006934 0 0 0.65000000000104008 0 0 0.60000000000138687 0 0 0.55000000000173355 0 0 0.50000000000205869 0 0 0.45000000000187229 0 0 0.40000000000166441 0 0 0.35000000000145642 0 0 0.30000000000124832 0 0 0.25000000000104028 0 0 0.20000000000083221 0 0 0.15000000000062411 0 0 0.10000000000041601 0 0 0.050000000000207989 0 0.50333998054938722 0.50119715791968966 0 0.70252050881959183 0.70358884261915833 0 0.29641115738084339 0.70252050881958938 0 0.70358884261915744 0.29747949118041561 0 0.29747949118041711 0.2964111573808435 0 0.50000000000002642 0.7803135888501761 0 0.2196864111498267 0.50000000000003153 0 0.78031358885017377 0.49999999999997569 0 0.49999999999997108 0.21968641114982909 0 0.8289812646369813 0.82898126463698818 0 0.17101873536300011 0.82898126463696109 0 0.83199780613337848 0.1690131600686714 0 0.16901316006868169 0.16800219386663079 0 0.56566515596461675 0.63670464971409091 0 0.35984320557492089 0.56698606271778873 0 0.640156794425081 0.43301393728221721 0 0.43301393728221038 0.35984320557492139 0 0.63969251517836323 0.84598529912890386 0 0.1540147008710982 0.63969251517836956 0 0.84598529912889664 0.36030748482164038 0 0.3603074848216346 0.15401470087110539 0 0.84598529912884157 0.63969251517827153 0 0.36030748482174152 0.84598529912882459 0 0.63969251517826664 0.15401470087115929 0 0.15401470087117619 0.36030748482174652 0 0.4434591735942961 0.66641640622551224 0 0.66548584431530877 0.55616712808283064 0 0.33382663527330159 0.44130125047503482 0 0.5586987495249669 0.33382663527330653 0 0.53432142347292233 0.88563193847251998 0 0.1143680615274819 0.53432142347292733 0 0.88561059063756964 0.46572761956237563 0 0.46567857652706018 0.1143680615275231 0 0.74198804864688339 0.90892718720327403 0 0.091072812796719582 0.74198804864687795 0 0.89586000931544074 0.25714619498770419 0 0.25714619498771307 0.1041399906845497 0 0.88949062093135778 0.73694585442531257 0 0.73688246401832591 0.11047754041323141 0 0.26305414557470391 0.88949062093136155 0 0.1104775404132264 0.2631175359816938 0 0.59819537371016407 0.74380966024143391 0 0.25619033975856881 0.59819537371016862 0 0.74380966024142703 0.40180462628984132 0 0.40180462628983732 0.2561903397585753 0 0.74417394063200648 0.6049203001048884 0 0.39507969989512881 0.74417394063201048 0 0.60492030010488373 0.25582605936799729 0 0.25582605936799319 0.39507969989513358 0 0.90045039720880915 0.9020090423547924 0 0.90082758526900886 0.098076845682916511 0 0.097990957645208238 0.90045039720880915 0 0.098076845682915317 0.099172414730993488 0 0.43590673999053309 0.90289902042279657 0 0.097100979577207341 0.43590673999053198 0 0.90289902042272274 0.56409326000946114 0 0.56409326000946236 0.097100979577281268 0 0.73982803480991577 0.79629608696991705 0 0.20370391303007401 0.73982803480989479 0 0.79629608696994103 0.26017196519011448 0 0.26017196519013502 0.20370391303005 0 0.77998481823117694 0.71397317153691997 0 0.28602682846308641 0.77998481823117594 0 0.71397317153692708 0.22001518176882201 0 0.22001518176882229 0.28602682846307981 0 0.49189101320880302 0.59024331187324797 0 0.57387636360620708 0.54318431390135336 0 0.41009598069569558 0.49083935749285379 0 0.54901591374940373 0.42306523525165751 0 0.6519524273377173 0.64249931920594539 0 0.35944937237716967 0.65164789808436319 0 0.6424993192059415 0.3480475726622802 0 0.34804757266227387 0.35750068079406011 0 0.81709574086843206 0.91318696080656769 0 0.086813039193431391 0.81709574086842884 0 0.91838802593870927 0.18172590289757809 0 0.18172590289758209 0.08161197406129285 0 0.91838802593884228 0.81827409710237209 0 0.82118136511706341 0.082875076569723011 0 0.1817259028976386 0.91838802593888857 0 0.08287507656968085 0.1788186348829835 0 0.51484304721220842 0.69707233951836334 0 0.30292766048163949 0.51484304721221474 0 0.70015119067225129 0.48481914991727459 0 0.48378871228000903 0.29745177826977359 0 0.60938371359314658 0.91847489683800321 0 0.081525103161997597 0.6093837135931508 0 0.91890123454466932 0.39094742729597309 0 0.39061628640684498 0.081525103161991672 0 0.92670321183853355 0.65773042910151081 0 0.65773042910151891 0.073296788161472337 0 0.3422695708985129 0.92670321183858773 0 0.073296788161418117 0.34226957089850552 0 0.43087117257049001 0.8215422551712771 0 0.8215422551712277 0.56912882742954496 0 0.17845774482872559 0.43087117257049429 0 0.56912882742954041 0.17845774482877461 0 0.46102425708533701 0.43254199134332588 0 0.56759263990989184 0.81794319034601648 0 0.18205680965398621 0.56759263990989739 0 0.81794319034597418 0.43240736009009317 0 0.43240736009008851 0.18205680965402779 0 0.66820316019503978 0.77769800602796979 0 0.22230199397202771 0.66820316019503168 0 0.77769800602796679 0.33179683980497482 0 0.33179683980498331 0.2223019939720311 0 0.67757268808231397 0.93106206656183088 0 0.068937933438162791 0.67757268808231053 0 0.93106206656185309 0.32242731191769503 0 0.32242731191769902 0.068937933438140794 0 0.43565339604028508 0.55159384357101338 0 0.58981073711177334 0.48140931020849848 0 0.49854341599767982 0.37075914768127122 0 0.44764943295894188 0.73752415265401661 0 0.73752415265401194 0.55235056704108476 0 0.26247584734598628 0.44764943295894732 0 0.55175647814720108 0.26104505532086641 0 0.39419886675318527 0.41912225240070788 0 0.48669777060454272 0.93510666819646593 0 0.064893331803534807 0.48669777060454478 0 0.93510666819640953 0.51330222939551939 0 0.5133022293955174 0.064893331803591428 0 0.40653508887824003 0.61580573377480397 0 0.49771727055908782 0.83998685797641781 0 0.16001314202358469 0.49771727055909287 0 0.83998574657308889 0.50228528270184081 0 0.50228272944093777 0.16001314202359701 0 0.70085728320704077 0.84350379029875056 0 0.1564962097012354 0.70085728320703999 0 0.84350379029877964 0.29914271679296989 0 0.29914271679297122 0.15649620970120659 0 0.839908789927305 0.77106070975262608 0 0.22893929024737289 0.83990878992727813 0 0.77216325087772952 0.15899695163319821 0 0.15899695163321451 0.22783674912227669 0 0.76395804595204597 0.67808171673060369 0 0.32191828326940508 0.76395804595204586 0 0.67808171673060202 0.23604195404795861 0 0.2360419540479583 0.32191828326940741 0 0.64518564541690571 0.69601563325001548 0 0.30421635384321521 0.64514939193436716 0 0.69601563325001248 0.35481435458309712 0 0.35481435458309307 0.30398436674998969 0 0.61233489393901674 0.60846740003560018 0 0.60122390529523662 0.39097801071820221 0 0.93946948561981514 0.60485373571037115 0 0.6048537357103756 0.060530514380187868 0 0.39514626428973221 0.93946948561985189 0 0.06053051438015096 0.39514626428972788 0 0.64455163611866495 0.50369301794551069 0 0.94156647488778256 0.058433525112256718 0 0.058433525112266523 0.058433525112214509 0 0.94156647488775558 0.94156647488774259 0 0.058433525112254137 0.94156647488774581 0 0.77688977118331393 0.94706199857866258 0 0.052938001421335763 0.77688977118331159 0 0.94465622530468663 0.23167460333446291 0 0.23167460333446299 0.05534377469531044 0 0.9442075111696665 0.76777356182390766 0 0.76543419162344684 0.056452228708420968 0 0.23222643817617661 0.94420751116970569 0 0.056452228708379938 0.23456580837661581 0 0.78284912262770068 0.83746308049763585 0 0.16253691950235041 0.78284912262768558 0 0.84534053180161173 0.2262639405833009 0 0.22626394058331961 0.15465946819838111 0 0.55307204985744796 0.94819812235491685 0 0.051801877645083663 0.55307204985745195 0 0.94812782820415209 0.44708943904932719 0 0.44692795014265252 0.051801877645060238 0 0.85607519768343354 0.69380468830529196 0 0.69379929796456197 0.14392209494791061 0 0.30619531169472608 0.85607519768342955 0 0.14392209494791439 0.30620070203545702 0 0.51172471858873747 0.64015771271794875 0 0.35815651743779398 0.51113440447909086 0 0.57051182622447827 0.69668652018496713 0 0.30429740679959738 0.56913905146460098 0 0.69595787604187809 0.43071000156707989 0 0.43059486795334201 0.30395973419063538 0 0.54465502325161819 0.74717983044080061 0 0.25287139441262568 0.54458355434492378 0 0.74730218607442667 0.45539100053644521 0 0.45533136021725079 0.2525687312087147 0 0.86696410734367158 0.94753096683315619 0 0.052469033166843738 0.86696410734366991 0 0.94100406608115506 0.1383574446607955 0 0.1383574446607988 0.058995933918849157 0 0.94095916274074942 0.861652780
[...]
<CellData Scalars="pressure_p0,piezo_head_p0," Vectors="velocity_p0," Tensors="">
<DataArray type="Float64" Name="pressure_p0" format="ascii">
9646.7617895378407 8323.4874902146057 8700.0392036466601 11104.625135988861 9682.6634430666618 9473.5942110757896 10047.718485436315 10154.86125942656 7717.4137869091901 2532.3871305308403 3143.9187188115857 9729.6378602788209 4266.8022007134732 539.58676131290395 669.86908406623206 4266.2165610676529 5416.8430670134321 539.84832158686197 669.40082934275267 5418.8601223954047 1490.0366574012487 8462.9343283116068 6583.7291843625899 1293.6663255478716 1271.2438257224353 8477.6902115567027 6707.2096760569784 1501.6796591782272 9751.3210656311494 6771.8937497917113 6819.8829013802406 11686.52416148575 7141.668493427198 712.65998475437118 865.57023326932745 9092.5263453187108 750.46732164557659 9114.1188753008792 7206.039204047328 882.88818616211984 1458.3733645748455 9782.3896847950073 7756.8442860593204 1679.1306784708495 4913.1672582422234 5872.1152588040804 9627.5898261155089 7846.1864582214766 8205.6436320187622 11241.3085202603 4618.7757879848705 1232.4008898018201 1560.4809709842602 4670.1471859593557 5863.4030730782461 1318.8270578066752 1624.6401104327779 5916.9910875156511 5295.2600333691025 9139.2247317242854 4529.1807717898555 7427.7571120668254 8121.6877989045042 3101.2404043019451 3739.1655806614681 10126.107878256375 11468.263659190992 3192.5740117855676 3421.502216327618 9200.2817663542537 9722.7621404774891 6199.7551063986466 6289.9998212147912 11760.343863409176 5155.4121693034167 5260.7523424309538 6271.083159642415 6426.4310188938498 5556.2982033615144 8501.8372539626143 5948.9045480288769 7193.9425673678325 9000.6195057114237 7753.7379043855508 8527.020762843802 10482.686911563665 7837.3480860198788 3280.4113184388962 2863.0283187685473 9817.873208274832 6927.9172188636676 4661.9782014730927 9238.2083162440304 7905.39528809886 8571.4927444557834 10726.655049254732 10031.642889943721 1415.1963678502457 11884.783740695402 9468.5983785684439 1481.933960522907 9641.152727004539 2833.0406779830591 2764.911701218115 12042.27867708449 10036.185968024194 723.31705144707007 10240.912263419072 8127.4360847213711 817.24751904533173 4906.8086986663729 9577.1917405371023 11768.891609804885 5096.955825774673 4505.1216747592853 11654.454308120268 9447.8589725168385 4744.5070501184491 8522.4913579314853 9556.4017877386432 10906.621284725972 9008.319672024707 9786.419699624279 8622.5308313194873 8833.923956688348 11184.170327102293 2749.7485607269532 8257.4776420522594 6456.1718224617343 2413.7893586630998 2328.6425859727337 8240.6900038287295 6571.3261077877733 2783.0609697195382 9668.7218071482694 8309.4758576191489 8671.3874541739751 11136.338676648083 6553.2619727989586 8401.8219901319171 10047.749305188701 7381.2426411095112 5913.200044379716 10266.224573896136 8483.7537843418395 6622.8308252594643 8813.7798956325587 9289.887481492744 10430.034935457721 9577.4575009467444 8935.4410815098981 8707.1137388363422 5484.1942937624608 5494.1128586948043 6002.7581774838891 6086.7589994485752 10891.505029393855 10608.965317748842 10001.43613387191 10666.207929333805 9680.4469759774493 3651.380910720186 3593.1932889055579 12034.741595782794 10023.829360797808 9948.7024014013678 11215.978178994585 3840.397654478691 9038.8511002909891 4163.8697068590154 6144.0818720212028 6670.9203747024676 7946.4697610120529 7276.0920585158419 6295.4501168571078 9118.7532294879729 10980.144296646655 6831.4734692632856 9546.9270440596247 7339.0685598110076 3299.9021699465666 6816.5789863373084 3245.9808278136488 7246.1087633651368 6596.9112650883435 6428.2600606297965 6151.5082963657605 7399.9755034654627 7154.2320419034249 8758.9333364443482 8011.9713639075599 3241.7438292028146 3226.1279780809627 4077.3546397122336 2558.973799003802 2580.1815856585617 4060.3063277659116 3209.0471899888853 3220.8139709161414 3493.4409401169833 9421.2981259502103 11718.481506727418 3680.4631896787282 9332.1538111257814 9049.7807943304797 9850.5491691004754 10361.315294675016 600.21833760225172 12011.605486331893 9556.8656518774915 622.4398947358859 1647.9707461646153 3352.1297184317555 3351.8186314519153 1308.6860463230678 2641.1508244159477 1307.6395755930412 1648.138873712388 2639.8155109476411 9575.4498971983467 1271.3438404550416 1318.1869051592512 12023.490483723057 7934.6193107520048 6429.5680932304313 8050.6731284782072 5823.1053292928664 6729.3494678333591 9771.3140579940264 9717.9974881578473 4906.492985745992 4924.0430624045221 11950.980332484796 3830.1508913166099 8235.4802690074266 10260.037217168108 3400.0686088762045 7079.9602367258722 8641.5608216654655 10225.176944280996 7909.9131186805789 5408.342729774221 6550.5587039772272 9264.8528130142404 9180.3919525323381 7542.5940054207094 8504.0911303934117 9940.1813955333855 8494.9411343701868 4092.2262653872754 2485.9898516713588 3204.3218903911293 2588.4819511903888 5160.5385273553811 5198.9705189342149 4128.2196355686647 3127.2997766630142 10575.531552085453 10771.775117414891 9421.7375379515215 9748.3153333746141 6766.2714527226926 6719.9063725873284 11695.533156715777 8221.111065269477 4823.545058409105 5574.9454272772164 10117.315336807591 8397.923845764557 9349.0746728013692 10694.207766892705 9046.4626688057215 5276.2136861584631 9450.4561121855331 7747.3449306502189 6057.2361427311989 9757.955065895143 10065.426672268954 10081.985745210222 9814.4838721052984 9786.8456236949423 5231.3133752078247 9061.6270521643746 9905.2465895409459 7663.936114512353 1357.8722309304467 1622.2711924335381 9729.1037102099472 2693.0683181969689 11908.345388370422 9530.5853881071653 2803.5046589059584 9868.0593873923881 10906.489034881397 11058.766395101728 9187.8711961795161 603.30787554539506 646.9982922407836 11558.425303961712 7542.8791409493178 7416.9185029013588 8626.9247834694179 8804.8846635734735 1533.038342094578 2363.4427489062591 2363.1075866816191 1533.2513110058615 1210.0964209891354 1859.2297837079977 1833.6773219532122 1183.8172293440384 3435.5688906798232 4682.3785778066449 3230.9972149460209 3942.842922432973 5499.113993448329 6895.3990688091471 4243.3248444615347 5869.8030840594965 9890.7166857613011 10604.831696582391 9129.7896494672405 6855.5466166639599 7449.7337622209579 10876.854257515231 10065.043989129876 9841.8504823763524 9579.5193402793539 9708.7987644007571 5384.4714489216913 5457.374464042201 11874.669454551624 9526.6589980615499 8849.9171554902405 9089.3970810657174 10156.326065305764 9762.382247541047 8278.9241580064263 6403.4342302218947 7249.6105630276898 9928.8339939242305 10561.776862311797 7579.9884732153805 5865.3099585202017 6788.5315872463934 9273.646987570799 9804.3753944461168 5800.88193223495 10722.33796827106 8838.3285838553584 6388.5923729056722 7042.7747418882309 7232.2309301881423 8525.4316657806121 8217.5849755063482 9948.7802077061788 10413.869665632796 10194.56354223326 8293.1847208000399 8670.514110635524 7961.2214820330955 8760.2508280174643 9907.9378007694741 9299.5595042580862 10128.204996932771 8874.3758261392995 8003.8403765266939 4124.2571784180191 4991.1134217204835 9908.5700632429689 9348.1799839323721 9139.3873254083956 7638.8892185279565 7383.4342025845872 8205.3697132455181 8038.3903760733465 10942.870235344924 10757.778300257352 2239.8427596373299 11473.076856847389 9157.8269040615523 2406.9217839863913 9104.9966634935554 8978.9648486140377 9885.3644138411546 10130.188834909757 7991.2825030497352 7475.2755396457524 8583.6114698673609 9338.6938841916981 9969.7780456599739 11947.787118395399 592.4684956139813 566.49069691810178 9502.4955617653723 675.99728458483969 3988.4229404391112 3134.9685542999796 539.23617295254871 539.56718417651018 3987.5136749332978 3134.0053009253807 676.25139571521038 5133.4712235627521 9992.3131389837145 8166.6202522800777 5811.7074865853674 9819.1703448462176 8455.5342639571427 8522.5754236199427 11310.51323956025 9532.5455658565443 10769.643295046484 10278.854285939864 9112.019155123462 6274.3688863466177 6810.4053951325541 10975.462360768848 9331.0879721963356 1162.2234476032388 1232.8672091569697 11726.213208920104 9384.73038888472 10428.747198391053 9711.2657570488045 9154.6468734082337 9649.3434205153353 10783.943568836916 11692.302106000845 1275.7605283378293 1356.5072884295037 9308.3415603810827 9793.0124893468292 7953.8897015871553 8008.0347054264748 11442.026694936765 9502.0336772925402 7790.4721298839841 7364.5225555699089 11213.895494466706 7618.0326086315199 8194.9695977572501 9547.2516728255796 8689.8652871017839 10086.466321921012 10243.2287993301 9033.6682691756905 6825.2270737586969 7460.7283630153415 10765.598165846208 6377.9507154125104 7936.5004206613467 9901.8528972500408 9921.2461423394961 9636.9898552473314 9610.1486668608941 5041.817904494359 5706.2363035169747 5191.2172876336008 5914.1462229716599 11829.803983309866 11697.910395628991 8552.2226161183717 4655.7822801927159 5211.5451986737571 10526.225473269382 6207.803195255744 7642.9015085911051 9169.52652976631 7155.565365474471 5694.9084401064683 9372.1204467673851 9714.5602845899848 6117.0214578041741 6023.2071866157085 11781.359160934509 9920.2261751334772 9353.4239161537844 9268.8267917063422 5383.4679531948195 5767.4847625431466 11320.761686179463 9392.5252358892812 10134.595873383223 10419.312966531479 9399.90335484362 5156.8607999721935 5462.9435074414614 11515.042266648368 9678.3103019367063 9667.0040546003111 6338.7422414957127 6161.3586623902147 11693.694892911608 3931.7564508175665 3675.2398935962401 9195.1529281850962 8564.6827590561516 10321.381990314541 6089.2994220357032 7168.0814380043957 7570.7094437693177 7316.308803427909 4263.6920782056759 5003.119269563178 8592.9327809365641 3643.386721066584 3028.5860066252153 6883.3908418217306 9286.669851094277 3963.5975957584533 3370.7466469265842 7441.3254426015646 8279.2042117917808 8016.3250560778106 8230.9929164416699 8012.6440548452883 9386.3369663840094 9213.4035390432091 9455.1104644299194 9216.4511544759116 4424.2872915215039 8331.8673854831413 10283.41907264136 4970.7011507881016 10269.617863154455 9562.2413308386349 9248.0918885190586 6443.1684470064556 5516.7457251835949 5576.4511431255814 8460.2878603400441 5721.0803774397273 3858.2932488509637 4734.1881410249989 11200.42253932856 9102.5330548978509 5123.7001887936331 7365.8477211978216 4996.1804542067057 8093.4453479373669 656.92687737160679 775.23993481018749 10210.473646120183 9657.2142402541285 1228.6575150888939 1254.7816222399806 12126.825488171769 10878.165158038382 3970.9617683513634 5965.273881817081 10240.483072598892 2963.6965594929916 2558.0090179595563 5391.7668207004699 1287.06970099713 5797.1849785106606 2368.044360053962 2808.585077014076 7202.6410161256827 5505.9331354114611 1312.6793994996679 1520.6487141222074 6905.7836224144849 1589.3782433813574 6966.5407993638109 2851.0016796012906 7296.4213552684832 9905.7278778278305 10227.378458707179 9648.7195793410374 9815.755544615653 10398.510265826233 10892.53812375951 5077.7566398931185 10863.523854703337 8864.875692382815 5574.1949397073959 9884.9859081374252 9548.2807846385094 6799.9287855792354 7137.2269542270424 11412.61392136852 5361.80244111907 2409.5197350535104 5819.6026872595985 2832.3657706929098 6707.5166119123187 7978.8812453618448 9493.4619560699084 7668.4733640060258 10592.116272397861 10407.344683581916 5964.7973274916858 4262.4814124204731 6499.112117823508 7205.5064251930162 8553.26958489963 7603.4218648507613 9103.9632293242867 8949.0983821611208 10853.610991989566 10786.576955154562 9554.0364900149143 9461.9488494823818 2438.0138786896232 2805.7265379849528 11952.411030546469 11817.362315747323 9901.8713992534158 9454.6697029068091 9902.4276785972615 9284.0426093936148 4637.3604112107832 3066.4152026367456 6710.235108740244 3592.6474085612008 8428.5477520243821 2840.5095336665481 3230.4165730501682 10539.420660560816 9633.642691701838 7810.9294907347967 8158.0609261453301 11258.28680885717 9927.8046123713393 9580.6536822565085 8499.9792198252908 8990.4307260177738 10944.572082128352 9756.7339256186751 7474.0015846166625 7596.7949653665955 11521.833473181969 9831.009114498389 9008.3621015881145 9811.1619725283053 9203.2162695881707 9375.9321483198692 4254.7802987747164 4501.829822348408 11592.871787175583 12126.852604395128 1923.2173552340519 1890.0166738614676 9673.7360949550221 9674.6604941575297 6370.0258608851218 6548.8692094343614 11666.393031596366 10250.531189932004 8244.5060893748596 7115.1577857267648 8084.4719893495912 9734.1288325111727 9483.070848080959 9325.0126402451424 6522.9347182623105 6185.2000792155013 5938.527206870579 6346.1115234640311 11453.932035429605 11300.144400593801 9102.8836293014192 10527.373739131075 9491.4850535108963 4428.7434013405309 4527.2626614415885 5473.841315865553 5611.5639825295766 9689.034133775509 2968.5594935307072 10729.192791675905 8588.2589668701858 3290.6735073704085 10152.322510452257 9357.2481441236851 1157.1455977806208 10697.077591609705 8498.9759715852324 1288.0006818538191 9525.6023433399587 9488.5561761109711 7442.038300870091 6908.1716781021714 7885.662862156536 7270.6990279132169 11177.185893243115 11359.936286433291 9295.9637129680941 6157.0980240371373 6597.7990911293491 11226.111695632986 9598.5899073098335 4284.0326441624402 4088.6053356864304 11869.063485875115 9484.9741569196376 3883.1296353016423 4454.2605765335411 11764.32205412019 9519.5935183919792 5765.8395527079392 6048.3774705317446 11573.365263176001 7302.0351358461812 7914.2152336499576 9284.0173311841008 8388.6267123108046 6802.346288663106 9659.9891982816152 11557.390017564008 7031.4029308617701 2124.68607816343 10882.170365005433 8674.0996519312939 2343.6170572028418 9879.4191596969031 9152.2777972878612 9705.3218073016633 3966.6957326089096 4003.378019607484 12035.498670730052 10144.029700100507 6550.8204127753215 4153.1493665326507 4795.0432911393709 3885.1869425809127 6833.6754794575536 4552.2540558206347 9462.8083770121884 6429.4170340026703 6798.4539238144434 11383.150394976557 4839.8166826729412 7413.286874457157 10419.477840023612 10488.544480152024 8751.9636181711503 8539.8702383144082 9550.8591532845676 9906.9216359187831 10586.32268004194 9708.8449557296371 3383.4999664614807 3386.2893175319887 12089.106375768519 9734.8451360351755 9619.8756334671198 10076.729921027916 5986.932536310509 591.78648184837061 634.1979844123781 7657.591409425293 530.76604154301344 7646.3587812406768 6046.4889829122303 628.70620443757036 8981.4386862118827 8600.2682001926623 9509.0410718290441 10157.241940313892 9710.6408366381875 5270.2928742129998 5211.7244034848463 11901.534562358436 8608.6065514477104 8825.7209637632877 9961.8177753654454 9606.4757849571524 1869.7150146836693 11238.31153990161 2032.6614685404365 8953.926273387322 438.29130995197897 11020.664106482855 8750.9812453204831 482.13629234416692 490.34234533194081 9191.0736460632379 11563.809918422428 457.65047894109955 5599.8672941382911 3763.9504019289561 5858.7388627969513 4815.661250286691 9404.8875739555078 9300.1998719453586 8200.7860732895315 8431.7450308769785 8799.5003158080399 9137.424750392609 10832.325032626355 10612.539078172587 5866.1982464658486 5129.2495502457923 5728.9953081393442 9584.3164135144652 11661.638877698428 5960.9270528764509 10852.696000146254 10819.996900711605 9290.9156718939175 5088.6897980658714 5440.3915442883663 11388.426441486183 9774.986851356105 9424.8015922111372 8812.213901784773 9512.4884633828897 10597.776902561676 9335.7093645440345 7353.446991328341 7893.9805944813443 11008.118646037683 10422.200555667101 11031.529637836764 10248.911945668904 9312.7780833464476 10110.955968293249 9688.0772164446062 520.53665813776411 526.09124457070538 12177.843858147828 7245.234233395734 9709.9818800073663 11521.714763526681 7442.2423971062326 11037.256990918113 10085.989107759642 10321.217302436435 550.58997991153933 1392.6679617231152 550.50119656387619 1392.8914302129403 1095.859535141687 435.26549029001757 1070.2659133995855 409.16978529290657 9745.7621654266441 10138.539401848962 10189.702952489359 9313.6612592537313 2240.4070257925923 2373.4738275960813 11665.973745947646 8697.3229654177285 7740.3690447719291 8644.60349390597 10118.640426291353 10489.185240852283 10365.544371215306 8447.3745910049693 1092.3094721592013 8548.3732747701415 2002.9574490884397 1257.2663170105943 10642.536994719196 2260.0535516444806 10738.0327222388 3813.7232186786764 6574.0707009067473 7122.2563136328117 8926.5928707863677 10563.068641490236 7845.1919210234473 8122.0956506135317 4630.1200301526642 10671.54835496926 9664.2490045624345 4610.7712146579834 4509.0264919047977 11926.880083351653 9846.1851210241548 9800.6713036907822 8785.8185243523258 8627.6691902288057 8732.3162941841983 8475.362665276336 8873.9393361295879 3543.0248600534278 3898.9201492905095 11037.871261408643 9072.029946388011 4905.116452966633 5318.2860536117914 11143.685913224288 10590.356124361133 4500.3330683961412 8659.7894065365817 10681.39073252241 4985.383178379524 6816.3288866891526 4949.512041656455 8970.1103095224025 7812.0546580494192 8606.4431737882842 10428.396802649615 9890.6499577742361 8727.9677856378148 440.25347750227013 491.48967361628615 10995.698860145854 10949.633828195916 9683.9125917346446 415.60361952118467 409.96512188230986 12174.304256994325 4683.5279262386584 8117.8937490952321 11061.02394884872 10112.478097207962 10037.607285383712 1031.4542814991337 9644.9463757026824 12116.707332924252 1006.8815705265238 9596.8095740972112 8859.4450732782225 9416.7764549938784 10798.463688401633 9372.3257228919265 9928.2472702620689 8581.6604819250915 7271.587440016785 8151.8403967456798 10106.921929597565 10152.736425987552 8643.5858277719144 3692.9433335337922 4115.8982978780623 10737.280049259372 9656.773877975349 3694.0936119902863 11997.986640727837 10213.539620564676 931.74022889907883 12192.081959773781 1818.8381324758675 12167.954279377633 933.46574577442584 9703.4954174288068 9703.6402884980471 1827.1896605522418 9637.0380699427187 2919.5104667348232 12029.933827438064 8596.934838058789 6245.8803477581741 6971.9996167695654 10350.224391580698 9682.4719075854809 9712.8908663129496 7738.0418279385649 7979.5490882862587 11392.71890302716 8956.3149578159264 1038.2420189874533 1134.5330191230264 11268.187275747834 8862.5572621058418 1951.3689856806454 2138.5918161479231 11124.068108660955 3025.498981938897 3806.7310412812726 10014.021434214837 9694.6168302713468 7451.7354578946643 7686.7625508345354 11442.812707603571 9909.5464028581046 9051.7092189404975 4163.9274152883208 4533.9993470350137 11202.641154542713 10095.438842945603 3718.4870293765925 10925.17708171935 8793.9801494582243 4085.5859765433238 9185.1540279261844 2797.2255105336499 3016.8577874582234 11477.318687282341 8977.5075663686439 2631.5261499193421 2882.9539946993564 11230.756136667676 9648.9714781137009 6906.161473939268 7152.7061688716021 11520.126018708055 9792.2485995870102 9762.4085647169013 8974.2760007089164 9248.9540443071419 8628.9823652589985 8879.434203924704 10661.730849652937 10765.706727001339 11156.734521482884 11131.997045181946 10468.357195004412 10373.521621531363 2316.1275905282178 12117.640111832494 2473.187734806681 12141.732587390332 9679.2903346653547 2274.0049272091542 9705.4917225807112 2458.1749674995499 8574.9829688086866 8157.3787407271548 9182.0162362682331 9836.7403176816042 11249.214448016632 9785.7548487226668 9774.6005679238096 8056.7102702472857 7811.1954423697553 7882.3744439244329 8216.7662952294886 11382.463917196394 11477.926061877028 9691.4867311417383 9755.7813813160319 7387.0166041434841 7287.0743549225444 11575.91030178409 11278.646751438901 9079.0340456060294 8289.7613986403339 9100.1306631227308 10398.651949693198 9787.1769061530977 892.99540004227606 11298.440954534808 8979.8130514481272 969.39879450484887 8744.8082545418292 6790.3060705188718 7540.1941164043783 10421.213899969416 9859.6794239499759 9367.9554318881419 10602.349884798299 9612.6588927834564 9223.6223216827857 3739.7014423289679 4020.8766377842339 11