<?xml version="1.0"?>
<VTKFile type="UnstructuredGrid" version="0.1" byte_order="LittleEndian">
<UnstructuredGrid>
<Piece NumberOfPoints="21" NumberOfCells="28">
<Points>
<DataArray type="Float64" NumberOfComponents="3" format="ascii">
0 0 0 0 1 0 1 1 0 1 0 0 0.33333333333250248 0 0 0.66666666666578889 0 0 1 0.33333333333250248 0 1 0.66666666666578889 0 0.66666666666759111 1 0 0.33333333333472032 1 0 0 0.66666666666759111 0 0 0.33333333333472032 0 0.50000000000004996 0.49999999999997519 0 0.29166666666684449 0.7083333333334445 0 0.29166666666652658 0.2916666666668038 0 0.70833333333346027 0.70833333333323512 0 0.70833333333327586 0.2916666666665107 0 0.49999999999981742 0.1726190476194705 0 0.17261904761971569 0.50000000000021494 0 0.82738095238054699 0.49999999999982031 0 0.50000000000021227 0.82738095238030207 0 
</DataArray>
</Points>
<Cells>
<DataArray type="UInt32" Name="connectivity" format="ascii">
1 13 9 0 14 11 1 10 13 0 4 14 2 8 15 2 15 7 3 6 16 3 16 5 12 14 17 12 13 18 12 18 14 12 20 13 12 17 16 12 19 15 12 16 19 12 15 20 4 5 17 6 7 19 10 11 18 8 9 20 10 18 13 8 20 15 4 17 14 6 19 16 11 14 18 9 13 20 5 16 17 7 15 19 
</DataArray>
<DataArray type="UInt32" Name="offsets" format="ascii">
3 6 9 12 15 18 21 24 27 30 33 36 39 42 45 48 51 54 57 60 63 66 69 72 75 78 81 84 
</DataArray>
<DataArray type="UInt32" Name="types" format="ascii">
5 5 5 5 5 5 5 5 5 5 5 5 5 5 5 5 5 5 5 5 5 5 5 5 5 5 5 5 
</DataArray>
</Cells>
<CellData Scalars="pressure_p0,piezo_head_p0," Vectors="velocity_p0," Tensors="">
<DataArray type="Float64" Name="pressure_p0" format="ascii">
2688.1932073342159 1459.3376152622986 1375.6884239662331 2913.1788821004893 2688.1932102234682 1375.6884276393182 1459.3376242788117 2913.1788903822962 4700.3697064862135 3910.5956168800622 3990.9336851932694 4453.8239884729974 4700.369706961279 3910.5956351607674 3990.9337018335036 4453.8239965373805 4780.0278620996178 874.20425118600383 874.20424332656523 4339.4121340936217 2178.5246334753247 4120.0873309955214 4490.2097536381589 2258.2198577269855 2258.2198342563643 4120.0873304169227 4490.2097634686488 2178.5246421301908 
</DataArray>
<DataArray type="Float64" Name="piezo_head_p0" format="ascii">
2688.1932073342159 1459.3376152622986 1375.6884239662331 2913.1788821004893 2688.1932102234682 1375.6884276393182 1459.3376242788117 2913.1788903822962 4700.3697064862135 3910.5956168800622 3990.9336851932694 4453.8239884729974 4700.369706961279 3910.5956351607674 3990.9337018335036 4453.8239965373805 4780.0278620996178 874.20425118600383 874.20424332656523 4339.4121340936217 2178.5246334753247 4120.0873309955214 4490.2097536381589 2258.2198577269855 2258.2198342563643 4120.0873304169227 4490.2097634686488 2178.5246421301908 
</DataArray>
<DataArray type="Float64" Name="velocity_p0" NumberOfComponents="3" format="ascii">
-5.8088258169414453e-11 -7.0173629008615102e-12 0 -8.5537476755752868e-11 -5.0956530755284595e-13 0 -8.0192885338251964e-11 2.4766867937168663e-12 0 -6.40472997574421e-11 7.6572653549461029e-12 0 5.8088258104850124e-11 -7.0173629214131453e-12 0 8.019288548806289e-11 2.4766869326291315e-12 0 8.553747711649962e-11 -5.0956568640897962e-13 0 6.404729980130763e-11 7.6572653390056314e-12 0 -1.003457311998712e-11 4.3479211842433679e-12 0 -4.5818265220909423e-11 1.1917476945894968e-11 0 -4.8335011839863515e-11 -4.7712957074560009e-12 0 -8.8757926655935876e-12 1.7352849926410223e-12 0 1.003457306561594e-11 4.3479211135111505e-12 0 4.5818265273465455e-11 1.1917477013340918e-11 0 4.8335010875572164e-11 -4.7712961373548596e-12 0 8.875791886829892e-12 1.7352854562376617e-12 0 -7.0389921187379985e-19 7.9106350988619254e-12 0 8.9945473509868133e-11 1.7741269664127078e-12 0 -8.9945472703605122e-11 1.7741262368028435e-12 0 1.8967789113239084e-19 -6.7457316546621813e-12 0 -7.335840844986872e-11 -4.8240754662523974e-12 0 4.0321754408890305e-11 8.2964081042019587e-12 0 -4.3987254866501857e-11 -5.2667887355871728e-12 0 7.4191873474495893e-11 6.6633643613596856e-12 0 -7.4191873154984766e-11 6.6633647245368313e-12 0 -4.0321754562617661e-11 8.2964076912141791e-12 0 4.3987255032597566e-11 -5.2667879338033969e-12 0 7.3358409079374725e-11 -4.8240754589064616e-12 0 
</DataArray>
</CellData>
</Piece>
</UnstructuredGrid>
</VTKFile>
