<?xml version="1.0"?>
<VTKFile type="UnstructuredGrid" version="0.1" byte_order="LittleEndian">
<UnstructuredGrid>
<Piece NumberOfPoints="21" NumberOfCells="28">
<Points>
<DataArray type="Float64" NumberOfComponents="3" format="ascii">
0 0 0 0.49999999999981742 0.1726190476194705 0 0.33333333333250248 0 0 0.29166666666652658 0.2916666666668038 0 0 0.33333333333472032 0 0.17261904761971569 0.50000000000021494 0 0 0.66666666666759111 0 0 1 0 0.33333333333472032 1 0 0.29166666666684449 0.7083333333334445 0 0.70833333333346027 0.70833333333323512 0 0.66666666666759111 1 0 0.50000000000021227 0.82738095238030207 0 1 1 0 1 0.66666666666578889 0 1 0.33333333333250248 0 0.82738095238054699 0.49999999999982031 0 1 0 0 0.66666666666578889 0 0 0.50000000000004996 0.49999999999997519 0 0.70833333333327586 0.2916666666665107 0 
</DataArray>
</Points>
<Cells>
<DataArray type="UInt32" Name="connectivity" format="ascii">
0 3 4 0 2 3 2 18 1 2 1 3 19 5 3 19 3 1 4 3 5 6 4 5 6 5 9 7 9 8 7 6 9 8 9 12 19 9 5 19 12 9 19 16 10 19 10 12 11 12 10 11 8 12 13 10 14 13 11 10 14 10 16 15 14 16 15 16 20 17 20 18 17 15 20 18 20 1 19 20 16 19 1 20 
</DataArray>
<DataArray type="UInt32" Name="offsets" format="ascii">
3 6 9 12 15 18 21 24 27 30 33 36 39 42 45 48 51 54 57 60 63 66 69 72 75 78 81 84 
</DataArray>
<DataArray type="UInt32" Name="types" format="ascii">
5 5 5 5 5 5 5 5 5 5 5 5 5 5 5 5 5 5 5 5 5 5 5 5 5 5 5 5 
</DataArray>
</Cells>
<CellData Scalars="pressure_p0,piezo_head_p0," Vectors="velocity_p0," Tensors="">
<DataArray type="Float64" Name="pressure_p0" format="ascii">
0.0018763168115546519 0.0017967726054697085 0.0013420152469238895 0.0015818506361521191 0.0016810715460701044 0.0014948066270825586 0.0018699948101591102 0.0019315333427668089 0.0018853740516390908 0.0018347521196242019 0.0019093097009191904 0.0016119780317891119 0.0016886446449642979 0.0015105776010336822 0.00093558070956714862 0.001213349892677859 0.0010812534739439721 0.0013682070396099882 0.00029822276945796024 0.00062616616007668449 0.00047060697995110972 0.00017804878962969574 0.00046909759236138566 0.0006190063495022021 0.00029629771420054468 0.0010656350471478795 0.00093277253630863889 0.0012024887884187463 
</DataArray>
<DataArray type="Float64" Name="piezo_head_p0" format="ascii">
0.0018763168115546519 0.0017967726054697085 0.0013420152469238895 0.0015818506361521191 0.0016810715460701044 0.0014948066270825586 0.0018699948101591102 0.0019315333427668089 0.0018853740516390908 0.0018347521196242019 0.0019093097009191904 0.0016119780317891119 0.0016886446449642979 0.0015105776010336822 0.00093558070956714862 0.001213349892677859 0.0010812534739439721 0.0013682070396099882 0.00029822276945796024 0.00062616616007668449 0.00047060697995110972 0.00017804878962969574 0.00046909759236138566 0.0006190063495022021 0.00029629771420054468 0.0010656350471478795 0.00093277253630863889 0.0012024887884187463 
</DataArray>
<DataArray type="Float64" Name="velocity_p0" NumberOfComponents="3" format="ascii">
0.00021363806450086127 -0.00018053912227714676 0 0.0010761193278121626 0.00020429936474888183 0 0.0020567075219299876 9.2712156412081803e-05 0 0.0014745829350254814 -0.00011618738606126869 0 0.0014260433753234783 -0.00019334783174838972 0 0.0019871819050197971 -4.610523810238829e-05 0 0.00083266241802725622 0.00011686192407133297 0 0.00013314483760595397 -6.2044669443503945e-05 0 0.00083180356036946707 -0.00023384601503434048 0 0.0010950395625209481 -0.00023550979962017716 0 0.00023265116043577887 9.1837505257280237e-05 0 0.0015363971907317914 6.7062314482078727e-05 0 0.0014458775239821245 8.9059888339889878e-05 0 0.0020128341510185928 -4.657227852885421e-05 0 0.0026442947506034285 5.9319959405073675e-05 0 0.0022477811135633604 -4.4585262827055564e-05 0 0.0026043592982739148 4.0765217988316099e-05 0 0.0021164741335968295 -0.00010267281348728588 0 0.0030340723733516231 7.1033997528685327e-06 0 0.0028031713834845221 -8.0535052545378273e-05 0 0.0029053049227812378 -6.8177219709527584e-05 0 0.0030853333699993029 -5.8581998536970381e-06 0 0.0029003026718219692 6.3862726719940009e-05 0 0.0027523703685915449 8.2117437043047301e-05 0 0.0030085067200577012 -2.0890583946781634e-05 0 0.0025498853022889478 -8.4093560798868534e-05 0 0.0026151217753467544 -0.00010588055424278549 0 0.0022141969713461189 3.5483624034866965e-06 0 
</DataArray>
</CellData>
</Piece>
</UnstructuredGrid>
</VTKFile>
