<?xml version="1.0"?>
<VTKFile type="UnstructuredGrid" version="0.1" byte_order="LittleEndian">
<UnstructuredGrid>
<Piece NumberOfPoints="568" NumberOfCells="1054">
<Points>
<DataArray type="Float64" NumberOfComponents="3" format="ascii">
0 0 0 0 1 0 1 1 0 1 0 0 0.049999999999899652 0 0 0.099999999999814668 0 0 0.14999999999970359 0 0 0.19999999999955789 0 0 0.24999999999941211 0 0 0.29999999999926641 0 0 0.34999999999912063 0 0 0.3999999999989749 0 0 0.44999999999882923 0 0 0.49999999999869432 0 0 0.5499999999988151 0 0 0.59999999999894682 0 0 0.64999999999907843 0 0 0.69999999999921003 0 0 0.74999999999934175 0 0 0.79999999999947335 0 0 0.84999999999960507 0 0 0.89999999999973679 0 0 0.94999999999986839 0 0 1 0.049999999999899652 0 1 0.099999999999814668 0 1 0.14999999999970359 0 1 0.19999999999955789 0 1 0.24999999999941211 0 1 0.29999999999926641 0 1 0.34999999999912063 0 1 0.3999999999989749 0 1 0.44999999999882923 0 1 0.49999999999869432 0 1 0.5499999999988151 0 1 0.59999999999894682 0 1 0.64999999999907843 0 1 0.69999999999921003 0 1 0.74999999999934175 0 1 0.79999999999947335 0 1 0.84999999999960507 0 1 0.89999999999973679 0 1 0.94999999999986839 0 0.94999999999979179 1 0 0.89999999999958358 1 0 0.84999999999965292 1 0 0.79999999999999982 1 0 0.75000000000034661 1 0 0.7000000000006934 1 0 0.65000000000104008 1 0 0.60000000000138687 1 0 0.55000000000173355 1 0 0.50000000000205869 1 0 0.45000000000187229 1 0 0.40000000000166441 1 0 0.35000000000145642 1 0 0.30000000000124832 1 0 0.25000000000104028 1 0 0.20000000000083221 1 0 0.15000000000062411 1 0 0.10000000000041601 1 0 0.050000000000207989 1 0 0 0.94999999999979179 0 0 0.89999999999958358 0 0 0.84999999999965292 0 0 0.79999999999999982 0 0 0.75000000000034661 0 0 0.7000000000006934 0 0 0.65000000000104008 0 0 0.60000000000138687 0 0 0.55000000000173355 0 0 0.50000000000205869 0 0 0.45000000000187229 0 0 0.40000000000166441 0 0 0.35000000000145642 0 0 0.30000000000124832 0 0 0.25000000000104028 0 0 0.20000000000083221 0 0 0.15000000000062411 0 0 0.10000000000041601 0 0 0.050000000000207989 0 0.50333998054938722 0.50119715791968966 0 0.70252050881959183 0.70358884261915833 0 0.29641115738084339 0.70252050881958938 0 0.70358884261915744 0.29747949118041561 0 0.29747949118041711 0.2964111573808435 0 0.50000000000002642 0.7803135888501761 0 0.2196864111498267 0.50000000000003153 0 0.78031358885017377 0.49999999999997569 0 0.49999999999997108 0.21968641114982909 0 0.8289812646369813 0.82898126463698818 0 0.17101873536300011 0.82898126463696109 0 0.83199780613337848 0.1690131600686714 0 0.16901316006868169 0.16800219386663079 0 0.56566515596461675 0.63670464971409091 0 0.35984320557492089 0.56698606271778873 0 0.640156794425081 0.43301393728221721 0 0.43301393728221038 0.35984320557492139 0 0.63969251517836323 0.84598529912890386 0 0.1540147008710982 0.63969251517836956 0 0.84598529912889664 0.36030748482164038 0 0.3603074848216346 0.15401470087110539 0 0.84598529912884157 0.63969251517827153 0 0.36030748482174152 0.84598529912882459 0 0.63969251517826664 0.15401470087115929 0 0.15401470087117619 0.36030748482174652 0 0.4434591735942961 0.66641640622551224 0 0.66548584431530877 0.55616712808283064 0 0.33382663527330159 0.44130125047503482 0 0.5586987495249669 0.33382663527330653 0 0.53432142347292233 0.88563193847251998 0 0.1143680615274819 0.53432142347292733 0 0.88561059063756964 0.46572761956237563 0 0.46567857652706018 0.1143680615275231 0 0.74198804864688339 0.90892718720327403 0 0.091072812796719582 0.74198804864687795 0 0.89586000931544074 0.25714619498770419 0 0.25714619498771307 0.1041399906845497 0 0.88949062093135778 0.73694585442531257 0 0.73688246401832591 0.11047754041323141 0 0.26305414557470391 0.88949062093136155 0 0.1104775404132264 0.2631175359816938 0 0.59819537371016407 0.74380966024143391 0 0.25619033975856881 0.59819537371016862 0 0.74380966024142703 0.40180462628984132 0 0.40180462628983732 0.2561903397585753 0 0.74417394063200648 0.6049203001048884 0 0.39507969989512881 0.74417394063201048 0 0.60492030010488373 0.25582605936799729 0 0.25582605936799319 0.39507969989513358 0 0.90045039720880915 0.9020090423547924 0 0.90082758526900886 0.098076845682916511 0 0.097990957645208238 0.90045039720880915 0 0.098076845682915317 0.099172414730993488 0 0.43590673999053309 0.90289902042279657 0 0.097100979577207341 0.43590673999053198 0 0.90289902042272274 0.56409326000946114 0 0.56409326000946236 0.097100979577281268 0 0.73982803480991577 0.79629608696991705 0 0.20370391303007401 0.73982803480989479 0 0.79629608696994103 0.26017196519011448 0 0.26017196519013502 0.20370391303005 0 0.77998481823117694 0.71397317153691997 0 0.28602682846308641 0.77998481823117594 0 0.71397317153692708 0.22001518176882201 0 0.22001518176882229 0.28602682846307981 0 0.49189101320880302 0.59024331187324797 0 0.57387636360620708 0.54318431390135336 0 0.41009598069569558 0.49083935749285379 0 0.54901591374940373 0.42306523525165751 0 0.6519524273377173 0.64249931920594539 0 0.35944937237716967 0.65164789808436319 0 0.6424993192059415 0.3480475726622802 0 0.34804757266227387 0.35750068079406011 0 0.81709574086843206 0.91318696080656769 0 0.086813039193431391 0.81709574086842884 0 0.91838802593870927 0.18172590289757809 0 0.18172590289758209 0.08161197406129285 0 0.91838802593884228 0.81827409710237209 0 0.82118136511706341 0.082875076569723011 0 0.1817259028976386 0.91838802593888857 0 0.08287507656968085 0.1788186348829835 0 0.51484304721220842 0.69707233951836334 0 0.30292766048163949 0.51484304721221474 0 0.70015119067225129 0.48481914991727459 0 0.48378871228000903 0.29745177826977359 0 0.60938371359314658 0.91847489683800321 0 0.081525103161997597 0.6093837135931508 0 0.91890123454466932 0.39094742729597309 0 0.39061628640684498 0.081525103161991672 0 0.92670321183853355 0.65773042910151081 0 0.65773042910151891 0.073296788161472337 0 0.3422695708985129 0.92670321183858773 0 0.073296788161418117 0.34226957089850552 0 0.43087117257049001 0.8215422551712771 0 0.8215422551712277 0.56912882742954496 0 0.17845774482872559 0.43087117257049429 0 0.56912882742954041 0.17845774482877461 0 0.46102425708533701 0.43254199134332588 0 0.56759263990989184 0.81794319034601648 0 0.18205680965398621 0.56759263990989739 0 0.81794319034597418 0.43240736009009317 0 0.43240736009008851 0.18205680965402779 0 0.66820316019503978 0.77769800602796979 0 0.22230199397202771 0.66820316019503168 0 0.77769800602796679 0.33179683980497482 0 0.33179683980498331 0.2223019939720311 0 0.67757268808231397 0.93106206656183088 0 0.068937933438162791 0.67757268808231053 0 0.93106206656185309 0.32242731191769503 0 0.32242731191769902 0.068937933438140794 0 0.43565339604028508 0.55159384357101338 0 0.58981073711177334 0.48140931020849848 0 0.49854341599767982 0.37075914768127122 0 0.44764943295894188 0.73752415265401661 0 0.73752415265401194 0.55235056704108476 0 0.26247584734598628 0.44764943295894732 0 0.55175647814720108 0.26104505532086641 0 0.39419886675318527 0.41912225240070788 0 0.48669777060454272 0.93510666819646593 0 0.064893331803534807 0.48669777060454478 0 0.93510666819640953 0.51330222939551939 0 0.5133022293955174 0.064893331803591428 0 0.40653508887824003 0.61580573377480397 0 0.49771727055908782 0.83998685797641781 0 0.16001314202358469 0.49771727055909287 0 0.83998574657308889 0.50228528270184081 0 0.50228272944093777 0.16001314202359701 0 0.70085728320704077 0.84350379029875056 0 0.1564962097012354 0.70085728320703999 0 0.84350379029877964 0.29914271679296989 0 0.29914271679297122 0.15649620970120659 0 0.839908789927305 0.77106070975262608 0 0.22893929024737289 0.83990878992727813 0 0.77216325087772952 0.15899695163319821 0 0.15899695163321451 0.22783674912227669 0 0.76395804595204597 0.67808171673060369 0 0.32191828326940508 0.76395804595204586 0 0.67808171673060202 0.23604195404795861 0 0.2360419540479583 0.32191828326940741 0 0.64518564541690571 0.69601563325001548 0 0.30421635384321521 0.64514939193436716 0 0.69601563325001248 0.35481435458309712 0 0.35481435458309307 0.30398436674998969 0 0.61233489393901674 0.60846740003560018 0 0.60122390529523662 0.39097801071820221 0 0.93946948561981514 0.60485373571037115 0 0.6048537357103756 0.060530514380187868 0 0.39514626428973221 0.93946948561985189 0 0.06053051438015096 0.39514626428972788 0 0.64455163611866495 0.50369301794551069 0 0.94156647488778256 0.058433525112256718 0 0.058433525112266523 0.058433525112214509 0 0.94156647488775558 0.94156647488774259 0 0.058433525112254137 0.94156647488774581 0 0.77688977118331393 0.94706199857866258 0 0.052938001421335763 0.77688977118331159 0 0.94465622530468663 0.23167460333446291 0 0.23167460333446299 0.05534377469531044 0 0.9442075111696665 0.76777356182390766 0 0.76543419162344684 0.056452228708420968 0 0.23222643817617661 0.94420751116970569 0 0.056452228708379938 0.23456580837661581 0 0.78284912262770068 0.83746308049763585 0 0.16253691950235041 0.78284912262768558 0 0.84534053180161173 0.2262639405833009 0 0.22626394058331961 0.15465946819838111 0 0.55307204985744796 0.94819812235491685 0 0.051801877645083663 0.55307204985745195 0 0.94812782820415209 0.44708943904932719 0 0.44692795014265252 0.051801877645060238 0 0.85607519768343354 0.69380468830529196 0 0.69379929796456197 0.14392209494791061 0 0.30619531169472608 0.85607519768342955 0 0.14392209494791439 0.30620070203545702 0 0.51172471858873747 0.64015771271794875 0 0.35815651743779398 0.51113440447909086 0 0.57051182622447827 0.69668652018496713 0 0.30429740679959738 0.56913905146460098 0 0.69595787604187809 0.43071000156707989 0 0.43059486795334201 0.30395973419063538 0 0.54465502325161819 0.74717983044080061 0 0.25287139441262568 0.54458355434492378 0 0.74730218607442667 0.45539100053644521 0 0.45533136021725079 0.2525687312087147 0 0.86696410734367158 0.94753096683315619 0 0.052469033166843738 0.86696410734366991 0 0.94100406608115506 0.1383574446607955 0 0.1383574446607988 0.058995933918849157 0 0.94095916274074942 0.861652780
[...]
<CellData Scalars="pressure_p0,piezo_head_p0," Vectors="velocity_p0," Tensors="">
<DataArray type="Float64" Name="pressure_p0" format="ascii">
8354.9113288559965 6935.704524336843 7218.8658834762064 9434.9410295056114 8370.1637203277314 8143.8045588790847 8559.7493008139063 8630.5082957031991 6327.2036926216088 1897.9327486880366 2344.6142425541543 7677.1204964492626 3256.464460915312 394.94775459703743 469.52964040359882 3255.9362274773835 3925.8939979734437 395.15711801412607 469.35778632331323 3927.1583734409551 1083.7097321554679 6478.6140158844937 5254.4409567202138 956.23172429491376 939.59243174946357 6493.30282009659 5367.8742867383662 1092.3038022018677 8476.2429976278854 5451.0459563305776 5487.8116105691988 9882.0776717220797 5771.5666586982015 525.29067838745141 631.340785120296 7043.9832765359206 553.48688246964434 7065.1552435747226 5831.9001790986822 643.90563061836633 1083.874748123995 7700.3643924843109 6363.6569538343629 1239.3394941166866 3802.60085560061 4624.095187057881 8336.3768258159198 6468.2568313340071 6742.2561168010589 9522.4890574337296 3544.6296912265329 908.74184568842043 1107.7206400525392 3588.1825504441158 4283.593969251674 973.31867376819741 1154.79716977673 4327.5706853212414 4025.7481941431283 7193.5830422107965 3492.4235863262934 6052.4697665536387 6728.367614944902 2343.2611131151784 2816.0988723020246 8077.0755462548032 9432.0613383819364 2422.6375072452511 2598.1318274675396 7854.859531738537 8443.3114591052436 4939.4501601364527 5009.0949606687318 9914.5047992721738 4004.5517650923448 4094.6677188142285 4721.1012240705786 4843.6574099450063 4212.2185569347785 6616.6141089590456 4483.3076090022014 5479.3653733498877 7655.5410776249882 6389.7066590453041 6965.1140413689791 8734.5135012092614 6445.4117218546617 2452.0749995610627 2157.462865781009 7766.8837257725081 5579.7707946079199 3598.1021085375623 7909.814129630804 6535.950110867675 7035.7073494721717 8999.796882779423 8722.2631260168928 1059.0800038603793 9828.039360142282 8143.9682401246901 1111.8134723600597 8340.1212502004582 2148.3454422884797 2094.2629806461464 10030.449037165279 8713.2829451165653 534.97760309606781 8133.7833108080195 6729.6104731753276 602.43966345951185 3824.9367769692817 8276.1431402934468 9835.6753138744625 3972.435760332256 3488.5342114257937 9690.7690875781209 8131.02861309949 3673.1899097955911 7140.6336591960571 8252.7688522841709 9256.7635425140288 7504.6696928465844 8507.9371743080392 7221.743278721382 7378.6310003738145 9548.0836386684059 2011.3136976203073 6314.1771735694747 5139.3114923681369 1800.9493820095852 1735.3688467467159 6302.0385320667929 5244.6903848141919 2035.0628779166561 8379.4395835530304 6920.3939232897192 7195.1893038733033 9466.7996891906459 5256.1102433588967 7029.3182817542674 8189.8408297709393 5856.8950585228649 4681.8018774882621 8355.9431227178411 7109.7380538971611 5198.1138231557497 7448.7095305354997 7958.5788906842336 8807.7456535897218 8022.2481056884226 7579.6394589206502 7339.1667918110652 4311.7648158373231 4318.126067740609 4697.8640320253644 4754.3425237042484 8954.9472011004855 8669.0259707363803 8713.501605392019 9215.0010590475304 8387.1207605943709 2794.3765079976047 2748.3831690045913 10052.931439509157 8733.4581317949105 8658.5582102093467 9195.4538884884678 2937.9613543897631 7682.965021574093 3182.4040550586569 4874.3521891831033 5349.6584465796032 6197.6317059236171 5639.0841463331217 5027.0057954073945 7779.1322907253598 9106.6684281297767 5428.5357264855875 8199.0633525398152 5963.0478609759793 2495.8118711476063 5471.2907319182596 2450.3385155805922 5889.7047599434736 5281.4738794495715 5133.95497057178 4878.9296162717637 5792.55354947458 5535.2543658760751 6946.4284685063103 6250.1433432806589 2434.6801517765953 2296.6234613819984 2915.1170008158902 1908.6499704152659 1924.5907215411476 2902.8118096220096 2284.3111960818142 2418.7995323670657 2665.1997498494866 8097.9027730446123 9709.4717689845365 2810.4939867853641 8000.2760033494305 7693.0100569452297 8298.1049828329706 8770.6942151838448 446.83928915640411 9954.4724874982621 8240.8039452997873 464.56060782137718 1152.6002582935805 2362.3584392935877 2362.0773250024836 965.01727968882972 1968.4377513141503 964.40291802371723 1152.7399691500309 1967.5604755069512 8262.4005773148838 950.42459078833724 987.79715953992604 9973.857217813691 6146.7065570054765 4911.7360057759452 6669.7814557463817 4602.1145301292127 5264.1360191354706 7871.4649364918341 8434.0933238580365 3824.0048882132905 3837.6922192259253 10028.66657123543 2889.8674199928964 6844.8685186986631 8213.1133463477927 2579.88229441159 5744.9432551502969 7277.2632258827543 8409.301748045953 6354.0161020855039 4226.447159412879 5236.6685038615178 7868.6106083566319 7765.9865454706705 6183.8490329950682 7136.6705762638476 8170.1260893412309 6880.4022030721544 3112.1050805291361 1853.8431070235069 2296.6070783100236 1932.2588232004518 3744.5413042856994 3776.8390353995383 3142.8565509857663 2238.5452584730028 9108.1836375287348 9300.4348289804293 8056.5600145537383 8472.8806571999448 5438.5817775763435 5402.5610461807191 9886.6275885033938 6835.5806449151896 3743.0914399604844 4298.296604326677 8145.5047986512582 7022.1882391705822 8027.1832552081851 9023.4564893411807 7509.7682319247324 4123.365794713819 7523.5305911733867 6366.4304554150694 4671.0465215232525 8424.8417137887227 8723.6643450016109 8723.1659940167701 8520.5101664790345 8483.2803967407817 3970.7213197717492 7117.0841785714347 8506.6456274701068 6273.3717344074121 1007.2730970935679 1196.219593381817 7647.1194397613544 2036.7714722257519 9883.5677987136041 8216.0892673218332 2123.7706571789959 8550.9250133316109 9353.0159223771916 9475.4261234914447 7834.8099720625032 447.48501114554858 481.24817388708749 9467.7541802056639 6179.2677554465163 6059.5700075307541 6915.6609821858883 7069.9670930805623 1063.1246265861628 1645.862733056819 1645.608495175389 1063.2826958665873 890.19540676513441 1374.7155654929127 1355.6056814058522 870.94949751511695 2592.5015561682153 3600.5597513314128 2432.1584730988652 2884.9949962258052 4292.796969252282 5165.424531617311 3092.1447389690788 4330.0122206078586 8554.8434886410123 9097.3184934656892 7792.443293753915 5537.3554145956068 5982.0065312279585 9048.0470055854785 8606.9663332074979 8382.1641651000682 8259.7985509048649 8425.3492076776056 4228.8961991719734 4285.5990301241236 9977.3546674650061 8196.0147880137592 7490.0188793122161 7743.8407596525922 8534.9761733458017 8172.4818554217854 6902.417010035897 5119.6102744342461 5731.1768620528928 8060.475955998807 9068.7969227947779 6206.447898260787 4635.2277624867893 5288.1257255224609 7394.0901007918001 8490.6856655151078 4585.5675113573316 8805.4272585323524 7478.6555605088151 5020.5292808820732 5701.5655701011628 5880.612799058199 6780.5184145125959 6514.9779985660953 8667.1866406911722 8965.7314238659601 8736.3109464559566 6922.0587594537392 7310.3124666486592 6591.8111679996346 7403.0661182938711 8218.029419595412 7664.2857532206126 8400.0337067794226 7266.1137182784587 6614.2056702153332 3161.2635580821579 3806.9448486615188 7913.019645977306 8029.2028800147655 7803.7368258667557 6276.4648838099311 6033.040201694288 6703.2606247959175 6522.6979902193343 9192.9567211716094 8976.3461873930428 1680.3306876823774 9406.1893568592222 7805.7439794915999 1808.7697087198826 7759.0691728372221 7623.8567631390551 8298.2167096015637 8524.3975179025729 6618.7292195155278 6117.8958987890073 6915.3677021396725 7580.1342185066505 8648.361825824064 9883.242720461014 441.14500381818732 420.52307344668282 8180.1168959491715 470.12812468821369 2831.0065018491537 2353.0735109225297 394.51007059944197 394.73369603278161 2830.4080967835139 2352.3746833696378 470.23473981680081 4003.8478725216901 8036.0191606459011 6782.911405087435 4489.9365518948389 8547.2398124321207 7043.3215806363078 7089.5005744527025 9653.1889600922168 8154.5369770299731 9239.7121352681261 8890.4755326486411 7771.4882849465212 5008.8514595413835 5410.3462617625137 9099.6407883098309 7991.4928316568621 865.64873421757875 920.85755164230591 9651.0053401258629 8039.6036155892871 8892.9424040870908 8412.0583774927982 7783.567630149596 8163.9414664547585 9217.3801611983872 9618.8959741366343 951.58567411136573 1014.55958222787 7967.0070807777356 8521.491577587949 6552.370601568573 6592.6616438501351 9736.4723774106969 8198.1937386861282 6336.281602487632 6012.7553101266731 9445.7118752663064 6255.5145559261891 6822.7343908295134 7793.5021794561435 7032.2925775669128 8784.2833154874097 8877.4498520674879 7689.6410005961625 5509.2793380826479 5982.7321282016974 8931.5140263382727 4867.6722307209602 6146.0103773370211 8499.3440451696151 8537.7980032662326 8343.4733567677322 8315.5961884031876 3937.2721518893609 4508.2581210786184 4053.3523328073134 4668.6625238745992 9907.6821076320539 9812.2895866274139 7173.9225836091846 3604.4339300334482 4013.0886513116907 8535.6123598470513 4939.1619749059182 6269.179469849244 7317.3345388518601 5601.0019207763289 4363.4610969457699 7429.2618257393597 8433.6674619823698 4856.0921721130471 4783.2171231741368 9923.3099425010732 8644.4816647513744 7941.1616274669386 7937.703242930439 4226.6664118071103 4517.8965765945459 9391.4004586504088 7967.2979826075543 8800.2989495942311 9045.47579982147 8080.3383089510316 4034.8462706231048 4269.1471472814828 9580.9263867739865 8309.0615492071847 8380.5154598020636 5044.024757285626 4906.966886807556 9841.7916762798923 2939.7055070507076 2721.8697666471726 7194.0973179710309 6609.2983224189002 8961.5303075362481 4596.6886280971949 5462.1673182072664 6188.8073908612823 5947.5273356157231 3271.7287129748524 3886.6084809366403 6635.2729083973582 2696.7336306671673 2277.3771470473357 5532.7182444568634 7282.0095652947057 2966.0598531019432 2551.5173663525002 6061.0347868470399 6908.3266700908152 6645.1904633294544 6861.941066362222 6642.8009019352212 7705.2107138685687 7511.5522305494169 7765.499182942187 7513.1705633786169 3409.6809924200761 6946.6340841529181 8281.3922501067591 3805.0091664486563 8870.0566878289992 8102.5598980477089 7797.7883027115458 5137.5830068093264 4318.6406137243011 4225.8137648598968 6578.7437220153952 4200.8832459487621 2792.3900527670517 3673.8797100126453 9225.9148024743281 7754.956495756308 3967.6893489386102 5592.7131456841316 3718.4065932025023 6695.8775715901947 485.28057936074759 570.97722780903268 8102.0337554360285 8354.0847308523553 918.49382532807567 939.47357027808494 10085.338909624032 9371.3266978392821 3024.0412305804221 4701.1629117189068 8903.0864480807031 2247.6870913669832 1933.812145992913 4198.0797724326785 948.84512097990546 4550.8749470327284 1762.9223075963214 2034.5970406496626 5401.746743527985 4296.9817769097044 968.40199385630012 1088.6697622802501 5135.4362155639028 1139.4165521679774 5186.3395402029664 2068.6659803697621 5480.404601604484 8602.0701089470749 8901.3840369809041 8156.4618858583053 8291.1644313523066 8925.8127719302975 9363.7545984523731 3960.4001282172458 8899.9088430728407 7503.2039436436407 4329.2551259662114 8509.2848860514914 8249.1684186123439 5485.1749969248367 5742.735872137675 9599.3561086039772 4172.5845328854011 1793.7923083976307 4570.2275787328563 2121.5330759823073 5394.3414989302246 6603.2283299367155 7662.549894756371 6077.8937924557849 9171.802209833997 8993.8453606809344 4701.9847783121459 3261.3534381568757 5199.1223122959682 5849.8759344015143 6765.9886609666455 5961.5117658463632 7726.6615401119543 7574.475852530757 9279.1882865505031 9190.2481371955255 8241.3508078187424 8140.0750591346605 1839.1363065553539 2123.9700094415466 9922.4599182045422 9788.4131498378174 8616.9371259827203 8073.7906540168733 8625.1748484902892 7884.4761256345992 3561.9163214123937 2300.9273507088665 5003.2207051882779 2611.487471890795 7039.422813989564 2140.2771339840642 2427.156471665035 8469.5181813806721 8343.3486221410312 6433.0752904925857 6697.1043142255094 9537.0086108793803 8625.1782197649991 8279.872746609497 7116.3384919891387 7487.9223810868125 9292.7753961203543 8482.0551730771058 6102.7940807484556 6196.5227678233841 9774.8501303450685 8551.5788313496305 7612.1182173143143 8523.0653240403244 7823.0498707819761 8050.4558093268524 3281.2220788041705 3471.3102321339493 9610.7385509240557 10097.522111985141 1446.0846553928129 1419.4769001088082 8374.1390435527519 8389.6098274380693 5091.4687629073287 5229.1602127615843 9828.7515413465298 8915.0262134865461 6870.8062891739464 5776.8664629115274 6478.37815868092 7929.3766580894135 8175.7263885409457 8001.1944283139401 5188.3082150018472 4930.367338229199 4711.5256311732664 5020.6166893157169 9591.3068902919877 9410.8813760528974 7742.2293476249069 8947.5075506682952 8172.0390983034749 3393.0710130641846 3474.2811037509091 4047.6346336652032 4153.0381112970563 8273.9617404937326 2239.888494165788 8663.755941219375 7205.4817788957562 2477.2830126045383 8823.0695752153151 7869.9758249311999 858.35659142379279 8588.793332351448 7108.2570114858236 954.68199105881627 8224.3345855197895 8183.4245201202139 6085.3810309982255 5584.332123640329 6421.6675180679613 5860.2868481146515 9415.0480137886607 9553.8503567158441 7970.1421511217468 4904.7364720046371 5237.9532736113615 9349.8566108239847 8297.6892161582182 3306.3682471104476 3140.3827737908896 9906.6323793431693 8169.4590873763973 2980.0775846794741 3440.0285923024148 9775.0570543825561 8214.7998988477393 4560.48274849053 4777.2845188596802 9684.6746642905073 5950.249407901003 6542.002340161197 7511.5947166578335 6725.6757301020452 5484.0406811813082 8373.8244434568387 9750.9739067134542 5660.0059002459093 1588.3659335665157 8793.323556794443 7291.9869593779786 1751.2450475728481 8605.6575997117634 7722.3586682882478 8416.4683340587035 3048.5511853510652 3077.5820146559654 10069.658298191425 8834.9436428922527 5228.9635972416754 3174.3168095562451 3695.3819170799525 2950.0641689779495 5128.3546681601592 3351.7024867893924 8154.0972339404534 5148.3288039075342 5429.1927924736283 9536.3425431275646 3596.6212211821717 5628.0400912380146 9048.7044897180167 9094.808402333616 7392.4421117637203 7173.1766218024186 7919.0879517961766 8243.9708167623849 9054.0961833430611 8418.3380511614141 2580.7651174887533 2582.9648931654247 10101.946604962843 8440.7440132966549 8316.4675330805803 8726.7707901187641 4717.8019748914248 434.2811309679845 454.51287221845052 5766.1041174463571 389.13589566292421 5756.9307273407794 4770.7309485193473 450.53428641196103 7632.3405146596451 7233.188511953038 7907.4277381927895 8501.9058326358954 8426.8600607736516 4127.1370052338052 4081.3149433316939 9994.8137529451014 7242.7630855542047 7469.2928898387154 8308.1881822922642 7983.1901377087033 1395.3494183592366 9151.7983575799117 1519.0168931521102 7585.8613017584394 323.80369050967704 8909.0943560871201 7369.2721391695904 356.61528192568363 364.32971997921561 7838.2520633484892 9473.3130314575756 339.00655308701812 4380.5468097993698 2854.7724928799821 4333.6332735756932 3531.924650491801 8089.2107967633492 7973.9058981032522 6823.6632363483614 7057.4806495368421 7275.2361932874574 7587.5937473626818 9141.2325651723986 8943.9362695404325 4618.4823677462873 3984.2157416337177 4527.811537634946 8286.868617135151 9775.7223010401885 4706.6227878443033 9354.7006714429863 9312.5955227540198 7960.7115324787474 3975.0262314905021 4242.6747382499179 9443.8159240833047 8402.8158652002512 8104.6773052484086 7442.3051384949413 7975.4948193318396 8979.0305909999261 8015.7019168735478 6003.7250767364085 6411.3770646875746 9230.7752174927427 9021.3426128631036 9437.1968595181952 8875.0901014737883 7965.9932257408436 8744.2506770476211 8387.8034125401573 387.54327491199206 392.03363182536884 10133.37136674533 5890.6634567307019 8429.9620216767598 9752.8910691175479 6042.3838971137211 9466.522803943255 8769.2378464099966 8966.4642996844195 377.79048521450613 961.23091557178975 377.72616134025816 961.3971991228409 806.65374423606181 318.45366775130924 787.68821115234709 299.41985471331441 8397.0073859352124 8733.1962113925765 8758.8378172784887 7974.9450563398932 1683.2540857564491 1786.5599908494296 9608.9662059218426 7337.1676502303208 6375.9715726225086 7040.876862224748 8366.6653759791698 9087.8462235212191 8819.4958803506688 7054.9417938718052 809.58977216921971 7160.375414882621 1495.0628746190482 930.98644787403578 8531.9214249235247 1685.3891378110638 8643.3800874012832 2899.6859581401841 5248.4576823961133 5785.6153405506193 7576.0255755087401 8752.4701946626137 6321.9847261348259 6241.2274909905664 3452.5004461834542 9190.7984797748395 8372.2948555638686 3572.7901105288315 3493.1003659489843 9981.4917564271218 8574.6041459211519 8526.2649776844064 7355.3667959493887 7182.7815785122693 7312.0947613898625 7067.9600236441875 7505.826393103498 2698.4452940834663 2965.7005271450598 8997.7246227008382 7723.0703002544815 3816.3298060052903 4126.896219627758 9176.2370964127203 9174.6004344579706 3473.5908931399558 7284.9611358200846 8681.4717847868978 3830.7550544034548 5476.5107415236753 3836.9354788724231 7623.2632386176574 6445.3353358776021 7034.7065324112264 8684.8155020247304 8606.3369902692721 7345.0968752350691 325.2103697074723 363.37432186548813 8881.8973558171419 9425.4771489042141 8382.992215733826 309.67706276285946 305.13610177723808 10128.622438851955 3494.739234998623 6238.2445009754992 9497.6536615546411 8700.2416549794871 8601.6022553710936 771.40881265035387 8339.8727433576532 10071.289223986214 751.65766665169406 8292.5635411407184 7483.1002422731781 7910.3929758312934 9190.8252939359318 8017.5816175937089 8590.835762589435 7216.4493535230868 5924.6906297979367 6569.3902081794358 8309.6003175880905 8633.8112991340568 7264.4548649632807 2816.4527553800463 3129.8675066559181 8699.305414407434 8360.7780737768007 2827.7000530357341 10016.83754903913 8727.847639398693 695.52975104720849 10152.067126905307 1365.1378376349842 10140.193832796607 696.91268452806696 8405.6428463929915 8407.659259953436 1371.8549035415645 8335.8734323621975 2213.3810354055731 10020.93501192459 7228.1050614344349 4977.6552610440576 5508.9705829311306 8463.7146645603243 8243.9242234650192 8432.2616948058621 6357.5989617362102 6542.9680878836207 9666.6386534849116 7586.3620520861405 770.8604365287357 844.0844103713157 9167.1677870851945 7488.8633224279565 1457.5024847998907 1598.5852049296207 9034.3669324005277 2297.1952753660189 2916.9090484320573 8716.8596376021706 8412.3381785786733 6086.7961542180838 6266.2278263939515 9691.5738819949802 8558.4780951293778 7698.0264589675662 3200.833756558668 3481.0370752299586 9196.0468418545497 8789.3343670471113 2836.2299088000586 8890.328320208735 7422.2144991168179 3109.5967918494939 7836.6293494997644 2112.3550641160914 2281.2423848664421 9425.7454682449752 7612.6998566196662 1981.2159334346115 2171.9907833950588 9162.8592703452232 8361.6444117842257 5578.8327873990183 5767.5677949907804 9720.9126293441605 8508.8789316391631 8481.160057846073 7581.78000217097 7784.8508650239219 7230.6701836119109 7415.9423788518598 9220.2562933313056 9299.4485591928096 9520.4608207653837 9543.9914057715887 9040.4016842955934 8931.8358356317513 1746.9474804185675 10096.715501432864 1868.078884538091 10127.882578266075 8381.4312007882745 1713.4507557847232 8411.542390831466 1856.1823342943453 7210.3859300540043 6787.3112299794448 7539.6112421669377 8131.0983351873674 9619.5757269247279 8514.0823391499471 8500.2381410371545 6657.626157041148 6415.2768743230763 6471.2904111177531 6781.5761732647697 9687.4924631919639 9759.0916298856009 8272.2725563796703 8481.4711095167058 6001.7419185955187 5924.309573007371 9811.7237210399126 9624.5244149880691 7737.6445484899377 6917.3582932242225 7520.9821140778731 8708.2331295932618 8348.1831001809624 661.96413597091521 9197.9837756004326 7611.2856192790969 720.29933158019139 7384.0254806447965 5474.1069034720558 6026.3045210508308 8578.9050533388981 8580.4998943544124 7921.4843349004232 9155.4386695826779 8268.7027219815536 7881.8149951632004 2858.9314722297513 3074.562339409