<?xml version="1.0"?>
<VTKFile type="UnstructuredGrid" version="0.1" byte_order="LittleEndian">
<UnstructuredGrid>
<Piece NumberOfPoints="21" NumberOfCells="28">
<Points>
<DataArray type="Float64" NumberOfComponents="3" format="ascii">
0 0 0 0 1 0 1 1 0 1 0 0 0.33333333333250248 0 0 0.66666666666578889 0 0 1 0.33333333333250248 0 1 0.66666666666578889 0 0.66666666666759111 1 0 0.33333333333472032 1 0 0 0.66666666666759111 0 0 0.33333333333472032 0 0.50000000000004996 0.49999999999997519 0 0.29166666666684449 0.7083333333334445 0 0.29166666666652658 0.2916666666668038 0 0.70833333333346027 0.70833333333323512 0 0.70833333333327586 0.2916666666665107 0 0.49999999999981742 0.1726190476194705 0 0.17261904761971569 0.50000000000021494 0 0.82738095238054699 0.49999999999982031 0 0.50000000000021227 0.82738095238030207 0 
</DataArray>
</Points>
<Cells>
<DataArray type="UInt32" Name="connectivity" format="ascii">
1 13 9 0 14 11 1 10 13 0 4 14 2 8 15 2 15 7 3 6 16 3 16 5 12 14 17 12 13 18 12 18 14 12 20 13 12 17 16 12 19 15 12 16 19 12 15 20 4 5 17 6 7 19 10 11 18 8 9 20 10 18 13 8 20 15 4 17 14 6 19 16 11 14 18 9 13 20 5 16 17 7 15 19 
</DataArray>
<DataArray type="UInt32" Name="offsets" format="ascii">
3 6 9 12 15 18 21 24 27 30 33 36 39 42 45 48 51 54 57 60 63 66 69 72 75 78 81 84 
</DataArray>
<DataArray type="UInt32" Name="types" format="ascii">
5 5 5 5 5 5 5 5 5 5 5 5 5 5 5 5 5 5 5 5 5 5 5 5 5 5 5 5 
</DataArray>
</Cells>
<CellData Scalars="pressure_p0,piezo_head_p0," Vectors="velocity_p0," Tensors="">
<DataArray type="Float64" Name="pressure_p0" format="ascii">
5515.6479971407534 3519.5385888304845 2939.2197413623639 6920.2401837662273 5515.6480041049072 2939.2197490668223 3519.538604584422 6920.2402002453255 9755.7710149440354 7889.0271190957574 8278.7289190069841 8627.593294584547 9755.7710122444059 7889.0271604194186 8278.7289491164483 8627.5933178876094 10449.852439791584 2008.5959157905629 2008.5958999751215 8257.6595809266182 4642.0645340006722 7933.3055873697413 9782.1447903948447 5151.12495399811 5151.1249120832808 7933.3055802518011 9782.1448137888874 4642.0645540543737 
</DataArray>
<DataArray type="Float64" Name="piezo_head_p0" format="ascii">
5515.6479971407534 3519.5385888304845 2939.2197413623639 6920.2401837662273 5515.6480041049072 2939.2197490668223 3519.538604584422 6920.2402002453255 9755.7710149440354 7889.0271190957574 8278.7289190069841 8627.593294584547 9755.7710122444059 7889.0271604194186 8278.7289491164483 8627.5933178876094 10449.852439791584 2008.5959157905629 2008.5958999751215 8257.6595809266182 4642.0645340006722 7933.3055873697413 9782.1447903948447 5151.12495399811 5151.1249120832808 7933.3055802518011 9782.1448137888874 4642.0645540543737 
</DataArray>
<DataArray type="Float64" Name="velocity_p0" NumberOfComponents="3" format="ascii">
-1.0662526766571453e-10 -1.8716652270693829e-11 0 -2.0387917038016008e-10 5.6451034039568235e-12 0 -1.6672163617702204e-10 6.9963818570460121e-12 0 -1.3280041429719606e-10 2.6785452062872587e-11 0 1.0662526766138057e-10 -1.8716652270492843e-11 0 1.6672163651834299e-10 6.9963821940815104e-12 0 2.0387917107960964e-10 5.6451027322651845e-12 0 1.3280041450249246e-10 2.6785452024537518e-11 0 -1.6962513467686366e-11 2.1353538659943449e-11 0 -8.026599153158005e-11 3.2562128803107016e-11 0 -8.8093183083806487e-11 1.6584216988491663e-12 0 -1.3273957207965791e-11 1.0211962707987805e-11 0 1.6962513656891514e-11 2.1353538626698511e-11 0 8.0265991842190791e-11 3.2562128715713988e-11 0 8.8093181037118332e-11 1.6584203426831108e-12 0 1.3273955052173487e-11 1.0211963543281517e-11 0 -1.8355545566744279e-18 1.6472748553896235e-11 0 2.0485830554498221e-10 1.1794919717593704e-11 0 -2.0485830390047906e-10 1.1794918535042613e-11 0 3.436586801454336e-19 -1.0618483850110732e-11 0 -1.4630595742950789e-10 -1.4183722310881748e-11 0 6.7881502048817567e-11 1.7015020255615577e-11 0 -7.8895319530460005e-11 2.3625133908545156e-12 0 1.4882092330187665e-10 3.0862784566595263e-11 0 -1.4882092264042997e-10 3.0862785347688189e-11 0 -6.7881502259271223e-11 1.7015018958098035e-11 0 7.8895320083021333e-11 2.3625155783465783e-12 0 1.4630595866873069e-10 -1.4183722124446838e-11 0 
</DataArray>
</CellData>
</Piece>
</UnstructuredGrid>
</VTKFile>
