<?xml version="1.0"?>
<VTKFile type="UnstructuredGrid" version="0.1" byte_order="LittleEndian">
<UnstructuredGrid>
<Piece NumberOfPoints="21" NumberOfCells="28">
<Points>
<DataArray type="Float64" NumberOfComponents="3" format="ascii">
0 0 0 0 1 0 1 1 0 1 0 0 0.33333333333250248 0 0 0.66666666666578889 0 0 1 0.33333333333250248 0 1 0.66666666666578889 0 0.66666666666759111 1 0 0.33333333333472032 1 0 0 0.66666666666759111 0 0 0.33333333333472032 0 0.50000000000004996 0.49999999999997519 0 0.29166666666684449 0.7083333333334445 0 0.29166666666652658 0.2916666666668038 0 0.70833333333346027 0.70833333333323512 0 0.70833333333327586 0.2916666666665107 0 0.49999999999981742 0.1726190476194705 0 0.17261904761971569 0.50000000000021494 0 0.82738095238054699 0.49999999999982031 0 0.50000000000021227 0.82738095238030207 0 
</DataArray>
</Points>
<Cells>
<DataArray type="UInt32" Name="connectivity" format="ascii">
1 13 9 0 14 11 1 10 13 0 4 14 2 8 15 2 15 7 3 6 16 3 16 5 12 14 17 12 13 18 12 18 14 12 20 13 12 17 16 12 19 15 12 16 19 12 15 20 4 5 17 6 7 19 10 11 18 8 9 20 10 18 13 8 20 15 4 17 14 6 19 16 11 14 18 9 13 20 5 16 17 7 15 19 
</DataArray>
<DataArray type="UInt32" Name="offsets" format="ascii">
3 6 9 12 15 18 21 24 27 30 33 36 39 42 45 48 51 54 57 60 63 66 69 72 75 78 81 84 
</DataArray>
<DataArray type="UInt32" Name="types" format="ascii">
5 5 5 5 5 5 5 5 5 5 5 5 5 5 5 5 5 5 5 5 5 5 5 5 5 5 5 5 
</DataArray>
</Cells>
<CellData Scalars="pressure_p0,piezo_head_p0," Vectors="velocity_p0," Tensors="">
<DataArray type="Float64" Name="pressure_p0" format="ascii">
0.061650003798149354 0.063612947857368457 0.064041039471428418 0.061144504334275693 0.021958425087191317 0.010562260115127713 0.01055551204727783 0.0218904734508844 0.051332274969212263 0.057322196941103472 0.057224409036806284 0.051535559815000062 0.041726638331529564 0.032628017351155773 0.032599262070207219 0.041858451447452441 0.046424216291318376 0.0063589252273764923 0.065046561063724417 0.046770514857626774 0.063458528031948069 0.03737930213060256 0.054269557878318858 0.016648699296227188 0.063261657062240378 0.054668377720082442 0.037185741952976803 0.016651224795999661 
</DataArray>
<DataArray type="Float64" Name="piezo_head_p0" format="ascii">
0.061650003798149354 0.063612947857368457 0.064041039471428418 0.061144504334275693 0.021958425087191317 0.010562260115127713 0.01055551204727783 0.0218904734508844 0.051332274969212263 0.057322196941103472 0.057224409036806284 0.051535559815000062 0.041726638331529564 0.032628017351155773 0.032599262070207219 0.041858451447452441 0.046424216291318376 0.0063589252273764923 0.065046561063724417 0.046770514857626774 0.063458528031948069 0.03737930213060256 0.054269557878318858 0.016648699296227188 0.063261657062240378 0.054668377720082442 0.037185741952976803 0.016651224795999661 
</DataArray>
<DataArray type="Float64" Name="velocity_p0" NumberOfComponents="3" format="ascii">
0.034512433783113271 -0.0072557801233879612 0 0.0069196214884977725 -0.0049750396625385402 0 0.0071208104020817949 0.0037054540856489952 0 0.034279135165291769 0.0067556230794560386 0 0.095933022865677342 -0.0036206729555188777 0 0.10680521882672471 0.00057382809104642059 0 0.10665638961092891 -0.00075045811684751502 0 0.095171164263157776 0.0036820437110568136 0 0.064870302428084448 -0.00051941827566784685 0 0.045932524764979568 0.0040300456037473736 0 0.045672980568402008 -0.0054103675534840513 0 0.065285798774717407 -0.00074256633482179188 0 0.073267244533414891 0.00049392944694131094 0 0.089478148283237274 0.003158590257342421 0 0.089056848422321533 -0.0036686865503016489 0 0.073748092512120278 -0.0010288903608907871 0 0.068166675073897259 0.003452857285204591 0 0.11000087715032926 -1.5233313131031434e-05 0 0.0041642869929241601 -0.00081425569025899043 0 0.069025022271408901 -0.0036217737249943129 0 0.026151348128521722 -0.0062825054288297598 0 0.087493519487684843 0.0021868646213648452 0 0.04766634262234317 -0.0035286056069698084 0 0.10110943953366365 0.0032378264245888737 0 0.026179203099352233 0.0047244737559919659 0 0.048547901795413642 0.0028087483848988695 0 0.086640707372171971 -0.0028420614683236749 0 0.10117515881137412 -0.0031375296903339307 0 
</DataArray>
</CellData>
</Piece>
</UnstructuredGrid>
</VTKFile>
