<?xml version="1.0"?>
<VTKFile type="UnstructuredGrid" version="0.1" byte_order="LittleEndian">
<UnstructuredGrid>
<Piece NumberOfPoints="21" NumberOfCells="28">
<Points>
<DataArray type="Float64" NumberOfComponents="3" format="ascii">
0 0 0 0.49999999999981742 0.1726190476194705 0 0.33333333333250248 0 0 0.29166666666652658 0.2916666666668038 0 0 0.33333333333472032 0 0.17261904761971569 0.50000000000021494 0 0 0.66666666666759111 0 0 1 0 0.33333333333472032 1 0 0.29166666666684449 0.7083333333334445 0 0.70833333333346027 0.70833333333323512 0 0.66666666666759111 1 0 0.50000000000021227 0.82738095238030207 0 1 1 0 1 0.66666666666578889 0 1 0.33333333333250248 0 0.82738095238054699 0.49999999999982031 0 1 0 0 0.66666666666578889 0 0 0.50000000000004996 0.49999999999997519 0 0.70833333333327586 0.2916666666665107 0 
</DataArray>
</Points>
<Cells>
<DataArray type="UInt32" Name="connectivity" format="ascii">
0 3 4 0 2 3 2 18 1 2 1 3 19 5 3 19 3 1 4 3 5 6 4 5 6 5 9 7 9 8 7 6 9 8 9 12 19 9 5 19 12 9 19 16 10 19 10 12 11 12 10 11 8 12 13 10 14 13 11 10 14 10 16 15 14 16 15 16 20 17 20 18 17 15 20 18 20 1 19 20 16 19 1 20 
</DataArray>
<DataArray type="UInt32" Name="offsets" format="ascii">
3 6 9 12 15 18 21 24 27 30 33 36 39 42 45 48 51 54 57 60 63 66 69 72 75 78 81 84 
</DataArray>
<DataArray type="UInt32" Name="types" format="ascii">
5 5 5 5 5 5 5 5 5 5 5 5 5 5 5 5 5 5 5 5 5 5 5 5 5 5 5 5 
</DataArray>
</Cells>
<CellData Scalars="pressure_p0,piezo_head_p0," Vectors="velocity_p0," Tensors="">
<DataArray type="Float64" Name="pressure_p0" format="ascii">
0.00092656271422514617 0.0008872797559226766 0.00066270876907966879 0.00078114588512625638 0.00083015138397782014 0.00073816518360317828 0.00092344566930437836 0.0009538399900650878 0.00093104950777202005 0.00090605724183449952 0.00094287476644953005 0.0007960427256002348 0.00083389595593139868 0.00074596391006418296 0.00046201110085050142 0.00059918349566179382 0.00053395302313893639 0.00067566113909297318 0.00014726978008295548 0.00030921772891227513 0.00023239639614739134 8.7923931168268311e-05 0.00023164854120631348 0.00030567413706567286 0.00014631621537768231 0.00052622752148948754 0.00046062171839832518 0.00059381146692208094 
</DataArray>
<DataArray type="Float64" Name="piezo_head_p0" format="ascii">
0.00092656271422514617 0.0008872797559226766 0.00066270876907966879 0.00078114588512625638 0.00083015138397782014 0.00073816518360317828 0.00092344566930437836 0.0009538399900650878 0.00093104950777202005 0.00090605724183449952 0.00094287476644953005 0.0007960427256002348 0.00083389595593139868 0.00074596391006418296 0.00046201110085050142 0.00059918349566179382 0.00053395302313893639 0.00067566113909297318 0.00014726978008295548 0.00030921772891227513 0.00023239639614739134 8.7923931168268311e-05 0.00023164854120631348 0.00030567413706567286 0.00014631621537768231 0.00052622752148948754 0.00046062171839832518 0.00059381146692208094 
</DataArray>
<DataArray type="Float64" Name="velocity_p0" NumberOfComponents="3" format="ascii">
0.00010549589760203046 -8.9179552251100055e-05 0 0.00053141995324012549 0.00010088295619288162 0 0.0010156461345915576 4.5779569966489285e-05 0 0.00072818264907169522 -5.739101653656802e-05 0 0.00070422107379002237 -9.5512755194284593e-05 0 0.00098132344114396542 -2.2796545774053748e-05 0 0.00041119658631869532 5.767778829807338e-05 0 6.5751412669701688e-05 -3.0675367231136315e-05 0 0.00041077176811114076 -0.00011551348153018145 0 0.00054076783867405311 -0.00011630865792519058 0 0.0001148963836689264 4.532846382907424e-05 0 0.00075873267092043436 3.3101379767892271e-05 0 0.00071402309939153563 4.3947224663338515e-05 0 0.00099399926100931743 -2.3026534705836648e-05 0 0.0013058248955190583 2.9271372058818363e-05 0 0.0011100235135519635 -2.2034188305981091e-05 0 0.0012861096323317515 2.0116025146162965e-05 0 0.0010451862983360499 -5.0704701062556092e-05 0 0.0014983036242787655 3.5005261079423035e-06 0 0.0013842867250438602 -3.9770353560891563e-05 0 0.0014347044281695863 -3.3671655168864267e-05 0 0.0015235975365664514 -2.9022356167901237e-06 0 0.0014322300195411439 3.1527836334819539e-05 0 0.0013591666768413904 4.0546703993419144e-05 0 0.00148564426225773 -1.0322190864225385e-05 0 0.0012591830633661095 -4.1539635648630896e-05 0 0.0012914018093515805 -5.2304954012109063e-05 0 0.0010934228845056126 1.7354925966433219e-06 0 
</DataArray>
</CellData>
</Piece>
</UnstructuredGrid>
</VTKFile>
