<?xml version="1.0"?>
<VTKFile type="UnstructuredGrid" version="0.1" byte_order="LittleEndian">
<UnstructuredGrid>
<Piece NumberOfPoints="21" NumberOfCells="28">
<Points>
<DataArray type="Float64" NumberOfComponents="3" format="ascii">
0 0 0 0 1 0 1 1 0 1 0 0 0.33333333333250248 0 0 0.66666666666578889 0 0 1 0.33333333333250248 0 1 0.66666666666578889 0 0.66666666666759111 1 0 0.33333333333472032 1 0 0 0.66666666666759111 0 0 0.33333333333472032 0 0.50000000000004996 0.49999999999997519 0 0.29166666666684449 0.7083333333334445 0 0.29166666666652658 0.2916666666668038 0 0.70833333333346027 0.70833333333323512 0 0.70833333333327586 0.2916666666665107 0 0.49999999999981742 0.1726190476194705 0 0.17261904761971569 0.50000000000021494 0 0.82738095238054699 0.49999999999982031 0 0.50000000000021227 0.82738095238030207 0 
</DataArray>
</Points>
<Cells>
<DataArray type="UInt32" Name="connectivity" format="ascii">
1 13 9 0 14 11 1 10 13 0 4 14 2 8 15 2 15 7 3 6 16 3 16 5 12 14 17 12 13 18 12 18 14 12 20 13 12 17 16 12 19 15 12 16 19 12 15 20 4 5 17 6 7 19 10 11 18 8 9 20 10 18 13 8 20 15 4 17 14 6 19 16 11 14 18 9 13 20 5 16 17 7 15 19 
</DataArray>
<DataArray type="UInt32" Name="offsets" format="ascii">
3 6 9 12 15 18 21 24 27 30 33 36 39 42 45 48 51 54 57 60 63 66 69 72 75 78 81 84 
</DataArray>
<DataArray type="UInt32" Name="types" format="ascii">
5 5 5 5 5 5 5 5 5 5 5 5 5 5 5 5 5 5 5 5 5 5 5 5 5 5 5 5 
</DataArray>
</Cells>
<CellData Scalars="pressure_p0,piezo_head_p0," Vectors="velocity_p0," Tensors="">
<DataArray type="Float64" Name="pressure_p0" format="ascii">
0.00044743474180649451 0.00045755783321906193 0.00046561597200261344 0.00043815867618624861 0.00015269955750200507 7.272546237060306e-05 7.2254125441487319e-05 0.00015094845116830471 0.00036452290843544546 0.00041179834291769148 0.00040994847300573147 0.00036837569128522432 0.00029323758336729036 0.00022815217976540809 0.00022746567246986028 0.00029589170227267616 0.00032726008481408502 4.3418869959734652e-05 0.00047102946875334146 0.0003336589998733044 0.00045977560403238948 0.00026367961886638686 0.00038574724431145028 0.00011439325479262627 0.00045601928957259691 0.00039310651556941642 0.00025986266508158001 0.00011476294025516425 
</DataArray>
<DataArray type="Float64" Name="piezo_head_p0" format="ascii">
0.00044743474180649451 0.00045755783321906193 0.00046561597200261344 0.00043815867618624861 0.00015269955750200507 7.272546237060306e-05 7.2254125441487319e-05 0.00015094845116830471 0.00036452290843544546 0.00041179834291769148 0.00040994847300573147 0.00036837569128522432 0.00029323758336729036 0.00022815217976540809 0.00022746567246986028 0.00029589170227267616 0.00032726008481408502 4.3418869959734652e-05 0.00047102946875334146 0.0003336589998733044 0.00045977560403238948 0.00026367961886638686 0.00038574724431145028 0.00011439325479262627 0.00045601928957259691 0.00039310651556941642 0.00025986266508158001 0.00011476294025516425 
</DataArray>
<DataArray type="Float64" Name="velocity_p0" NumberOfComponents="3" format="ascii">
0.00026704540387466113 -5.7437167106306121e-05 0 5.2095794263291857e-05 -4.4042643892462341e-05 0 5.6739638072871273e-05 2.2380821347634727e-05 0 0.00026242859263101717 4.9817648481385141e-05 0 0.00068359638700041855 -1.9639712084779359e-05 0 0.00073989990404371285 1.7275548911952472e-06 0 0.00073364319266000684 -5.0982568949061021e-06 0 0.00067118651963496401 2.0022302090657521e-05 0 0.00048460161527148001 -1.1261702607053971e-05 0 0.00035260343357034797 2.1697348470456361e-05 0 0.00034776191014598834 -4.717138373192901e-05 0 0.00049086239491839183 -1.1375248215413357e-05 0 0.00053995822018096623 8.5451558516169788e-07 0 0.00064484916090010473 1.4451653104370486e-05 0 0.00063772420589548479 -2.5832321560829267e-05 0 0.00054815834616369383 -1.0883571257363188e-05 0 0.00050154950267162753 2.2606510279377692e-05 0 0.00075238772174988141 -1.4346072206821293e-06 0 3.2469764239808716e-05 -1.5153571712296051e-05 0 0.00051614091557639606 -2.5039611842724274e-05 0 0.00020284973473294263 -5.7048394429335703e-05 0 0.00063511408785041574 9.9316097215104736e-06 0 0.00035959349408570774 -2.8343288978943513e-05 0 0.00070726872811503814 1.5567928915492671e-05 0 0.00020305963119217436 2.8477999577409883e-05 0 0.00037468336965817809 1.6343935295256787e-05 0 0.00062181326732708541 -2.0515141913786281e-05 0 0.00070849127770107123 -1.6628605860043576e-05 0 
</DataArray>
</CellData>
</Piece>
</UnstructuredGrid>
</VTKFile>
