<?xml version="1.0"?>
<VTKFile type="UnstructuredGrid" version="0.1" byte_order="LittleEndian">
<UnstructuredGrid>
<Piece NumberOfPoints="21" NumberOfCells="28">
<Points>
<DataArray type="Float64" NumberOfComponents="3" format="ascii">
0 0 0 0 1 0 1 1 0 1 0 0 0.33333333333250248 0 0 0.66666666666578889 0 0 1 0.33333333333250248 0 1 0.66666666666578889 0 0.66666666666759111 1 0 0.33333333333472032 1 0 0 0.66666666666759111 0 0 0.33333333333472032 0 0.50000000000004996 0.49999999999997519 0 0.29166666666684449 0.7083333333334445 0 0.29166666666652658 0.2916666666668038 0 0.70833333333346027 0.70833333333323512 0 0.70833333333327586 0.2916666666665107 0 0.49999999999981742 0.1726190476194705 0 0.17261904761971569 0.50000000000021494 0 0.82738095238054699 0.49999999999982031 0 0.50000000000021227 0.82738095238030207 0 
</DataArray>
</Points>
<Cells>
<DataArray type="UInt32" Name="connectivity" format="ascii">
1 13 9 0 14 11 1 10 13 0 4 14 2 8 15 2 15 7 3 6 16 3 16 5 12 14 17 12 13 18 12 18 14 12 20 13 12 17 16 12 19 15 12 16 19 12 15 20 4 5 17 6 7 19 10 11 18 8 9 20 10 18 13 8 20 15 4 17 14 6 19 16 11 14 18 9 13 20 5 16 17 7 15 19 
</DataArray>
<DataArray type="UInt32" Name="offsets" format="ascii">
3 6 9 12 15 18 21 24 27 30 33 36 39 42 45 48 51 54 57 60 63 66 69 72 75 78 81 84 
</DataArray>
<DataArray type="UInt32" Name="types" format="ascii">
5 5 5 5 5 5 5 5 5 5 5 5 5 5 5 5 5 5 5 5 5 5 5 5 5 5 5 5 
</DataArray>
</Cells>
<CellData Scalars="pressure_p0,piezo_head_p0," Vectors="velocity_p0," Tensors="">
<DataArray type="Float64" Name="pressure_p0" format="ascii">
0.11973209965969078 0.12486200394391681 0.12346835619663692 0.1213512772343058 0.051740348148462983 0.026336360149494586 0.026392663934497095 0.052005687134192007 0.10587632197691346 0.11444053919981015 0.11475911798053744 0.10521455217991441 0.089908383550302062 0.073190997212094239 0.073298555857349137 0.089464815508889683 0.097959632009539721 0.016723013002508606 0.12603361397611768 0.096851852325222074 0.12326055594065476 0.081112366774433953 0.11086634784882604 0.041095484375718389 0.12390662476750312 0.10958760783072391 0.081753780528112566 0.041054967141730167 
</DataArray>
<DataArray type="Float64" Name="piezo_head_p0" format="ascii">
0.11973209965969078 0.12486200394391681 0.12346835619663692 0.1213512772343058 0.051740348148462983 0.026336360149494586 0.026392663934497095 0.052005687134192007 0.10587632197691346 0.11444053919981015 0.11475911798053744 0.10521455217991441 0.089908383550302062 0.073190997212094239 0.073298555857349137 0.089464815508889683 0.097959632009539721 0.016723013002508606 0.12603361397611768 0.096851852325222074 0.12326055594065476 0.081112366774433953 0.11086634784882604 0.041095484375718389 0.12390662476750312 0.10958760783072391 0.081753780528112566 0.041054967141730167 
</DataArray>
<DataArray type="Float64" Name="velocity_p0" NumberOfComponents="3" format="ascii">
0.051005027084055 -0.0096846911151476887 0 0.010670555930332535 -0.0051004012689155609 0 0.0099204928959846003 0.0089939184887301189 0 0.051803735138903961 0.011124333208998947 0 0.1954906466096272 -0.018297196713485224 0 0.26904398131371449 0.010460283589461671 0 0.26986990352085405 -0.0098929265252642104 0 0.19774637202950468 0.018168588352494394 0 0.10572192768063213 0.0022948851302218506 0 0.069313589267011547 0.010426275990666463 0 0.070162438801568833 -0.0059993581344876118 0 0.10452763086255885 0.0016844500485999232 0 0.12493048631936599 0.00096409333006505782 0 0.16896845810073985 0.012314501085169106 0 0.17025156001847924 -0.010486085652893148 0 0.12345064066250722 0.00075056799429631949 0 0.1168529229818992 0.0080215447796196278 0 0.29146195656947732 0.00016424672168471877 0 0.0060521535680139599 0.0026314468376241115 0 0.1142108242594167 -0.007556026613611426 0 0.038154062145701745 -0.0051388653020521162 0 0.16100801186738831 0.0088326902697331497 0 0.074874209023828242 -0.0054263197666280516 0 0.22325071293289941 0.019582429373784571 0 0.038098994114087077 0.010132503799977377 0 0.07214540929270899 0.0075927433588468575 0 0.1634920852261596 -0.0068993788786135546 0 0.2230418093386714 -0.019602911531264713 0 
</DataArray>
</CellData>
</Piece>
</UnstructuredGrid>
</VTKFile>
