<?xml version="1.0"?>
<VTKFile type="UnstructuredGrid" version="0.1" byte_order="LittleEndian">
<UnstructuredGrid>
<Piece NumberOfPoints="21" NumberOfCells="28">
<Points>
<DataArray type="Float64" NumberOfComponents="3" format="ascii">
0 0 0 0.49999999999981742 0.1726190476194705 0 0.33333333333250248 0 0 0.29166666666652658 0.2916666666668038 0 0 0.33333333333472032 0 0.17261904761971569 0.50000000000021494 0 0 0.66666666666759111 0 0 1 0 0.33333333333472032 1 0 0.29166666666684449 0.7083333333334445 0 0.70833333333346027 0.70833333333323512 0 0.66666666666759111 1 0 0.50000000000021227 0.82738095238030207 0 1 1 0 1 0.66666666666578889 0 1 0.33333333333250248 0 0.82738095238054699 0.49999999999982031 0 1 0 0 0.66666666666578889 0 0 0.50000000000004996 0.49999999999997519 0 0.70833333333327586 0.2916666666665107 0 
</DataArray>
</Points>
<Cells>
<DataArray type="UInt32" Name="connectivity" format="ascii">
0 3 4 0 2 3 2 18 1 2 1 3 19 5 3 19 3 1 4 3 5 6 4 5 6 5 9 7 9 8 7 6 9 8 9 12 19 9 5 19 12 9 19 16 10 19 10 12 11 12 10 11 8 12 13 10 14 13 11 10 14 10 16 15 14 16 15 16 20 17 20 18 17 15 20 18 20 1 19 20 16 19 1 20 
</DataArray>
<DataArray type="UInt32" Name="offsets" format="ascii">
3 6 9 12 15 18 21 24 27 30 33 36 39 42 45 48 51 54 57 60 63 66 69 72 75 78 81 84 
</DataArray>
<DataArray type="UInt32" Name="types" format="ascii">
5 5 5 5 5 5 5 5 5 5 5 5 5 5 5 5 5 5 5 5 5 5 5 5 5 5 5 5 
</DataArray>
</Cells>
<CellData Scalars="pressure_p0,piezo_head_p0," Vectors="velocity_p0," Tensors="">
<DataArray type="Float64" Name="pressure_p0" format="ascii">
3.8609459641541716e-05 3.8608709626183546e-05 3.8489652766041704e-05 3.8601474131652002e-05 3.8606319034496517e-05 3.8589938438917178e-05 3.8609338530582076e-05 3.8609490694887767e-05 3.8609289429782572e-05 3.8608556290288465e-05 3.8609353128103265e-05 3.8601338270486646e-05 3.8606288320980368e-05 3.8589871900639042e-05 3.7819302636209494e-05 3.8453797748767137e-05 3.7961063050790905e-05 3.8489498652841522e-05 2.1148463623629594e-05 3.422579796326507e-05 3.1701439518295897e-05 1.6567198482466139e-05 3.170142966912744e-05 3.4225834248175957e-05 2.1148453872547732e-05 3.7961161115524565e-05 3.781931089274739e-05 3.8453846179340301e-05 
</DataArray>
<DataArray type="Float64" Name="piezo_head_p0" format="ascii">
3.8609459641541716e-05 3.8608709626183546e-05 3.8489652766041704e-05 3.8601474131652002e-05 3.8606319034496517e-05 3.8589938438917178e-05 3.8609338530582076e-05 3.8609490694887767e-05 3.8609289429782572e-05 3.8608556290288465e-05 3.8609353128103265e-05 3.8601338270486646e-05 3.8606288320980368e-05 3.8589871900639042e-05 3.7819302636209494e-05 3.8453797748767137e-05 3.7961063050790905e-05 3.8489498652841522e-05 2.1148463623629594e-05 3.422579796326507e-05 3.1701439518295897e-05 1.6567198482466139e-05 3.170142966912744e-05 3.4225834248175957e-05 2.1148453872547732e-05 3.7961161115524565e-05 3.781931089274739e-05 3.8453846179340301e-05 
</DataArray>
<DataArray type="Float64" Name="velocity_p0" NumberOfComponents="3" format="ascii">
2.0623009681073418e-14 -1.3664602326774406e-14 0 4.2016974597605109e-13 1.6907939068923299e-13 0 3.4148948629691816e-11 1.0167435726394422e-11 0 1.7848377062602452e-12 -1.3465660630041643e-12 0 1.0638425969155989e-12 -4.2975698718203206e-13 0 6.787323050572833e-12 8.7281973212981044e-13 0 8.4456085111499915e-14 2.7937575128342753e-14 0 3.447046126441847e-15 2.2558914559242533e-15 0 8.5011456067595382e-14 -2.3528708478605815e-14 0 4.2079937523446135e-13 -1.6649013282465571e-13 0 2.1087362199544313e-14 1.8847600162467632e-14 0 1.7826958655464245e-12 1.3507317831233374e-12 0 1.0635282430408096e-12 4.3456067422968059e-13 0 6.785710411798483e-12 -8.6823559653478949e-13 0 2.080915497943438e-10 6.6755456621948428e-11 0 2.5345449872797799e-11 1.4334250858821032e-11 0 1.6851317138155724e-10 2.4934595226641337e-11 0 3.4146635624256053e-11 -1.0166009951274268e-11 0 1.7745896259127473e-09 1.0639264803605665e-10 0 6.2993006479627503e-10 -3.1889475517647455e-10 0 1.0255232184186774e-09 -4.4257830816549999e-10 0 2.5897773938847949e-09 -4.4776387700326819e-16 0 1.0255235995453084e-09 4.4257634766460765e-10 0 6.2993462535416332e-10 3.1889484216428e-10 0 1.7745901703565427e-09 -1.063917216182073e-10 0 1.6851729221514799e-10 -2.4930623600888097e-11 0 2.0809368151123712e-10 -6.6754112519907738e-11 0 2.534677363821537e-11 -1.4331141622967704e-11 0 
</DataArray>
</CellData>
</Piece>
</UnstructuredGrid>
</VTKFile>
