<?xml version="1.0"?>
<VTKFile type="UnstructuredGrid" version="0.1" byte_order="LittleEndian">
<UnstructuredGrid>
<Piece NumberOfPoints="2400" NumberOfCells="800">
<Points>
<DataArray type="Float64" NumberOfComponents="3" format="ascii">
0.050000000000000037 0 0 0 0.049999999999899652 0 0 0 0 0.050000000000000037 0 0 0.050000000000000037 0.049999999999899652 0 0 0.049999999999899652 0 0.050000000000000037 0.049999999999899652 0 0 0.099999999999814668 0 0 0.049999999999899652 0 0.050000000000000037 0.099999999999814668 0 0 0.14999999999970359 0 0 0.099999999999814668 0 0.050000000000000037 0.049999999999899652 0 0.050000000000000037 0.099999999999814668 0 0 0.099999999999814668 0 0.099999999999999978 0.049999999999899652 0 0.050000000000000037 0.099999999999814668 0 0.050000000000000037 0.049999999999899652 0 0.099999999999999978 0.049999999999899652 0 0.099999999999999978 0.099999999999814668 0 0.050000000000000037 0.099999999999814668 0 0.099999999999999978 0.099999999999814668 0 0.050000000000000037 0.14999999999970359 0 0.050000000000000037 0.099999999999814668 0 0.14999999999999999 0.099999999999814668 0 0.099999999999999978 0.14999999999970359 0 0.099999999999999978 0.099999999999814668 0 0.14999999999999999 0.049999999999899652 0 0.099999999999999978 0.099999999999814668 0 0.099999999999999978 0.049999999999899652 0 0.14999999999999999 0 0 0.099999999999999978 0.049999999999899652 0 0.099999999999999978 0 0 0.099999999999999978 0 0 0.050000000000000037 0.049999999999899652 0 0.050000000000000037 0 0 0.099999999999999978 0 0 0.099999999999999978 0.049999999999899652 0 0.050000000000000037 0.049999999999899652 0 0.050000000000000037 0.19999999999955789 0 0.050000000000000037 0.24999999999941211 0 0 0.24999999999941211 0 0.050000000000000037 0.19999999999955789 0 0 0.24999999999941211 0 0 0.19999999999955789 0 0.050000000000000037 0.14999999999970359 0 0.050000000000000037 0.19999999999955789 0 0 0.19999999999955789 0 0.050000000000000037 0.14999999999970359 0 0 0.19999999999955789 0 0 0.14999999999970359 0 0.050000000000000037 0.099999999999814668 0 0.050000000000000037 0.14999999999970359 0 0 0.14999999999970359 0 0.099999999999999978 0.099999999999814668 0 0.099999999999999978 0.14999999999970359 0 0.050000000000000037 0.14999999999970359 0 0.14999999999999999 0.14999999999970359 0 0.099999999999999978 0.19999999999955789 0 0.099999999999999978 0.14999999999970359 0 0.099999999999999978 0.14999999999970359 0 0.099999999999999978 0.19999999999955789 0 0.050000000000000037 0.19999999999955789 0 0.099999999999999978 0.14999999999970359 0 0.050000000000000037 0.19999999999955789 0 0.050000000000000037 0.14999999999970359 0 0.099999999999999978 0.19999999999955789 0 0.050000000000000037 0.24999999999941211 0 0.050000000000000037 0.19999999999955789 0 0.14999999999999999 0.19999999999955789 0 0.099999999999999978 0.24999999999941211 0 0.099999999999999978 0.19999999999955789 0 0.099999999999999978 0.19999999999955789 0 0.099999999999999978 0.24999999999941211 0 0.050000000000000037 0.24999999999941211 0 0.20000000000000001 0.19999999999955789 0 0.20000000000000001 0.24999999999941211 0 0.14999999999999999 0.24999999999941211 0 0.14999999999999999 0.19999999999955789 0 0.14999999999999999 0.24999999999941211 0 0.099999999999999978 0.24999999999941211 0 0.20000000000000001 0.19999999999955789 0 0.14999999999999999 0.24999999999941211 0 0.14999999999999999 0.19999999999955789 0 0.20000000000000001 0.14999999999970359 0 0.20000000000000001 0.19999999999955789 0 0.14999999999999999 0.19999999999955789 0 0.20000000000000001 0.14999999999970359 0 0.14999999999999999 0.19999999999955789 0 0.14999999999999999 0.14999999999970359 0 0.14999999999999999 0.14999999999970359 0 0.14999999999999999 0.19999999999955789 0 0.099999999999999978 0.19999999999955789 0 0.14999999999999999 0.099999999999814668 0 0.14999999999999999 0.14999999999970359 0 0.099999999999999978 0.14999999999970359 0 0.20000000000000001 0.099999999999814668 0 0.20000000000000001 0.14999999999970359 0 0.14999999999999999 0.14999999999970359 0 0.25 0.099999999999814668 0 0.25 0.14999999999970359 0 0.20000000000000001 0.14999999999970359 0 0.25 0.14999999999970359 0 0.25 0.19999999999955789 0 0.20000000000000001 0.19999999999955789 0 0.25 0.14999999999970359 0 0.20000000000000001 0.19999999999955789 0 0.20000000000000001 0.14999999999970359 0 0.25 0.19999999999955789 0 0.20000000000000001 0.24999999999941211 0 0.20000000000000001 0.19999999999955789 0 0.25 0.19999999999955789 0 0.25 0.24999999999941211 0 0.20000000000000001 0.24999999999941211 0 0.20000000000000001 0 0 0.20000000000000001 0.049999999999899652 0 0.14999999999999999 0.049999999999899652 0 0.20000000000000001 0 0 0.14999999999999999 0.049999999999899652 0 0.14999999999999999 0 0 0.14999999999999999 0 0 0.14999999999999999 0.049999999999899652 0 0.099999999999999978 0.049999999999899652 0 0.14999999999999999 0.049999999999899652 0 0.14999999999999999 0.099999999999814668 0 0.099999999999999978 0.099999999999814668 0 0.20000000000000001 0.099999999999814668 0 0.14999999999999999 0.14999999999970359 0 0.14999999999999999 0.099999999999814668 0 0.20000000000000001 0.049999999999899652 0 0.14999999999999999 0.099999999999814668 0 0.14999999999999999 0.049999999999899652 0 0.20000000000000001 0.049999999999899652 0 0.20000000000000001 0.099999999999814668 0 0.14999999999999999 0.099999999999814668 0 0.25 0.049999999999899652 0 0.20000000000000001 0.099999999999814668 0 0.20000000000000001 0.049999999999899652 0 0.25 0.099999999999814668 0 0.20000000000000001 0.14999999999970359 0 0.20000000000000001 0.099999999999814668 0 0.25 0.049999999999899652 0 0.25 0.099999999999814668 0 0.20000000000000001 0.099999999999814668 0 0.25 0 0 0.25 0.049999999999899652 0 0.20000000000000001 0.049999999999899652 0 0.25 0 0 0.20000000000000001 0.049999999999899652 0 0.20000000000000001 0 0 0.29999999999999999 0 0 0.25 0.049999999999899652 0 0.25 0 0 0.29999999999999999 0 0 0.29999999999999999 0.049999999999899652 0 0.25 0.049999999999899652 0 0.34999999999999998 0 0 0.29999999999999999 0.049999999999899652 0 0.29999999999999999 0 0 0.34999999999999998 0 0 0.34999999999999998 0.049999999999899652 0 0.29999999999999999 0.049999999999899652 0 0.40000000000000002 0 0 0.34999999999999998 0.049999999999899652 0 0.34999999999999998 0 0 0.40000000000000002 0.099999999999814668 0 0.34999999999999998 0.14999999999970359 0 0.34999999999999998 0.099999999999814668 0 0.40000000000000002 0.049999999999899652 0 0.34999999999999998 0.099999999999814668 0 0.34999999999999998 0.049999999999899652 0 0.34999999999999998 0.049999999999899652 0 0.29999999999999999 0.099999999999814668 0 0.29999999999999999 0.049999999999899652 0 0.34999999999999998 0.049999999999899652 0 0.34999999999999998 0.099999999999814668 0 0.29999999999999999 0.099999999999814668 0 0.34999999999999998 0.099999999999814668 0 0.29999999999999999 0.14999999999970359 0 0.29999999999999999 0.099999999999814668 0 0.29999999999999999 0.049999999999899652 0 0.29999999999999999 0.099999999999814668 0 0.25 0.099999999999814668 0 0.29999999999999999 0.049999999999899652 0 0.25 0.099999999999814668 0 0.25 0.049999999999899652 0 0.29999999999999999 0.099999999999814668 0 0.25 0.14999999999970359 0 0.25 0.099999999999814668 0 0.29999999999999999 0.14999999999970359 0 0.25 0.19999999999955789 0 0.25 0.14999999999970359 0 0.29999999999999999 0.14999999999970359 0 0.29999999999999999 0.19999999999955789 0 0.25 0.19999999999955789 0 0.29999999999999999 0.099999999999814668 0 0.29999999999999999 0.14999999999970359 0 0.25 0.14999999999970359 0 0.29999999999999999 0.19999999999955789 0 0.25 0.24999999999941211 0 0.25 0.19999999999955789 0 0.29999999999999999 0.19999999999955789 0 0.29999999999999999 0.24999999999941211 0 0.25 0.24999999999941211 0 0.34999999999999998 0.19999999999955789 0 0.34999999999999998 0.24999999999941211 0 0.29999999999999999 0.24999999999941211 0 0.34999999999999998 0.19999999999955789 0 0.29999999999999999 0.24999999999941211 0 0.29999999999999999 0.19999999999955789 0 0.40000000000000002 0.19999999999955789 0 0.34999999999999998 0.24999999999941211 0 0.34999999999999998 0.19999999999955789 0 0.34999999999999998 0.099999999999814668 0 0.34999999999999998 0.14999999999970359 0 0.29999999999999999 0.14999999999970359 0 0.34999999999999998 0.14999999999970359 0 0.34999999999999998 0.19999999999955789 0 0.29999999999999999 0.19999999999955789 0 0.34999999999999998 0.14999999999970359 0 0.29999999999999999 0.19999999999955789 0 0.29999999999999999 0.14999999999970359 0 0.40000000000000002 0.14999999999970359 0 0.34999999999999998 0.19999999999955789 0 0.34999999999999998 0.14999999999970359 0 0.40000000000000002 0.099999999999814668 0 0.40000000000000002 0.14999999999970359 0 0.34999999999999998 0.14999999999970359 0 0.40000000000000002 0.14999999999970359 0 0.40000000000000002 0.19999999999955789 0 0.34999999999999998 0.19999999999955789 0 0.45000000000000001 0.14999999999970359 0 0.45000000000000001 0.19999999999955789 0 0.40000000000000002 0.19999999999955789 0 0.45000000000000001 0.14999999999970359 0 0.40000000000000002 0.19999999999955789 0 0.40000000000000002 0.14999999999970359 0 0.45000000000000001 0.099999999999814668 0 0.45000000000000001 0.14999999999970359 0 0.40000000000000002 0.14999999999970359 0 0.40000000000000002 0.19999999999955789 0 0.40000000000000002 0.24999999999941211 0 0.34999999999999998 0.24999999999941211 0 0.45000000000000001 0.19999999999955789 0 0.40000000000000002 0.24999999999941211 0 0.40000000000000002 0.19999999999955789 0 0.45000000000000001 0.19999999999955789 0 0.45000000000000001 0.24999999999941211 0 0.40000000000000002 0.24999999999941211 0 0.5 0.19999999999955789 0 0.45000000000000001 0.24999999999941211 0 0.45000000000000001 0.19999999999955789 0 0.5 0.19999999999955789 0 0.5 0.24999999999941211 0 0.45000000000000001 0.24999999999941211 0 0.5 0.14999999999970359 0 0.45000000000000001 0.19999999999955789 0 0.45000000000
[...]
<PointData Scalars="tracer_conc," Vectors="" Tensors="">
<DataArray type="Float64" Name="tracer_conc" format="ascii">
3.9602424071482445 4.1879428461508619 4.1121089716966814 4.0076111003489219 4.0464117218403031 4.141450038238208 4.0459368695474893 4.1374498038515037 4.1395491432881464 4.0646806976330767 4.0578714305762746 4.1027810099411397 4.0709693631665775 4.0558256760492206 4.1132463210094681 4.0025686312711271 4.0787626609404928 4.0462447640131538 4.0223173035201434 4.042356037802417 4.0595044263169822 4.0455340669605073 4.0526363560931431 4.055677851234246 4.0576185773181184 4.0662396228400404 4.0424188543199309 4.0004988022948993 4.0580224367465547 4.006124872609945 3.9145745248730099 4.0199177313865206 3.9339762148797299 3.9187710292906162 4.0691405439039912 3.9873334272534615 3.9459688402266813 4.0060870328750626 4.0423563809328282 4.0048693868947041 3.9400482511635784 3.8702333472691781 4.0052095492985673 3.868376437205471 3.9445019966230541 4.0509878173515954 3.9904286766409864 3.9601825219404154 4.0455803015991387 3.9641445587745272 4.0315291759123602 4.0780336835110349 4.0325721637264129 4.0457674730444095 4.0586225449600128 4.051234723005642 4.0405623520285836 4.091064711390433 4.0545762646108594 4.051160156986672 4.0656652185081459 4.0415040640239246 4.0006122199775529 4.0582905851923767 4.006800874610625 4.032300949984208 4.0506452888993945 3.9526398291108324 3.9900792763729913 4.1063650230796185 4.031707396441397 4.041380043388938 4.0534416579991381 4.0210979554809283 3.9510437188352099 4.1755789784459303 4.1860850267839202 4.1074432996549435 4.1101315992352854 4.1023564643638109 4.0287542266112792 4.171393188693358 4.1110752815149096 4.1003942837498659 4.1463930743076203 4.1676802198808831 4.1046421682333634 4.1398523685711988 4.1107525437272727 4.0870064117061577 4.0982047884599098 4.1004569870501548 4.0481512828011121 4.0685227037851197 4.0870051831295129 4.0557981489988997 4.1012294389142054 4.1375657379246915 4.0895576348002187 4.1515146346049514 4.2006213374945016 4.138955220319513 4.2077840433544145 4.2429761719959256 4.1702504588298339 4.2018614351274106 4.1759101597743893 4.137596034779131 4.2452345971908789 4.1933047968391266 4.1676569412608258 4.2495551362585884 4.2736927055235014 4.1893603705754341 3.9494483570875585 4.0280817252332479 4.0007481957566053 3.9368146346551263 4.0132798450772205 3.9241788228065961 3.9323729466035866 4.0037282295576331 4.0022792251733277 4.0149885645447769 4.056522371335312 4.0435300165032126 4.0923048346133424 4.0982819514268245 4.0566393087237902 4.0255737135235643 4.0676997024232584 4.0037381358238395 4.0364545757927557 4.0920853481374024 4.0566984921764266 4.07007188091338 4.1005191217297661 4.0280693622642287 4.1440923216548491 4.1462921380861726 4.0921903185146711 4.0785924878126174 4.144231239072079 4.0918781655039282 3.9876773313856457 4.0719349547895645 4.0258858062502441 3.9780986965779874 4.0353611522344428 3.9431703060416394 4.0337508065675802 4.0779279156804584 3.9824438990561393 4.0414478025470837 4.1305997695148235 4.0703473359762627 4.1007547074753976 4.1358504582570896 4.0367965475349639 4.107279289310541 4.2010186365652986 4.1294567446759824 4.1771620583912954 4.2058534055283419 4.1029389111036147 4.3706143909900907 4.3623356861177855 4.2856878530029636 4.2804528330349951 4.2907246662194929 4.2009765178534408 4.2000123251060906 4.2152472381196819 4.130564068358793 4.2060322673833017 4.2856402814053753 4.2091665852345095 4.2853071591396041 4.2802003129264357 4.2095969665094435 4.1362264973771676 4.2095347913908183 4.1438940759054868 4.1292323196386693 4.1509800355581383 4.0719083014687367 4.2092548288252818 4.2076515014484448 4.1443130981462017 4.2748826504771067 4.2497386125856531 4.2006566196798207 4.280308612976838 4.325904675753014 4.2444800603131521 4.2156242889213082 4.2742766967624952 4.2013204340816968 4.3271938474907063 4.2797895115636369 4.2429722923905899 4.3315446175348677 4.3659671449552455 4.2756980308773702 4.4210306883447377 4.463370666100495 4.367080846715683 4.4166673744649003 4.3712601338360493 4.3259094497182442 4.5132116669898004 4.4681107329846634 4.4160425852475793 4.290977445125165 4.3571182183785684 4.2745516693841488 4.362403409561991 4.416034455127428 4.3266946376792799 4.3573247626185942 4.3316596838677075 4.2743089532321275 4.4480995759757933 4.4211189514785518 4.357145580880939 4.3758491766031433 4.448158510418736 4.3571193367289274 4.4529675347741868 4.5130349883641045 4.4163348831995854 4.5512752459899142 4.6166987566562989 4.5129872566150864 4.5465043388885151 4.5176896191313691 4.4481811418512303 4.4691250430361418 4.5467536909632909 4.4479696186065345 4.5176068502876543 4.5662049571030652 4.4638518860979577 4.6165452157177187 4.5705803341623046 4.5130439640677169 4.6210043726987378 4.6747002106284725 4.566228131579753 4.7265281687256699 4.678847306922755 4.6167073748837577 4.731085532255328 4.7890613272693594 4.6743799704324669 4.6521266486067727 4.6210928016517006 4.5467722300796396 4.6568923024762618 4.7269354277045412 4.6163894918737478 4.5701280305411212 4.6525277590886063 4.5464187592919272 4.5652298139541028 4.5512886744704053 4.4645338862254853 4.4658381699462337 4.4690401882059918 4.3698370210268012 4.4707519560973417 4.5656296246772268 4.4641350112197067 4.3589228746509132 4.4663063706314672 4.3694261236815271 4.353726230927486 4.3744497865336962 4.2629522905934465 4.2671296029147783 4.3698893354004946 4.2805958791507841 4.2617353241719114 4.2858314840515819 4.1787677756276658 4.1829688182789804 4.2812041782795962 4.2001915180505049 4.2858707256073227 4.3709697835771477 4.2852731950987248 4.4641312576511671 4.4529418002756449 4.3710068825222477 4.3743849031858657 4.4645043317624085 4.3706068683432591 4.3693114350730271 4.3756912156622407 4.2811567967654973 4.7813501350264263 4.6784253455001341 4.6626771591428025 4.7846047695940026 4.796860233085118 4.6753165903914997 4.7599715354681251 4.7818894423353893 4.6623447754882266 4.6435104503878648 4.6627041189610328 4.5467702059918649 4.6653096693586233 4.6760061678301312 4.5575787615084984 4.6780589461671838 4.6805685312774576 4.560958523523432 4.7991354687068331 4.801955720743937 4.6794660721262487 4.7960002663505383 4.6824715566242654 4.6759767910573942 4.9202622667634346 4.8041084261320366 4.7968393624559242 4.9238550628611062 4.9269300828072788 4.8006193974599061 4.9078881013405482 4.9214023083989886 4.7958587014514453 4.9042054124024235 4.799425069559021 4.7818706489054366 4.8809561204747149 4.9050790573890257 4.7811624900648617 4.8427586316954372 4.8777795186190929 4.7562842042558389 4.8386957521473182 4.7602268394417209 4.7212241500923637 4.8771109926273875 4.7848853964078231 4.7567907260312303 4.7929290883950832 4.8392222631751762 4.7208457306927816 4.7886181800015448 4.7250470648693081 4.6746995193277003 4.674581530571956 4.6123684293594636 4.5662013755640887 4.6786902501071088 4.7212327572627526 4.6083939453199214 4.5703995187359672 4.6083933451905734 4.5007416815817471 4.7564997521762136 4.6656635886919853 4.6403170281050823 4.721066897006029 4.6438292423638927 4.6083793290595541 4.7248333749801965 4.7568054282058148 4.640212223555447 4.6121077204095711 4.6403388838219808 4.5280679636904466 4.640511644977618 4.5495728107470468 4.52763869335514 4.6087025256472716 4.5312809099045301 4.5002028380691019 4.5041233076740292 4.527670885291597 4.4189532806285925 4.5011765180419276 4.421646725154269 4.3960678476441997 4.5284851876245229 4.4354249202111546 4.4178041448674081 4.5665125252718424 4.5044560354339511 4.4633618287336763 4.4678859870583514 4.5002252257164619 4.3973214976201964 4.4642603930163425 4.4007168241622763 4.365949215893802 4.3709594757223407 4.3961029034932952 4.297358576804295 4.3676711321109725 4.300332193177633 4.273659426635235 4.4002758064145819 4.4178509943005144 4.311642492226774 4.3979342248804256 4.3136454348541049 4.2951196698680185 4.419531896341975 4.3216047525102432 4.3095185500295674 4.433793889318383 4.3255978961587509 4.3186375315941792 4.4348344235428039 4.4410741247309309 4.3248707998629419 4.421110181052585 4.4325151774916156 4.320363082203813 4.5308717141327799 4.5466423484021341 4.4332942874574508 4.5471331823990573 4.443092643808142 4.4324613669879902 4.5491185607371554 4.5578550094110453 4.4413481539386153 4.6626062108540625 4.5600959451192731 4.5466040445853553 4.6755166920239457 4.5633362742330057 4.5578140896914974 4.5578583080093447 4.4453024095342037 4.441017729334475 4.5596266426513541 4.5617511147741023 4.4437451575964806 4.4424861882777611 4.4441259270599334 4.3260014576002019 4.4417337775206231 4.3264811323454309 4.3237873555713495 4.3248113000130779 4.325834113337387 4.2052731705403659 4.3253951739370988 4.2043365148570411 4.2036993883529687 4.3208321671265821 4.3238641429792475 4.2057796758506356 4.3129323907585828 4.3187121124233681 4.2058605063183823 4.3210419912687907 4.2051622809684721 4.2029462819562795 4.2067678721100412 4.0785046679924086 4.082427128913336 4.2049028281151077 4.2038024592348417 4.0808958623278109 4.20454711630095 4.2030479637979958 4.0869067215026655 4.0934583978335493 4.0825630081497355 3.9596028947087363 4.0840507774972306 4.0776455056854175 3.9459861505233298 4.0771974620193756 4.0764226276852584 3.9406738890079192 4.2041442116179386 4.2043777804824387 4.0782791144147268 4.2064810172989207 4.0754882362398144 4.0775094834421015 4.2765500228915387 4.2021249845680533 4.1860265339942693 4.2793620288528427 4.2951735233657589 4.199748845596182 4.2982162033085967 4.2054992480981506 4.1961495017117789 4.2997311442082298 4.3095857501050903 4.2044391098436611 4.3124366194618347 4.2059132375035535 4.2009991094646457 4.2055123222453092 4.0853625335885591 4.0897748451204734 4.1031965890633266 4.0899051186149533 3.9799315077082245 4.200934247724895 4.0947242269643089 4.0974016747934439 4.2012926108719322 4.2010937699037951 4.0949739632132109 4.1926712302474485 4.1962304846094405 4.1028673810655638 4.1101192012267491 4.0975201040332854 4.0042778171598838 4.1905813296770065 4.104352472937423 4.1022585237531208 4.0310644853358957 3.898377450124876 3.9396447776362695 4.1091681845693735 4.0043988353852518 4.0209510642622632 4.0302782273287692 3.9964507859266223 3.900317571688503 4.0028142937349003 3.9725896712547581 3.8546995042783139 4.0063323286684804 3.8501015879855909 3.8890274104635845 4.1044753744992724 3.977851190266557 3.9962901643747335 4.0963952289416463 3.9559204807533894 3.9724202160035871 3.9816971464888571 3.8122310093967982 3.8442417237456605 3.8579724977332304 3.6458916940611785 3.6991931021042723 3.9040373846474217 3.7036271916081911 3.77042639032712 3.896297677684339 3.8446982857753493 3.7128636029482101 3.9505983793171136 3.8894661087555087 3.7854935885849392 3.9552007929815765 3.7793639002799737 3.8544221906501388 3.9471105705282525 3.7785114365631367 3.7882933980703322 3.9396154305886775 3.9375618973842093 3.7867769312987205 4.0818162117463359 3.9354767963348376 3.9409136683269006 4.0880951853736711 3.9412715747144458 3.9530956799624084 3.9761924506881892 3.9532697899068392 3.8187253639690519 3.9542418310977423 3.9410879741300353 3.795482802443777 3.9610580573528775 3.7877800582870513 3.8096685123818634 3.8101777156775549 3.7887360575675304 3.6220594960922843 3.8480216976465127 3.8101263075242895 3.6572745552270356 3.8215275765864232 3.6093736813331496 3.6455256488605001 3.797777925791777 3.5959474215234275 3.6126765578677826 3.7857771532585978 3.7822609348467604 3.6091570490222158 3.7885171568217197 3.6062330113068888 3.6025309401403289 3.7765841303899594 3.7912575666280861 3.6192157078041216 3.9414443489906095 3.7850169404614569 3.781850021902569 3.9338818794140615 3.9431749507464358 3.7932185049830474 4.0789000770603385 3.9390715437735437 3.9373924885869265 4.0841451721339812 3.971473961158706 3.9572480098250056 4.0798108981300398 3.9515742691452456 3.9430163919755072 3.9375784174805029 3.9573886559227374 3.8142538102986436 3.9445992836955877 3.8067440651032411 3.7908958708107185 3.9560855712132077 3.8419742091610658 3.8148346665066528 3.783195131893796 3.8151279773139084 3.6516273782936479 3.7943433430633369 3.6396235369781 3.6157012568900972 3.8146863483065858 3.6942568268628762 3.6515565247103847 3.8477820994719822 3.7669256546509242 3.7081925554138437 3.8404925930220015 3.8991022911785915 3.7745542000315533 3.805066098429799 3.8520917686072558 3.7044987450002607 3.8905885128521249 3.8529059196695012 3.7823367185633368 3.886540532407468 3.9516883829238925 3.8569463014534229 3.9953447110063505 4.0302515680678042 3.941058807060716 3.9968328477960662 3.9397306664147598 3.8990171788975694 4.0971104558452689 4.0219651850985505 4.0041225585974303 3.9502304376134925 3.9786227477893918 3.8481428221468104 3.9743706016783147 3.8877489459299137 3.8518889698939671 3.9703401966862013 4.0042002201365552 3.8918821852698229 4.090629694845223 3.9961848075461464 3.9785084960068438 4.0809448720132915 4.0946066306756572 3.9748693313401438 4.0889694304448385 4.103469562888634 3.9978621263865706 4.2010735188120156 4.0980852076363075 4.0945293365973345 4.2011205811922636 4.2007718359386041 4.0980194138137653 4.202514100744664 4.2047277854572966 4.0911012231358512 4.0975490418384179 4.1092297919133012 4.0213260598918517 4.1953426634527915 4.1038037140122494 4.1034250382342918 4.1970285614013294 4.1912415818581934 4.1019241836178004 4.2939807082048738 4.1878922251487012 4.2007427831971906 4.2964904543044167 4.2775909298447958 4.1852239639324598 4.309037553317002 4.197377884502254 4.204672631077039 4.3103113760008913 4.2986435437269552 4.1960771952289866 4.3189960145015096 4.3123868537201355 4.2014809948329512 4.3186744329274322 4.2017115511500016 4.2054985616150322 4.3241818188586096 4.2032853487687794 4.2050054266718435 4.3238670043132617 4.3206714541654891 4.2037939363227874 4.3257218450356261 4.324870836814025 4.2047186394781972 4.3263407677827672 4.2038185783888826 4.204278584649046 4.2033559238623948 4.2050954823340883 4.0795202601838039 4.2057360292115096 4.0767756810570663 4.0762919012538541 4.0742303747304121 4.0792963923376915 3.9442114959217962 4.0756119162495947 4.0858037556132132 3.956117125234623 4.2036990441024491 4.0897858955034501 4.0857016871537075 4.2029194259758285 4.2055740173374128 4.0842176792244773 4.2049150499328229 4.0819649060997936 4.0791767748319021 3.9958215821175354 3.9414221259526268 4.0120225699513004 3.9947884180203834 3.9980640887019154 4.0574099068679956 4.020256783097353 3.93277934017169 3.9693848162638448 4.0685479151047375 3.9829074951862111 4.0829852156770672 4.0212317250399883 4.1409284119762377 4.1662676130377072 4.0650660013024282 4.0561733552032502 4.128677784044366 4.0401712823347768 4.1573368904961523 4.1256138436314318 4.0372974582234926 4.0695393766621288 4.0968419877402953 4.0563456472641795 4.0513442079967152 4.0496378959775772 4.0507518424986904 4.0112557698545048 4.0359160375367873 4.0331976633798616 4.0565281490581615 4.070416307962673 4.0497733483573271 4.0134227780028757 4.051420203568064 4.0817913411605842 4.0482720946447195 4.0615116566243348 4.0970012483275982 4.0552382242135527 4.0516009818844054 4.0439797961955852 4.0614235504828882 4.0294020995962718 4.037854244132097 4.0365191074960789 4.0039565722590416 4.0449181206482248 4.0628058178346755 4.0473083631008242 4.0233831137130789 4.1126616386982668 4.0516319166640677 3.9856907958801204 4.0363022918906069 3.961977126533482 3.9917602296444268 4.0467485907207141 4.0291978161753415 3.9389168827013443 4.003682024226241 3.9449185492357595 3.9386244488866149 3.9456576682269513 3.8691645403932582 4.0196823605968159 3.9919690370672076 3.9517569468134135 4.0215411638745691 4.0515709143336371 3.9896049472788144 4.1005419064363329 4.0437980356638539 4.0302222616274106 4.1036502477626629 4.107774868343391 4.0402170094152074 4.187856745206938 4.1730490632377917 4.0988720515784536 4.1841631658986369 4.1029617024075291 4.1092263140603329 4.2717584028241165 4.1702424754088829 4.1912441096729731 4.2757285107396976 4.2469913913344746 4.165973571464141 4.2402664658857017 4.1409179154952875 4.1730876960801355 4.2458165452515635 4.2043815556858144 4.1349340417293652 4.1972009315340344 4.0961666397799803 4.1426997483035457 4.1333918594697501 4.0613860612005865 4.094167950362591 4.1706008567106014 4.1426205813500134 4.0840889644708707 4.164621004948974 4.0906878808835057 4.1078193695256537 4.1033293621206441 4.0940715242963632 4.0480922831709627 4.0917629180939548 4.0623675094826925 4.0370643913059574 4.0632276359860002 4.0069230773830702 3.9983265750093513 4.0973939696383219 4.0304463232253847 3.9979563203092892 4.0870407655256615 4.0092648107167355 4.0625099515098562 4.1417430908180881 4.0962002694333526 4.0522101282695067 4.2042787090221729 4.1473410236156845 4.0885563982032656 4.1485497987212057 4.0738986843713967 4.0236630704485705 4.1403029910072133 4.032483209915422 4.0963148420090087 4.0676589225292483 3.9474046094930912 4.0307888047356721 4.0769813882745352 3.9832360653175027 3.9375097892421924 4.0347254601066016 3.9436116059899535 3.9164327444006708 4.0224190100817792 3.9296453969162641 4.0074600962757145 4.0130474855043889 3.9240846930289712 3.9226753319114418 4.2786786598825062 4.1056361639407477 4.2027916317443959 4.1981560581660728 4.0397838871940381 4.1325143795381383 4.204454731485554 4.1041790243622582 4.0332348377364378 4.1346561645427631 4.037841526712767 3.9780707456764421 4.1271914035122874 3.9859097950195399 4.0741229013847535 4.2131876590177884 4.1323634611231759 4.068408524188702 4.2063368925413709 4.0756055976895418 4.1474205430304156 4.2775435297097992 4.2120422968103686 4.1412693246898282 4.3601192238474038 4.2877811610242986 4.206961246684493 4.2829133577637331 4.1338053935990446 4.2120933936858247 4.2888612233734236 4.2026877951046488 4.1276533339455321 4.3685371688868928 4.2039394736276208 4.2878112849868311 4.4458280730000839 4.2886030137724243 4.3595219642361513 4.510893091272437 4.3599167037344833 4.4185034751770704 4.4187014637246804 4.3594973969419186 4.2720753411768984 4.4137775934943928 4.2771829225019555 4.3290143637926688 4.3545685695969647 4.2127167994166861 4.2772400854604751 4.2713791775677619 4.1477700898161221 4.2044402327744699 4.3234625808722278 4.2037095785775787 4.2470220441616595 4.3286460792415715 4.2772002889970011 4.1982365443746961 4.3681578478169181 4.3289926902880316 4.2412238787889915 4.3640496660178973 4.2455414884774632 4.2775952144099945 4.4614676975564835 4.3284684080556373 4.3689669957606743 4.465666851295544 4.4184900717666098 4.3241324750433288 4.5643021441573257 4.4186115607600565 4.4657301364381743 4.5685885820459857 4.5150588663039262 4.4142438965526853 4.6771687862433762 4.6184255864094048 4.511217692744264 4.6727801519726535 4.5156466211200073 4.5681122336090123 4.7871072762057905 4.6193667590413128 4.6762866650738228 4.7916196442613099 4.7284532308118443 4.6148432929775831 4.7248664128282467 4.5495108489533882 4.6184268718292749 4.7295995744364463 4.6541594560164361 4.5447616590613951 4.6503778917495628 4.4673089762016458 4.5485466163946784 4.5445484005779928 4.373815052782672 4.4501944764634453 4.6193287781514885 4.5485422389366681 4.4461437953057397 4.6146154802355515 4.4509111088996995 4.5150654310684972 4.5156647565281309 4.4501815073109547 4.3550371744558074 4.4509964780030078 4.3728875956899032 4.2833189571040151 4.3739244665236141 4.2828387539740058 4.1984407077124564 4.462243202580451 4.2839661161798865 4.3729026241232036 4.4673113888884695 4.3715253613724769 4.278849217817517 4.549509451978893 4.4662887797507631 4.3687998584123351 4.6552646449124202 4.5673368381671828 4.462411195086565 4.5683763234642756 4.4679661021463826 4.3676545887385494 4.5634519052840545 4.3725836615520945 4.4662929408513428 4.4640740942197281 4.2654159837954415 4.3715775401495653 4.4690258523567339 4.3563536085422454 4.2603850543517874 4.3727197380301304 4.2644919815436806 4.176027094229827 4.367560036219519 4.1813027871775903 4.2829116164816332 4.2842575979799982 4.180168105359213 4.0998873929357034 4.5571307271735844 4.433863791514745 4.4418083569280