<?xml version="1.0"?>
<VTKFile type="UnstructuredGrid" version="0.1" byte_order="LittleEndian">
<UnstructuredGrid>
<Piece NumberOfPoints="2400" NumberOfCells="800">
<Points>
<DataArray type="Float64" NumberOfComponents="3" format="ascii">
1.000000000000000e+00 0.000000000000000e+00 0.000000000000000e+00 1.000000000000000e+00 4.999999999989965e-02 0.000000000000000e+00 9.500000000000000e-01 4.999999999989965e-02 0.000000000000000e+00 1.000000000000000e+00 0.000000000000000e+00 0.000000000000000e+00 9.500000000000000e-01 4.999999999989965e-02 0.000000000000000e+00 9.500000000000000e-01 0.000000000000000e+00 0.000000000000000e+00 9.500000000000000e-01 0.000000000000000e+00 0.000000000000000e+00 9.500000000000000e-01 4.999999999989965e-02 0.000000000000000e+00 9.000000000000000e-01 4.999999999989965e-02 0.000000000000000e+00 9.500000000000000e-01 0.000000000000000e+00 0.000000000000000e+00 9.000000000000000e-01 4.999999999989965e-02 0.000000000000000e+00 9.000000000000000e-01 0.000000000000000e+00 0.000000000000000e+00 9.000000000000000e-01 0.000000000000000e+00 0.000000000000000e+00 9.000000000000000e-01 4.999999999989965e-02 0.000000000000000e+00 8.500000000000000e-01 4.999999999989965e-02 0.000000000000000e+00 9.000000000000000e-01 0.000000000000000e+00 0.000000000000000e+00 8.500000000000000e-01 4.999999999989965e-02 0.000000000000000e+00 8.500000000000000e-01 0.000000000000000e+00 0.000000000000000e+00 8.500000000000000e-01 0.000000000000000e+00 0.000000000000000e+00 8.500000000000000e-01 4.999999999989965e-02 0.000000000000000e+00 8.000000000000000e-01 4.999999999989965e-02 0.000000000000000e+00 8.500000000000000e-01 0.000000000000000e+00 0.000000000000000e+00 8.000000000000000e-01 4.999999999989965e-02 0.000000000000000e+00 8.000000000000000e-01 0.000000000000000e+00 0.000000000000000e+00 8.000000000000000e-01 0.000000000000000e+00 0.000000000000000e+00 8.000000000000000e-01 4.999999999989965e-02 0.000000000000000e+00 7.500000000000000e-01 4.999999999989965e-02 0.000000000000000e+00 8.000000000000000e-01 0.000000000000000e+00 0.000000000000000e+00 7.500000000000000e-01 4.999999999989965e-02 0.000000000000000e+00 7.500000000000000e-01 0.000000000000000e+00 0.000000000000000e+00 7.500000000000000e-01 0.000000000000000e+00 0.000000000000000e+00 7.500000000000000e-01 4.999999999989965e-02 0.000000000000000e+00 7.000000000000000e-01 4.999999999989965e-02 0.000000000000000e+00 7.500000000000000e-01 0.000000000000000e+00 0.000000000000000e+00 7.000000000000000e-01 4.999999999989965e-02 0.000000000000000e+00 7.000000000000000e-01 0.000000000000000e+00 0.000000000000000e+00 7.000000000000000e-01 0.000000000000000e+00 0.000000000000000e+00 7.000000000000000e-01 4.999999999989965e-02 0.000000000000000e+00 6.500000000000000e-01 4.999999999989965e-02 0.000000000000000e+00 7.000000000000000e-01 0.000000000000000e+00 0.000000000000000e+00 6.500000000000000e-01 4.999999999989965e-02 0.000000000000000e+00 6.500000000000000e-01 0.000000000000000e+00 0.000000000000000e+00 6.500000000000000e-01 0.000000000000000e+00 0.000000000000000e+00 6.500000000000000e-01 4.999999999989965e-02 0.000000000000000e+00 6.000000000000000e-01 4.999999999989965e-02 0.000000000000000e+00 6.500000000000000e-01 0.000000000000000e+00 0.000000000000000e+00 6.000000000000000e-01 4.999999999989965e-02 0.000000000000000e+00 6.000000000000000e-01 0.000000000000000e+00 0.000000000000000e+00 6.000000000000000e-01 0.000000000000000e+00 0.000000000000000e+00 6.000000000000000e-01 4.999999999989965e-02 0.000000000000000e+00 5.500000000000000e-01 4.999999999989965e-02 0.000000000000000e+00 6.000000000000000e-01 0.000000000000000e+00 0.000000000000000e+00 5.500000000000000e-01 4.999999999989965e-02 0.000000000000000e+00 5.500000000000000e-01 0.000000000000000e+00 0.000000000000000e+00 5.500000000000000e-01 0.000000000000000e+00 0.000000000000000e+00 5.500000000000000e-01 4.999999999989965e-02 0.000000000000000e+00 5.000000000000000e-01 4.999999999989965e-02 0.000000000000000e+00 5.500000000000000e-01 0.000000000000000e+00 0.000000000000000e+00 5.000000000000000e-01 4.999999999989965e-02 0.000000000000000e+00 5.000000000000000e-01 0.000000000000000e+00 0.000000000000000e+00 5.000000000000000e-01 0.000000000000000e+00 0.000000000000000e+00 5.000000000000000e-01 4.999999999989965e-02 0.000000000000000e+00 4.500000000000000e-01 4.999999999989965e-02 0.000000000000000e+00 5.000000000000000e-01 0.000000000000000e+00 0.000000000000000e+00 4.500000000000000e-01 4.999999999989965e-02 0.000000000000000e+00 4.500000000000000e-01 0.000000000000000e+00 0.000000000000000e+00 4.500000000000000e-01 0.000000000000000e+00 0.000000000000000e+00 4.500000000000000e-01 4.999999999989965e-02 0.000000000000000e+00 4.000000000000000e-01 4.999999999989965e-02 0.000000000000000e+00 4.500000000000000e-01 0.000000000000000e+00 0.000000000000000e+00 4.000000000000000e-01 4.999999999989965e-02 0.000000000000000e+00 4.000000000000000e-01 0.000000000000000e+00 0.000000000000000e+00 4.000000000000000e-01 0.000000000000000e+00 0.000000000000000e+00 4.000000000000000e-01 4.999999999989965e-02 0.000000000000000e+00 3.500000000000000e-01 4.999999999989965e-02 0.000000000000000e+00 4.000000000000000e-01 0.000000000000000e+00 0.000000000000000e+00 3.500000000000000e-01 4.999999999989965e-02 0.000000000000000e+00 3.500000000000000e-01 0.000000000000000e+00 0.000000000000000e+00 3.500000000000000e-01 0.000000000000000e+00 0.000000000000000e+00 3.500000000000000e-01 4.999999999989965e-02 0.000000000000000e+00 3.000000000000000e-01 4.999999999989965e-02 0.000000000000000e+00 3.500000000000000e-01 0.000000000000000e+00 0.000000000000000e+00 3.000000000000000e-01 4.999999999989965e-02 0.000000000000000e+00 3.000000000000000e-01 0.000000000000000e+00 0.000000000000000e+00 3.000000000000000e-01 0.000000000000000e+00 0.000000000000000e+00 3.000000000000000e-01 4.999999999989965e-02 0.000000000000000e+00 2.500000000000000e-01 4.999999999989965e-02 0.000000000000000e+00 3.000000000000000e-01 0.000000000000000e+00 0.000000000000000e+00 2.500000000000000e-01 4.999999999989965e-02 0.000000000000000e+00 2.500000000000000e-01 0.000000000000000e+00 0.000000000000000e+00 2.500000000000000e-01 0.000000000000000e+00 0.000000000000000e+00 2.500000000000000e-01 4.999999999989965e-02 0.000000000000000e+00 2.000000000000000e-01 4.999999999989965e-02 0.000000000000000e+00 2.500000000000000e-01 0.000000000000000e+00 0.000000000000000e+00 2.000000000000000e-01 4.999999999989965e-02 0.000000000000000e+00 2.000000000000000e-01 0.000000000000000e+00 0.000000000000000e+00 2.000000000000000e-01 0.000000000000000e+00 0.000000000000000e+00 2.000000000000000e-01 4.999999999989965e-02 0.000000000000000e+00 1.500000000000000e-01 4.999999999989965e-02 0.000000000000000e+00 2.000000000000000e-01 0.000000000000000e+00 0.000000000000000e+00 1.500000000000000e-01 4.999999999989965e-02 0.000000000000000e+00 1.500000000000000e-01 0.000000000000000e+00 0.000000000000000e+00 1.500000000000000e-01 0.000000000000000e+00 0.000000000000000e+00 1.500000000000000e-01 4.999999999989965e-02 0.000000000000000e+00 9.999999999999998e-02 4.999999999989965e-02 0.000000000000000e+00 1.500000000000000e-01 0.000000000000000e+00 0.000000000000000e+00 9.999999999999998e-02 4.999999999989965e-02 0.000000000000000e+00 9.999999999999998e-02 0.000000000000000e+00 0.000000000000000e+00 9.999999999999998e-02 0.000000000000000e+00 0.000000000000000e+00 9.999999999999998e-02 4.999999999989965e-02 0.000000000000000e+00 5.000000000000004e-02 4.999999999989965e-02 0.000000000000000e+00 9.999999999999998e-02 0.000000000000000e+00 0.000000000000000e+00 5.000000000000004e-02 4.999999999989965e-02 0.000000000000000e+00 5.000000000000004e-02 0.000000000000000e+00 0.000000000000000e+00 5.000000000000004e-02 0.000000000000000e+00 0.000000000000000e+00 5.000000000000004e-02 4.999999999989965e-02 0.000000000000000e+00 0.000000000000000e+00 4.999999999989965e-02 0.000000000000000e+00 5.000000000000004e-02 0.000000000000000e+00 0.000000000000000e+00 0.000000000000000e+00 4.999999999989965e-02 0.000000000000000e+00 0.000000000000000e+00 0.000000000000000e+00 0.000000000000000e+00 1.000000000000000e+00 4.999999999989965e-02 0.000000000000000e+00 1.000000000000000e+00 9.999999999981467e-02 0.000000000000000e+00 9.500000000000000e-01 9.999999999981467e-02 0.000000000000000e+00 1.000000000000000e+00 4.999999999989965e-02 0.000000000000000e+00 9.500000000000000e-01 9.999999999981467e-02 0.000000000000000e+00 9.500000000000000e-01 4.999999999989965e-02 0.000000000000000e+00 9.500000000000000e-01 4.999999999989965e-02 0.000000000000000e+00 9.500000000000000e-01 9.999999999981467e-02 0.000000000000000e+00 9.000000000000000e-01 9.999999999981467e-02 0.000000000000000e+00 9.500000000000000e-01 4.999999999989965e-02 0.000000000000000e+00 9.000000000000000e-01 9.999999999981467e-02 0.000000000000000e+00 9.000000000000000e-01 4.999999999989965e-02 0.000000000000000e+00 9.000000000000000e-01 4.999999999989965e-02 0.000000000000000e+00 9.000000000000000e-01 9.999999999981467e-02 0.000000000000000e+00 8.500000000000000e-01 9.999999999981467e-02 0.000000000000000e+00 9.000000000000000e-01 4.999999999989965e-02 0.000000000000000e+00 8.500000000000000e-01 9.999999999981467e-02 0.000000000000000e+00 8.500000000000000e-01 4.999999999989965e-02 0.000000000000000e+00 8.500000000000000e-01 4.999999999989965e-02 0.000000000000000e+00 8.500000000000000e-01 9.999999999981467e-02 0.000000000000000e+00 8.000000000000000e-01 9.999999999981467e-02 0.000000000000000e+00 8.500000000000000e-01 4.999999999989965e-02 0.000000000000000e+00 8.000000000000000e-01 9.999999999981467e-02 0.000000000000000e+00 8.000000000000000e-01 4.999999999989965e-02 0.000000000000000e+00 8.000000000000000e-01 4.999999999989965e-02 0.000000000000000e+00 8.000000000000000e-01 9.999999999981467e-02 0.000000000000000e+00 7.500000000000000e-01 9.999999999981467e-02 0.000000000000000e+00 8.000000000000000e-01 4.999999999989965e-02 0.0000000000000
[...]
<PointData Scalars="tracer_conc," Vectors="" Tensors="">
<DataArray type="Float64" Name="tracer_conc" format="ascii">
5.739622220924023e+00 5.891752327807076e+00 5.684568998168159e+00 5.716522572274620e+00 5.704888514387796e+00 5.529764141590266e+00 5.541456352707511e+00 5.693943401475830e+00 5.510579339933056e+00 5.526337053927829e+00 5.524573925556432e+00 5.357582349614348e+00 5.367037262637777e+00 5.514904484330026e+00 5.347308658177343e+00 5.354881936314288e+00 5.358794914050240e+00 5.199465278366134e+00 5.207683168828350e+00 5.350197347677303e+00 5.195172992067675e+00 5.197346203763717e+00 5.205012744575559e+00 5.052831495882748e+00 5.060226589451127e+00 5.197192198113108e+00 5.052694772445390e+00 5.051106224990002e+00 5.061414377726835e+00 4.915966335456717e+00 4.922753094700825e+00 5.054189382613541e+00 4.918873585650126e+00 4.914487760751140e+00 4.926800552170726e+00 4.787706646476398e+00 4.794023234030218e+00 4.920045234637453e+00 4.793003114537928e+00 4.786371266511762e+00 4.800360905485425e+00 4.667268611115083e+00 4.673215103927771e+00 4.793979024973727e+00 4.674605307735004e+00 4.665995384204285e+00 4.681564640317535e+00 4.554141846939669e+00 4.559799312079531e+00 4.675474568165540e+00 4.563401348688745e+00 4.552857640585017e+00 4.570110387236515e+00 4.448039670128982e+00 4.453482298058442e+00 4.564234337067010e+00 4.459307808086202e+00 4.446668111803827e+00 4.465913872057582e+00 4.348886856218487e+00 4.354191745851963e+00 4.460168264511089e+00 4.362457188280742e+00 4.347337531080275e+00 4.369126635788262e+00 4.256838087444292e+00 4.262095393170429e+00 4.363411348397096e+00 4.273246309444638e+00 4.254993646714716e+00 4.280187347000751e+00 4.172328571975150e+00 4.177654518553218e+00 4.274371395129863e+00 4.192421018813968e+00 4.170026954571518e+00 4.199914567258950e+00 4.096165733356769e+00 4.101722044261597e+00 4.193814489254494e+00 4.121213069787217e+00 4.093173193855610e+00 4.129659402697021e+00 4.029680663392960e+00 4.035706963747705e+00 4.123003433421506e+00 4.061557260665895e+00 4.025647671253297e+00 4.071552542324302e+00 3.974974770134672e+00 3.981848231249973e+00 4.063915968663750e+00 4.016439291834407e+00 3.969358130396193e+00 4.028911434536858e+00 3.935330369165701e+00 3.943687778071721e+00 4.019588756814899e+00 3.990468977412756e+00 3.927242033266832e+00 4.006941391251789e+00 3.915928501671959e+00 3.926947913029128e+00 3.994665852036290e+00 3.990867687418661e+00 3.903802457858996e+00 4.014031124078648e+00 3.925203907160611e+00 3.941337657131897e+00 3.996297295564110e+00 4.029284190793923e+00 3.905843753845851e+00 4.064457663003286e+00 3.977684129617615e+00 4.004590932757115e+00 4.036216204137849e+00 4.125729321908524e+00 3.945052525471936e+00 4.183143683299185e+00 4.101528725257597e+00 5.897080607741197e+00 6.022407915960648e+00 5.821744279082668e+00 5.882333544393392e+00 5.835418578590588e+00 5.693517943806446e+00 5.700992154501169e+00 5.829453063692791e+00 5.644572112078279e+00 5.688504305531988e+00 5.656066747013405e+00 5.514529337324215e+00 5.522230145983224e+00 5.649290648607723e+00 5.477983867180211e+00 5.511429125134456e+00 5.488177401913367e+00 5.349914199138995e+00 5.357315729542480e+00 5.481383870386431e+00 5.321734984443943e+00 5.347810288480842e+00 5.330837752868606e+00 5.196979826897408e+00 5.203981925784554e+00 5.324260500138119e+00 5.174792069910387e+00 5.195444278310489e+00 5.183046870830999e+00 5.054021691602062e+00 5.060646452209809e+00 5.176735044231126e+00 5.036359929275954e+00 5.052833341472725e+00 5.043965895259562e+00 4.919907288606385e+00 4.926204211038551e+00 5.037908611640648e+00 4.905839912139073e+00 4.918930760837332e+00 4.912957462800893e+00 4.793862424571215e+00 4.799888389447488e+00 4.907119787325448e+00 4.782807736942620e+00 4.793004733359688e+00 4.789572714351240e+00 4.675374515938468e+00 4.681191364213362e+00 4.783905553000984e+00 4.667001790512899e+00 4.674563759917428e+00 4.673539999806101e+00 4.564148231280937e+00 4.569826306439574e+00 4.667980193879171e+00 4.558326388217846e+00 4.563320830238173e+00 4.564767765873871e+00 4.460095049259937e+00 4.465720143667477e+00 4.559232985413603e+00 4.456872425369681e+00 4.459186413295900e+00 4.463366258713967e+00 4.363351281635553e+00 4.369035230425197e+00 4.457745379698837e+00 4.362959306161478e+00 4.362287368640295e+00 4.369692741748888e+00 4.274326110805760e+00 4.280222915551698e+00 4.363830359595123e+00 4.277204713644314e+00 4.273014307828582e+00 4.284427612388630e+00 4.193787347661279e+00 4.200118695100144e+00 4.278099379688618e+00 4.200632657022741e+00 4.192105582305771e+00 4.208693186230017e+00 4.123000237018926e+00 4.130097826457996e+00 4.201565671747780e+00 4.134835524861990e+00 4.120783949147302e+00 4.144232867914097e+00 4.063946126315478e+00 4.072325346426820e+00 4.135796389366712e+00 4.082212108168717e+00 4.060975472915334e+00 4.093674381119219e+00 4.019666445062635e+00 4.030160487201088e+00 4.083128550753727e+00 4.046306456761333e+00 4.015667430140387e+00 4.060896761677115e+00 3.994806539738696e+00 4.008817781642789e+00 4.046958818536337e+00 4.032251446509292e+00 3.989527802253568e+00 4.051458764971065e+00 3.996467067124013e+00 4.016434784425752e+00 4.032074414272668e+00 4.047184316974687e+00 3.990091217672429e+00 4.072723275923457e+00 4.035428253623075e+00 4.065410342642142e+00 4.044985455158110e+00 4.100086427933404e+00 4.033375515176537e+00 4.130156543947725e+00 4.128177802300597e+00 6.026976459352268e+00 6.130989045281188e+00 5.935840211330548e+00 6.015474467154288e+00 5.946737468643277e+00 5.829082305027643e+00 5.834531904038783e+00 5.942163081774433e+00 5.758441392015995e+00 5.824005171070918e+00 5.768372189586731e+00 5.649166233009788e+00 5.655211196103624e+00 5.762983046703821e+00 5.590266530297881e+00 5.645392716213291e+00 5.599629198482591e+00 5.481276389417269e+00 5.487540200998090e+00 5.593871670037656e+00 5.431431392845457e+00 5.478513604803770e+00 5.440119019018364e+00 5.324179389740162e+00 5.330398685551638e+00 5.434285343943766e+00 5.281272797654856e+00 5.322072830395336e+00 5.289347336529543e+00 5.176677103572867e+00 5.182753077244745e+00 5.283569210557539e+00 5.139240269040605e+00 5.175007734503588e+00 5.146796854825417e+00 5.037868583341950e+00 5.043776416111316e+00 5.141124281595473e+00 5.004880005272573e+00 5.036495338574521e+00 5.012016921249049e+00 4.907093506836882e+00 4.912845552139617e+00 5.006455289154633e+00 4.877843056504571e+00 4.905920962599488e+00 4.884655744736360e+00 4.783890308189545e+00 4.789522632001076e+00 4.879181379316803e+00 4.757890554597416e+00 4.782850609716126e+00 4.764474492789732e+00 4.667974556178224e+00 4.673544318689092e+00 4.759039139336471e+00 4.644903141749281e+00 4.667016751989002e+00 4.651360538560684e+00 4.559236640307671e+00 4.564825832017683e+00 4.645889103489073e+00 4.538899024681568e+00 4.558320184172551e+00 4.545347984732814e+00 4.457759053763829e+00 4.463483571372856e+00 4.539730804314383e+00 4.440064226298781e+00 4.456850077017927e+00 4.446650492733126e+00 4.363855827425864e+00 4.369880848631835e+00 4.440729601247267e+00 4.348798712416510e+00 4.362926078651970e+00 4.355710609980857e+00 4.278139450890682e+00 4.284703790636247e+00 4.349258068328345e+00 4.265782200775488e+00 4.277169388622174e+00 4.273269152943930e+00 4.201623829138077e+00 4.209078068818881e+00 4.265954126280109e+00 4.192062181695835e+00 4.200614439411273e+00 4.200455289466578e+00 4.135874968065631e+00 4.144740837265310e+00 4.191795536355281e+00 4.129160569219388e+00 4.134880123410124e+00 4.138887160215454e+00 4.083221672204036e+00 4.094282209901956e+00 4.128182029331111e+00 4.079175559251694e+00 4.082430787288022e+00 4.090739623711845e+00 4.047027488806408e+00 4.061452361843886e+00 4.076992935033496e+00 4.044798931738452e+00 4.046971930408066e+00 4.058643681110217e+00 4.031973606931376e+00 4.051452072079410e+00 4.040522579658159e+00 4.029018339999943e+00 4.033982675496334e+00 4.045076540464168e+00 4.044125449386312e+00 4.070724472123627e+00 4.021298923362958e+00 4.034108661945098e+00 4.054098150952673e+00 4.048514244628504e+00 4.091084512041821e+00 6.134966660437936e+00 6.220734109992753e+00 6.030181025105556e+00 6.125462994274054e+00 6.039263763141254e+00 5.941882638721999e+00 5.946250316604213e+00 6.035472893899444e+00 5.853724151083006e+00 5.937216199291563e+00 5.862374179356356e+00 5.762868220463062e+00 5.767843940920929e+00 5.857861999887833e+00 5.685101359598070e+00 5.759033294688660e+00 5.693579895961236e+00 5.593777657944447e+00 5.599140636939697e+00 5.688623932384941e+00 5.524748766389433e+00 5.590738605845597e+00 5.532870581006744e+00 5.434209927814170e+00 5.439724144116708e+00 5.527698578313354e+00 5.372342603521766e+00 5.431770634731128e+00 5.380067912350263e+00 5.283510701348663e+00 5.289043874315796e+00 5.374819260365117e+00 5.227556278557086e+00 5.281514491537050e+00 5.234900828935050e+00 5.141079906321571e+00 5.146569123712808e+00 5.229650434204864e+00 5.090077796264647e+00 5.139413639129187e+00 5.097081727940413e+00 5.006422228507841e+00 5.011849242067911e+00 5.091859632054573e+00 4.959633888620801e+00 5.005007318700957e+00 4.966348433022658e+00 4.879157324495807e+00 4.884535790682338e+00 4.961151429687694e+00 4.836004821624394e+00 4.877941478388471e+00 4.842488062507071e+00 4.759022385574679e+00 4.764393544960966e+00 4.837284364665132e+00 4.719035980753204e+00 4.757974323226894e+00 4.725353300055477e+00 4.645878460139580e+00 4.651312828744087e+00 4.720081784305560e+00 4.608650308242347e+00 4.644985747016303e+00 4.614877372366506e+00 4.539725410478231e+00 4.545329622252847e+00 4.609442112783386e+00 4.504863882354258e+00 4.538995671629646e+00 4.511091000979206e+00 4.440728599603161e+00 4.446657709011865e+00 4.505351016679112e+00 4.407805388659559e+00 4.440195239045768e+00 4.414142117859686e+00 4.349259935543403e+00 4.355736346296323e+00 4.407895741914519e+00 4.317737958309127e+00 4.348995073391231e+00 4.324315760087186e+00 4.265955156582777e+00 4.273295802477555e+00 4.317279047843003e+00 4.235077159297208e+00 4.266095458028489e+00 4.242044941294783e+00 4.191786298237833e+00 4.200439048184858e+00 4.233824847943497e+00 4.160388699432359e+00 4.192582899968301e+00 4.167889249097157e+00 4.128139206551093e+00 4.138725436881710e+00 4.157956884866437e+00 4.094327833505461e+00 4.130052464646328e+00 4.102429324521628e+00 4.076862116095236e+00 4.090209636817566e+00 4.090110525062814e+00 4.037440037343051e+00 4.080732594505869e+00 4.045973654943185e+00 4.040195779710976e+00 4.057321029110034e+00 4.030499238043042e+00 3.989665431555479e+00 4.047456719755901e+00 3.997920779301653e+00 4.020383735567370e+00 4.042260494501066e+00 3.978886326863508e+00 3.949434732665026e+00 4.036047074574662e+00 3.953384568341788e+00 4.019631325262588e+00 6.224337974369386e+00 6.293875706718975e+00 6.107133834722071e+00 6.216170439667095e+00 6.114987048897451e+00 6.035264675135799e+00 6.039030445822656e+00 6.111630125469313e+00 5.931955321046286e+00 6.031097959102359e+00 5.939629893775710e+00 5.857769937331886e+00 5.862065341567780e+00 5.935665099568562e+00 5.763475005751284e+00 5.854112023981461e+00 5.771190545175494e+00 5.688544131662267e+00 5.693251883918176e+00 5.766799233806048e+00 5.602306389246881e+00 5.685463691041537e+00 5.609873943491743e+00 5.527631188683822e+00 5.532571570960225e+00 5.605222310931037e+00 5.448369091532802e+00 5.525039584044482e+00 5.455705395357760e+00 5.374763343312831e+00 5.379812683056984e+00 5.450913501116371e+00 5.301514625508815e+00 5.372570300079220e+00 5.308586117177886e+00 5.229604466674389e+00 5.234688742372013e+00 5.303731556322319e+00 5.161549657384447e+00 5.227736438599788e+00 5.168351515649801e+00 5.091821729598876e+00 5.096906117665664e+00 5.163475829860197e+00 5.028264495405055e+00 5.090226612590018e+00 5.034808010833678e+00 4.961119656051287e+00 4.966200886532868e+00 5.029922521964526e+00 4.901450153484633e+00 4.959767046050330e+00 4.907755729684422e+00 4.837256831257199e+00 4.842359812463127e+00 4.902844578185523e+00 4.780907978730444e+00 4.836138219805536e+00 4.787001511663406e+00 4.720056561160006e+00 4.725235075367975e+00 4.782021494722155e+00 4.666454322081264e+00 4.719187384381689e+00 4.672365194906413e+00 4.609416966375291e+00 4.614758186487413e+00 4.667242448415235e+00 4.557920848728835e+00 4.608841847686790e+00 4.563680009111474e+00 4.505322912610198e+00 4.510955728008192e+00 4.558303620971845e+00 4.455148934954103e+00 4.505125779264826e+00 4.460785212712688e+00 4.407859936935436e+00 4.413967132029066e+00 4.454998010133701e+00 4.357973493268744e+00 4.408181695125982e+00 4.363505201690924e+00 4.317227423630672e+00 4.324061221782470e+00 4.357092637200222e+00 4.266186367680314e+00 4.318295577049025e+00 4.271602905399517e+00 4.233742907785897e+00 4.241641540172686e+00 4.264282780861273e+00 4.179460480480957e+00 4.235919811041342e+00 4.184684661169023e+00 4.157818737718082e+00 4.167217142699348e+00 4.176104327053488e+00 4.097201236977924e+00 4.161676809080914e+00 4.102017722530817e+00 4.089872200645679e+00 4.101291119178116e+00 4.091772560502104e+00 4.018270540334126e+00 4.096297966244095e+00 4.022202858212879e+00 4.030096700096300e+00 4.044088445077305e+00 4.009902657401534e+00 3.940502721296648e+00 4.040331845556227e+00 3.942650790857711e+00 3.977981078727820e+00 3.994973610392747e+00 3.928337330776340e+00 3.860033626696531e+00 3.996236411434380e+00 3.856582368564722e+00 3.932443367183410e+00 6.297272963937238e+00 6.351980932790359e+00 6.168329297314683e+00 6.290038838924990e+00 6.175320991291337e+00 6.111469859854581e+00 6.114901278579557e+00 6.172191204511766e+00 5.994406256676593e+00 6.107778340349072e+00 6.001353309448554e+00 5.935595026860808e+00 5.939463854010656e+00 5.997722585440453e+00 5.826316342196142e+00 5.932194602703698e+00 5.833417366473502e+00 5.766734334913088e+00 5.770983645234851e+00 5.829410909544751e+00 5.664753086012544e+00 5.763732130987453e+00 5.671835850186793e+00 5.605164157753045e+00 5.609661595778094e+00 5.667575475630138e+00 5.509793266550962e+00 5.602533777359386e+00 5.516759601178995e+00 5.450862134933438e+00 5.455503791976045e+00 5.512342983605744e+00 5.361414907455708e+00 5.448563671229790e+00 5.368203618424413e+00 5.303686232033212e+00 5.308400267954291e+00 5.363702207563735e+00 5.219513118840108e+00 5.301683060457909e+00 5.226087768437600e+00 5.163435255832349e+00 5.168179640241650e+00 5.221547037037665e+00 5.083924679451997e+00 5.161702866185526e+00 5.090263994068757e+00 5.029885040199349e+00 5.034644327810502e+00 5.085705371957825e+00 4.954442219038130e+00 5.028415888427958e+00 4.960532748834876e+00 4.902808205976316e+00 4.907591618104905e+00 4.955955166089574e+00 4.830819086470551e+00 4.901615683886309e+00 4.836649361918107e+00 4.781983809329192e+00 4.786825381411223e+00 4.832029456215092e+00 4.712765440847309e+00 4.781107352544146e+00 4.718320509144728e+00 4.667200298238545e+00 4.672161250878330e+00 4.713611224748067e+00 4.599934569148540e+00 4.666713204450069e+00 4.605189548491450e+00 4.558252614207948e+00 4.563425815157894e+00 4.600317254130613e+00 4.491896386577161e+00 4.558274199465511e+00 4.496807246710781e+00 4.454931684080966e+00 4.460447685074000e+00 4.491667947228342e+00 4.388092209657428e+00 4.455645798200358e+00 4.392581182614996e+00 4.357001172078634e+00 4.363034466839920e+00 4.387037193195013e+00 4.287760717734991e+00 4.358683604508500e+00 4.291692492214875e+00 4.264151161273344e+00 4.270923586364124e+00 4.285572388395918e+00 4.189819095524376e+00 4.267208559047665e+00 4.192962494910094e+00 4.175910171050822e+00 4.183685320341256e+00 4.186069484045243e+00 4.092675868998492e+00 4.180931184470220e+00 4.094645209507718e+00 4.091484735093905e+00 4.100543386114008e+00 4.086782328150258e+00 3.993944949829691e+00 4.099294089156818e+00 3.994118904165330e+00 4.009481638069852e+00 4.020073103349152e+00 3.985146688444100e+00 3.890026313892045e+00 4.021101456686540e+00 3.887468110914180e+00 3.927464889749118e+00 3.939731564266337e+00 3.877659730242376e+00 3.775607944972177e+00 3.946490804591234e+00 3.766788526978908e+00 3.842229541375357e+00 6.355289655916035e+00 6.396154839803833e+00 6.214919075181667e+00 6.348718047149477e+00 6.221301438883403e+00 6.172064649686098e+00 6.175327830916391e+00 6.218264686183194e+00 6.042057917470960e+00 6.168792686537008e+00 6.048474878946752e+00 5.997670672755683e+00 6.001284640148108e+00 6.045031976268758e+00 5.874404537390662e+00 5.994538174574971e+00 5.881034971597852e+00 5.829359817194252e+00 5.833300359725034e+00 5.877278828684689e+00 5.712677323129032e+00 5.826484384787855e+00 5.719367602618025e+00 5.667526813101074e+00 5.671694944840032e+00 5.715390651548889e+00 5.557048878937412e+00 5.664916459887024e+00 5.563697849735775e+00 5.512297240644976e+00 5.516607880390398e+00 5.559579406951332e+00 5.407579929086458e+00 5.509946075487340e+00 5.414111644679593e+00 5.363659095438131e+00 5.368046915588640e+00 5.409915261898427e+00 5.264225403530402e+00 5.361559505396262e+00 5.270582308272224e+00 5.221505643280850e+00 5.225926186438641e+00 5.266354045629669e+00 5.126852008116773e+00 5.219656857195027e+00 5.132988080721089e+00 5.085664257302833e+00 5.090093113613998e+00 5.128756726615606e+00 4.995247177538779e+00 5.084078699062005e+00 5.001121106453385e+00 4.955912351157877e+00 4.960344116744084e+00 4.996899062110920e+00 4.869118148856468e+00 4.954621449594899e+00 4.874686438461183e+00 4.831982284574328e+00 4.836430138897812e+00 4.870470462873072e+00 4.748080003861546e+00 4.831043207805544e+00 4.753289388650587e+00 4.713556086190277e+00 4.718052255205636e+00 4.749060906996498e+00 4.631630458836464e+00 4.713060702716040e+00 4.636408615840907e+00 4.600249143771115e+00 4.604846085934981e+00 4.632133720221900e+00 4.519107558958086e+00 4.600336465360046e+00 4.523350730090431e+00 4.491579832788273e+00 4.496351498905912e+00 4.518980458985446e+00 4.409624257300315e+00 4.492453192569389e+00 4.413179955021230e+00 4.386919190631117e+00 4.391960967590298e+00 4.408652063674228e+00 4.301971097079959e+00 4.388869225523892e+00 4.304613652901690e+00 4.285410857598840e+00 4.290835650986826e+00 4.299857969759902e+00 4.194475085823043e+00 4.288844519525255e+00 4.195871780273973e+00 4.185846427105100e+00 4.191772813151371e+00 4.190822327850779e+00 4.084800233456738e+00 4.191319690272848e+00 4.084466999409487e+00 4.086475709869207e+00 4.093003238778816e+00 4.079085228527424e+00 3.969675113251048e+00 4.094719132117946e+00 3.966924846336783e+00 3.984728303189712e+00 3.991903188575202e+00 3.961244234521390e+00 3.844535441297448e+00 3.996582365397256e+00 3.838438706723966e+00 3.876833371671281e+00 3.884629510082976e+00 3.832857042203723e+00 3.703127680477123e+00 3.895390528706910e+00 3.690466915458975e+00 3.758130467285969e+00 6.399465147280813e+00 6.427169210060747e+00 6.247710022159201e+00 6.393356742014138e+00 6.253671359657763e+00 6.218163631359248e+00 6.221372888223492e+00 6.250631486118349e+00 6.075631359815201e+00 6.215249876975587e+00 6.081679855450449e+00 6.044994872972253e+00 6.048476510775558e+00 6.078318116793788e+00 5.908343580631867e+00 6.042108670321414e+00 5.914636053566836e+00 5.877239926010614e+00 5.880986029683073e+00 5.911027294237283e+00 5.746560908050942e+00 5.874498215897021e+00 5.752958649695966e+00 5.715351094236508e+00 5.719284516925722e+00 5.749176681265426e+00 5.590511392740020e+00 5.712780756271295e+00 5.596914262514971e+00 5.559539731074011e+00 5.563589992691480e+00 5.593025042358332e+00 5.440305646410942e+00 5.557156758774962e+00 5.446630006787327e+00 5.409875393841296e+00 5.413983900562978e+00 5.442690069148138e+00 5.295935255504094e+00 5.407692977137701e+00 5.302110032685594e+00 5.266313325017520e+00 5.270435175539220e+00 5.298164823851940e+00 5.157283749194064e+00 5.264348729215962e+00 5.163245388909591e+00 5.128713919538888e+00 5.132817808409117e+00 5.159329271779411e+00 5.024130358543053e+00 5.126994634263043e+00 5.029816600762768e+00 4.996852299656445e+00 5.000919565386027e+00 5.025953886971145e+00 4.896143852069696e+00 4.995422241708392e+00 4.901486408178042e+00 4.870417091389771e+00 4.874440515228434e+00 4.897692906778929e+00 4.772864130755782e+00 4.86934375669806