<?xml version="1.0"?>
<VTKFile type="UnstructuredGrid" version="0.1" byte_order="LittleEndian">
<UnstructuredGrid>
<Piece NumberOfPoints="2400" NumberOfCells="800">
<Points>
<DataArray type="Float64" NumberOfComponents="3" format="ascii">
0.050000000000000037 0 0 0 0.049999999999899652 0 0 0 0 0.050000000000000037 0 0 0.050000000000000037 0.049999999999899652 0 0 0.049999999999899652 0 0.050000000000000037 0.049999999999899652 0 0 0.099999999999814668 0 0 0.049999999999899652 0 0.050000000000000037 0.099999999999814668 0 0 0.14999999999970359 0 0 0.099999999999814668 0 0.050000000000000037 0.049999999999899652 0 0.050000000000000037 0.099999999999814668 0 0 0.099999999999814668 0 0.099999999999999978 0.049999999999899652 0 0.050000000000000037 0.099999999999814668 0 0.050000000000000037 0.049999999999899652 0 0.099999999999999978 0.049999999999899652 0 0.099999999999999978 0.099999999999814668 0 0.050000000000000037 0.099999999999814668 0 0.099999999999999978 0.099999999999814668 0 0.050000000000000037 0.14999999999970359 0 0.050000000000000037 0.099999999999814668 0 0.14999999999999999 0.099999999999814668 0 0.099999999999999978 0.14999999999970359 0 0.099999999999999978 0.099999999999814668 0 0.14999999999999999 0.049999999999899652 0 0.099999999999999978 0.099999999999814668 0 0.099999999999999978 0.049999999999899652 0 0.14999999999999999 0 0 0.099999999999999978 0.049999999999899652 0 0.099999999999999978 0 0 0.099999999999999978 0 0 0.050000000000000037 0.049999999999899652 0 0.050000000000000037 0 0 0.099999999999999978 0 0 0.099999999999999978 0.049999999999899652 0 0.050000000000000037 0.049999999999899652 0 0.050000000000000037 0.19999999999955789 0 0.050000000000000037 0.24999999999941211 0 0 0.24999999999941211 0 0.050000000000000037 0.19999999999955789 0 0 0.24999999999941211 0 0 0.19999999999955789 0 0.050000000000000037 0.14999999999970359 0 0.050000000000000037 0.19999999999955789 0 0 0.19999999999955789 0 0.050000000000000037 0.14999999999970359 0 0 0.19999999999955789 0 0 0.14999999999970359 0 0.050000000000000037 0.099999999999814668 0 0.050000000000000037 0.14999999999970359 0 0 0.14999999999970359 0 0.099999999999999978 0.099999999999814668 0 0.099999999999999978 0.14999999999970359 0 0.050000000000000037 0.14999999999970359 0 0.14999999999999999 0.14999999999970359 0 0.099999999999999978 0.19999999999955789 0 0.099999999999999978 0.14999999999970359 0 0.099999999999999978 0.14999999999970359 0 0.099999999999999978 0.19999999999955789 0 0.050000000000000037 0.19999999999955789 0 0.099999999999999978 0.14999999999970359 0 0.050000000000000037 0.19999999999955789 0 0.050000000000000037 0.14999999999970359 0 0.099999999999999978 0.19999999999955789 0 0.050000000000000037 0.24999999999941211 0 0.050000000000000037 0.19999999999955789 0 0.14999999999999999 0.19999999999955789 0 0.099999999999999978 0.24999999999941211 0 0.099999999999999978 0.19999999999955789 0 0.099999999999999978 0.19999999999955789 0 0.099999999999999978 0.24999999999941211 0 0.050000000000000037 0.24999999999941211 0 0.20000000000000001 0.19999999999955789 0 0.20000000000000001 0.24999999999941211 0 0.14999999999999999 0.24999999999941211 0 0.14999999999999999 0.19999999999955789 0 0.14999999999999999 0.24999999999941211 0 0.099999999999999978 0.24999999999941211 0 0.20000000000000001 0.19999999999955789 0 0.14999999999999999 0.24999999999941211 0 0.14999999999999999 0.19999999999955789 0 0.20000000000000001 0.14999999999970359 0 0.20000000000000001 0.19999999999955789 0 0.14999999999999999 0.19999999999955789 0 0.20000000000000001 0.14999999999970359 0 0.14999999999999999 0.19999999999955789 0 0.14999999999999999 0.14999999999970359 0 0.14999999999999999 0.14999999999970359 0 0.14999999999999999 0.19999999999955789 0 0.099999999999999978 0.19999999999955789 0 0.14999999999999999 0.099999999999814668 0 0.14999999999999999 0.14999999999970359 0 0.099999999999999978 0.14999999999970359 0 0.20000000000000001 0.099999999999814668 0 0.20000000000000001 0.14999999999970359 0 0.14999999999999999 0.14999999999970359 0 0.25 0.099999999999814668 0 0.25 0.14999999999970359 0 0.20000000000000001 0.14999999999970359 0 0.25 0.14999999999970359 0 0.25 0.19999999999955789 0 0.20000000000000001 0.19999999999955789 0 0.25 0.14999999999970359 0 0.20000000000000001 0.19999999999955789 0 0.20000000000000001 0.14999999999970359 0 0.25 0.19999999999955789 0 0.20000000000000001 0.24999999999941211 0 0.20000000000000001 0.19999999999955789 0 0.25 0.19999999999955789 0 0.25 0.24999999999941211 0 0.20000000000000001 0.24999999999941211 0 0.20000000000000001 0 0 0.20000000000000001 0.049999999999899652 0 0.14999999999999999 0.049999999999899652 0 0.20000000000000001 0 0 0.14999999999999999 0.049999999999899652 0 0.14999999999999999 0 0 0.14999999999999999 0 0 0.14999999999999999 0.049999999999899652 0 0.099999999999999978 0.049999999999899652 0 0.14999999999999999 0.049999999999899652 0 0.14999999999999999 0.099999999999814668 0 0.099999999999999978 0.099999999999814668 0 0.20000000000000001 0.099999999999814668 0 0.14999999999999999 0.14999999999970359 0 0.14999999999999999 0.099999999999814668 0 0.20000000000000001 0.049999999999899652 0 0.14999999999999999 0.099999999999814668 0 0.14999999999999999 0.049999999999899652 0 0.20000000000000001 0.049999999999899652 0 0.20000000000000001 0.099999999999814668 0 0.14999999999999999 0.099999999999814668 0 0.25 0.049999999999899652 0 0.20000000000000001 0.099999999999814668 0 0.20000000000000001 0.049999999999899652 0 0.25 0.099999999999814668 0 0.20000000000000001 0.14999999999970359 0 0.20000000000000001 0.099999999999814668 0 0.25 0.049999999999899652 0 0.25 0.099999999999814668 0 0.20000000000000001 0.099999999999814668 0 0.25 0 0 0.25 0.049999999999899652 0 0.20000000000000001 0.049999999999899652 0 0.25 0 0 0.20000000000000001 0.049999999999899652 0 0.20000000000000001 0 0 0.29999999999999999 0 0 0.25 0.049999999999899652 0 0.25 0 0 0.29999999999999999 0 0 0.29999999999999999 0.049999999999899652 0 0.25 0.049999999999899652 0 0.34999999999999998 0 0 0.29999999999999999 0.049999999999899652 0 0.29999999999999999 0 0 0.34999999999999998 0 0 0.34999999999999998 0.049999999999899652 0 0.29999999999999999 0.049999999999899652 0 0.40000000000000002 0 0 0.34999999999999998 0.049999999999899652 0 0.34999999999999998 0 0 0.40000000000000002 0.099999999999814668 0 0.34999999999999998 0.14999999999970359 0 0.34999999999999998 0.099999999999814668 0 0.40000000000000002 0.049999999999899652 0 0.34999999999999998 0.099999999999814668 0 0.34999999999999998 0.049999999999899652 0 0.34999999999999998 0.049999999999899652 0 0.29999999999999999 0.099999999999814668 0 0.29999999999999999 0.049999999999899652 0 0.34999999999999998 0.049999999999899652 0 0.34999999999999998 0.099999999999814668 0 0.29999999999999999 0.099999999999814668 0 0.34999999999999998 0.099999999999814668 0 0.29999999999999999 0.14999999999970359 0 0.29999999999999999 0.099999999999814668 0 0.29999999999999999 0.049999999999899652 0 0.29999999999999999 0.099999999999814668 0 0.25 0.099999999999814668 0 0.29999999999999999 0.049999999999899652 0 0.25 0.099999999999814668 0 0.25 0.049999999999899652 0 0.29999999999999999 0.099999999999814668 0 0.25 0.14999999999970359 0 0.25 0.099999999999814668 0 0.29999999999999999 0.14999999999970359 0 0.25 0.19999999999955789 0 0.25 0.14999999999970359 0 0.29999999999999999 0.14999999999970359 0 0.29999999999999999 0.19999999999955789 0 0.25 0.19999999999955789 0 0.29999999999999999 0.099999999999814668 0 0.29999999999999999 0.14999999999970359 0 0.25 0.14999999999970359 0 0.29999999999999999 0.19999999999955789 0 0.25 0.24999999999941211 0 0.25 0.19999999999955789 0 0.29999999999999999 0.19999999999955789 0 0.29999999999999999 0.24999999999941211 0 0.25 0.24999999999941211 0 0.34999999999999998 0.19999999999955789 0 0.34999999999999998 0.24999999999941211 0 0.29999999999999999 0.24999999999941211 0 0.34999999999999998 0.19999999999955789 0 0.29999999999999999 0.24999999999941211 0 0.29999999999999999 0.19999999999955789 0 0.40000000000000002 0.19999999999955789 0 0.34999999999999998 0.24999999999941211 0 0.34999999999999998 0.19999999999955789 0 0.34999999999999998 0.099999999999814668 0 0.34999999999999998 0.14999999999970359 0 0.29999999999999999 0.14999999999970359 0 0.34999999999999998 0.14999999999970359 0 0.34999999999999998 0.19999999999955789 0 0.29999999999999999 0.19999999999955789 0 0.34999999999999998 0.14999999999970359 0 0.29999999999999999 0.19999999999955789 0 0.29999999999999999 0.14999999999970359 0 0.40000000000000002 0.14999999999970359 0 0.34999999999999998 0.19999999999955789 0 0.34999999999999998 0.14999999999970359 0 0.40000000000000002 0.099999999999814668 0 0.40000000000000002 0.14999999999970359 0 0.34999999999999998 0.14999999999970359 0 0.40000000000000002 0.14999999999970359 0 0.40000000000000002 0.19999999999955789 0 0.34999999999999998 0.19999999999955789 0 0.45000000000000001 0.14999999999970359 0 0.45000000000000001 0.19999999999955789 0 0.40000000000000002 0.19999999999955789 0 0.45000000000000001 0.14999999999970359 0 0.40000000000000002 0.19999999999955789 0 0.40000000000000002 0.14999999999970359 0 0.45000000000000001 0.099999999999814668 0 0.45000000000000001 0.14999999999970359 0 0.40000000000000002 0.14999999999970359 0 0.40000000000000002 0.19999999999955789 0 0.40000000000000002 0.24999999999941211 0 0.34999999999999998 0.24999999999941211 0 0.45000000000000001 0.19999999999955789 0 0.40000000000000002 0.24999999999941211 0 0.40000000000000002 0.19999999999955789 0 0.45000000000000001 0.19999999999955789 0 0.45000000000000001 0.24999999999941211 0 0.40000000000000002 0.24999999999941211 0 0.5 0.19999999999955789 0 0.45000000000000001 0.24999999999941211 0 0.45000000000000001 0.19999999999955789 0 0.5 0.19999999999955789 0 0.5 0.24999999999941211 0 0.45000000000000001 0.24999999999941211 0 0.5 0.14999999999970359 0 0.45000000000000001 0.19999999999955789 0 0.45000000000
[...]
<PointData Scalars="tracer_conc," Vectors="" Tensors="">
<DataArray type="Float64" Name="tracer_conc" format="ascii">
3.9510712983574527 4.1778164583961024 4.102446997966033 3.9984255908000135 4.0367876950729684 4.1313391789147014 4.0363263425410159 4.1269045143857515 4.1294259223858214 4.0546721394402487 4.0469519993091119 4.0922397675522832 4.0613440174069853 4.045804158806372 4.1027169006519779 3.9934429645202942 4.0687396997041674 4.0366203951504618 4.0131782318347557 4.032840363996776 4.0494951164672308 4.0360304215646474 4.0422577184681598 4.0456560506710879 4.0486067682822222 4.0563853297190704 4.0329032809488305 3.9918454389412283 4.0485058702271273 3.9969866731803756 3.9063170086567927 4.0107795996717028 3.925254456918609 3.9100627263122263 4.0595161274166269 3.9781476110023717 3.9372474796802277 3.9969487038862139 4.0327450840920784 3.9941785661764677 3.9290975447327892 3.8587243810266343 3.9945349344231595 3.8568501914306936 3.9332615840519227 4.0406082495163274 3.9797424689955583 3.9489525523065199 4.0352165527295005 3.9528976954934856 4.0206150116735246 4.0680097677047167 4.022196108533544 4.0348644696491194 4.0491049915890907 4.0413824243483152 4.0301978788572308 4.0817330847501223 4.0444264268794301 4.0413079777081995 4.0558099637621234 4.0313573007318197 3.9899369147377373 4.0484496786449533 3.9961109665819157 4.0219246287317905 4.0405092292296612 3.9416843207171102 3.9793928200332207 4.096753522582266 4.021305384156415 4.0312334165942882 4.043290873130152 4.0107000844322727 3.9401031868222636 4.1664623360925201 4.1767464883243415 4.0975933451935465 4.1005057315490099 4.0924962848806912 4.0183667455228784 4.1622905057410184 4.1012112124875681 4.0907723291828626 4.1375418220397329 4.1585671194834619 4.0950309794672481 4.1310147227109475 4.1011275895371471 4.0776636468779177 4.0888591582337037 4.090834890986093 4.0380156161934062 4.0594973156090433 4.0776622936190057 4.045957605451413 4.0926814775262921 4.128717031008831 4.0802262875714712 4.143428782226489 4.1922509912663344 4.1301178643044363 4.1994113185682327 4.2343557787776023 4.1611480997170549 4.1935019661229083 4.1667943934784715 4.1287474613453155 4.2366244633555397 4.1839625963486409 4.1585439905539712 4.240931402690177 4.2648591218141858 4.1800319170678142 3.9416155606820533 4.0198741762676127 3.9920950335725673 3.9289942586709192 4.0046142908126434 3.9159080013169989 3.9241026482892591 3.9950623653381894 3.9931538527858073 4.0063221094053079 4.0474986820341776 4.0340267039163695 4.0837700669869275 4.0889372478828658 4.0476157252679901 4.017378418995901 4.0586752669960457 3.9950724096050041 4.0282465641787466 4.0835389251384475 4.047686928893321 4.062319978879211 4.091972073945052 4.0198619629775578 4.1360193224375701 4.1374417735697699 4.0836440104642087 4.070828199224545 4.1361467937835714 4.0833436519580468 3.9802679807199368 4.0641710299991995 4.0176907194294778 3.9707014599270694 4.0271539894556074 3.9353369017663651 4.0267620854243908 4.0701644204253409 3.9750338830674736 4.0344472349166471 4.1232641368271352 4.0625956385745532 4.0941592023334987 4.1285152681008119 4.0297952824204071 4.1006721770176471 4.194095264050465 4.1221331020968819 4.1709437741702056 4.1989304603843571 4.0963310933153734 4.3638279932678712 4.3548703677995118 4.2784788722707798 4.2739363062919056 4.2835151196348011 4.1940533194405356 4.1931005246614452 4.207608335535995 4.1232286039142911 4.1991086446110915 4.2784311748934813 4.201539640432113 4.2781090943382178 4.2722903706155479 4.2019586623234506 4.1288905712019206 4.2018963622057273 4.1358213285708914 4.1219084846865659 4.1428950558939119 4.0641445367089375 4.2016276435492008 4.1992796239998116 4.1362287742268533 4.2669848440234786 4.2411157162759103 4.1922864127197474 4.2723978649632635 4.3177599754188076 4.2358702505272241 4.2079845555666164 4.2663681881351687 4.1929612539112808 4.3190592589946988 4.2709524644944477 4.2343520538603672 4.3233967516037319 4.3576210826129591 4.2668744017807194 4.413340863609422 4.4554938824968797 4.3587446104998966 4.4089905329660377 4.3629107794950235 4.3177649060004502 4.5059739590825822 4.4602308032101519 4.4083559322091688 4.283767110414046 4.3496542633500423 4.2666541410678587 4.3549373281085844 4.408347646583862 4.3185603633634848 4.3498713359945675 4.323512615144339 4.2664005867214723 4.4410724574115328 4.4134298828477183 4.349681767868276 4.3690507687357396 4.4411210427984313 4.3496661684835765 4.4459280293047758 4.5057874625198933 4.4086583366293111 4.5446434618359017 4.6098711135209269 4.5057498157743154 4.539884684249107 4.510439917172004 4.4411438132464296 4.4627203538567883 4.5401238783340627 4.4409427303494624 4.5103564341488518 4.5587783792231908 4.4559847947635447 4.6097272307549062 4.5631507324727654 4.5057965896530723 4.6141739437603464 4.667703953194926 4.5588111002747045 4.7201097528874474 4.6718481268724288 4.6098798762567688 4.7246549338646862 4.7824747479219729 4.6673930963387766 4.645894893407533 4.6142630443965373 4.5401425506663724 4.6506486723771072 4.720507529710062 4.6095717383475208 4.5640981648168166 4.6462860540474811 4.5397992994219631 4.559211462162736 4.5446575665723046 4.4581304654541896 4.460059100297622 4.4626362006318629 4.363687379099713 4.4649617941100646 4.5596009009514447 4.4577422395833315 4.3533973965481785 4.4605164736213263 4.3632875028318141 4.3482117212162343 4.3683002884280828 4.2570827198407422 4.2612606862978755 4.3637395152698772 4.2740794950142265 4.2558775839269991 4.2793040046849846 4.1725374142149887 4.1767391474142102 4.2746763125733098 4.1932798890320182 4.2793426274561055 4.364172553044682 4.2780753506249418 4.4577383291516766 4.4459030147054603 4.3642097757367901 4.3682348449482209 4.4581007920003808 4.3638206627915386 4.3631727073675597 4.3688935527982364 4.2746291085166863 4.7740364017010553 4.6705981588763681 4.6549058788065771 4.7772778664372089 4.7894926812776948 4.6675026760593425 4.7527229940150555 4.7745684463467066 4.6545810006147361 4.6358160427156685 4.6549326498671348 4.5385351807422767 4.6575320408641065 4.6681852456363107 4.549290530258415 4.6702310950468355 4.6727313104707378 4.5526522410549646 4.791761274958966 4.7945728284754834 4.6716351437453323 4.7886392941969786 4.6746273110739915 4.6681560640006436 4.9133328976495312 4.7967187984596853 4.7894719935740628 4.9169127505651851 4.9199797092239645 4.7932428045773374 4.9009902878650191 4.9144663646340714 4.7884981297233011 4.8973204913636392 4.7920515067454819 4.7745498304430107 4.8741320431861705 4.898186913732884 4.773849125943447 4.836037267389286 4.8709603925752933 4.7490490660197322 4.8319870279416159 4.7529789494445476 4.7140893015997971 4.8702997069105258 4.7775591353904083 4.749547507204567 4.7863390446385088 4.8325051142251985 4.7137195551937001 4.7820405735994012 4.7179083343344672 4.6677034165028344 4.6675943890794063 4.6047906364818223 4.5587749603270078 4.6716904041176868 4.7140977453187496 4.6008289778481162 4.5629692099529926 4.6008194110280458 4.492717619691164 4.7492642774563611 4.6578866381262722 4.6326281696699834 4.7139404190277316 4.6361355239506796 4.6008055674791191 4.7176939851673705 4.7495620383115229 4.6325315320763201 4.6045292286617343 4.6326498441189443 4.5199211037044176 4.6328305821914464 4.5413243271754116 4.5194835925755985 4.6011372204133378 4.5231207440380752 4.4921698745998482 4.4960854087583222 4.5195155959317166 4.4103204871308197 4.4931520914243457 4.4130003348316951 4.3875562234153183 4.5203379300665949 4.4266849124956416 4.4091630430076467 4.559095191019173 4.4964188740642133 4.4554852129303448 4.4600053097750347 4.4921920834251861 4.3888188748510455 4.4563929712390253 4.3922008160102166 4.357603323494053 4.3626093344332864 4.3875910972511907 4.2883587824291451 4.3593345468442273 4.291318707007286 4.2648260118964538 4.3917590231813159 4.409209699612064 4.3025048709209521 4.3894312195544858 4.3044939049919693 4.2861107750005338 4.4108986883593788 4.3123541022279337 4.3003725521648031 4.425067190065799 4.316287423938574 4.3093933328402754 4.4260936703688438 4.432284437906155 4.3155745007715005 4.4124630293764806 4.4237811402358416 4.3111265007523514 4.5227108223048642 4.5383995807668551 4.4245680328216528 4.5388977283887186 4.4342961335549864 4.4237275321529772 4.5408693647332106 4.5495597553785974 4.4325654983740392 4.6548420326118842 4.5517941564890352 4.5383614740702933 4.6677023439598901 4.5550163882968508 4.549519040173494 4.549569618677789 4.4364867214299428 4.4322282533581063 4.5513241574279615 4.5534385582912087 4.4349433715343016 4.4336889509677624 4.4353178902804702 4.3166849088490498 4.4329506492090767 4.3171503617694222 4.3144842301606845 4.3155000720267855 4.3165113349802233 4.1954234702138624 4.3160983977741241 4.1944722422293568 4.1938642508787263 4.3115807399869963 4.3145608036102079 4.1959513820373253 4.3037800656331484 4.3094677091722682 4.1960953620071333 4.311804959578323 4.195319464990753 4.1931734734631991 4.1970022827831901 4.0681119206414209 4.072108254530395 4.1951224622904801 4.1939671080660288 4.0705180267680632 4.1948715453765315 4.1932749520833594 4.0765955761153601 4.0832422863549613 4.0722439353686042 3.9487289989589569 4.0737239962064802 4.067260579696109 3.9350419208086826 4.0668039069611419 4.0660159686596069 3.9297058339185678 4.1943006129878038 4.1945218619325626 4.0678786798437203 4.1966522529939088 4.0650728381791428 4.06712476729487 4.2677260357966915 4.1925962153550369 4.1766881603612873 4.2705241565786061 4.2861644464634594 4.1902341042882734 4.2892160184400012 4.1958245047365805 4.1866255543093081 4.290716846750847 4.3004395583694714 4.1947786168811003 4.3032985768420939 4.1961336782044043 4.1913301635945643 4.1958514118747656 4.0750365867124199 4.0795656784563805 4.0931346159134279 4.0796957661039439 3.9691741814876522 4.1914191185633483 4.084508973662178 4.0873456578458738 4.1917629956403175 4.1914246324314917 4.0847733420998571 4.1833281676389422 4.1867063584015423 4.0928206904872777 4.100254234598653 4.0874639149184189 3.9936828417126216 4.1812525195889094 4.0942913789769149 4.092398501637752 4.0206765820878578 3.8872030830346413 3.9286938407658942 4.0993178870611109 3.9937890309323256 4.0105533460413714 4.0198752858541127 3.9858461721348633 3.8891584895560154 3.9922035809130016 3.9618234993295349 3.8433694200728761 3.995736903689235 3.8387559744911912 3.8778587143267154 4.09442831094354 3.9670787991829064 3.9856857187292736 4.086194206628444 3.9450313456489936 3.961654226465769 3.9709393454678827 3.8007624355326888 3.8329028566120589 3.8466429853461004 3.6338258196560353 3.6872663309953668 3.8928789159431196 3.6916906274611487 3.7586786546829658 3.8851224429924414 3.8333596109035568 3.7009448630787518 3.9396419794461259 3.8782976242199028 3.7737547261227107 3.9442609140421951 3.767607448752146 3.8429035458302678 3.9361658224872142 3.7669435279833463 3.7767594413612788 3.9286550189346121 3.9265875805436803 3.7752249072643136 4.0714379245388628 3.9244933348035254 3.9299624928538144 4.0777836125085889 3.930311991934063 3.9422139637123168 3.9654191748398775 3.9423878781152655 3.8072725003196024 3.9433518376791894 3.9301365910289521 3.7839558625812013 3.950183663836341 3.7762372899647496 3.7982077328884598 3.7987083295653328 3.777202253105016 3.6099336961550708 3.8366752429450743 3.7986657004993361 3.6452266674526368 3.8100752414110737 3.5972298041290327 3.6334706041904736 3.7862514694801988 3.5837771523030808 3.6005445038178427 3.774233604341128 3.7707029524902604 3.5970048768251854 3.7769655699375777 3.5940880638911961 3.5903734412258115 3.7650154757358227 3.7797245204253671 3.6070888067998435 3.9304757574686464 3.773473043957229 3.7702919079428274 3.9228976216231684 3.9322243268208372 3.7816904872192891 4.0684991688848537 3.9281108652333319 3.926418390431611 4.0738314837673988 3.9606983082180771 3.9463678530152206 4.0694315500281482 3.9406829488727468 3.9320659968142984 3.9266169786673006 3.9465082611880318 3.8027987977201376 3.9336534527951508 3.7952732414846948 3.7793627140766985 3.94520901854359 3.8306252376087677 3.8033754861507845 3.7716505268982421 3.8036688859706884 3.6395772953861449 3.7828157146280255 3.6275555284669969 3.6035699774648435 3.8032316758348874 3.6823170774135972 3.6395030289665171 3.836449098569279 3.7551649858452736 3.6962681069039465 3.8291429981186855 3.8879368314380254 3.7628110036875224 3.7935946071645694 3.8407553651844002 3.6925767299913796 3.8794254254895328 3.8413744506294307 3.7705920783163003 3.875361143577488 3.9407414515390635 3.8454319713605503 3.984729956891055 4.0198574672352629 3.9301130239492745 3.986233157131895 3.9287696505545928 3.8878516746210114 4.0870592113558422 4.0115578214972851 3.9935212223594445 3.9393383966219742 3.9678588482232215 3.8368095317655673 3.9636095783548848 3.8765701325298512 3.8405524994480835 3.9595638663222328 3.9935986301631274 3.8807188604983684 4.0804255149605204 3.9855706836793638 3.9677448426698154 4.0706160949474954 4.0843994848082268 3.964108884107322 4.0787503413531505 4.0934163081966704 3.9872630202496686 4.1914095363687318 4.0880199165694915 4.0843224363374704 4.1914421126188914 4.1912505522069985 4.0879687079043627 4.1927317930415011 4.1950607868178356 4.0808975690216842 4.087483128312452 4.0993732679109005 4.0109334646721839 4.185823465549821 4.0939344432701077 4.0933720359379384 4.1874951106646296 4.1819065813921519 4.0920692556569502 4.2849765732724592 4.1785449788721056 4.1912217506521694 4.2874724334173386 4.26876076196932 4.1758906847529236 4.2998965289624254 4.1878450457493885 4.1950058778356381 4.3011562385676019 4.2896372130786808 4.1865585597234531 4.30974270297164 4.3032427295200533 4.1918175612937745 4.3094354041708955 4.1920337362330438 4.1957272179313998 4.3148840413694272 4.1935037324618412 4.1951710225137786 4.3145548312529547 4.3114284329831314 4.1940268220407182 4.316390342779715 4.3155681895886469 4.1948893577851587 4.3170237173838935 4.1939747311035136 4.1944228891730146 4.193490895557872 4.1952608467467618 4.069141405370619 4.1958858351880242 4.0663818694523393 4.065885462449871 4.0638141988375081 4.068912204107904 3.9332662170997676 4.0652173600812667 4.075486156694172 3.9452411378504597 4.1939313968729781 4.0795674734425758 4.0753843262670619 4.1930748533530062 4.1958024348122587 4.0739045015349324 4.1950852537045282 4.071636836723683 4.068792816197508 3.9871593201843782 3.9326919531073372 4.0028910156590918 3.9856537202553888 3.9888696565278674 4.04779246969672 4.0111086506831493 3.9240645089206372 3.960204461454838 4.0589133924408038 3.9737292162324223 4.0733280492355401 4.011611353172829 4.1312556706482093 4.1561510749186841 4.0550343275627876 4.0465559767666823 4.1185579619806951 4.0301539635467512 4.1472020210015881 4.1150787577109531 4.0269109007359036 4.0595238583498423 4.086304374395942 4.0464835776240466 4.0418345045988318 4.0396205631510957 4.0412266948228925 4.0021241665581844 4.0262959227898349 4.0236859243478564 4.0468944597758876 4.0604008455332323 4.0407535628455582 4.0042756081459059 4.041910780158994 4.0724526340034242 4.0387472917728227 4.0516648734805161 4.0873836001533297 4.0453766207412238 4.0414589954785969 4.0338230835077846 4.0515764956540155 4.0190304744131939 4.0277119187664105 4.0261329535669583 3.9932748882203781 4.0350700072901846 4.052774402382294 4.0369375984496427 4.0130115589451165 4.1021083324284326 4.0407231618865982 3.9750093951149954 4.0253757320827948 3.9507413523349109 3.9810633197051666 4.0363777996922012 4.0182875092433772 3.9279553431213117 3.9930003382265653 3.9336822227113486 3.9276788495740118 3.9344046087757443 3.8576497627988031 4.0092891748067725 3.9812725951202603 3.9408099938962171 4.0111332211576887 4.041428661484006 3.9789234181874411 4.0906864293725027 4.0336418471322597 4.0198284212785715 4.0937804030964688 4.0981571403001897 4.0300752779879065 4.1785089325950544 4.1639401859117529 4.0892549607025597 4.1748293132844072 4.0933305712744419 4.0993700485248263 4.2629295185806901 4.1611207135769925 4.1819093654955388 4.266886025708267 4.2383750718082016 4.1568654819601196 4.2316505133962572 4.13206063645507 4.1639790795244087 4.2371873358158396 4.1960159263778536 4.1260900810300765 4.188834751443026 4.0876117755895649 4.1338562009792241 4.1245473103548242 4.05235359141657 4.0848303996916373 4.1614785780932815 4.1337767694515204 4.0747508206843621 4.1555123333938031 4.0813360599973807 4.0982019053721119 4.0936977094555598 4.084733704910426 4.038244763358068 4.0824106306783756 4.0533495785536955 4.0275532371170835 4.0541948237813337 3.9982636753370526 3.9891925360707479 4.088838762906998 4.0222449922883632 3.9892946770248905 4.0784982126053499 4.0005904193177786 4.0534922971220828 4.1328853474400118 4.0876593953228451 4.0431909115960991 4.1958996742480963 4.1392619189506643 4.0800144390078907 4.1404568994680533 4.066140743274671 4.0154597243094674 4.1322224188874728 4.0242674508911875 4.0877742395481311 4.0598985634985159 3.93956333193626 4.0225875184365014 4.0692086293214889 3.9758321161876582 3.9296814624796226 4.0265087547297069 3.9357845261930815 3.9081670488341986 4.0142150250591566 3.9213664166732416 3.9988007413886799 4.0043721422355665 3.9158204696637529 3.9139588191855172 4.2721545300361647 4.0990213698216307 4.195873804345216 4.1912363457549295 4.0327753438919212 4.125184531341004 4.197523164811626 4.0975767786591559 4.0262386754883881 4.1273120184394507 4.0308460789482536 3.970665804354367 4.1198593715508469 3.9784922011346375 4.0663649993586519 4.2055410995419793 4.1250335823324962 4.0606488199730322 4.1987023692484842 4.0678337794401767 4.1393417022614338 4.2696266705992745 4.2044090006595347 4.1331893623108051 4.3526472489039314 4.280576979396332 4.1993273403437019 4.2757082118530798 4.1264621818341185 4.2044603508913347 4.2816443056845186 4.1957699480929529 4.1203219646038862 4.3617439681343129 4.1970088335701341 4.2806073436185148 4.4387949296844873 4.2813864339613348 4.3520625989972581 4.5036501639024475 4.352445177773526 4.4108206650354171 4.4110065278853314 4.3520377967225539 4.2641716441162121 4.4060953173486137 4.2692665191967398 4.3208738295892228 4.3471088709919865 4.2050705809951223 4.2693363612787687 4.2634748702493734 4.1396775330127831 4.1960748609671148 4.3153223580137956 4.1953310046205043 4.2384059790915662 4.3204929121083593 4.2692963172389282 4.1898709682507844 4.3598032424206048 4.3208519109183303 4.2326085232166442 4.3557083403092385 4.2369127895927772 4.2687652973253982 4.4535957045085057 4.3203157435727038 4.3606244654996473 4.4577818710516599 4.4108070285257588 4.3159928543134969 4.5568804204827238 4.4109171177739457 4.4578567442092902 4.5611541441392154 4.5078149473190878 4.4065622181611763 4.6701649971369026 4.61160138900311 4.5039753493667511 4.6657888150874633 4.5083917804630103 4.560688900793874 4.780525679565053 4.6125321119037741 4.6692935012935122 4.7850258544714812 4.7220286148714425 4.6080208796482864 4.7184432508125322 4.5428740899170146 4.611602875987141 4.7231645246520291 4.6479215454140164 4.5381368185077173 4.6441406566164298 4.4608985786288242 4.5419209901577862 4.5379229857409991 4.367010659258689 4.4431613992597736 4.61249366407454 4.5419164100080573 4.4391112472234955 4.6077925057415703 4.4438663861289704 4.5078217305645989 4.5084094348874659 4.4431482101725042 4.3475780831577824 4.4439513151139023 4.3660950803909833 4.2761144265263908 4.3671197403131901 4.2763161848697067 4.1915216572807843 4.4558437689507713 4.2774312913816539 4.3661103336569047 4.4609006659601098 4.365380607300902 4.2723257407606914 4.5428722638720815 4.4598897435035365 4.362007262577527 4.6490158800189656 4.5613124039395512 4.4560123473291675 4.5623407264557132 4.4621810384201108 4.3615092241682767 4.5574273641990217 4.3664271875698164 4.4598941119278575 4.4582881039464981 4.259540043020146 4.3654327778081656 4.4632287144744298 4.3508323771863031 4.2545207547935169 4.3665623596072844 4.2586274975024159 4.1698019428813735 4.361414036544252 4.1750657523925438 4.2763890538999529 4.2777218563280357 4.1739430728755433 4.0932847262760657 4.5488411044089991 4.4251218692256025 4.4330195622324489 4.55075