<?xml version="1.0"?>
<VTKFile type="UnstructuredGrid" version="0.1" byte_order="LittleEndian">
<UnstructuredGrid>
<Piece NumberOfPoints="2400" NumberOfCells="800">
<Points>
<DataArray type="Float64" NumberOfComponents="3" format="ascii">
0.050000000000000037 0 0 0 0.049999999999899652 0 0 0 0 0.050000000000000037 0 0 0.050000000000000037 0.049999999999899652 0 0 0.049999999999899652 0 0.099999999999999978 0 0 0.050000000000000037 0.049999999999899652 0 0.050000000000000037 0 0 0.14999999999999999 0 0 0.099999999999999978 0.049999999999899652 0 0.099999999999999978 0 0 0.099999999999999978 0 0 0.099999999999999978 0.049999999999899652 0 0.050000000000000037 0.049999999999899652 0 0.099999999999999978 0.049999999999899652 0 0.099999999999999978 0.099999999999814668 0 0.050000000000000037 0.099999999999814668 0 0.099999999999999978 0.049999999999899652 0 0.050000000000000037 0.099999999999814668 0 0.050000000000000037 0.049999999999899652 0 0.14999999999999999 0.049999999999899652 0 0.099999999999999978 0.099999999999814668 0 0.099999999999999978 0.049999999999899652 0 0.14999999999999999 0.099999999999814668 0 0.099999999999999978 0.14999999999970359 0 0.099999999999999978 0.099999999999814668 0 0.099999999999999978 0.099999999999814668 0 0.050000000000000037 0.14999999999970359 0 0.050000000000000037 0.099999999999814668 0 0.050000000000000037 0.049999999999899652 0 0.050000000000000037 0.099999999999814668 0 0 0.099999999999814668 0 0.050000000000000037 0.049999999999899652 0 0 0.099999999999814668 0 0 0.049999999999899652 0 0.050000000000000037 0.099999999999814668 0 0 0.14999999999970359 0 0 0.099999999999814668 0 0.050000000000000037 0.099999999999814668 0 0.050000000000000037 0.14999999999970359 0 0 0.14999999999970359 0 0.050000000000000037 0.14999999999970359 0 0.050000000000000037 0.19999999999955789 0 0 0.19999999999955789 0 0.050000000000000037 0.14999999999970359 0 0 0.19999999999955789 0 0 0.14999999999970359 0 0.050000000000000037 0.19999999999955789 0 0 0.24999999999941211 0 0 0.19999999999955789 0 0.050000000000000037 0.19999999999955789 0 0.050000000000000037 0.24999999999941211 0 0 0.24999999999941211 0 0.099999999999999978 0.19999999999955789 0 0.050000000000000037 0.24999999999941211 0 0.050000000000000037 0.19999999999955789 0 0.099999999999999978 0.19999999999955789 0 0.099999999999999978 0.24999999999941211 0 0.050000000000000037 0.24999999999941211 0 0.14999999999999999 0.19999999999955789 0 0.099999999999999978 0.24999999999941211 0 0.099999999999999978 0.19999999999955789 0 0.14999999999999999 0.14999999999970359 0 0.099999999999999978 0.19999999999955789 0 0.099999999999999978 0.14999999999970359 0 0.099999999999999978 0.14999999999970359 0 0.099999999999999978 0.19999999999955789 0 0.050000000000000037 0.19999999999955789 0 0.099999999999999978 0.14999999999970359 0 0.050000000000000037 0.19999999999955789 0 0.050000000000000037 0.14999999999970359 0 0.099999999999999978 0.099999999999814668 0 0.099999999999999978 0.14999999999970359 0 0.050000000000000037 0.14999999999970359 0 0.14999999999999999 0.099999999999814668 0 0.14999999999999999 0.14999999999970359 0 0.099999999999999978 0.14999999999970359 0 0.20000000000000001 0.099999999999814668 0 0.20000000000000001 0.14999999999970359 0 0.14999999999999999 0.14999999999970359 0 0.20000000000000001 0.14999999999970359 0 0.20000000000000001 0.19999999999955789 0 0.14999999999999999 0.19999999999955789 0 0.20000000000000001 0.14999999999970359 0 0.14999999999999999 0.19999999999955789 0 0.14999999999999999 0.14999999999970359 0 0.14999999999999999 0.14999999999970359 0 0.14999999999999999 0.19999999999955789 0 0.099999999999999978 0.19999999999955789 0 0.14999999999999999 0.19999999999955789 0 0.14999999999999999 0.24999999999941211 0 0.099999999999999978 0.24999999999941211 0 0.20000000000000001 0.19999999999955789 0 0.20000000000000001 0.24999999999941211 0 0.14999999999999999 0.24999999999941211 0 0.20000000000000001 0.19999999999955789 0 0.14999999999999999 0.24999999999941211 0 0.14999999999999999 0.19999999999955789 0 0.25 0.19999999999955789 0 0.20000000000000001 0.24999999999941211 0 0.20000000000000001 0.19999999999955789 0 0.25 0.19999999999955789 0 0.25 0.24999999999941211 0 0.20000000000000001 0.24999999999941211 0 0.25 0.14999999999970359 0 0.25 0.19999999999955789 0 0.20000000000000001 0.19999999999955789 0 0.25 0.14999999999970359 0 0.20000000000000001 0.19999999999955789 0 0.20000000000000001 0.14999999999970359 0 0.25 0.099999999999814668 0 0.25 0.14999999999970359 0 0.20000000000000001 0.14999999999970359 0 0.25 0.049999999999899652 0 0.25 0.099999999999814668 0 0.20000000000000001 0.099999999999814668 0 0.25 0.049999999999899652 0 0.20000000000000001 0.099999999999814668 0 0.20000000000000001 0.049999999999899652 0 0.25 0.099999999999814668 0 0.20000000000000001 0.14999999999970359 0 0.20000000000000001 0.099999999999814668 0 0.20000000000000001 0.099999999999814668 0 0.14999999999999999 0.14999999999970359 0 0.14999999999999999 0.099999999999814668 0 0.14999999999999999 0.049999999999899652 0 0.14999999999999999 0.099999999999814668 0 0.099999999999999978 0.099999999999814668 0 0.20000000000000001 0.049999999999899652 0 0.14999999999999999 0.099999999999814668 0 0.14999999999999999 0.049999999999899652 0 0.20000000000000001 0.049999999999899652 0 0.20000000000000001 0.099999999999814668 0 0.14999999999999999 0.099999999999814668 0 0.20000000000000001 0 0 0.20000000000000001 0.049999999999899652 0 0.14999999999999999 0.049999999999899652 0 0.14999999999999999 0 0 0.14999999999999999 0.049999999999899652 0 0.099999999999999978 0.049999999999899652 0 0.20000000000000001 0 0 0.14999999999999999 0.049999999999899652 0 0.14999999999999999 0 0 0.25 0 0 0.20000000000000001 0.049999999999899652 0 0.20000000000000001 0 0 0.25 0 0 0.25 0.049999999999899652 0 0.20000000000000001 0.049999999999899652 0 0.29999999999999999 0 0 0.25 0.049999999999899652 0 0.25 0 0 0.29999999999999999 0 0 0.29999999999999999 0.049999999999899652 0 0.25 0.049999999999899652 0 0.29999999999999999 0.049999999999899652 0 0.25 0.099999999999814668 0 0.25 0.049999999999899652 0 0.29999999999999999 0.099999999999814668 0 0.25 0.14999999999970359 0 0.25 0.099999999999814668 0 0.29999999999999999 0.049999999999899652 0 0.29999999999999999 0.099999999999814668 0 0.25 0.099999999999814668 0 0.34999999999999998 0.049999999999899652 0 0.29999999999999999 0.099999999999814668 0 0.29999999999999999 0.049999999999899652 0 0.34999999999999998 0.049999999999899652 0 0.34999999999999998 0.099999999999814668 0 0.29999999999999999 0.099999999999814668 0 0.34999999999999998 0.099999999999814668 0 0.29999999999999999 0.14999999999970359 0 0.29999999999999999 0.099999999999814668 0 0.40000000000000002 0.099999999999814668 0 0.34999999999999998 0.14999999999970359 0 0.34999999999999998 0.099999999999814668 0 0.40000000000000002 0.049999999999899652 0 0.34999999999999998 0.099999999999814668 0 0.34999999999999998 0.049999999999899652 0 0.34999999999999998 0 0 0.34999999999999998 0.049999999999899652 0 0.29999999999999999 0.049999999999899652 0 0.34999999999999998 0 0 0.29999999999999999 0.049999999999899652 0 0.29999999999999999 0 0 0.40000000000000002 0 0 0.34999999999999998 0.049999999999899652 0 0.34999999999999998 0 0 0.40000000000000002 0 0 0.40000000000000002 0.049999999999899652 0 0.34999999999999998 0.049999999999899652 0 0.45000000000000001 0 0 0.45000000000000001 0.049999999999899652 0 0.40000000000000002 0.049999999999899652 0 0.45000000000000001 0 0 0.40000000000000002 0.049999999999899652 0 0.40000000000000002 0 0 0.5 0 0 0.45000000000000001 0.049999999999899652 0 0.45000000000000001 0 0 0.5 0 0 0.5 0.049999999999899652 0 0.45000000000000001 0.049999999999899652 0 0.5 0.049999999999899652 0 0.45000000000000001 0.099999999999814668 0 0.45000000000000001 0.049999999999899652 0 0.5 0.049999999999899652 0 0.5 0.099999999999814668 0 0.45000000000000001 0.099999999999814668 0 0.5 0.099999999999814668 0 0.45000000000000001 0.14999999999970359 0 0.45000000000000001 0.099999999999814668 0 0.45000000000000001 0.099999999999814668 0 0.40000000000000002 0.14999999999970359 0 0.40000000000000002 0.099999999999814668 0 0.45000000000000001 0.049999999999899652 0 0.40000000000000002 0.099999999999814668 0 0.40000000000000002 0.049999999999899652 0 0.45000000000000001 0.049999999999899652 0 0.45000000000000001 0.099999999999814668 0 0.40000000000000002 0.099999999999814668 0 0.40000000000000002 0.049999999999899652 0 0.40000000000000002 0.099999999999814668 0 0.34999999999999998 0.099999999999814668 0 0.40000000000000002 0.099999999999814668 0 0.40000000000000002 0.14999999999970359 0 0.34999999999999998 0.14999999999970359 0 0.40000000000000002 0.14999999999970359 0 0.40000000000000002 0.19999999999955789 0 0.34999999999999998 0.19999999999955789 0 0.45000000000000001 0.14999999999970359 0 0.45000000000000001 0.19999999999955789 0 0.40000000000000002 0.19999999999955789 0 0.45000000000000001 0.14999999999970359 0 0.40000000000000002 0.19999999999955789 0 0.40000000000000002 0.14999999999970359 0 0.45000000000000001 0.099999999999814668 0 0.45000000000000001 0.14999999999970359 0 0.40000000000000002 0.14999999999970359 0 0.5 0.099999999999814668 0 0.5 0.14999999999970359 0 0.45000000000000001 0.14999999999970359 0 0.5 0.14999999999970359 0 0.5 0.19999999999955789 0 0.45000000000000001 0.19999999999955789 0 0.5 0.14999999999970359 0 0.45000000000000001 0.19999999999955789 0 0.45000000000000001 0.14999999999970359 0 0.5 0.19999999999955789 0 0.45000000000000001 0.24999999999941211 0 0.45000000000000001 0.19999999999955789 0 0.5 0.19999999999955789 0 0.5 0.24999999999941211 0 0.45000000000000001 0.24999999999941211 0 0.45000000000000001 0.19999999999955789 0 0.45000000000000001 0.24999999999941211 0 0.40000000000000002 0.24999999999941211 0 0.45000000000000001 0.19999999999955789 0 0.40000000000000002 0.24999999999941211 0 0.40000000000000002 0.19999999999955789 0 0.40000000000000
[...]
<PointData Scalars="tracer_conc," Vectors="" Tensors="">
<DataArray type="Float64" Name="tracer_conc" format="ascii">
3.9826539965935983 4.2127075198405617 4.1357467788425915 4.0300340546601756 4.0699063294984459 4.1661995639201379 3.9399156196620511 4.0926292872772843 4.0097605222761006 3.9344084896732316 4.0420796595697697 3.9551380689581075 3.967125161335066 4.0282570997395828 4.0658325974961516 4.0444830035167456 4.0654312767748237 4.0839429054508631 4.024720799972541 4.1032147597255699 4.0697400147498497 4.0212777564077777 4.0810925101926205 4.0282943655191712 4.0792472424584583 4.0901118477450806 4.0654930195782093 4.0685934122604905 4.0779400388328657 4.0801328499830847 4.0944619740603239 4.080280891909621 4.1390101917209217 4.0694157526744137 4.1632294292534793 4.1643127316208535 4.0891219781901844 4.0845490392376762 4.128556482327733 4.102488336312323 4.0578768285820495 4.07242981440334 4.0762940610475216 4.0164707488032612 3.9876255690682227 4.0708736917085018 3.9916023121559694 4.0582005079418657 4.031243135042339 3.8964952415812606 3.9719513135570019 4.030915172724324 3.9667147516619914 3.8983381461857483 4.0752037003006105 3.9793097401291608 4.0161208590256932 4.0780125504299516 4.0462541251896438 3.9777011605064492 4.1293952166822052 4.056865069024485 4.0659478125608661 4.1134441150146888 4.0791445878367103 4.0750341774574581 4.0895400428432733 4.0660731545840267 4.0266425656326383 4.08215245200316 4.032844163698222 4.0576052557277329 4.0816952153516199 4.0751099488719404 4.0658527160968694 4.0901666369749723 4.1094010681875481 4.0796552638314649 4.1214110497698426 4.1584468669950887 4.1119324702955291 4.1672719254311508 4.1891623906506066 4.1276676111985937 4.1607141663910605 4.1337948883632167 4.1094009693238931 4.1205991836529492 4.1235010457048427 4.0727047734360466 4.1331764030080089 4.1259482606519393 4.0538974374704679 4.1970611175619901 4.2080742708731886 4.1310190670464717 4.1928585723131571 4.1346676649886209 4.1234368996959319 4.2651137591590098 4.2152939941228791 4.1891375574360374 4.2694533614520358 4.2940572067181337 4.2113306355980216 4.2271268663599209 4.2628749332289857 4.1917111209672404 4.2211849627400957 4.1973899745407843 4.1584757197982123 4.1702142593175129 4.2199669341241242 4.1598124784844508 4.0965612740686952 4.1629357925893107 4.1120381768797047 4.0880213380208135 4.1206983790386777 4.0474657672015191 4.1627725339903048 4.1671686659814018 4.1123750694672898 4.1124692022723908 4.1206738780771408 4.0782857122964771 4.0357828947428249 4.0781699658352348 4.0665847901721017 4.0449474190838464 4.0893411564468956 4.0245372426756001 4.0558455311816912 4.1122714049861413 4.0783227773785047 3.9679569847323748 4.0474790309254667 4.0215228754676051 3.9522206142995744 4.024528070057217 4.0244269138494797 3.9553075595726015 4.0340706536081132 3.9440331617216953 3.9952324175049276 4.0547488732246553 3.9616864257129718 4.0048290228932863 4.0899106359599351 4.0452552593591546 4.0495205542521209 4.0958937725394309 3.9996036378496105 4.0572379627889008 4.1471487320987039 4.0882926202241352 4.1457525714241212 4.1696774350423045 4.0898829233950416 4.2264457494771985 4.2269921539800954 4.1630162498348637 4.1527682976512494 4.2267525604350107 4.1625700072092577 4.215112961166847 4.2324577814550031 4.1471118276863983 4.2211567478224996 4.3013811515216798 4.2263533566543305 4.3010188562296703 4.2979999454101696 4.2268132601319133 4.3848723484960459 4.3786049338214648 4.3014271977243466 4.2941582167298522 4.3064585032751097 4.2161068362688319 4.1217171259918333 4.2161502850902197 4.145972967155334 4.1151695895900815 4.15238965217981 4.0525950579598335 4.190245281763338 4.2209756219034267 4.1173851556184982 4.1960775737780365 4.2949426460223474 4.2152883324593615 4.2789465288855775 4.3822734510823684 4.2942977105802536 4.2735241627794887 4.299561123914704 4.1918847568901114 4.3642717491111593 4.3868259327305736 4.2747770267704102 4.3694989592262345 4.4773893699545093 4.3817721305685051 4.4768847917777332 4.4819124608415244 4.3822196120335155 4.4818292171587784 4.5771523682577957 4.4769766704035341 4.5767178726826225 4.5645928266848932 4.4774105221108309 4.4769763202654254 4.4677072608176891 4.3852945663187599 4.3816606660607489 4.3899738590045763 4.2948938266623387 4.3867625745192429 4.4773825206461995 4.3848611160309865 4.2996022684114186 4.3852590187030431 4.3009809334253513 4.3901336200393173 4.4629283869872953 4.3733621876514963 4.467734658454531 4.5282161225502104 4.4330375471148304 4.564580872390974 4.6303730664139975 4.52813719089231 4.5597810016727536 4.5328684335465228 4.4629493392044148 4.481998952953445 4.5600616285592785 4.4627062955932715 4.5816472154576964 4.6644315762400606 4.5596918203000429 4.6687944398060912 4.739162769135846 4.6300307917038799 4.6639974857468927 4.6347653402029616 4.5600784923283264 4.7387244467488392 4.6928266902645994 4.630379937219149 4.7433131046482471 4.8015567270667967 4.6883281346815027 4.6346783847912647 4.6886793419736836 4.5817236482662267 4.630190314216593 4.5861046738964486 4.5282233382698296 4.5327873292928196 4.5817294952048613 4.4809402335796937 4.4377616409515808 4.4804858355333836 4.3857906131372824 4.4333743665764365 4.3899937472978978 4.3442175735852366 4.5283656925666627 4.4852254308506669 4.4327726171731019 4.4628401538657148 4.4378480588213858 4.3734180016691422 4.3067132334316165 4.3733922968524102 4.2923273216328752 4.3786744988868307 4.4327662337737337 4.3449776840940704 4.3735717569315966 4.3499667069146621 4.2921119878638425 4.2981102557850948 4.3442145074343248 4.26435458085626 4.2328369243991943 4.2920813423519739 4.2206395007080939 4.2926626324355244 4.2696346622181229 4.2200006769212672 4.3454814048735741 4.3001535954885695 4.2628694101013087 4.3498536561769479 4.3847013094675491 4.2960407560524079 4.3863855876799889 4.3210777935850322 4.2940222050265797 4.3896951763754526 4.4151817174838701 4.3180830378852431 4.4169960449911043 4.3346869710432685 4.3158615063780967 4.4388627664126457 4.3428575089605541 4.3305537543856119 4.4193586287506479 4.4371960230713272 4.3326631108417821 4.5215529403985837 4.5453360248126824 4.438279142721707 4.5185826067283452 4.4409960469012768 4.4151448393621253 4.5461334043867341 4.4549657826278235 4.4371473264344008 4.6565072177645472 4.567414271374882 4.5453019823291942 4.6244822316130731 4.5489502795589738 4.5176267676985162 4.4850026058340946 4.5176509941967602 4.4163784605525045 4.48135325229764 4.41979744556353 4.3846816035348359 4.5820123235521315 4.5218836228502175 4.480475192624386 4.5859256006331766 4.6241952676161135 4.5181430814646539 4.6926711852696918 4.7354572730271469 4.6241691835537857 4.6885336910389972 4.6281723524820295 4.5817241049730129 4.8010846065637773 4.7392739187166937 4.6886768645353563 4.805426703293481 4.8519326076990197 4.7350414773477372 4.8513793630331783 4.7746439260936882 4.7354468688793148 4.8554732842177124 4.8906540066057449 4.7706703313523899 4.889961113001787 4.7994373509342658 4.7712015045408354 4.7708902596456602 4.6818361615360127 4.6563303351506784 4.7390619172425081 4.7712179916145248 4.6562031513919582 4.7352668350625562 4.65984868995334 4.6241794210076108 4.6279135173932904 4.6563540206927279 4.5457113271081173 4.6595319369274186 4.6788699444912316 4.5645858245512105 4.6814844621450336 4.6922614373889822 4.5754980009839707 4.7958758322523627 4.6946899267602955 4.6788411741606053 4.799158782934299 4.8114838799740349 4.691552924754232 4.7743904853156529 4.7964345699898585 4.6784889829319649 4.8938371373341427 4.9180689166012659 4.7956836285683897 4.9208868441645679 4.9344603362536432 4.8104608995366824 4.9171733739180192 4.8140579709085545 4.7964140223775367 4.9333009480828789 4.8187692583393069 4.8114613007030007 4.9369244577161249 4.9400100684424952 4.8152495922038385 4.8137706304320513 4.8166047527711671 4.6957341690094578 4.8106071862553934 4.6987678328691045 4.692230284762684 4.6943259296235089 4.6968528139118586 4.5789134229091797 4.5775741197587498 4.5797194291042169 4.4634177831761326 4.5757826698249104 4.4649981192434165 4.4606623603225275 4.6917579787393544 4.5813168233371 4.5757477797466963 4.6787552264584544 4.5780409031187768 4.5644368877420458 4.5485432812224822 4.5644770353380588 4.4528118655921745 4.566962381406042 4.5757905207243024 4.4609811375931505 4.5649538005766619 4.4627487820965905 4.4519934618403099 4.4543777618537952 4.4607206005944047 4.3462301563537888 4.4404618388043602 4.4520491264130975 4.3415951125395198 4.4533166025463444 4.3469778394386589 4.3398812724975384 4.461371994348168 4.3479046568096535 4.3451554916500514 4.4621449342114374 4.4638091146025616 4.3474044691652916 4.3461939064869828 4.3472447852634062 4.2284008957332855 4.3467598140471404 4.2274822031485453 4.2267853512650664 4.2272450223264286 4.2275102471847381 4.1031077068034687 4.1019927390085398 4.1012530569812355 3.9671617418288503 4.2295663727198436 4.1003322910811049 4.1022895211982719 4.2297139867370683 4.1032972947647286 4.1070592604793719 4.2278645243669093 4.226890244518974 4.1056729349050087 4.1086953695779433 4.1024273136336449 3.9724187812069065 4.1178528800625109 4.1071968759304056 3.9858735205196378 4.2272778935748079 4.2259994782067922 4.1115329529129676 4.3422792359152762 4.2282604118825109 4.2258959938101039 4.3420874866105263 4.34523412497491 4.2288597631900693 4.3339763777470761 4.3399576941485467 4.2288013880112345 4.3334623476067096 4.2288723184148171 4.2237206804905423 4.3189456387104466 4.2282274892215908 4.2185505619137071 4.3204790825313513 4.3306227739495906 4.2271489349544114 4.2997283523131955 4.3159171405520409 4.2221353149344401 4.2968975635961595 4.2245301252578971 4.2080141344350057 4.214662802604634 4.2186332586276647 4.1268932274653505 4.2125564863689267 4.1283946162232565 4.1258487799771864 4.1337140730581687 4.1215592664011815 4.0299038068099211 4.1272412673653935 4.1142915327157912 4.0059332825052953 4.2233257563725672 4.1191161251802191 4.1214392160374294 4.2237002032484865 4.2238171074652655 4.1193498697256237 4.2282273026514483 4.1100045008459691 4.114159572733036 4.1207762701778359 3.9822044818594051 3.9984278289613493 4.0077041211093833 3.8400995046426134 3.8718156374759651 4.0284569191653885 3.9985988688114924 3.882270632315739 4.0319634729642386 3.8776842228224275 3.9162041485856647 4.1285062656215556 4.0038666520532367 4.0219248648275308 4.1327488656293019 4.0300388874873612 4.0461058110631507 4.0562127554390282 3.9255605403576292 3.966310667476074 4.0554384658375406 4.0220869969814768 3.9274886917036258 3.9772707426367049 3.9166435682707696 3.8141405320910602 3.9818616442552544 3.8080241176667946 3.8825305115185578 3.9312120266681116 3.7327089239723543 3.7990741273636823 3.9234831850411527 3.8722730207757627 3.7419327456015381 3.8855471985809911 3.6752749444387627 3.7282603653096178 3.8493885082920771 3.638938431164112 3.6748924198997397 3.8380485542390068 3.8167641105074011 3.6516126688089994 3.8756067151872275 3.8379845718023518 3.6866457950566085 4.0022104925304882 3.979545012883893 3.8465827335946465 4.1127265948637213 3.9677173614167183 3.9793692583154971 3.9805284105799141 3.9675223815164573 3.8235126245101099 3.9873338749757421 3.8158207403842948 3.8375258671298185 3.9735483320984137 3.8066106512363125 3.8163204657161915 4.1065984566743694 3.9619776965823159 3.9673463854882107 3.9660637805500518 3.9640487406918234 3.8148654146717886 3.8138201308339208 3.810345056949699 3.6387719673440144 3.8258112410606042 3.6255736550529489 3.6422227772396645 3.8166090124308583 3.6358007109860333 3.6321365397269294 3.8046855823115582 3.8192840459931707 3.6487721706276486 3.8223798938318341 3.6690126695891592 3.6452461624642858 3.8425537314130929 3.7233473386773053 3.6809206486836166 3.81124139211206 3.8429830867754768 3.6810051700203217 3.964030258642969 3.9836601994433924 3.8421181844787857 3.9710404495553386 3.8346193526408734 3.8189212535500476 3.9823681656375562 3.869566960303124 3.8426886440374934 4.1087837534584448 3.9975000000823089 3.9835178148529558 4.1045967482347843 3.9778653808222706 3.9694472209611811 3.9603853112148348 3.969607516679067 3.8212518483050189 3.9679372217491684 3.813061033173891 3.8099330962066222 4.1037337872973225 3.9655209037004289 3.9638776108730593 4.099077084851408 4.1040761967641073 3.9706477977626817 4.2265043348544404 4.2281811569537533 4.1043010930333512 4.2288690134411198 4.1015719818763099 4.1011205421203405 4.3477490936858114 4.2269204208139506 4.2274092247820594 4.3471481121591165 4.3462386499714478 4.2278025175984499 4.3455502478330397 4.2262518135424081 4.2280892851932661 4.3452534333929123 4.3419127222558345 4.2267423543989562 4.3399192123283781 4.224450772515433 4.2284440817080755 4.2266525745794246 4.1141886608966391 4.1103297806790513 4.2260240074081059 4.2285213299749458 4.1088513852797002 4.2280041343716768 4.1066141822744111 4.1039547879352938 4.1004108536341102 4.1104336290398491 3.982395049702947 4.1055967395199504 4.1189870846353198 4.0008819456395459 4.113374712642492 4.1275008361565932 4.0235023681918083 4.2237995188680166 4.1221416660315686 4.1189080344798574 4.223862478228142 4.2231663602118417 4.1220598510451669 4.2254832901432513 4.2274448687975896 4.1154882282818486 4.3402589304941532 4.333417466589963 4.2242020134931817 4.3313666371182844 4.3193787222714386 4.21847838766233 4.3300744779159732 4.219797493982818 4.2273879560456269 4.3147248800580771 4.2098992481876172 4.2231355903011192 4.3172532028988844 4.2979450549695937 4.2072123214939436 4.2194507586078203 4.2132206548783531 4.12551786616896 4.2177486745801467 4.1274137227153975 4.127454588600119 4.1216079096705514 4.1328118182037734 4.0464867684989256 4.0210009031394458 4.0553985938759221 3.9677330914676365 4.0224772909447148 3.9664170556455991 3.9261870986271763 4.1211553868503614 4.0471400275272913 4.0297497319744782 4.1150213982315407 4.0218387997119933 4.0045104557628948 3.976523959968874 4.0046264344959832 3.8757243619376873 4.0003876619601302 3.9149453904590006 3.8794577985078136 3.9963685535385842 4.0298290981837566 3.9190670095640932 3.868087332920199 3.9262733778434429 3.8032140153848828 3.8329434711952888 3.8796617519063759 3.7335776438420187 3.8753664275088604 3.7955974952342646 3.737255798686105 3.9177758952393811 3.8810391179707868 3.8109790016539402 3.9137388519516012 3.9783468554850914 3.8850669644405049 3.9653010651591694 3.9731324914468673 3.8972658881018392 3.9656050106081402 4.0297143680867729 3.9723802873170588 4.0448470150419 4.0180317857798498 3.9784142472776485 4.1241398592627982 4.0683866011033132 4.0553676120881592 4.0467180582220434 4.076129063150173 4.0156550792316734 4.0624319662921815 4.0618450568569333 4.0299877408264342 4.0685702278301132 4.0852860528724104 4.054714955908044 4.1200517719564083 4.0791335908077544 4.0761574863254459 4.1041939421913938 4.0713679553549182 4.0853725395231102 4.0688020376035157 4.0872826719332433 4.0726003551271459 4.0178245496047706 4.0720417666450306 4.0558814525654858 4.0117430509815355 4.0629995274637247 3.9894178372403815 4.0486979146474598 4.1384630533416127 4.0782928574455735 4.0626247658091197 4.0939812690838213 4.122629421075545 4.0895438985239529 4.0796534798567263 4.1534527209970209 4.0646364839287239 4.1821259415413206 4.1513769379735415 4.0447369090266747 4.1645911484118505 4.1910166921043652 4.0920657931875493 4.0053181540681777 4.1066334706267247 4.0169676867708555 4.0205128738631526 4.0808888490680282 4.0424495263484896 3.9539250918131246 3.991819392572582 4.0166290695198814 3.9626060309532805 4.0341754407267638 4.0714278896907112 4.0356141058179373 4.0744793548418476 4.0562815977571374 4.080045153082084 4.094856993662976 4.0738489955497466 4.0334100514845108 4.0594194369303409 4.0802426447989824 4.0744049671988583 4.0741012957581075 4.1141804479565716 4.0840001064623781 4.0601451180484132 4.1626457548995299 4.1163710055905538 4.0738611006641507 4.1072318448856757 4.0300858482496924 4.0841409360503409 4.1176018690766201 4.0498271429277466 4.0187603691019129 4.0848971052345444 4.0277067324139137 4.0205027458506004 4.0338702483429261 3.9439228707260048 3.9438432289149814 4.0541458832420059 3.9621114922254601 3.9362911694803357 4.0418221776632022 3.9495218999951622 4.0282423934522438 4.085638410608186 3.9659428398803076 4.0501683335815866 4.0949803186125573 4.0003795837396092 3.9560276578842997 4.167276134315717 4.0918577086763763 4.0430623906906575 4.159010403484273 4.051901570454187 4.116483972236936 4.2236457201129944 4.1660301103323842 4.1087435012592577 4.2657360692513002 4.2237132447305017 4.1558155756845228 4.2601669620398841 4.1618185593518566 4.194556230060309 4.2165488176959105 4.1163729324291918 4.1635655431440632 4.1542775974493829 4.0830540896055014 4.1165488736965319 4.1263945601757763 4.1164540687823701 4.0719727594708157 4.1861073700620439 4.1131035849375106 4.1308501885028495 4.1921039808474898 4.1634879854642044 4.1064877649698595 4.2098662232999633 4.1945192323369653 4.1219185388022579 4.1272625206074149 4.1308073354524009 4.0647910423296203 4.2061561539950176 4.1260248270134277 4.1328066554996159 4.2921240667833258 4.1917433297993805 4.2132215087962051 4.2961129978568433 4.2668779479805865 4.1874555130638953 4.3827822814730819 4.2654585654555053 4.2979476982516847 4.3869117300559557 4.3472902914398013 4.2611196498993209 4.4785785156132452 4.3467961878065191 4.3876891558623692 4.5798194795315021 4.4353609110121397 4.482833474109392 4.4828014409471946 4.4352097477332606 4.3424364887224485 4.4305057765960578 4.2950064589891532 4.347310413998402 4.4354535326539715 4.3757577139690023 4.2898750117376006 4.5260678443025242 4.3762093271933438 4.4352216692382429 4.4605924247391311 4.3043633278354445 4.3757808184868283 4.3708398255300036 4.2299543194842819 4.2950292872941098 4.3469764572312286 4.2949910208181024 4.2175799021136458 4.3417715368818364 4.223074386097343 4.2669069985470633 4.2891836206480534 4.1664946557379734 4.2237703429200684 4.2953694329864449 4.2292446185785284 4.1599724226822259 4.2304270973250917 4.1488957391585668 4.0863838077784651 4.2235551629095385 4.0936021217785035 4.1661080485109636 4.1437418991584405 4.0030914724048561 4.0920807212207793 4.1512284317136414 4.0536239435324877 3.9952296311554094 4.2132868001387447 4.0556040563160343 4.1490455595216424 4.2196096504668761 4.1186094293079849 4.0490297082098605 4.2924136655996525 4.1201036823847366 4.2179057442460506 4.3828218013777072 4.2190913326176185 4.3035354106911425 4.3046235827877233 4.2178028806432293 4.1441993342110575 4.2986522260973867 4.1503749181916882 4.2292941781263531 4.3764143508428903 4.3035067609797188 4.22417493843668 4.4657871314892246 4.3871618881913124 4.2990530576044996 4.5628378264535217 4.4791524968709808 4.3830796086703421 4.4802104720256057 4.3838936088527509 4.2925793579357423 4.475114136616912 4.2977243711117463 4.3871755242410666 4.3882349344712006 4.2965609312997763 4.2135667333406586 4.2980192019857268 4.1932696341410853 4.1143270932380043 4.3851267483343896 4.27630178567843 4.1891345687441746 4.3799380659303289 4.1944405544310346 4.296632962450663 4.4751483612869603 4.2772609170537406 4.3839451126065212 4.480131392449147 4.366922580305526 4.2721973183857784 4.5799195376358979 4.4790338010866426 4.380027676956562 4.574964736208786 4.384987069446737 4.4791553657821428 4.6671884870964897 4.5788457165511884 4.4752772075793246 4.7418461307904796 4.6660507960062532 4.5580562990484603 4.7370817824189286 4.5628365406489708 4.6320884377873242 4.6622707153055662 4.480205840756315 4.561840246403392 4.557848074396242 4.3881233743016059 4.4649495112672906 4.5308658768362617 4.4649379197041661 4.3713034931024595 4.6330227165784565 4.5618371436458363 4.4609031228736526 4.6282806016887239 4.4656991526744729 4.5302333311178726 4.6911666342476215 4.632088444312755 4.5263873115454913 4.5841322078383211 4.5302281618818476 4.4309670017380496 4.686749222757558 4.5308449360094212 4.5836252528336781 4.799589795240311 4.6330578406560319 4.6902547160939143 4.804133348989768 4.7406696188959527 4.6285033019326844 4.8543881887776799 4.8029058568539753 4.68695796