<?xml version="1.0"?>
<VTKFile type="UnstructuredGrid" version="0.1" byte_order="LittleEndian">
<UnstructuredGrid>
<Piece NumberOfPoints="2400" NumberOfCells="800">
<Points>
<DataArray type="Float64" NumberOfComponents="3" format="ascii">
0.050000000000000037 0 0 0 0.049999999999899652 0 0 0 0 0.050000000000000037 0 0 0.050000000000000037 0.049999999999899652 0 0 0.049999999999899652 0 0.050000000000000037 0.049999999999899652 0 0 0.099999999999814668 0 0 0.049999999999899652 0 0.050000000000000037 0.099999999999814668 0 0 0.14999999999970359 0 0 0.099999999999814668 0 0.050000000000000037 0.049999999999899652 0 0.050000000000000037 0.099999999999814668 0 0 0.099999999999814668 0 0.099999999999999978 0.049999999999899652 0 0.050000000000000037 0.099999999999814668 0 0.050000000000000037 0.049999999999899652 0 0.099999999999999978 0.049999999999899652 0 0.099999999999999978 0.099999999999814668 0 0.050000000000000037 0.099999999999814668 0 0.099999999999999978 0.099999999999814668 0 0.050000000000000037 0.14999999999970359 0 0.050000000000000037 0.099999999999814668 0 0.14999999999999999 0.099999999999814668 0 0.099999999999999978 0.14999999999970359 0 0.099999999999999978 0.099999999999814668 0 0.14999999999999999 0.049999999999899652 0 0.099999999999999978 0.099999999999814668 0 0.099999999999999978 0.049999999999899652 0 0.14999999999999999 0 0 0.099999999999999978 0.049999999999899652 0 0.099999999999999978 0 0 0.099999999999999978 0 0 0.050000000000000037 0.049999999999899652 0 0.050000000000000037 0 0 0.099999999999999978 0 0 0.099999999999999978 0.049999999999899652 0 0.050000000000000037 0.049999999999899652 0 0.050000000000000037 0.19999999999955789 0 0.050000000000000037 0.24999999999941211 0 0 0.24999999999941211 0 0.050000000000000037 0.19999999999955789 0 0 0.24999999999941211 0 0 0.19999999999955789 0 0.050000000000000037 0.14999999999970359 0 0.050000000000000037 0.19999999999955789 0 0 0.19999999999955789 0 0.050000000000000037 0.14999999999970359 0 0 0.19999999999955789 0 0 0.14999999999970359 0 0.050000000000000037 0.099999999999814668 0 0.050000000000000037 0.14999999999970359 0 0 0.14999999999970359 0 0.099999999999999978 0.099999999999814668 0 0.099999999999999978 0.14999999999970359 0 0.050000000000000037 0.14999999999970359 0 0.14999999999999999 0.14999999999970359 0 0.099999999999999978 0.19999999999955789 0 0.099999999999999978 0.14999999999970359 0 0.099999999999999978 0.14999999999970359 0 0.099999999999999978 0.19999999999955789 0 0.050000000000000037 0.19999999999955789 0 0.099999999999999978 0.14999999999970359 0 0.050000000000000037 0.19999999999955789 0 0.050000000000000037 0.14999999999970359 0 0.099999999999999978 0.19999999999955789 0 0.050000000000000037 0.24999999999941211 0 0.050000000000000037 0.19999999999955789 0 0.14999999999999999 0.19999999999955789 0 0.099999999999999978 0.24999999999941211 0 0.099999999999999978 0.19999999999955789 0 0.099999999999999978 0.19999999999955789 0 0.099999999999999978 0.24999999999941211 0 0.050000000000000037 0.24999999999941211 0 0.20000000000000001 0.19999999999955789 0 0.20000000000000001 0.24999999999941211 0 0.14999999999999999 0.24999999999941211 0 0.14999999999999999 0.19999999999955789 0 0.14999999999999999 0.24999999999941211 0 0.099999999999999978 0.24999999999941211 0 0.20000000000000001 0.19999999999955789 0 0.14999999999999999 0.24999999999941211 0 0.14999999999999999 0.19999999999955789 0 0.20000000000000001 0.14999999999970359 0 0.20000000000000001 0.19999999999955789 0 0.14999999999999999 0.19999999999955789 0 0.20000000000000001 0.14999999999970359 0 0.14999999999999999 0.19999999999955789 0 0.14999999999999999 0.14999999999970359 0 0.14999999999999999 0.14999999999970359 0 0.14999999999999999 0.19999999999955789 0 0.099999999999999978 0.19999999999955789 0 0.14999999999999999 0.099999999999814668 0 0.14999999999999999 0.14999999999970359 0 0.099999999999999978 0.14999999999970359 0 0.20000000000000001 0.099999999999814668 0 0.20000000000000001 0.14999999999970359 0 0.14999999999999999 0.14999999999970359 0 0.25 0.099999999999814668 0 0.25 0.14999999999970359 0 0.20000000000000001 0.14999999999970359 0 0.25 0.14999999999970359 0 0.25 0.19999999999955789 0 0.20000000000000001 0.19999999999955789 0 0.25 0.14999999999970359 0 0.20000000000000001 0.19999999999955789 0 0.20000000000000001 0.14999999999970359 0 0.25 0.19999999999955789 0 0.20000000000000001 0.24999999999941211 0 0.20000000000000001 0.19999999999955789 0 0.25 0.19999999999955789 0 0.25 0.24999999999941211 0 0.20000000000000001 0.24999999999941211 0 0.20000000000000001 0 0 0.20000000000000001 0.049999999999899652 0 0.14999999999999999 0.049999999999899652 0 0.20000000000000001 0 0 0.14999999999999999 0.049999999999899652 0 0.14999999999999999 0 0 0.14999999999999999 0 0 0.14999999999999999 0.049999999999899652 0 0.099999999999999978 0.049999999999899652 0 0.14999999999999999 0.049999999999899652 0 0.14999999999999999 0.099999999999814668 0 0.099999999999999978 0.099999999999814668 0 0.20000000000000001 0.099999999999814668 0 0.14999999999999999 0.14999999999970359 0 0.14999999999999999 0.099999999999814668 0 0.20000000000000001 0.049999999999899652 0 0.14999999999999999 0.099999999999814668 0 0.14999999999999999 0.049999999999899652 0 0.20000000000000001 0.049999999999899652 0 0.20000000000000001 0.099999999999814668 0 0.14999999999999999 0.099999999999814668 0 0.25 0.049999999999899652 0 0.20000000000000001 0.099999999999814668 0 0.20000000000000001 0.049999999999899652 0 0.25 0.099999999999814668 0 0.20000000000000001 0.14999999999970359 0 0.20000000000000001 0.099999999999814668 0 0.25 0.049999999999899652 0 0.25 0.099999999999814668 0 0.20000000000000001 0.099999999999814668 0 0.25 0 0 0.25 0.049999999999899652 0 0.20000000000000001 0.049999999999899652 0 0.25 0 0 0.20000000000000001 0.049999999999899652 0 0.20000000000000001 0 0 0.29999999999999999 0 0 0.25 0.049999999999899652 0 0.25 0 0 0.29999999999999999 0 0 0.29999999999999999 0.049999999999899652 0 0.25 0.049999999999899652 0 0.34999999999999998 0 0 0.29999999999999999 0.049999999999899652 0 0.29999999999999999 0 0 0.34999999999999998 0 0 0.34999999999999998 0.049999999999899652 0 0.29999999999999999 0.049999999999899652 0 0.40000000000000002 0 0 0.34999999999999998 0.049999999999899652 0 0.34999999999999998 0 0 0.40000000000000002 0.099999999999814668 0 0.34999999999999998 0.14999999999970359 0 0.34999999999999998 0.099999999999814668 0 0.40000000000000002 0.049999999999899652 0 0.34999999999999998 0.099999999999814668 0 0.34999999999999998 0.049999999999899652 0 0.34999999999999998 0.049999999999899652 0 0.29999999999999999 0.099999999999814668 0 0.29999999999999999 0.049999999999899652 0 0.34999999999999998 0.049999999999899652 0 0.34999999999999998 0.099999999999814668 0 0.29999999999999999 0.099999999999814668 0 0.34999999999999998 0.099999999999814668 0 0.29999999999999999 0.14999999999970359 0 0.29999999999999999 0.099999999999814668 0 0.29999999999999999 0.049999999999899652 0 0.29999999999999999 0.099999999999814668 0 0.25 0.099999999999814668 0 0.29999999999999999 0.049999999999899652 0 0.25 0.099999999999814668 0 0.25 0.049999999999899652 0 0.29999999999999999 0.099999999999814668 0 0.25 0.14999999999970359 0 0.25 0.099999999999814668 0 0.29999999999999999 0.14999999999970359 0 0.25 0.19999999999955789 0 0.25 0.14999999999970359 0 0.29999999999999999 0.14999999999970359 0 0.29999999999999999 0.19999999999955789 0 0.25 0.19999999999955789 0 0.29999999999999999 0.099999999999814668 0 0.29999999999999999 0.14999999999970359 0 0.25 0.14999999999970359 0 0.29999999999999999 0.19999999999955789 0 0.25 0.24999999999941211 0 0.25 0.19999999999955789 0 0.29999999999999999 0.19999999999955789 0 0.29999999999999999 0.24999999999941211 0 0.25 0.24999999999941211 0 0.34999999999999998 0.19999999999955789 0 0.34999999999999998 0.24999999999941211 0 0.29999999999999999 0.24999999999941211 0 0.34999999999999998 0.19999999999955789 0 0.29999999999999999 0.24999999999941211 0 0.29999999999999999 0.19999999999955789 0 0.40000000000000002 0.19999999999955789 0 0.34999999999999998 0.24999999999941211 0 0.34999999999999998 0.19999999999955789 0 0.34999999999999998 0.099999999999814668 0 0.34999999999999998 0.14999999999970359 0 0.29999999999999999 0.14999999999970359 0 0.34999999999999998 0.14999999999970359 0 0.34999999999999998 0.19999999999955789 0 0.29999999999999999 0.19999999999955789 0 0.34999999999999998 0.14999999999970359 0 0.29999999999999999 0.19999999999955789 0 0.29999999999999999 0.14999999999970359 0 0.40000000000000002 0.14999999999970359 0 0.34999999999999998 0.19999999999955789 0 0.34999999999999998 0.14999999999970359 0 0.40000000000000002 0.099999999999814668 0 0.40000000000000002 0.14999999999970359 0 0.34999999999999998 0.14999999999970359 0 0.40000000000000002 0.14999999999970359 0 0.40000000000000002 0.19999999999955789 0 0.34999999999999998 0.19999999999955789 0 0.45000000000000001 0.14999999999970359 0 0.45000000000000001 0.19999999999955789 0 0.40000000000000002 0.19999999999955789 0 0.45000000000000001 0.14999999999970359 0 0.40000000000000002 0.19999999999955789 0 0.40000000000000002 0.14999999999970359 0 0.45000000000000001 0.099999999999814668 0 0.45000000000000001 0.14999999999970359 0 0.40000000000000002 0.14999999999970359 0 0.40000000000000002 0.19999999999955789 0 0.40000000000000002 0.24999999999941211 0 0.34999999999999998 0.24999999999941211 0 0.45000000000000001 0.19999999999955789 0 0.40000000000000002 0.24999999999941211 0 0.40000000000000002 0.19999999999955789 0 0.45000000000000001 0.19999999999955789 0 0.45000000000000001 0.24999999999941211 0 0.40000000000000002 0.24999999999941211 0 0.5 0.19999999999955789 0 0.45000000000000001 0.24999999999941211 0 0.45000000000000001 0.19999999999955789 0 0.5 0.19999999999955789 0 0.5 0.24999999999941211 0 0.45000000000000001 0.24999999999941211 0 0.5 0.14999999999970359 0 0.45000000000000001 0.19999999999955789 0 0.45000000000
[...]
<PointData Scalars="tracer_conc," Vectors="" Tensors="">
<DataArray type="Float64" Name="tracer_conc" format="ascii">
3.9497140530791564 4.1763181784452454 4.1010175583914403 3.9970657804554732 4.0353630560722653 4.1298436146379975 4.0349040019999682 4.1253442387685695 4.1279282504185684 4.053190854769789 4.045336295712362 4.0906802105919562 4.0599190794920856 4.0443206512172862 4.1011593876623476 3.9920899596663246 4.0672558511599082 4.0351957012642039 4.011822899101757 4.0314292710150088 4.0480136402553288 4.034621343121473 4.0407211499972986 4.0441724853275307 4.0472666183582504 4.0549238212517622 4.0314921883016552 3.9905586239067588 4.0470945091910702 3.9956315808273617 3.9050890991598379 4.0094243756041843 3.9239611145145026 3.9087716472499419 4.0580912956768769 3.9767878300007471 3.9359541026914902 3.995593597808393 4.0313225481282613 3.9925957094034832 3.9274762484069905 3.8570217358292589 3.9929549311209112 3.8551445215226687 3.9315984359146121 4.0390715536929322 3.9781604193951998 3.9472912683598693 4.0336826378380124 3.9512334593772267 4.0190002159486085 4.0665257869237488 4.0206600540328026 4.0332516326128376 4.0476934945385361 4.0399213484326095 4.0286637764917783 4.0803453178412408 4.0429210096145356 4.0398469039241967 4.0543483241062255 4.0298524751339304 3.9883567291430335 4.0469905374504069 3.9945282355403195 4.020388517859625 4.039006249897664 3.9400621781631582 3.9778107155507136 4.095324059759438 4.0197624799295255 4.0297285947086445 4.0417853260287258 4.0091579286865233 3.9384836582355933 4.1651005083104957 4.1753515459274517 4.0961282644984855 4.0990738083345546 4.0910295434872719 4.0168263341608199 4.1609310202862506 4.0997437585207885 4.0893410959687193 4.1362197128265272 4.1572059452196592 4.0936014916915608 4.1296948932417887 4.0996957903039926 4.0762740236612744 4.0874689967256019 4.0894036550623127 4.0365126267852256 4.0581548468649871 4.0762726692262712 4.0444984496826208 4.0914047279558483 4.1273954323057191 4.0788384913646585 4.1422145950204943 4.1909941513719176 4.1287980072120947 4.1981539933643583 4.233061301818811 4.1597885908433723 4.1922468116159148 4.1654326837216074 4.1274258638581331 4.2353315952074295 4.1825669763347868 4.157182818976878 4.239636304249319 4.2635325307827046 4.1786385567852316 3.9404456662474137 4.0186484382643162 3.9908081776538076 3.9278264636385583 4.003325348108584 3.9146779140830077 3.9228725318037125 3.99377353300358 3.9918008220129098 4.0050330618351184 4.0461565982628915 4.032617606629179 4.0824955250089605 4.0875472117228426 4.0462736409314983 4.0161546023935664 4.0573329284321247 3.9937835896778053 4.0270206224382079 4.0822625411271867 4.0463467454081004 4.0611561339974722 4.0906954484220801 4.0186362368194093 4.1348072371551625 4.136119783726258 4.0823676259817336 4.0696623311450715 4.1349329538326804 4.0820690781709628 3.9791554140001275 4.0630053550100653 4.0164668639302912 3.9695908916480889 4.0259281475565896 3.934167033893134 4.0257059885370765 4.0689986472164152 3.9739213408477267 4.033389235200584 4.1221556329436826 4.0614317566665825 4.0931549470604391 4.127406671088691 4.0287373055131823 4.0996661096731186 4.1930411712268967 4.1210263061065096 4.1699888498416451 4.1978762790461861 4.0953250473641587 4.3627857775087131 4.353733499327892 4.2773812242547882 4.2729355709921464 4.2824172649267958 4.1929992370886282 4.1920480921926613 4.2064538109466847 4.1221201109529257 4.1980543777318085 4.2773335271447825 4.2003869761125978 4.2770130387426777 4.2710948188611209 4.200804355103017 4.1277818840903349 4.2007420553014256 4.1346092130032925 4.1208017239650196 4.141680986767093 4.0629788730978307 4.2004750080853901 4.1980224124180587 4.1350149338890416 4.2657912511798317 4.2398207301669864 4.1910295740465386 4.2712022051029113 4.3165289853726865 4.2345773601719134 4.2068299186376326 4.2651729897374731 4.1917060731504865 4.3178298016382071 4.2696252289979251 4.2330575795257159 4.322165170454995 4.3563595530847143 4.2655493180921917 4.4121697337654666 4.4542942741826934 4.3574845171305192 4.4078214256438271 4.3616486369374563 4.3165339184992684 4.5048622794397826 4.45903061166449 4.4071853671221914 4.2826691488576838 4.3485177309659093 4.2654605232245082 4.3538003568120605 4.4071770790479192 4.3173308848848713 4.3487363331265483 4.3222811408792445 4.2652053895349358 4.4399932072693735 4.4122588546758204 4.3485452366671149 4.3680067378508598 4.4400403356012079 4.3485311417512742 4.4448469045182444 4.5046743917149543 4.4074892091498343 4.5436154696579241 4.6088127455383452 4.5046381168283487 4.5388584774541876 4.5093264080382802 4.4400631071851731 4.4617276327582198 4.5390962835787674 4.4398634573644689 4.5092428283247612 4.5576376938566812 4.4547865547854819 4.6086701880990404 4.562009492118194 4.504683521184937 4.6131150666226572 4.6666193276176138 4.5576717185742988 4.7191046820301592 4.6707629730806444 4.6088215104838053 4.7236481158586621 4.7814434477658461 4.6663097127165081 4.6449191424579563 4.6132042591903417 4.5391149569824512 4.6496712210523601 4.7195011963400484 4.6085146771414456 4.5631542506131213 4.6453089810656483 4.5387730706995333 4.5582691943179459 4.5436296673504941 4.4571380282698962 4.4591543351320242 4.4616435761335786 4.3627343319253109 4.4640554444534519 4.558657257332138 4.4567512218900713 4.3525324840507356 4.4596102740455281 4.3623359214488735 4.3473483743374413 4.3673471511825639 4.256173104493187 4.2603510517189731 4.3627864585122769 4.2730787275365296 4.2549695931000651 4.2783016036234924 4.1715807842836155 4.1757824972728468 4.2736739958278687 4.1922274229086502 4.2783401452032566 4.36312882069676 4.276979267484557 4.4567473367332413 4.4448219876958301 4.3631660431480981 4.3672816306598348 4.4571083550506865 4.3627784206785192 4.3622211568133933 4.3678496235175555 4.2736268017968495 4.7729021389825101 4.6693955534234499 4.6537119240898726 4.7761416526632958 4.7883501224389535 4.6663020423139772 4.7515989988166218 4.7734331622621919 4.6533881059463331 4.6346339538886374 4.653738688153215 4.5372806641919778 4.6563371021417126 4.6669836332832837 4.5480278750362295 4.669028404460807 4.6715271739541944 4.551386834035811 4.7906176901239119 4.7934278694405759 4.6704318932267359 4.7874976689896052 4.6734220813851852 4.6669544597465631 4.9122474020701228 4.7955727992013184 4.7883294424083021 4.9158253886188863 4.9188910412966491 4.7920986902857514 4.8999099347258763 4.9133799789806156 4.7873565037213934 4.8962419964247665 4.7909080028846232 4.7734145529868153 4.8730633080646024 4.897107445276645 4.7727148588122237 4.8349847099685661 4.8698924467537541 4.7479269969745639 4.830936288686857 4.7518550407113018 4.7129830504761383 4.8692328138995684 4.7764230055143573 4.7484243469797995 4.7853071556311342 4.831453247354264 4.7126144714539553 4.7810104710594752 4.7168014418084958 4.6666187942665847 4.6665110205528411 4.6036265340528804 4.5576342784908324 4.6706051598360014 4.7129914897372593 4.5996667746118813 4.5618278744316383 4.5996559778711879 4.4914953795457544 4.7481422164234726 4.6566917876183664 4.6314469583275697 4.7128353468660951 4.6349535260446615 4.5996421390304265 4.716587003975877 4.7484388725317004 4.6313514658038262 4.6033650329913929 4.6314686269111283 4.5186800780129817 4.6316505241857806 4.5400677570320775 4.5182413653049247 4.5999750291778696 4.5218776901667486 4.4909463486123213 4.494861076458915 4.5182733624927653 4.4090154001360373 4.491929863792814 4.4116931182190342 4.3862695418929754 4.5190969129807455 4.4253634822143848 4.4078566951229003 4.5579558250031722 4.4951946397958764 4.4542856083231994 4.4588050181672285 4.4909685524891803 4.387533542791191 4.4551947476303555 4.3909133900883681 4.3563417978357002 4.3613470866909836 4.3863044105514808 4.2870071588192555 4.3580744706359456 4.2899648846864071 4.2634994248826192 4.3904714942156806 4.4079033452648577 4.3011324738964225 4.3881459006229875 4.3031192717107274 4.2847577351122883 4.4095936104034834 4.3109645225569126 4.2989988319404802 4.4237479209950248 4.314888826166464 4.3080047929668401 4.4247721426273401 4.4309555283882691 4.3141781856512909 4.4111557122982754 4.4224606915908371 4.3097391853597227 4.5214676728490346 4.5371439446580641 4.4232487588413756 4.5376432164988616 4.4329661272114498 4.4224070912276083 4.5396127018577568 4.5482960735588023 4.431237665825833 4.6536491424415729 4.5505294310133628 4.5371058453230759 4.6665017109246216 4.5537489031884011 4.5482553668767638 4.5483069641505409 4.4351538131878545 4.4308993527841176 4.5500593424673346 4.5521722220119267 4.4336126453167379 4.4323588505850449 4.4339861893801684 4.3152855510112182 4.4316228174187771 4.315748712635493 4.3130867945003128 4.3141013754481268 4.3151109547117663 4.1939520106203858 4.3147020835602135 4.192998376391726 4.1923948147670282 4.3101910579060148 4.3131633585896241 4.1944831217328398 4.3024053267763627 4.3080791612284068 4.1946365648727104 4.3104176494396338 4.1938488075246925 4.1917133913227396 4.1955434913464256 4.0665655687913747 4.0705730216044822 4.1936611797024641 4.1924976621823005 4.0689741925999838 4.1934259755821044 4.1918148615292639 4.0750616919255815 4.0817223129077567 4.0707086937104267 3.9471162480058672 4.072187501591916 4.0657155013365482 3.9334187085516334 4.0652574460821054 4.064467645135494 3.9280790851561811 4.1928298517229452 4.1930493296591003 4.0663314819220169 4.1951839938323667 4.0635231130295173 4.0655796990987865 4.2664009701790979 4.191172639249479 4.1752932221138881 4.269196810537923 4.2848114011818597 4.1888128371705564 4.2878644086855573 4.1943790458698444 4.1852028006800648 4.2893629161394564 4.2990658313989476 4.1933355064387481 4.3019261893944645 4.194672503210386 4.1898856644308644 4.1944083116568054 4.0735002051239384 4.0780468303306812 4.091637648051246 4.0781769107140651 3.9675787719758904 4.1899978661474462 4.0829891167521186 4.0858496741540007 4.1903393057496743 4.1899801262481686 4.0832559516572839 4.1819324314716626 4.1852835991761417 4.0913262671972941 4.0987866586003765 4.0859679254608059 3.9921115797560525 4.1798591784133148 4.0927945306595568 4.0909317644889169 4.019136176155083 3.8855484486721186 3.9270724912948234 4.0978528268212031 3.9922152216894258 4.0090111955978696 4.0183322538160962 3.9842732650818138 3.8875065264797386 3.9906296464656341 3.9602265510580335 3.8416920696275594 3.9941656424528009 3.8370759068742006 3.8762050362414198 4.0929339034946954 3.9654807988204102 3.9841128185513086 4.0846768273307124 3.9434159713346433 3.9600572866144059 3.9693439319499273 3.7990641018479328 3.8312239044044012 3.8449657968456115 3.6320400564075919 3.68550136410399 3.8912271223290755 3.689924063899976 3.7569402600091752 3.8834676880721806 3.8316807076936259 3.6991814298346388 3.9380197134698998 3.876643997315377 3.7720179825488649 3.9426415617136525 3.7658676210387703 3.8411991391747775 3.9345425968298215 3.7652304447945992 3.7750515055506098 3.9270290478320371 3.924959649564145 3.7735146087047404 4.0698940919818156 3.922863931333628 3.9283379851744691 4.0762497347123308 3.9286861349999689 3.9405997968513042 3.9638210524300614 3.9407737013247743 3.8055769180758388 3.9417363450024547 3.928512071953159 3.782249281974678 3.9485709041623496 3.7745279354011485 3.7965106689924544 3.7970098826040326 3.7754943613090695 3.6081395337205615 3.8349950581592092 3.796968683208914 3.6434440672965591 3.8083798129059936 3.5954324593477445 3.6316865944084742 3.7845450337514959 3.5819758936049153 3.5987490618070712 3.7725241408779944 3.7689914722022086 3.5952068061360012 3.7752554067770481 3.5922905756243964 3.5885742264779013 3.7633022884901015 3.7780167529989024 3.6052944985925577 3.9288489906825097 3.7717635403365097 3.7685803864188521 3.9212681086679386 3.9305999288968643 3.7799837670134782 4.0669519677826846 3.9264848664667902 3.9247904722669036 4.0722973336146788 3.9590998849722845 3.9447539335356323 4.0678875809828581 3.9390672915470613 3.9304416130692283 3.9249908755682674 3.9448943262261187 3.8011029369323253 3.9320300848682455 3.79357461037702 3.7776549083694926 3.9435959749871756 3.8289447255867701 3.8016786819586379 3.7699409245089748 3.8019721169400711 3.6377944043687132 3.7811091197637685 3.625769478916625 3.6017746656038065 3.8015359297931695 3.6805500860724503 3.6377192789879813 3.8347714356008762 3.7534245908824784 3.694503528483811 3.8274623991553898 3.8862836972428703 3.7610736838796437 3.7918958830005258 3.8390768331700089 3.6908128621682872 3.8777730026832864 3.8396680766796161 3.7688541993175297 3.8737058394668451 3.9391207675546589 3.8437286110379989 3.9831555005820078 4.0183159078184021 3.928492810532815 3.9846613333970753 3.9271467765894719 3.88619851194272 4.085564264151933 4.0100142212129626 3.9919488130670988 3.9377226405640307 3.9662622615094048 3.8351317651429628 3.9620137406561202 3.8749149088622383 3.8388739355421073 3.9579653503707637 3.9920262029849627 3.8790663455884018 4.0789077286775886 3.9839963136474261 3.96614827267604 4.0690793491996269 4.082880972769626 3.9625130777693558 4.0772299926382001 4.0919207744009691 3.9856912320777256 4.189966048001013 4.086522533458858 4.0828039396969711 4.1899961848284297 4.1898282258280304 4.0864737827054904 4.1912702708999321 4.1936166068341079 4.0793798001327426 4.0859856627627202 4.0979070926712486 4.0093924001936978 4.1844016982867549 4.0924663254046045 4.0918765186979424 4.1860709459258771 4.1805121767039317 4.090603551883528 4.2836244723235533 4.1771487255030166 4.1897994401045784 4.2861180497188833 4.2674346814876882 4.1744967299132538 4.2985237712470141 4.1864209595574939 4.1935617125865878 4.2997811581650573 4.288284578851453 4.1851368137806828 4.3083527923643867 4.3018693123630865 4.1903740898642683 4.3080478462900107 4.1905878928060591 4.1942673591649591 4.3134876030144191 4.1920423001407077 4.193701698318506 4.3131560201616139 4.3100400923061253 4.1925677833544857 4.3149885988653844 4.3141708484188124 4.1934209764358625 4.3156243560994385 4.1925039446872603 4.1929503679885567 4.1920169301613566 4.193791510193047 4.0675974442845559 4.1944143721759275 4.0648353823715002 4.0643371504771819 4.0622643691235227 4.0673672408124082 3.9316428717439411 4.0636707733488517 4.0739511447034511 3.9436281213172646 4.1924723457065403 4.0780472132928764 4.0738493284506534 4.1916039720438034 4.1943425624699877 4.0723703640865132 4.1936168643888241 4.0701001852869805 4.0672478657923294 3.985871339537578 3.9313974141238153 4.001536942953213 3.9842995041332179 3.9875086369523496 4.0463688553484012 4.0097520960910567 3.9227722484905994 3.9588458908141142 4.0574871845823317 3.9723706290444416 4.0718997513599042 4.0101876385278734 4.1298246368121116 4.1546544653135546 4.0535493075178097 4.0451323962342043 4.1170611763175931 4.0286714697943724 4.1457025993634549 4.1135201963917902 4.0253732703795366 4.0580413051649895 4.0847457525603588 4.045021048415907 4.0404243426271611 4.0381380276211312 4.0398142047068371 4.0007701115527672 4.0248722189831092 4.0222757666180788 4.0454683970507404 4.0589182796802659 4.0394123725127162 4.002919213113258 4.0405006406171564 4.0710639463563068 4.0373348483267355 4.050204640496716 4.0859533401074888 4.0439141565509598 4.0399549003404136 4.0323167659313341 4.0501162418170473 4.0174954322726046 4.0262081090948518 4.0245953810154642 3.9916935469335901 4.0336099080471071 4.051289417232633 4.0354023704897779 4.0114765714793119 4.1005469595726964 4.0391092500790693 3.9734284627590126 4.0237590614507832 3.9490789680726563 3.9794796523732483 4.034842589226276 4.0166736904436515 3.9263323955824796 3.9914190182515177 3.9320200882287737 3.9260587162763572 3.9327395351522214 3.855945997097816 4.0077480707300968 3.9796889941034559 3.9391892849614676 4.0095895414040683 4.0399245463853779 3.9773424181573085 4.0892206990889868 4.0321356018852326 4.0182868808335117 4.0923122092724542 4.0967265787771119 4.0285715117048575 4.1771126068271185 4.1625796519905212 4.0878247315289142 4.1734353328406453 4.0918979820968451 4.0979038909284187 4.2616038429423524 4.1597582499775179 4.1805149776682438 4.2655581169824179 4.2370812026987208 4.1555052653818976 4.2303569189631469 4.1307377755647225 4.1626185634229076 4.2358915674737307 4.1947597889604804 4.1247694060819908 4.1875787573417753 4.0863341615906732 4.1325353612538338 4.1232266015848067 4.0510102184378693 4.0834415749201964 4.1601160485419486 4.1324559110406094 4.0733621681366357 4.1541520870456123 4.0799451115483016 4.0967713625076971 4.0922650511150689 4.0833448605388867 4.0367847108191723 4.0810196199314541 4.0520083772972493 4.0261431280431523 4.0528514069915005 3.9969758366143613 3.9878383846892058 4.0875611073480131 4.021020195365252 3.9880067471818008 4.0772226762288248 3.999300354087223 4.0521511170604274 4.1315624271498246 4.0863838481359718 4.0418497607264223 4.1946415745429402 4.1380488727093097 4.0787389406143122 4.1392418467584928 4.0649759606092468 4.0142348415909614 4.1310093837813771 4.0230405351787386 4.0864987125867653 4.0587336542400374 3.9383923653569943 4.0213627050270464 4.0680416925804046 3.9747204865599648 3.9285126123116783 4.0252816945302223 3.9346156210644607 3.9069380355352883 4.0129900942221024 3.9201351806600364 3.997512885351572 4.0030819255030519 3.9145913997140025 3.9126666141948419 4.2711528708940376 4.0980143693800208 4.1948205008943793 4.1901829442609584 4.0317163659849724 4.1240768591475501 4.1964679246992729 4.0965715544896977 4.0251816168539936 4.1262023111575141 4.0297889678254704 3.9695542283082736 4.1187515949293427 3.9773786097384525 4.0652002009930328 4.2043856362742762 4.1239259251198446 4.0594839567640584 4.1975488271593697 4.0666669804362359 4.1381286753047872 4.2684302714317246 4.2032554468504451 4.1319763636414555 4.351509572208192 4.2794800464111091 4.1981738331397676 4.2746112913598155 4.1253526058267678 4.2033068154400084 4.2805455556492058 4.1947166589602674 4.1192142320203864 4.3607009276902176 4.1959537185643105 4.2795104280848353 4.4377149505861215 4.2802877198685412 4.3509267154801403 4.5025378538070591 4.3513075524607148 4.4096506605527974 4.4098347880731446 4.3509018970887317 4.262977281050861 4.4049255488841359 4.2680701739613669 4.3196434326925024 4.3459731036722102 4.2039151554399545 4.2681418464914858 4.2622804760804938 4.1384625198742579 4.1948187413579063 4.3140922075891792 4.1940729615162589 4.2371121269727086 4.3192606916208565 4.2681017854984997 4.1886150066184111 4.3585404577536249 4.3196214978430731 4.2313149573829349 4.3544476820750715 4.2356170841015475 4.2674392329274013 4.4523969257264469 4.3190835829656269 4.3593634359875679 4.4565810672298047 4.4096370086601624 4.3147627313004397 4.5557405250726974 4.4097454349997811 4.4566576105877562 4.5600123201321638 4.506702396386145 4.4053924759051579 4.6690792871583726 4.6105435145035516 4.5028630642641376 4.6647049419161499 4.5072776472288023 4.5595486660405005 4.7794950961289109 4.6114727318955406 4.6682093034302445 4.78399352164422 4.7210227499109445 4.6069632597929076 4.7174376072917781 4.5418455030208715 4.610545015329099 4.7221571781337692 4.6469450136662465 4.5371099438702904 4.6431642436053044 4.4599051733707142 4.5408939800706536 4.5368960841165542 4.3659659106694448 4.4420813079924146 4.611434232354398 4.5408893854195442 4.43803129648553 4.6067348621186053 4.4427846375434115 4.5067091942350928 4.5072952473358985 4.442068103606033 4.346442345571341 4.4428695175846071 4.3650520265518429 4.275017539374578 4.3660749574771938 4.2753146312051618 4.190468297853406 4.4548519905269535 4.2764280003857218 4.3650672963857184 4.4599072280830301 4.3644282751516563 4.2713241217470541 4.5418436303691028 4.4588979507038058 4.3609642539398434 4.6480378175549237 4.5603693718488598 4.4550205991862972 4.561396129278509 4.4612755269283833 4.3605568314487515 4.5564843474922077 4.3654732024721454 4.4589023348358614 4.4573825001168927 4.2586295607826168 4.3644804325193425 4.462321522239991 4.349968186689436 4.2536119306360698 4.365608260912067 4.257718623051896 4.1688461440892954 4.3604616056035317 4.174108212687865 4.2753874865291372 4.276718446112211 4.1729872231802805 4.0922795537221353 4.5475783369658824 4.4238002049212684 4.43