<?xml version="1.0"?>
<VTKFile type="UnstructuredGrid" version="0.1" byte_order="LittleEndian">
<UnstructuredGrid>
<Piece NumberOfPoints="2400" NumberOfCells="800">
<Points>
<DataArray type="Float64" NumberOfComponents="3" format="ascii">
0.050000000000000037 0 0 0 0.049999999999899652 0 0 0 0 0.050000000000000037 0 0 0.050000000000000037 0.049999999999899652 0 0 0.049999999999899652 0 0.050000000000000037 0.049999999999899652 0 0 0.099999999999814668 0 0 0.049999999999899652 0 0.050000000000000037 0.099999999999814668 0 0 0.14999999999970359 0 0 0.099999999999814668 0 0.050000000000000037 0.049999999999899652 0 0.050000000000000037 0.099999999999814668 0 0 0.099999999999814668 0 0.099999999999999978 0.049999999999899652 0 0.050000000000000037 0.099999999999814668 0 0.050000000000000037 0.049999999999899652 0 0.099999999999999978 0.049999999999899652 0 0.099999999999999978 0.099999999999814668 0 0.050000000000000037 0.099999999999814668 0 0.099999999999999978 0.099999999999814668 0 0.050000000000000037 0.14999999999970359 0 0.050000000000000037 0.099999999999814668 0 0.14999999999999999 0.099999999999814668 0 0.099999999999999978 0.14999999999970359 0 0.099999999999999978 0.099999999999814668 0 0.14999999999999999 0.049999999999899652 0 0.099999999999999978 0.099999999999814668 0 0.099999999999999978 0.049999999999899652 0 0.14999999999999999 0 0 0.099999999999999978 0.049999999999899652 0 0.099999999999999978 0 0 0.099999999999999978 0 0 0.050000000000000037 0.049999999999899652 0 0.050000000000000037 0 0 0.099999999999999978 0 0 0.099999999999999978 0.049999999999899652 0 0.050000000000000037 0.049999999999899652 0 0.050000000000000037 0.19999999999955789 0 0.050000000000000037 0.24999999999941211 0 0 0.24999999999941211 0 0.050000000000000037 0.19999999999955789 0 0 0.24999999999941211 0 0 0.19999999999955789 0 0.050000000000000037 0.14999999999970359 0 0.050000000000000037 0.19999999999955789 0 0 0.19999999999955789 0 0.050000000000000037 0.14999999999970359 0 0 0.19999999999955789 0 0 0.14999999999970359 0 0.050000000000000037 0.099999999999814668 0 0.050000000000000037 0.14999999999970359 0 0 0.14999999999970359 0 0.099999999999999978 0.099999999999814668 0 0.099999999999999978 0.14999999999970359 0 0.050000000000000037 0.14999999999970359 0 0.14999999999999999 0.14999999999970359 0 0.099999999999999978 0.19999999999955789 0 0.099999999999999978 0.14999999999970359 0 0.099999999999999978 0.14999999999970359 0 0.099999999999999978 0.19999999999955789 0 0.050000000000000037 0.19999999999955789 0 0.099999999999999978 0.14999999999970359 0 0.050000000000000037 0.19999999999955789 0 0.050000000000000037 0.14999999999970359 0 0.099999999999999978 0.19999999999955789 0 0.050000000000000037 0.24999999999941211 0 0.050000000000000037 0.19999999999955789 0 0.14999999999999999 0.19999999999955789 0 0.099999999999999978 0.24999999999941211 0 0.099999999999999978 0.19999999999955789 0 0.099999999999999978 0.19999999999955789 0 0.099999999999999978 0.24999999999941211 0 0.050000000000000037 0.24999999999941211 0 0.20000000000000001 0.19999999999955789 0 0.20000000000000001 0.24999999999941211 0 0.14999999999999999 0.24999999999941211 0 0.14999999999999999 0.19999999999955789 0 0.14999999999999999 0.24999999999941211 0 0.099999999999999978 0.24999999999941211 0 0.20000000000000001 0.19999999999955789 0 0.14999999999999999 0.24999999999941211 0 0.14999999999999999 0.19999999999955789 0 0.20000000000000001 0.14999999999970359 0 0.20000000000000001 0.19999999999955789 0 0.14999999999999999 0.19999999999955789 0 0.20000000000000001 0.14999999999970359 0 0.14999999999999999 0.19999999999955789 0 0.14999999999999999 0.14999999999970359 0 0.14999999999999999 0.14999999999970359 0 0.14999999999999999 0.19999999999955789 0 0.099999999999999978 0.19999999999955789 0 0.14999999999999999 0.099999999999814668 0 0.14999999999999999 0.14999999999970359 0 0.099999999999999978 0.14999999999970359 0 0.20000000000000001 0.099999999999814668 0 0.20000000000000001 0.14999999999970359 0 0.14999999999999999 0.14999999999970359 0 0.25 0.099999999999814668 0 0.25 0.14999999999970359 0 0.20000000000000001 0.14999999999970359 0 0.25 0.14999999999970359 0 0.25 0.19999999999955789 0 0.20000000000000001 0.19999999999955789 0 0.25 0.14999999999970359 0 0.20000000000000001 0.19999999999955789 0 0.20000000000000001 0.14999999999970359 0 0.25 0.19999999999955789 0 0.20000000000000001 0.24999999999941211 0 0.20000000000000001 0.19999999999955789 0 0.25 0.19999999999955789 0 0.25 0.24999999999941211 0 0.20000000000000001 0.24999999999941211 0 0.20000000000000001 0 0 0.20000000000000001 0.049999999999899652 0 0.14999999999999999 0.049999999999899652 0 0.20000000000000001 0 0 0.14999999999999999 0.049999999999899652 0 0.14999999999999999 0 0 0.14999999999999999 0 0 0.14999999999999999 0.049999999999899652 0 0.099999999999999978 0.049999999999899652 0 0.14999999999999999 0.049999999999899652 0 0.14999999999999999 0.099999999999814668 0 0.099999999999999978 0.099999999999814668 0 0.20000000000000001 0.099999999999814668 0 0.14999999999999999 0.14999999999970359 0 0.14999999999999999 0.099999999999814668 0 0.20000000000000001 0.049999999999899652 0 0.14999999999999999 0.099999999999814668 0 0.14999999999999999 0.049999999999899652 0 0.20000000000000001 0.049999999999899652 0 0.20000000000000001 0.099999999999814668 0 0.14999999999999999 0.099999999999814668 0 0.25 0.049999999999899652 0 0.20000000000000001 0.099999999999814668 0 0.20000000000000001 0.049999999999899652 0 0.25 0.099999999999814668 0 0.20000000000000001 0.14999999999970359 0 0.20000000000000001 0.099999999999814668 0 0.25 0.049999999999899652 0 0.25 0.099999999999814668 0 0.20000000000000001 0.099999999999814668 0 0.25 0 0 0.25 0.049999999999899652 0 0.20000000000000001 0.049999999999899652 0 0.25 0 0 0.20000000000000001 0.049999999999899652 0 0.20000000000000001 0 0 0.29999999999999999 0 0 0.25 0.049999999999899652 0 0.25 0 0 0.29999999999999999 0 0 0.29999999999999999 0.049999999999899652 0 0.25 0.049999999999899652 0 0.34999999999999998 0 0 0.29999999999999999 0.049999999999899652 0 0.29999999999999999 0 0 0.34999999999999998 0 0 0.34999999999999998 0.049999999999899652 0 0.29999999999999999 0.049999999999899652 0 0.40000000000000002 0 0 0.34999999999999998 0.049999999999899652 0 0.34999999999999998 0 0 0.40000000000000002 0.099999999999814668 0 0.34999999999999998 0.14999999999970359 0 0.34999999999999998 0.099999999999814668 0 0.40000000000000002 0.049999999999899652 0 0.34999999999999998 0.099999999999814668 0 0.34999999999999998 0.049999999999899652 0 0.34999999999999998 0.049999999999899652 0 0.29999999999999999 0.099999999999814668 0 0.29999999999999999 0.049999999999899652 0 0.34999999999999998 0.049999999999899652 0 0.34999999999999998 0.099999999999814668 0 0.29999999999999999 0.099999999999814668 0 0.34999999999999998 0.099999999999814668 0 0.29999999999999999 0.14999999999970359 0 0.29999999999999999 0.099999999999814668 0 0.29999999999999999 0.049999999999899652 0 0.29999999999999999 0.099999999999814668 0 0.25 0.099999999999814668 0 0.29999999999999999 0.049999999999899652 0 0.25 0.099999999999814668 0 0.25 0.049999999999899652 0 0.29999999999999999 0.099999999999814668 0 0.25 0.14999999999970359 0 0.25 0.099999999999814668 0 0.29999999999999999 0.14999999999970359 0 0.25 0.19999999999955789 0 0.25 0.14999999999970359 0 0.29999999999999999 0.14999999999970359 0 0.29999999999999999 0.19999999999955789 0 0.25 0.19999999999955789 0 0.29999999999999999 0.099999999999814668 0 0.29999999999999999 0.14999999999970359 0 0.25 0.14999999999970359 0 0.29999999999999999 0.19999999999955789 0 0.25 0.24999999999941211 0 0.25 0.19999999999955789 0 0.29999999999999999 0.19999999999955789 0 0.29999999999999999 0.24999999999941211 0 0.25 0.24999999999941211 0 0.34999999999999998 0.19999999999955789 0 0.34999999999999998 0.24999999999941211 0 0.29999999999999999 0.24999999999941211 0 0.34999999999999998 0.19999999999955789 0 0.29999999999999999 0.24999999999941211 0 0.29999999999999999 0.19999999999955789 0 0.40000000000000002 0.19999999999955789 0 0.34999999999999998 0.24999999999941211 0 0.34999999999999998 0.19999999999955789 0 0.34999999999999998 0.099999999999814668 0 0.34999999999999998 0.14999999999970359 0 0.29999999999999999 0.14999999999970359 0 0.34999999999999998 0.14999999999970359 0 0.34999999999999998 0.19999999999955789 0 0.29999999999999999 0.19999999999955789 0 0.34999999999999998 0.14999999999970359 0 0.29999999999999999 0.19999999999955789 0 0.29999999999999999 0.14999999999970359 0 0.40000000000000002 0.14999999999970359 0 0.34999999999999998 0.19999999999955789 0 0.34999999999999998 0.14999999999970359 0 0.40000000000000002 0.099999999999814668 0 0.40000000000000002 0.14999999999970359 0 0.34999999999999998 0.14999999999970359 0 0.40000000000000002 0.14999999999970359 0 0.40000000000000002 0.19999999999955789 0 0.34999999999999998 0.19999999999955789 0 0.45000000000000001 0.14999999999970359 0 0.45000000000000001 0.19999999999955789 0 0.40000000000000002 0.19999999999955789 0 0.45000000000000001 0.14999999999970359 0 0.40000000000000002 0.19999999999955789 0 0.40000000000000002 0.14999999999970359 0 0.45000000000000001 0.099999999999814668 0 0.45000000000000001 0.14999999999970359 0 0.40000000000000002 0.14999999999970359 0 0.40000000000000002 0.19999999999955789 0 0.40000000000000002 0.24999999999941211 0 0.34999999999999998 0.24999999999941211 0 0.45000000000000001 0.19999999999955789 0 0.40000000000000002 0.24999999999941211 0 0.40000000000000002 0.19999999999955789 0 0.45000000000000001 0.19999999999955789 0 0.45000000000000001 0.24999999999941211 0 0.40000000000000002 0.24999999999941211 0 0.5 0.19999999999955789 0 0.45000000000000001 0.24999999999941211 0 0.45000000000000001 0.19999999999955789 0 0.5 0.19999999999955789 0 0.5 0.24999999999941211 0 0.45000000000000001 0.24999999999941211 0 0.5 0.14999999999970359 0 0.45000000000000001 0.19999999999955789 0 0.45000000000
[...]
<PointData Scalars="tracer_conc," Vectors="" Tensors="">
<DataArray type="Float64" Name="tracer_conc" format="ascii">
3.9498767394706511 4.1764977682260156 4.1011888960852403 3.9972287765572379 4.0355338224216091 4.1300228767364606 4.0350744913066077 4.1255312594521065 4.1281077665758827 4.0533684094099867 4.0455299602185031 4.090867144487043 4.0600898822260607 4.0444984738643788 4.1013460750585446 3.9922521503550117 4.0674337153506883 4.0353664742152873 4.0119853706010495 4.0315984261231756 4.0481912182664104 4.0347902555611794 4.0409053335483902 4.0443503149779927 4.0474272882751858 4.0550990206439561 4.0316613434442834 3.9907128995774572 4.0472636971446132 3.9957940229251099 3.9052363125370415 4.0095868342350753 3.9241161544068568 3.9089264144531439 4.0582620858451453 3.9769508221788046 3.936109147228394 3.9957560415219051 4.0314930612783444 3.992785441310525 3.927670587285224 3.8572258190960436 3.9931443186815008 3.8553489697231687 3.9317977865945983 4.0392557524491943 3.9783500539110643 3.947490393977271 4.0338665010054324 3.9514329411709093 4.0191937709464689 4.0667036669142149 4.0208441752836181 4.0334449512754675 4.0478626987390349 4.0400964952599994 4.0288476625409295 4.0805116964992907 4.043101472578793 4.0400220505750113 4.05452353915872 4.0300328664723608 3.9885461389620138 4.0471654511070403 3.9947179524332888 4.0205726459531546 4.0391864186040145 3.9402566191704635 3.9780003567355142 4.0954954372899559 4.0199474366448671 4.0299089856853403 4.0419658044936222 4.0093427949939686 3.9386777839023273 4.1652638071010788 4.1755188149317082 4.0963039125784846 4.0992454824687288 4.0912053913596056 4.0170109903394673 4.1610940369278246 4.0999196924987595 4.089512686836426 4.1363782489401748 4.157369165028479 4.0937728725815568 4.1298531547474155 4.0998674496443561 4.0764406258811823 4.0876356640533809 4.0895752461623056 4.0366927970511739 4.0583157963136154 4.0764392714989413 4.0446733654388263 4.0915578249686781 4.1275539065466953 4.0790048739011535 4.1423602224036831 4.191144893754581 4.1289562723955111 4.1983047945916274 4.2332165583312067 4.1599516106627918 4.1923973516063882 4.1655959684349524 4.1275843380480559 4.235486658434084 4.1827343272429669 4.1573460385623626 4.2397916358871974 4.2636916390125696 4.1788056357153458 3.9405859501939631 4.0187954177593452 3.9909624585926324 3.9279664945965203 4.0034798804814784 3.9148253895597249 3.9230200113503879 3.9939280513299327 3.9919630161680426 4.0051876066308321 4.0463175008740109 4.0327865216796841 4.0826483561074811 4.0877138640944315 4.0464345436940219 4.0163013510358301 4.0574938623380126 3.9939381065599413 4.0271676270587253 4.0824155936120672 4.0465074197112987 4.0612957226503861 4.0908485306294944 4.0187832149496288 4.134952611580724 4.1362783056021026 4.0825206786131814 4.0698021632782613 4.1350785388809355 4.0822219134433855 3.9792888533172568 4.0631451632776816 4.0166136175970646 3.9697240903715576 4.0260751403424226 3.934307314044807 4.0258326881656137 4.069138468094037 3.974054776587566 4.0335161636689403 4.1222886196473185 4.0615713501066919 4.0932754645031562 4.127539669771279 4.0288642305943583 4.0997868447895884 4.1931676689958151 4.1211590884495672 4.1701034865823603 4.1980027882017579 4.09544577926704 4.3629108933130354 4.3538699313878109 4.2775129490360593 4.2730557072129436 4.2825490151127781 4.1931257336812617 4.1921743912241531 4.206592319474141 4.122253096420514 4.1981808970657344 4.2774652517991774 4.2005252612089929 4.277144572782543 4.2712382493771495 4.2009428369132777 4.1279148934764258 4.2008805369782012 4.1347545914096235 4.1209345017525996 4.1418266000603126 4.0631186800668901 4.2006132893906409 4.1981732000954759 4.1351605190777914 4.2659344460779511 4.2399760484101101 4.1911803163814287 4.2713456485108052 4.3166766667614427 4.2347324264245039 4.2069684405696108 4.2653163771801639 4.1918566166461071 4.3179772991458121 4.2697844151341453 4.2332128358259622 4.3223129233004389 4.3565108983216021 4.2657082454965849 4.4123102773065623 4.4544382348800182 4.3576356903420619 4.4079617262857411 4.3618000562775254 4.3166815996863299 4.504995734143427 4.4591746428479695 4.4073258425038011 4.2828009117944923 4.3486541220610491 4.2656037214606544 4.3539368011361566 4.4073175546213079 4.3174783852731906 4.3488725410496389 4.3224288809806755 4.2653487769323712 4.4401227689235849 4.4123993860930311 4.3486816277191549 4.368132071395344 4.4401700715084012 4.3486673528523445 4.4449766910539283 4.5048080128340935 4.4076295125341423 4.5437389231106353 4.6089398464897338 4.5047715741426302 4.538981716983316 4.509460082274388 4.4401928430514719 4.4618468504853404 4.5392196888745033 4.4399930220436898 4.5093765140939777 4.5577746300797921 4.4549303518310213 4.6087971307381173 4.562146495387994 4.5048171421216363 4.613242229069713 4.6667495819379328 4.5578084991129861 4.7192254302546441 4.6708932911771184 4.6089486112617575 4.7237690731816944 4.7815673461111929 4.6664398189334184 4.6450363682515423 4.61333141066671 4.5392383622392281 4.6497886503455028 4.7196220951666401 4.6086416222657771 4.5632676508528389 4.6454263645510077 4.5388963131081432 4.5583823975238378 4.5437531097060857 4.4572572114808526 4.4592630328494529 4.4617627823243504 4.3628487846901827 4.46416433180047 4.5587706246308999 4.4568702357578722 4.35263639326456 4.4597191428413661 4.3624501993608886 4.3474520961858945 4.3674616153101926 4.2562823414159805 4.2604602915424152 4.362900912342166 4.2731988678814661 4.2550786359577843 4.2784219397256811 4.1716956250312913 4.1758973410726306 4.2737943211026872 4.1923537262747752 4.2784604909852169 4.3632541178314916 4.2771108051329874 4.456866347332193 4.444951762565216 4.3632913404036824 4.3673961039933973 4.4572275381469542 4.3629035399174656 4.3623354308008411 4.3679749449336756 4.2737471259523945 4.7730383549822344 4.6695399232338408 4.6538552553815897 4.7762781024438077 4.7884873342102221 4.6664461758408065 4.7517339812976989 4.7735695003744185 4.6535313104771561 4.6347758607620282 4.6538820201805056 4.5374312146699749 4.656480551560918 4.6671278837678427 4.5481794021433108 4.6691727844071176 4.6716717274617201 4.5515386912970213 4.7907550250450042 4.7935653694628426 4.6705763408138727 4.7876347691021648 4.6735667661506763 4.6670987093638052 4.9123778122242765 4.7957104240822002 4.7884666533547602 4.9159560221442424 4.9190218318751651 4.792236089541059 4.900039726285164 4.9135104953605131 4.7874936042265128 4.896371565590572 4.7910453281639453 4.7735508903996529 4.8731917039028936 4.8972371306120701 4.7728510756335405 4.8351111622837841 4.8700207477431574 4.7480617489465855 4.8310625234017053 4.7519900128867221 4.7131159019889033 4.8693609892707439 4.7765594452999798 4.748559229179409 4.785431124910863 4.8315796166003988 4.7127471836580979 4.7811342265337196 4.7169343705159488 4.666749048279442 4.6666411246890434 4.6037662818247664 4.5577712143905211 4.6707354887269767 4.7131243416902464 4.5998062947933187 4.5619648890492215 4.5997956449536526 4.491642056735567 4.7482769671483975 4.6568352265304087 4.631588759778869 4.7129680574029695 4.6350954220841052 4.5997818056499025 4.7167199432558737 4.7485737553023268 4.6314931303640119 4.603504791877711 4.6316104289630049 4.5188290095509371 4.6317921874362975 4.5402185538923323 4.5183904407377362 4.6001145476080403 4.5220268650369224 4.4910931797332312 4.4950080045773948 4.5184224385569713 4.4091719711354012 4.4920765391428841 4.4118499450099886 4.3864239047505524 4.5192458431429063 4.425522014164506 4.4080134173785384 4.5580926033563784 4.4953415562305192 4.4544295686804922 4.458949061279605 4.4911153840968954 4.3876877438421804 4.4553385423799705 4.3910678426349907 4.3564931427150348 4.3614985185703983 4.3864587739208041 4.287169269316788 4.3582256414355545 4.2901272595566793 4.2636585327366872 4.3906259590443044 4.4080600681844215 4.3012970758600666 4.3883000997409436 4.303284142562898 4.2849200156940102 4.4097501799570624 4.3111311859959605 4.2991635928985854 4.4239061929952808 4.3150565711529918 4.3081713313737708 4.4249306861889357 4.4311149572705935 4.3143456561691069 4.4113125510612727 4.4226191054179509 4.3099055765399603 4.5216168591081187 4.5372946291548795 4.4234070317940075 4.5377937660708172 4.433125687964993 4.422565504241768 4.5397635097637004 4.5484477236059728 4.4313969654798431 4.6537923461098378 4.5506812065023903 4.537256529046477 4.6666458440397331 4.5539010097720478 4.5484070160119812 4.548458490825241 4.4353137220018617 4.4310587807077209 4.550211128611573 4.5523241906103324 4.4337722920423559 4.4325184225396885 4.434145953136917 4.3154533863843865 4.4317821166181695 4.3159168235170844 4.3132543998492059 4.31426913220964 4.3152789131018494 4.1941284542119739 4.3148695535995785 4.1931751095997596 4.192571016537892 4.3103577335512862 4.3133309649460765 4.1946591817745604 4.3025702102136076 4.3082457004897439 4.1948114902451978 4.3105840396183588 4.1940251560894692 4.191888471454349 4.1957184156651337 4.0667509617035353 4.0707570810611902 4.193836404105646 4.1926738650120763 4.0691592822139633 4.1935993158916256 4.1919899425586724 4.0752455887036145 4.0819045433425396 4.0708927541083941 3.9473095757462793 4.0723717127132018 4.0659007410429853 3.9336132902768717 4.0654428520066297 4.0646532738766048 3.9282740907460565 4.1930062126658845 4.1932259025604885 4.0665169747388825 4.1953600533702549 4.0637089102946806 4.0657649376945173 4.2665598950491193 4.1913433423776594 4.1754604907233848 4.2693560098545387 4.2849736823012865 4.1889832623909786 4.2880265171512209 4.1945523729497198 4.1853734046855013 4.2895253039201338 4.2992305930545642 4.1935085508629966 4.3020907898379317 4.1948477147821102 4.1900588759838664 4.1945813544824269 4.0736844027562462 4.0782289254112962 4.09181712036915 4.0783590065625122 3.9677700209658644 4.1901682892316563 4.0831713332793553 4.0860290280038383 4.1905100224488523 4.1901533385341425 4.0834378710572885 4.1820997962339144 4.1854542037467439 4.0915054331151737 4.0989626071402849 4.0861472799018523 3.9922999341056715 4.1800262546802101 4.0929739887115604 4.0911076119489387 4.0193208313333635 3.8857467843480382 3.9272668366384216 4.098028472080375 3.9924038831378561 4.009196061356981 4.0185172257922703 3.9844618177152715 3.8877045398996244 3.9908183228653105 3.9604179856372546 3.8418931260866218 3.9943539963699455 3.8372772911255226 3.8764032566994642 4.0931130671462688 3.965672360162205 3.9843013704516359 4.0848587450301022 3.9436096153470608 3.9602487202784311 3.9695351810788577 3.7992676755565995 3.8314251543731701 3.8451668335018043 3.6322541048467487 3.6857129191008076 3.8914251150377068 3.6901358110198563 3.7571486299846852 3.8836660381493271 3.8318819516865337 3.6993927992672759 3.9382141692180173 3.8768422115394983 3.7722261529152838 3.9428356658490338 3.7660761635149758 3.8414034352378779 3.9347371798344679 3.7654357863640984 3.7752562296303886 3.9272239620375178 3.9251547981301367 3.7737196143436993 4.0700791810481158 3.923059256974911 3.9285327235083773 4.0764336303635949 3.9288810355674517 3.9407932955987302 3.9640126283477319 3.9409672011655887 3.805780159857564 3.9419300031523932 3.9287068115539352 3.7824538420267397 3.9487642326134682 3.7747328300966654 3.7967140899260201 3.7972134698487774 3.775699080004566 3.6083545863477675 3.8351964564094962 3.7971720984503667 3.6436577340881771 3.8085830358773576 3.59564789595087 3.6319004319245125 3.7847495760659569 3.5821917992872749 3.5989642695886186 3.7727290485889529 3.769196620990134 3.5954223271544379 3.7754603958268214 3.5925060292963096 3.5887898864176035 3.7635076424988787 3.7782214566794776 3.6055095685554273 3.9290439981152585 3.7719684527573465 3.7687855402602177 3.9214634473895358 3.9307946538863781 3.7801883436509072 4.0671374606337247 3.9266797838847736 3.9249856193980066 4.0724812616238495 3.9592914965639956 3.944947402461354 4.0680726862639665 3.939260969184887 3.9306363364617223 3.9251858054524464 3.9450877969039539 3.8013062118094174 3.9322246847900826 3.7937782194565384 3.7778596167509568 3.9437893371967325 3.8291461626951753 3.8018820715587611 3.7701458487393684 3.8021755022120889 3.6380081057529883 3.7813136810312948 3.6259835614163087 3.6019898576612093 3.8017391905856481 3.6807618840908702 3.6379330851184473 3.8349725287763263 3.7536332008641784 3.6947150365586405 3.8276638466646347 3.8864818520096098 3.7612819228002712 3.7920995032093603 3.8392780323597027 3.6910242832929838 3.8779710703541146 3.8398726086846624 3.7690625070200712 3.8739042548723956 3.939315032559032 3.8439327794034819 3.9833442389921063 4.0185007022546477 3.9286870176121513 3.9848497542234038 3.9273413046233938 3.8863966702381196 4.0857434919467934 4.0101992606688999 3.9921373058108771 3.9379163300009021 3.9664536524932843 3.8353328710568202 3.9622050402332669 3.8751133146413008 3.8390751386689272 3.9581569730429105 3.9922146977680542 3.8792644245949504 4.0790896947348676 3.9841850417432294 3.9663396617600477 4.0692635901231036 4.0830630272517681 3.9627043738693293 4.0774122676114191 4.0921000739546747 3.9858796489087975 4.1901391369047989 4.086702055013312 4.0829859924443133 4.1901695675877955 4.1899987782987722 4.0866530081656469 4.1914455237053305 4.1937897798500883 4.0795617644210553 4.0861651941582666 4.0980828723629088 4.0095771339388264 4.1845721824982602 4.092642338230652 4.0920558163781138 4.1862417189396277 4.1806793810007399 4.0907792738955138 4.2837866390617689 4.1773161515731223 4.1899699907917221 4.2862804911907793 4.2675937283197714 4.1746638793357764 4.2986884156111307 4.1865917232080081 4.1937348839511772 4.2999460820698348 4.2884468105283711 4.1853072957609188 4.3085194950833383 4.3020340367476226 4.1905471770734835 4.3082142658527678 4.1907612655079882 4.1944424124090798 4.3136550877769197 4.1922175422371684 4.1938778866170727 4.3133237904886004 4.3102066066301834 4.192742737352992 4.3151567210401858 4.3143384422796638 4.1935970508215403 4.3157921915195177 4.1926803085474011 4.193126939674432 4.1921936752411222 4.1939676998583924 4.0677825489498325 4.1945908158159773 4.065020791336047 4.0645227779428268 4.0624501788686178 4.0675524666532823 3.9318374692673141 4.0638561942075082 4.0741351774277694 3.943821480582665 4.1926473008556728 4.0782294776944932 4.0740333595867941 4.1917803472186712 4.1945176172268379 4.0725542909006434 4.193792939375184 4.0702844149533224 4.067433090198258 3.9860257539177835 3.931552596974266 4.0016992623956966 3.9844618391220554 3.9876717771724661 4.0465394983646172 4.0099147131923951 3.9229271581562171 3.9590087356012749 4.0576581388240607 3.9725334774681591 4.0720709497344272 4.0103582918534642 4.1299961653666397 4.1548338534830922 4.0537273112650123 4.0453030350670334 4.1172405840038016 4.0288491686496046 4.1458823251287393 4.1137070102454967 4.0255575803978978 4.0582190128123363 4.0849325720629359 4.0451963692573552 4.0405933856477771 4.0383157316938547 4.0399835270302553 4.0009324287441022 4.0250428711549455 4.0224448075738177 4.0456393337826109 4.0590959889557388 4.0395731661917047 4.0030818110001141 4.0406696810496747 4.0712304345083421 4.0375041650735142 4.0503796859140948 4.0861248124184018 4.0440894696120093 4.0401352037848639 4.0324973359943623 4.0502912896311498 4.0176794301129908 4.026388376615408 4.024779684106873 3.9918830961240181 4.0337849357486961 4.0514674168085687 4.0355863921996891 4.0116605625328186 4.1007341110348356 4.0393026984479032 3.9736179610586957 4.0239528411426093 3.9492782265651734 3.9796694807502382 4.0350266087266844 4.0168671260137199 3.9265269324245011 3.9916085647736885 3.9322193150891431 3.9262529134760213 3.9329391166669065 3.856150215781093 4.007932808969791 3.9798788145375292 3.9393835530708854 4.009774590362758 4.040104852118751 3.9775319248243504 4.0893964239902125 4.0323161632965876 4.0184716731000689 4.0924882311668229 4.096898088683302 4.0287517742601073 4.1772800415269389 4.1627427947609519 4.0879962004123547 4.173602485020858 4.0920697352769988 4.0980796686155543 4.2617628401940415 4.1599216241705683 4.1806821800568938 4.2657173829904291 4.2372363861297977 4.1556683691282306 4.230512068384165 4.1308964008579361 4.1627817041687045 4.2360469785285924 4.194910446907901 4.1249277682810117 4.1877293969970992 4.0864873612017734 4.1326937443275105 4.1233849675561034 4.0511712753077296 4.0836080810717412 4.1602794305957183 4.1326142962446397 4.0735286523377621 4.1543151940632006 4.080111872322596 4.0969428702865791 4.0924368125531796 4.083511368932041 4.0369597331409866 4.0811863881457233 4.0521691737315475 4.0263121633682379 4.0530124690819394 3.997130235411511 3.9880007120925933 4.087714311898301 4.0211670617232249 3.9881611556902086 4.0773756255002054 3.9994550198303966 4.052311911058867 4.1317210595225689 4.086536800006515 4.042010549913444 4.1947924676116513 4.138194362384958 4.0788918855977405 4.1393875767866133 4.0651156616674404 4.0143817171744942 4.1311548709861716 4.0231876554460522 4.0866516621390918 4.0588733693164141 3.9385327766693825 4.0215095734815227 4.068181651663572 3.9748538126256121 3.9286527689196871 4.0254288321388056 3.9347557854574511 3.90708538045677 4.0131369753259847 3.9202827933267872 3.9976672863508198 4.0032366094608323 3.9147387528114241 3.9128215156687096 4.2712731166743936 4.0981352151407808 4.1949469040127498 4.1903093582470827 4.0318434104932503 4.1242097460820357 4.1965945594903813 4.0966921877178128 4.0253084308762919 4.1263354416398608 4.0299157889056483 3.9696875469627946 4.1188844932959414 3.9775121706855798 4.0653399040451106 4.2045242561406102 4.1240588101577833 4.0596236665900687 4.1976872160397765 4.0668069230177855 4.1382741627735751 4.2685738024492945 4.2033938380848586 4.1321218467624679 4.3516461000848476 4.2796116852681045 4.1983122181332728 4.2747429279713138 4.1254857206104507 4.2034452045749235 4.2806774119902027 4.1948430602742315 4.1193471253916076 4.3608261412678457 4.1960803384212788 4.2796420649446993 4.4378445986444 4.2804195719670464 4.3510630287685972 4.502671383224035 4.3514440742458804 4.4097910686097155 4.4099754038460954 4.3510382122106614 4.2631205675860855 4.4050659278984181 4.2682136985749644 4.3197910429212136 4.3461094022332052 4.2040537708459151 4.2682851519225391 4.2624237660357354 4.1386082452112891 4.1949693972791291 4.3142397872939613 4.1942238478519451 4.2372673084778691 4.3194085202107306 4.2682450928571676 4.1887656426809361 4.3586919532304282 4.319769109903822 4.2314701036888858 4.3545989218891075 4.2357724876778855 4.2675982779441473 4.4525407862749509 4.3192314044412425 4.3595147212440422 4.4567251709857212 4.4097774184598633 4.3149103080397007 4.5558773661522203 4.409886044005308 4.4568015143710262 4.5601493925713132 4.5068359550958865 4.4055328520971901 4.669209671174694 4.610670556232086 4.502996590995739 4.6648351058433919 4.5074113954323618 4.5596855482561978 4.7796189085913587 4.6115999538781596 4.6683395064983735 4.784117543474264 4.7211435925347622 4.6070902710926678 4.717558423390301 4.541969026907231 4.6106720554812766 4.7222781980465838 4.6470623322252127 4.5372332628073311 4.6432815478834124 4.4600244721511126 4.5410173152976494 4.5370194059996498 4.3660913292346892 4.4422109700684596 4.6115614604605968 4.5410127223050178 4.4381609414469469 4.6068618759730793 4.4429144979500297 4.5068427512874445 4.5074290019768117 4.4421977674258031 4.3465786408775946 4.4429993837857662 4.3651772422734068 4.2751491722874055 4.3662003800778324 4.2754348649391662 4.1905947070866887 4.4549710943067851 4.276548442005728 4.3651925102075806 4.4600265307020717 4.3645426420860103 4.2714443630054655 4.5419671597673084 4.4590170565321694 4.361089463998213 4.6481553192384668 4.5604826658061901 4.4551396996182753 4.5615096104292689 4.4613843132283977 4.3606712055312737 4.5565976394910681 4.3655877671544738 4.4590214388574951 4.4574912972987937 4.2587389011049668 4.3645948010872626 4.4624305095000256 4.3500720087318729 4.2537210725465595 4.3657228391091483 4.2578277710664896 4.1689608847776425 4.3605759839878839 4.1742231619496719 4.2755077219799533 4.2768389019389996 4.1731019702742227 4.0924001802272265 4.5477298770178303 4.4239587646019611 4.431850178397