<?xml version="1.0"?>
<VTKFile type="UnstructuredGrid" version="0.1" byte_order="LittleEndian">
<UnstructuredGrid>
<Piece NumberOfPoints="3142" NumberOfCells="1054">
<Points>
<DataArray type="Float64" NumberOfComponents="3" format="ascii">
0 0 0 0.049999999999899652 0 0 0.02576622439977887 0.024532886826226379 0 0 0 0 0.02576622439977887 0.024532886826226379 0 0 0.050000000000207989 0 0.049999999999899652 0 0 0.053064897599215843 0.048131547304697528 0 0.02576622439977887 0.024532886826226379 0 0 0.050000000000207989 0 0.02576622439977887 0.024532886826226379 0 0.053064897599215843 0.048131547304697528 0 0 0.10000000000041601 0 0 0.050000000000207989 0 0.044310582753132287 0.101412518374475 0 0 0.15000000000062411 0 0 0.10000000000041601 0 0.044310582753132287 0.101412518374475 0 0.083411279318303222 0.089699755330707398 0 0.044310582753132287 0.101412518374475 0 0.053064897599215843 0.048131547304697528 0 0 0.050000000000207989 0 0.053064897599215843 0.048131547304697528 0 0.044310582753132287 0.101412518374475 0 0.083411279318303222 0.089699755330707398 0 0.065374659239632718 0.1448908038746782 0 0.044310582753132287 0.101412518374475 0 0.083411279318303222 0.089699755330707398 0 0.1053400320299198 0.12877248826361379 0 0.065374659239632718 0.1448908038746782 0 0.083411279318303222 0.089699755330707398 0 0.12372429750337779 0.095814237875728972 0 0.1053400320299198 0.12877248826361379 0 0.14332333627550789 0.14578431753966009 0 0.1053400320299198 0.12877248826361379 0 0.12372429750337779 0.095814237875728972 0 0.14618258501891079 0.062070108745602003 0 0.12372429750337779 0.095814237875728972 0 0.10266856499169109 0.044518360900210059 0 0.083411279318303222 0.089699755330707398 0 0.10266856499169109 0.044518360900210059 0 0.12372429750337779 0.095814237875728972 0 0.099999999999814668 0 0 0.14999999999970359 0 0 0.10266856499169109 0.044518360900210059 0 0.049999999999899652 0 0 0.099999999999814668 0 0 0.053064897599215843 0.048131547304697528 0 0.099999999999814668 0 0 0.10266856499169109 0.044518360900210059 0 0.053064897599215843 0.048131547304697528 0 0.083411279318303222 0.089699755330707398 0 0.053064897599215843 0.048131547304697528 0 0.10266856499169109 0.044518360900210059 0 0 0.25000000000104028 0 0 0.20000000000083221 0 0.044081577119474857 0.2271058242433576 0 0 0.20000000000083221 0 0.038512288486115001 0.1844147282893184 0 0.044081577119474857 0.2271058242433576 0 0.083105206071467416 0.20007701332709979 0 0.044081577119474857 0.2271058242433576 0 0.038512288486115001 0.1844147282893184 0 0 0.15000000000062411 0 0.065374659239632718 0.1448908038746782 0 0.038512288486115001 0.1844147282893184 0 0 0.15000000000062411 0 0.044310582753132287 0.101412518374475 0 0.065374659239632718 0.1448908038746782 0 0.083105206071467416 0.20007701332709979 0 0.038512288486115001 0.1844147282893184 0 0.065374659239632718 0.1448908038746782 0 0 0.20000000000083221 0 0 0.15000000000062411 0 0.038512288486115001 0.1844147282893184 0 0.065374659239632718 0.1448908038746782 0 0.1053400320299198 0.12877248826361379 0 0.106902708054812 0.16453234188234539 0 0.14332333627550789 0.14578431753966009 0 0.106902708054812 0.16453234188234539 0 0.1053400320299198 0.12877248826361379 0 0.083105206071467416 0.20007701332709979 0 0.065374659239632718 0.1448908038746782 0 0.106902708054812 0.16453234188234539 0 0.083105206071467416 0.20007701332709979 0 0.13737030665753211 0.20313708640667491 0 0.095326043202144745 0.24554465089224409 0 0.083105206071467416 0.20007701332709979 0 0.106902708054812 0.16453234188234539 0 0.13737030665753211 0.20313708640667491 0 0.083105206071467416 0.20007701332709979 0 0.095326043202144745 0.24554465089224409 0 0.044081577119474857 0.2271058242433576 0 0.049706944316556423 0.27522722923869108 0 0.044081577119474857 0.2271058242433576 0 0.095326043202144745 0.24554465089224409 0 0.13737030665753211 0.20313708640667491 0 0.14377654328998779 0.2442024734791064 0 0.095326043202144745 0.24554465089224409 0 0.17933913398461551 0.2350063570234002 0 0.14377654328998779 0.2442024734791064 0 0.13737030665753211 0.20313708640667491 0 0.17933913398461551 0.2350063570234002 0 0.13737030665753211 0.20313708640667491 0 0.18124454140915969 0.18790916706335251 0 0.14332333627550789 0.14578431753966009 0 0.18652628422869419 0.14162325200928061 0 0.18124454140915969 0.18790916706335251 0 0.14332333627550789 0.14578431753966009 0 0.13737030665753211 0.20313708640667491 0 0.106902708054812 0.16453234188234539 0 0.14332333627550789 0.14578431753966009 0 0.18124454140915969 0.18790916706335251 0 0.13737030665753211 0.20313708640667491 0 0.14332333627550789 0.14578431753966009 0 0.16141998738593399 0.10404039647458049 0 0.18652628422869419 0.14162325200928061 0 0.2185883431182947 0.18019736283949719 0 0.18652628422869419 0.14162325200928061 0 0.22985637510995899 0.1298347970200906 0 0.2185883431182947 0.18019736283949719 0 0.22985637510995899 0.1298347970200906 0 0.25557216766470708 0.15874861286892261 0 0.2185883431182947 0.18019736283949719 0 0.25557216766470708 0.15874861286892261 0 0.26429849586623999 0.19346700179430079 0 0.2185883431182947 0.18019736283949719 0 0.18124454140915969 0.18790916706335251 0 0.18652628422869419 0.14162325200928061 0 0.17933913398461551 0.2350063570234002 0 0.18124454140915969 0.18790916706335251 0 0.224700362040408 0.22206622194729711 0 0.2185883431182947 0.18019736283949719 0 0.224700362040408 0.22206622194729711 0 0.18124454140915969 0.18790916706335251 0 0.2185883431182947 0.18019736283949719 0 0.26429849586623999 0.19346700179430079 0 0.224700362040408 0.22206622194729711 0 0.25195515620380449 0.25883339815888678 0 0.21049769590865089 0.26857363548218488 0 0.224700362040408 0.22206622194729711 0 0.17933913398461551 0.2350063570234002 0 0.224700362040408 0.22206622194729711 0 0.21049769590865089 0.26857363548218488 0 0.14999999999970359 0 0 0.184418230509967 0.038773194583122873 0 0.14618258501891079 0.062070108745602003 0 0.19922788606653311 0.085920220746880993 0 0.14618258501891079 0.062070108745602003 0 0.184418230509967 0.038773194583122873 0 0.14999999999970359 0 0 0.19999999999955789 0 0 0.184418230509967 0.038773194583122873 0 0.14999999999970359 0 0 0.14618258501891079 0.062070108745602003 0 0.10266856499169109 0.044518360900210059 0 0.14618258501891079 0.062070108745602003 0 0.16141998738593399 0.10404039647458049 0 0.12372429750337779 0.095814237875728972 0 0.14332333627550789 0.14578431753966009 0 0.12372429750337779 0.095814237875728972 0 0.16141998738593399 0.10404039647458049 0 0.19922788606653311 0.085920220746880993 0 0.18652628422869419 0.14162325200928061 0 0.16141998738593399 0.10404039647458049 0 0.19922788606653311 0.085920220746880993 0 0.16141998738593399 0.10404039647458049 0 0.14618258501891079 0.062070108745602003 0 0.19922788606653311 0.085920220746880993 0 0.22985637510995899 0.1298347970200906 0 0.18652628422869419 0.14162325200928061 0 0.19922788606653311 0.085920220746880993 0 0.24218496799700481 0.089025544070598317 0 0.22985637510995899 0.1298347970200906 0 0.27474541102162192 0.11822029332053539 0 0.22985637510995899 0.1298347970200906 0 0.24218496799700481 0.089025544070598317 0 0.19922788606653311 0.085920220746880993 0 0.22668068146512929 0.045875643423131329 0 0.24218496799700481 0.089025544070598317 0 0.27499999999933927 0.060310814194988557 0 0.24218496799700481 0.089025544070598317 0 0.22668068146512929 0.045875643423131329 0 0.19922788606653311 0.085920220746880993 0 0.184418230509967 0.038773194583122873 0 0.22668068146512929 0.045875643423131329 0 0.19999999999955789 0 0 0.22668068146512929 0.045875643423131329 0 0.184418230509967 0.038773194583122873 0 0.19999999999955789 0 0 0.24999999999941211 0 0 0.22668068146512929 0.045875643423131329 0 0.24999999999941211 0 0 0.29999999999926641 0 0 0.27499999999933927 0.060310814194988557 0 0.24999999999941211 0 0 0.27499999999933927 0.060310814194988557 0 0.22668068146512929 0.045875643423131329 0 0.29999999999926641 0 0 0.32541448401678508 0.046215317981507749 0 0.27499999999933927 0.060310814194988557 0 0.29999999999926641 0 0 0.34999999999912063 0 0 0.32541448401678508 0.046215317981507749 0 0.35312867752657662 0.084946736076730367 0 0.32541448401678508 0.046215317981507749 0 0.3615861437013822 0.03582617922508851 0 0.35312867752657662 0.084946736076730367 0 0.3615861437013822 0.03582617922508851 0 0.39591832466117061 0.056982757562006353 0 0.34999999999912063 0 0 0.3615861437013822 0.03582617922508851 0 0.32541448401678508 0.046215317981507749 0 0.34999999999912063 0 0 0.3999999999989749 0 0 0.3615861437013822 0.03582617922508851 0 0.35312867752657662 0.084946736076730367 0 0.39823268594401579 0.1116623613130045 0 0.36246644853392812 0.1399454205365751 0 0.35312867752657662 0.084946736076730367 0 0.36246644853392812 0.1399454205365751 0 0.32215584939770009 0.1218492143506909 0 0.35312867752657662 0.084946736076730367 0 0.3096713403101819 0.085471541595262421 0 0.32541448401678508 0.046215317981507749 0 0.35312867752657662 0.084946736076730367 0 0.32215584939770009 0.1218492143506909 0 0.3096713403101819 0.085471541595262421 0 0.27474541102162192 0.11822029332053539 0 0.3096713403101819 0.085471541595262421 0 0.32215584939770009 0.1218492143506909 0 0.27499999999933927 0.060310814194988557 0 0.32541448401678508 0.046215317981507749 0 0.3096713403101819 0.085471541595262421 0 0.3096713403101819 0.085471541595262421 0 0.27474541102162192 0.11822029332053539 0 0.27499999999933927 0.060310814194988557 0 0.27499999999933927 0.060310814194988557 0 0.27474541102162192 0.11822029332053539 0 0.24218496799700481 0.089025544070598317 0 0.27474541102162192 0.11822029332053539 0 0.25557216766470708 0.15874861286892261 0 0.22985637510995899 0.1298347970200906 0 0.27474541102162192 0.11822029332053539 0 0.29336099386129338 0.15892013001050981 0 0.25557216766470708 0.15874861286892261 0 0.26429849586623999 0.19346700179430079 0 0.25557216766470708 0.15874861286892261 0 0.29336099386129338 0.15892013001050981 
[...]
<PointData Scalars="tracer_conc,region_id," Vectors="" Tensors="">
<DataArray type="Float64" Name="tracer_conc" format="ascii">
0.0098706588397764385 0.013647971289020384 0.011687207164590221 0.0098965387309559345 0.011640647781562799 0.0098016504264200801 0.013800861027983556 0.013959975949350814 0.011683707477646606 0.0097691115098611399 0.011693063571899819 0.013781763953533595 0.009776156916067846 0.0097636115544204594 0.012926831418113424 0.0086447709276786695 0.010390457124103147 0.013567540933460357 0.016780394203758375 0.01314955872178596 0.013935536008261645 0.0096893046152602552 0.01380042018390904 0.013073204237915016 0.016969366115071147 0.015191204700098049 0.013191303835796069 0.017081955939327018 0.020607688950374913 0.015180006873506327 0.01669517445708588 0.021659111039969082 0.020066424261986692 0.025979666551681158 0.020157424128099545 0.021783929444578159 0.02539300955323967 0.021982397529888342 0.01939157996856359 0.016906792173447614 0.019391165248249284 0.021838287283695249 0.019213732571710006 0.026028362685783117 0.019418946717088142 0.01382755259655947 0.018825439975259123 0.013993297562380975 0.019082668942948241 0.01926869699214925 0.013871360498763535 0.016890006813198969 0.013947684912175538 0.019202035872631234 0.12512458034896254 -0.0023641701431496957 0.068612018720558554 0.0098715076246273584 -0.013251194632036297 0.062419925700882846 0.0040205875333541273 0.064665951198487268 -0.014959807108235017 0.0062320578785783022 0.010167606822854634 0.003852487401194911 0.0084461631105567092 0.013782074257388095 0.014459023538673912 0.003754289146001369 0.0036633476422598872 0.010470830887117756 -0.0012773655543729023 0.0062669176165296566 -0.0013816585032829058 0.012454233538723191 0.022428055498866058 0.0088844453315901351 0.020662830062540074 0.0086222541646902538 0.022838129571229361 0.0037098490947438164 0.010660210379379519 0.0095836038993813103 -0.0011295028904586546 0.025678955479716211 0.16915299545014711 0.0040805919273550996 0.010115831581456588 0.0073665793543612789 0.0031274762051446388 0.16478056161842095 0.079288766822873141 0.29397795777067481 0.071819097861798201 0.2058818278547315 0.024579870118153782 0.20126894508024457 0.17495841921562477 0.16688260098989161 0.20356781766107621 0.020506043292199089 0.15669548854754986 0.035261318105403783 -0.0028579341265966849 0.026028085958798325 0.035606338074832912 -0.00028420517650576957 0.016190789189101669 0.0075118582211382134 0.010229290590291514 0.016369808279883866 -0.00069034437968150636 0.0074408736513460298 0.026188320685401684 0.027945406038135293 0.033538542627676575 0.020412711389108971 0.031230770647795746 0.045567379519522944 0.019920458393577648 0.046204410794896754 0.041990884816935414 0.015842307450163538 0.041110897126160076 0.013191662476429045 0.014088088807439421 -0.0011358127849666417 0.03632011338488398 0.16114194026441739 -0.0059592366849679553 0.121320972081252 -0.017346021686815156 0.12168858077160735 0.00092660350597626318 -0.0192844577423107 0.012796765643649347 0.12505439103475433 0.49969933865054506 0.5325431277744157 0.12052202987037239 0.19257682998974709 0.12546935014612237 0.52509017929020607 0.02655123704430604 0.032563399691593747 0.025675238762195757 0.035390633272913204 0.025459368875293473 0.032845078682841235 0.026439799212193721 0.036126534717050372 0.03277371775374481 0.026371489364025818 0.025550930050516799 0.019255397141968143 0.025575542899529794 0.027870526048327314 0.02197192048687897 0.026116671064211176 0.021768333112327364 0.027785852348379041 0.035321152594805158 0.033587381399707912 0.028115053544922476 0.034996021934944978 0.028014405249853925 0.025598356203805447 0.035487301129357461 0.043923309542096022 0.033625865201146098 0.035161717107280908 0.045863984944406688 0.043926428856817731 0.056662684397444742 0.044104570569701108 0.04611243398583606 0.035560139174511347 0.042839212888298173 0.046281520508516534 0.056718832151832509 0.046567732727446645 0.042917210649747128 0.035672801082137752 0.032954896666207406 0.042463904245998739 0.03644954532462328 0.042455329223783062 0.032848321189556322 0.036405563330818992 0.049264273028567611 0.042745653813764592 0.049725100927456002 0.066816743507788601 0.057508179313277653 0.049730420802976523 0.057073821862520337 0.042742596295131538 0.067430950948003651 0.077380073263256646 0.057474172801354813 0.067413591295237565 0.090058210012689988 0.078114160224259266 0.090922265057791635 0.078057008815463402 0.096790567248134604 0.091029880282660222 0.097161379694944774 0.11699159935047726 0.090833057903874567 0.096515624079234155 0.078088588996117744 0.091031698514206311 0.12021469282436034 0.09685462361823606 0.090997796410369897 0.11660972094805372 0.094357148211477268 0.090768092985919938 0.094002570504214317 0.07465580213174014 0.090282021308646418 0.070268830794515277 0.078141523854937014 0.090102168880927633 0.074870770685861218 0.070399285542464218 0.05614852511496618 0.070178734799593398 0.074404195904972284 0.057208591492173978 0.077577424773293852 0.070153519701500577 0.069756525141021666 0.056449141432389167 0.057460373357103127 0.057276598055896813 0.056316120644447992 0.046459070034204082 0.059035371106468698 0.043081918569538691 0.043068986531727041 0.059577995487408095 0.054582728822635519 0.042849288930570377 0.013077544684237366 0.041706698380196021 0.051410260136032213 0.060763732524083618 0.01993728265413942 0.052657439881275997 0.01247866017136662 0.051999602328526649 0.019792992863864257 0.05986843478210755 0.077482406980709878 0.054758189924599097 0.24593149813873813 0.49149533438677812 0.12049228902019653 0.011321352081807274 0.22683516573822712 0.1464186767197739 0.006100978163169222 0.056478330653068634 0.231187678627329 0.4203772633055613 0.70371197579869793 0.24579068183977074 0.32671614683561256 0.2324810445615052 0.060203201544448574 0.33097328673356519 0.054704707835116412 0.00096089528346161423 0.33617988351305161 -0.0021654352013186192 0.16085328614988764 0.40330673025732655 0.2113502418712031 0.84697337872626755 0.066881204509896153 0.053684935409080051 0.07858292342067523 0.066981801554873766 0.07907301686019827 0.095255195926967462 0.060752265715214609 0.034232952831672998 0.020124030865137504 0.085297341116407147 0.050483185180382868 0.097986620132982941 0.061947317895682155 0.097283451777449667 0.050843817164919654 0.10927742220539029 0.092577429972788255 0.11863687472401652 0.098869856421952229 0.15934438513365984 0.082451770454384385 0.1094014895779607 0.1191529067454037 0.15164899348286265 0.6432031472475932 0.85051591825942874 0.20783717786793784 0.059422689249469883 0.12745405512380445 0.069318289499771341 0.058890204655517586 0.059058769006046771 0.12869681453421161 0.59747314365875726 0.22356808827023841 0.024878036159082496 0.6011710156745067 0.021845532322926391 0.28985144471424645 0.07709065805220279 0.22845911791133447 0.10538083051529103 0.15361713377051853 0.21689583845931296 0.1733301124794519 0.076676914142864622 0.070964677395588774 0.22995438176216237 0.56983511945755916 0.32325377831933783 0.018584801150256632 0.1589533159439786 0.14868045285930959 0.18615490511564131 0.13567193055051727 0.081727807095600888 0.16083758137512333 0.15869532208361603 0.18717366969603605 0.21489835705685681 0.14608877864181721 0.18474942687265303 0.18483990093828184 0.21720323550989745 0.18542263690629068 0.1855518133618749 0.14820992898849736 0.18365906115291195 0.14681058765053601 0.14689577165805937 0.18098878730981516 0.18508171145513233 0.23849043756056487 0.1857480951188982 0.18145996439974704 0.21391371905341353 0.23979698035824665 0.17963308323062821 0.16217081918981574 0.21232761870548816 0.17990376872542824 0.16216511404000244 0.17918028167380068 0.14498921472741433 0.147720582849316 0.14625950351313852 0.179761287161951 0.12178019226361293 0.14448304433321746 0.1181012256388586 0.14722177792509569 0.11728169011846359 0.14582894316977152 0.12164828815542394 0.16103057555476247 0.1448372584052923 0.1213451807417865 0.11782778532724668 0.09647927301826599 0.090243425987073522 0.11766826967495703 0.11605111984187962 0.14763652136602384 0.14630099982283917 0.11548587256025901 0.14650684470688674 0.11651018748091248 0.11821216153509102 0.1426410786376697 0.066152082012945201 0.02067936204396284 0.14418271193421067 0.040040986447439551 -4.6064866952855647e-05 0.2418192797499423 0.887534402543106 0.078573291730016731 0.14468652720701056 0.12910430631750222 0.082490104215125939 0.11144766340018571 0.11464452091844901 0.14572593325423672 0.14819427083579778 0.14587338699138103 0.11572006330712777 0.14850405632229388 0.16540408826635902 0.14664821572542214 0.15418838907975815 0.19668890431789046 0.16308837499596623 0.20208127571184614 0.15026049091091717 0.16902291168210803 0.20389653964202475 0.16871692587177356 0.19219845059774868 0.16129971512916275 0.22024237176026684 0.055397577026446335 0.15140094713890498 0.056884788884415401 0.21788180133128918 0.14412675845706469 0.020062338533019055 0.050563215792882359 0.6632124124380977 0.01872977477897014 0.086423453242424758 -0.010505832220557395 0.037470795924250275 0.63126861577690208 1.0504144614463482 0.85283022685881993 0.97068883918609394 0.81869313097040042 0.97513236383325519 0.8520868220522505 0.80747329284362113 1.0237803389161941 0.99000308295159767 0.66791429209834996 0.64452833144396737 0.016274137500410783 1.1663462094522068 0.94810530743390875 0.65733968011950872 0.62870642637266461 0.99334600133914897 0.35320740899788006 1.1137814569198234 1.0179557061023199 1.0446946346094765 1.0083363982722868 1.0451542154869302 1.0195250116507779 0.62864847908469368 0.35192590729142564 0.99558777720564073 0.71173761764333865 1.0236440853524291 1.1103914949795446 0.71091288699565192 1.1138462506004394 0.81259735867056149 1.0327846524213218 0.84991465275735945 1.1024535146743679 0.70376093801806683 0.075353029925297244 0.89211119630624003 0.80594467274329284 0.8301503330249923 1.0274730735659221 0.93473969456789296 1.0324686270392003 0.82710508760315771 0.8464367704473168 0.61179037484908882 0.95413069971120223 0.24877755984785332 0.54538461184560083 0.88251930176789817 0.9558920083273531 0.61040262432970316 0.84312608983691784 0.61034353880809888 0.64991792150682037 0.84376714790742147 0.43565160758243465 0.84874440941555496 0.92243245780580363 1.0339018994649181 0.8690222975335905 0.85090908605316518 1.0180256171970283 0.91707047543992459 0.90841059334033392 0.85261002360699556 0.90959116119509109 0.91748384431835339 0.43916911136562814 0.92062036637089117 0.68764186379560799 0.88440933523342935 0.73890893589948226 0.91556948713481123 0.88456919363101516 0.74352693337899112 0.74030502468101256 0.54227834884591397 0.72787489186834464 0.77210551291204743 0.50200433010622314 0.2500204827482036 0.70039841027323679 0.23103212761558323 0.68868968870306868 0.55580875747146152 0.89209997404481445 0.87206891920664931 0.64643051080983827 0.89153088319348361 0.64722450881705551 0.62400288043826169 0.88978041530235386 0.65682260592180008 0.80614100167805747 0.25170114568306395 0.66622213265274677 0.67962351700810775 0.25765099141268577 0.33887747765569576 0.65845087089185028 0.13546828994382318 -0.02446132617194053 0.033005306643948587 0.013138966493546362 0.050639250432519108 -0.0031173843181588144 0.13917579533298022 -0.0049399799089736339 -0.027293205640135789 0.23284872693623848 0.50875352329457546 -0.020798010803552765 0.51650141010421036 -0.013235581229838575 -0.028550826453126427 0.072499168317982504 0.0069258691636714664 0.019469368513546546 0.071335822891784487 0.036886245782148254 0.0076359975646280642 0.072574038030234364 0.019812106072425513 0.039776599893288564 0.14221439889342474 0.0015003543941181951 0.0608958566620941 0.2034518191904755 -0.016407774353100004 0.52348221106104897 0.1111225904569622 0.090596888814253956 0.11423573629163385 0.083975404350920851 0.12226609484610039 0.095870889980545562 0.076268633398858768 0.082798786780480235 0.12770607824440836 0.079402548359596606 0.080283374862952353 0.043991678049108147 0.091375888477455439 0.082104717932756546 0.074004114626524078 0.084029994201953881 0.095326728517769202 0.074224198159689725 0.061734282232550938 0.055525223520695277 0.075153099701601181 0.044604739800179774 0.079209835290593042 0.051212817058401146 0.061358730481421653 0.047819595957468694 0.055555776587203023 0.035515190992877269 0.051181117174493251 0.036030471135900466 0.032014773818197159 0.041483636865955062 0.0064673256562442858 0.028832520840461867 -0.0024237222273093069 0.049916561305589663 0.035239852217084283 0.05362106126067253 0.051719620756095722 0.17919529093185452 -0.017975175314487817 0.30749313845946646 0.14031988554566369 0.26964710523662383 -0.0555978115306833 0.27654025292993739 -0.011676192537591572 -0.063609125542518088 0.028141442881641762 0.0026919081209702015 -0.0021989217851809267 0.02602161850426149 -0.0060147713162505643 0.0047740887446717662 0.1334405174250077 -0.052280984851523285 -0.048524518522941547 0.12969477855830469 -0.042050659378064376 0.10911293663209802 0.025454993388123119 0.021502322377383823 -0.0051192911602352684 0.02361596585968535 0.020803222159399219 0.027320674718850513 0.023629976945196758 0.027525086472330769 0.031257686219345861 0.027490313459230864 0.038600441506313588 0.031530202228253132 0.02301125778985473 0.007050057993057455 0.040792147379466265 0.54414001792761968 0.76939000100537969 0.52220837264974496 0.70908790773603914 0.54013808652191864 0.7785980161027789 0.70648508691081324 0.50804860021085596 0.54166967852181636 0.65754476596932354 0.64091978595186927 0.46802347447418235 0.65029897929312397 0.80419495680425701 0.63116804181580433 0.80506830606967839 0.65769768320080324 0.63003215310502436 0.35414413817204698 0.65754711974661961 0.65655208297611689 0.35739506883270583 0.44332502947444813 0.65382209848179085 0.11008109353078478 0.44426584214101744 0.3136019575048189 0.12941200136751996 0.50512236439504621 0.45053992734424742 0.13457456452946293 0.086680071868449338 0.49273972578153635 0.65463351479329779 0.46989391049136237 0.46882841183250823 0.68628337142709095 0.52851365611886347 0.55961133980512012 0.44502321363345487 0.55421881499110215 0.53986088474852756 0.39768433428916722 0.2371521343811262 0.52614326077015106 0.20590643056111702 0.526732434281177 0.53582370737873208 0.20921588821817755 0.53021559939147711 0.23230277974018781 0.28198689219747319 0.2326700449070567 0.46136592753853112 0.39252075232692207 0.19252279637961167 0.23898695581342255 0.42119347020345838 0.46706428968624958 0.22841495553327792 0.44579052739775782 0.53810918298126165 0.42125587436831557 0.31284957334515984 0.45652798090907037 0.37168633693359632 0.34407354794031958 0.33289835467709833 0.45651400380941903 0.34273281093038305 0.45927174294392903 0.51587545334190721 0.30512106091437446 0.48491674828527315 0.095325596409214911 0.29668427929817442 0.098851197960456549 0.075245274371501941 0.31441270441717423 0.088612657474830048 0.36450518809387061 0.2029996510862466 0.35736719704299125 0.095194312872384779 0.23528636851594606 0.30191299455951531 0.36102818321409019 0.27123835389115891 0.31333054301484581 0.36931998948958478 0.29141718755224394 0.15448005653545749 0.29804828554573415 0.13969225722195328 0.076614767276020013 0.28788284656439606 0.0028824377257653105 0.020326922322065736 0.020493331400422778 0.023344671600813389 0.016126822583422594 0.020776375539294453 0.020520323737951388 -0.0017685175874492813 -0.004658028396157152 -0.03853061726355439 0.088542784101624153 -0.033104253156812917 -0.033269333344241515 0.077062403398221596 0.086151259022553411 -0.031346055444492489 -0.017316457210908198 0.073820372913367821 0.018576979437366848 0.19616158115476987 0.089030819993946034 0.032872214581641176 0.07136144558668063 -0.014688411123898579 -0.013094396312872725 0.017369767033742135 -0.014408469580714822 0.0034031090636850582 -0.015128031090789116 0.014671343598828572 0.011891595726126407 0.011095709813054931 0.018484023510926224 0.0032309650369162445 0.020023048367733311 0.0090583146345291892 -0.0036209172946465064 0.015277286102378938 -0.015811583328371792 0.012152171897076196 0.007255964202688597 0.01191821757941567 0.010145199803072989 0.016211534708387588 0.012873684739009975 0.0095417739888637148 0.010072034296646815 0.012774172432631622 0.0096514140917041014 0.01303743759086363 0.012377615752078904 0.016375911995547762 0.012423488352181376 0.01312788867732885 0.016517231445751551 0.016994619802938229 0.012870359985051366 0.022284036100862218 0.017095209070051944 0.016589518585324193 0.016534009703538983 0.013096602824421023 0.017276074547356138 0.016593356026628953 0.017383752420630328 0.021121725911605303 0.017340474295577082 0.021996662504751546 0.021279706549783624 0.016677846815102981 0.021429203824764684 0.019981193245435451 0.018587262970703122 0.013703441571366073 0.01940450711334149 0.016743921899369209 0.019686842287844994 0.013926133852303294 0.016594341378667329 0.013953016965188249 0.012482348779233803 0.0099102839434428366 0.0097160065717222088 0.012320595923790029 0.010219968965251808 0.0098289642062275237 0.013680317139322093 0.0098215976011860138 0.01245028979949696 0.013822130449186018 0.0093220585738010339 0.010643991676097765 0.013915987439797998 0.01859516422801728 0.014482566838170469 0.013987968940178293 0.01015671874531603 0.013903475472473304 0.014357456533284414 0.0089328356453183665 0.0084965953713990339 0.011396423949374811 0.0089949965655116999 0.013943094162049148 0.011348357798879483 0.0092912391181042813 0.011718207645931547 0.013908030993115699 0.012126300419246642 0.016524785733358728 0.016748847944181355 0.018493296321508961 0.016887024136096364 0.016608581136849026 0.01132008366449351 0.014162442751139887 0.017544740737919721 0.019259005884816043 0.024864206562387043 0.017935981696061976 0.019039876040786101 0.019588076066859327 0.013907931376349842 0.019175245262254555 0.024576250670535468 0.019731988531091423 0.018705666326494536 0.019575892190764024 0.023693044069150723 0.031688380715429204 0.019627539291655515 0.024789447439368083 0.028245602401868838 0.032164502828227123 0.023848862682043722 0.028244863658213454 0.037362481733284172 0.032414936200428783 0.032245469420244428 0.02292134628910546 0.018315788195617685 0.019145129344435192 0.021613390540303 0.025199053841786979 0.017993570861005653 0.017891205028870448 0.022143479767515011 0.032998373984604513 0.029523391092774295 0.022711357796774353 0.032630904345022138 0.025369345021974802 0.021567999661326859 0.033009939478344866 0.021227548203107686 0.02716189351634609 0.033416248021816031 0.02711873251138492 0.035230224399146422 0.044271806952111456 0.033585390077535408 0.029618538900742303 0.044770270907962338 0.045763635008543975 0.033407881123378745 0.050030046900756547 0.050712835691106385 0.035930534543868846 0.047798059742734628 0.03672032180216743 0.043499534354805046 0.047930279527545194 0.032699426079359523 0.037633315883571522 0.044269594881197596 0.029606202325114701 0.033245053375573784 0.048653632221886449 0.037460125465425695 0.051477289473451142 0.048936689763017231 0.05201239067137535 0.066822328979015064 0.04428536689603068 0.051087777261678485 0.037963218849720426 0.056662365359195319 0.051506182038773066 0.044273112174392809 0.043982151967375385 0.037903523117160415 0.033955836192475455 0.036777798823440969 0.044348134715826742 0.034108403596118719 0.057557025120661312 0.044565704323177899 0.05165955183942899 0.036690565953741774 0.050882278398973649 0.044681994263442243 0.036664515272866065 0.047003516182160497 0.050531828958439592 0.036157956675635525 0.029991144198745913 0.037624923605958156 0.036258936195651098 0.037743915285675944 0.047933630467083689 0.036490047309520796 0.033997604321507349 0.026503518049112013 0.035921667181155616 0.026361502241447527 0.029663331992723436 0.022209750723257992 0.029459834451766091 0.02627126175029508 0.021337378286289493 0.022090026117357883 0.02623775065463111 0.028633928880396762 0.021401447950095333 0.026716881558223739 0.0282051491