<?xml version="1.0"?>
<VTKFile type="UnstructuredGrid" version="0.1" byte_order="LittleEndian">
<UnstructuredGrid>
<Piece NumberOfPoints="3142" NumberOfCells="1054">
<Points>
<DataArray type="Float64" NumberOfComponents="3" format="ascii">
0.5000000000 0.3000000000 0.0000000000 0.5500000000 0.3000000000 0.0000000000 0.5500000000 0.3000000000 0.0000000000 0.6000000000 0.3000000000 0.0000000000 0.6000000000 0.3000000000 0.0000000000 0.6500000000 0.3000000000 0.0000000000 0.6500000000 0.3000000000 0.0000000000 0.7000000000 0.3000000000 0.0000000000 0.7000000000 0.3000000000 0.0000000000 0.7500000000 0.3000000000 0.0000000000 0.7500000000 0.3000000000 0.0000000000 0.8000000000 0.3000000000 0.0000000000 0.8000000000 0.3000000000 0.0000000000 0.8500000000 0.3000000000 0.0000000000 0.8500000000 0.3000000000 0.0000000000 0.9000000000 0.3000000000 0.0000000000 0.9000000000 0.3000000000 0.0000000000 0.9500000000 0.3000000000 0.0000000000 0.9500000000 0.3000000000 0.0000000000 1.0000000000 0.3000000000 0.0000000000 0.5000000000 0.7000000000 0.0000000000 0.5500000000 0.7000000000 0.0000000000 0.5500000000 0.7000000000 0.0000000000 0.6000000000 0.7000000000 0.0000000000 0.6000000000 0.7000000000 0.0000000000 0.6500000000 0.7000000000 0.0000000000 0.6500000000 0.7000000000 0.0000000000 0.7000000000 0.7000000000 0.0000000000 0.7000000000 0.7000000000 0.0000000000 0.7500000000 0.7000000000 0.0000000000 0.7500000000 0.7000000000 0.0000000000 0.8000000000 0.7000000000 0.0000000000 0.8000000000 0.7000000000 0.0000000000 0.8500000000 0.7000000000 0.0000000000 0.8500000000 0.7000000000 0.0000000000 0.9000000000 0.7000000000 0.0000000000 0.9000000000 0.7000000000 0.0000000000 0.9500000000 0.7000000000 0.0000000000 0.9500000000 0.7000000000 0.0000000000 1.0000000000 0.7000000000 0.0000000000 0.4007653913 0.3458934947 0.0000000000 0.3327755574 0.3643219668 0.0000000000 0.3657554982 0.3167799284 0.0000000000 0.3808324476 0.3853198367 0.0000000000 0.3327755574 0.3643219668 0.0000000000 0.4007653913 0.3458934947 0.0000000000 0.5683677050 0.3523062351 0.0000000000 0.5228942757 0.3932284363 0.0000000000 0.5275200712 0.3317063247 0.0000000000 0.5275200712 0.3317063247 0.0000000000 0.5228942757 0.3932284363 0.0000000000 0.4907783386 0.3522998145 0.0000000000 0.1000000000 1.0000000000 0.0000000000 0.0530648976 0.9518684527 0.0000000000 0.1026685650 0.9554816391 0.0000000000 0.1000000000 0.0000000000 0.0000000000 0.1026685650 0.0445183609 0.0000000000 0.0530648976 0.0481315473 0.0000000000 0.0500000000 1.0000000000 0.0000000000 0.0530648976 0.9518684527 0.0000000000 0.1000000000 1.0000000000 0.0000000000 0.0500000000 0.0000000000 0.0000000000 0.1000000000 0.0000000000 0.0000000000 0.0530648976 0.0481315473 0.0000000000 0.2500000000 0.0000000000 0.0000000000 0.3000000000 0.0000000000 0.0000000000 0.2750000000 0.0603108142 0.0000000000 0.3000000000 1.0000000000 0.0000000000 0.2500000000 1.0000000000 0.0000000000 0.2760998766 0.9499144562 0.0000000000 0.1572020216 0.6066569730 0.0000000000 0.1991426167 0.6228673949 0.0000000000 0.1650038825 0.6661207771 0.0000000000 0.2236846579 0.6738036313 0.0000000000 0.1650038825 0.6661207771 0.0000000000 0.1991426167 0.6228673949 0.0000000000 0.1247745017 0.2719807754 0.0000000000 0.1683495700 0.2805449085 0.0000000000 0.1422375336 0.3341983344 0.0000000000 0.0000000000 0.7500000000 0.0000000000 0.0000000000 0.7000000000 0.0000000000 0.0497069443 0.7247727708 0.0000000000 0.0000000000 0.3000000000 0.0000000000 0.0000000000 0.2500000000 0.0000000000 0.0497069443 0.2752272292 0.0000000000 0.6000000000 0.3000000000 0.0000000000 0.6195917389 0.3383225009 0.0000000000 0.5683677050 0.3523062351 0.0000000000 0.5000000000 0.7000000000 0.0000000000 0.4332342001 0.6913544523 0.0000000000 0.4791347509 0.6601077537 0.0000000000 1.0000000000 0.1500000000 0.0000000000 0.9539163142 0.1958426333 0.0000000000 0.9367753623 0.1500000000 0.0000000000 1.0000000000 0.8500000000 0.0000000000 0.9539163142 0.8958426333 0.0000000000 0.9367753623 0.8500000000 0.0000000000 1.0000000000 0.8500000000 0.0000000000 0.9367753623 0.8500000000 0.0000000000 0.9538656339 0.8041487416 0.0000000000 1.0000000000 0.1500000000 0.0000000000 0.9367753623 0.1500000000 0.0000000000 0.9538656339 0.1041487416 0.0000000000 0.9041666667 0.9041666667 0.0000000000 0.8808876812 0.8467460981 0.0000000000 0.9367753623 0.8500000000 0.0000000000 0.9041666667 0.2041666667 0.0000000000 0.8808876812 0.1467460981 0.0000000000 0.9367753623 0.1500000000 0.0000000000 0.1247745017 0.2719807754 0.0000000000 0.1422375336 0.3341983344 0.0000000000 0.0938519631 0.3058206823 0.0000000000 0.5000000000 0.7000000000 0.0000000000 0.4558223640 0.7389674368 0.0000000000 0.4332342001 0.6913544523 0.0000000000 0.5500000000 1.0000000000 0.0000000000 0.5000000000 1.0000000000 0.0000000000 0.5212215021 0.9408997445 0.0000000000 0.5000000000 0.0000000000 0.0000000000 0.5500000000 0.0000000000 0.0000000000 0.5237589061 0.0593187718 0.0000000000 0.5500000000 0.3000000000 0.0000000000 0.6000000000 0.3000000000 0.0000000000 0.5683677050 0.3523062351 0.0000000000 0.5020263146 0.8789287083 0.0000000000 0.4400383646 0.8809347458 0.0000000000 0.4567767371 0.8425368440 0.0000000000 0.3340353483 0.8440279973 0.0000000000 0.3586475963 0.8796348242 0.0000000000 0.3086438728 0.8990655453 0.0000000000 0.5324548876 0.5507812500 0.0000000000 0.4779379414 0.5294071564 0.0000000000 0.5333037581 0.5082794274 0.0000000000 0.8270932759 0.1493714167 0.0000000000 0.8128310225 0.1881007222 0.0000000000 0.7714407096 0.1431185448 0.0000000000 0.8270932759 0.8493714167 0.0000000000 0.8115915751 0.8879599548 0.0000000000 0.7690177014 0.8429355733 0.0000000000 0.7714407096 0.1431185448 0.0000000000 0.8128310225 0.1881007222 0.0000000000 0.7658760763 0.1888003952 0.0000000000 0.7690177014 0.8429355733 0.0000000000 0.8115915751 0.8879599548 0.0000000000 0.7689116691 0.8883546957 0.0000000000 0.3340353483 0.8440279973 0.0000000000 0.3086438728 0.8990655453 0.0000000000 0.2920921290 0.8471572837 0.0000000000 0.5741254736 0.5827380488 0.0000000000 0.5166924242 0.5982513484 0.0000000000 0.5324548876 0.5507812500 0.0000000000 0.5020263146 0.8789287083 0.0000000000 0.4740114703 0.9152995733 0.0000000000 0.4400383646 0.8809347458 0.0000000000 0.5000000000 0.7000000000 0.0000000000 0.5500000000 0.7000000000 0.0000000000 0.5536378072 0.7434874016 0.0000000000 1.0000000000 0.3500000000 0.0000000000 0.9587185552 0.4000650861 0.0000000000 0.9578085198 0.3421572097 0.0000000000 1.0000000000 0.6500000000 0.0000000000 0.9578014258 0.6578721232 0.0000000000 0.9586759911 0.6001109115 0.0000000000 0.4666608489 0.5763447104 0.0000000000 0.4779379414 0.5294071564 0.0000000000 0.5324548876 0.5507812500 0.0000000000 0.9500000000 0.3000000000 0.0000000000 0.8989847436 0.2539196559 0.0000000000 0.9439950980 0.2439950980 0.0000000000 0.9500000000 1.0000000000 0.0000000000 0.8989847436 0.9539196559 0.0000000000 0.9439950980 0.9439950980 0.0000000000 0.0000000000 0.6500000000 0.0000000000 0.0500695545 0.6130852008 0.0000000000 0.0466346772 0.6714182307 0.0000000000 0.0000000000 0.3500000000 0.0000000000 0.0463891310 0.3266878183 0.0000000000 0.0505838961 0.3854352228 0.0000000000 0.5020263146 0.8789287083 0.0000000000 0.5062782264 0.8263979830 0.0000000000 0.5589937180 0.8500310223 0.0000000000 0.5478269690 0.7924518275 0.0000000000 0.5589937180 0.8500310223 0.0000000000 0.5062782264 0.8263979830 0.0000000000 0.5094574045 0.7547605553 0.0000000000 0.5000000000 0.7000000000 0.0000000000 0.5536378072 0.7434874016 0.0000000000 0.8500000000 1.0000000000 0.0000000000 0.8517097391 0.9356960730 0.0000000000 0.8989847436 0.9539196559 0.0000000000 0.8500000000 0.3000000000 0.0000000000 0.8517097391 0.2356960730 0.0000000000 0.8989847436 0.2539196559 0.0000000000 0.8695683534 0.5712832998 0.0000000000 0.8286209680 0.5503709096 0.0000000000 0.8690729489 0.5200811613 0.0000000000 0.4910237541 0.4912375482 0.0000000000 0.5333037581 0.5082794274 0.0000000000 0.4779379414 0.5294071564 0.0000000000 0.5761140528 0.5016590360 0.0000000000 0.6154766192 0.4853957606 0.0000000000 0.6204297551 0.5429597469 0.0000000000 0.7140602171 0.6329208314 0.0000000000 0.6752983499 0.6161327067 0.0000000000 0.7180901609 0.5818504040 0.0000000000 0.6500000000 1.0000000000 0.0000000000 0.6206549868 0.9522493400 0.0000000000 0.6801506480 0.9592432034 0.0000000000 0.8500000000 0.0000000000 0.0000000000 0.8999916646 0.0452893492 0.0000000000 0.8549105900 0.0600475335 0.0000000000 0.8500000000 0.7000000000 0.0000000000 0.8999916646 0.7452893492 0.0000000000 0.8549105900 0.7600475335 0.0000000000 0.9000000000 0.3000000000 0.0000000000 0.8989847436 0.2539196559 0.0000000000 0.9500000000 0.3000000000 0.0000000000 0.9500000000 1.0000000000 0.0000000000 0.9000000000 1.0000000000 0.0000000000 0.8989847436 0.9539196559 0.0000000000 0.8641109550 0.4238880566 0.0000000000 0.8130817985 0.3975494581 0.0000000000 0.8684463454 0.3853093747 0.0000000000 0.5000000000 0.3000000000 0.0000000000 0.4969572969 0.2501489541 0.0000000000 0.5424883395 0.2520322960 0.0000000000 0.8641109550 0.4238880566 0.0000000000 0.8197311983 0.4350568716 0.0000000000 0.8130817985 0.3975494581 0.0000000000 0.6732329423 0.5755645003 0.0000000000 0.7180901609 0.5818504040 0.0000000000 0.6752983499 0.6161327067 0.0000000000 0.6236733213 0.1486453821 0.0000000000 0.6839145712 0.1444047012 0.0000000000 0.6401186416 0.1878960798 0.0000000000 0.0000000000 0.0500000000 0.0000000000 0.0530648976 0.0481315473 0.0000000000 0.0443105828 0.1014125184 0.0000000000 0.0000000000 0.9500000000 0.0000000000 0.0443105828 0.8985874816 0.0000000000 0.0530648976 0.9518684527 0.0000000000 1.0000000000 0.3500000000 0.0000000000 1.0000000000 0.4000000000 0.0000000000 0.9587185552 0.4000650861 0.0000000000 1.0000000000 0.6000000000 0.0000000000 1.0000000000 0.6500000000 0.0000000000 0.9586759911 0.6001109115 0.0000000000 0.0000000000 0.8500000000 0.0000000000 0.0653746592 0.8551091961 0.0000000000 0.0443105828 0.8985874816 0.0000000000 0.00000000
[...]
<PointData Scalars="tracer_conc,region_id," Vectors="" Tensors="">
<DataArray type="Float64" Name="tracer_conc" format="ascii">
0.9999968192 0.9999971277 0.9999970748 0.9999971640 0.9999971604 0.9999972326 0.9999972313 0.9999972969 0.9999972962 0.9999973583 0.9999973579 0.9999994359 0.9999989158 1.0000005957 0.9999999759 1.0000001125 1.0000000267 1.0000000024 0.9999999999 1.0000000003 0.4964873847 0.5099289873 0.5149335035 0.5416519493 0.5341370359 0.5751417841 0.5840490839 0.6368712600 0.6304259817 0.6864099306 0.6891506720 0.7525552797 0.7529864877 0.8202248983 0.8228546954 0.8868215088 0.8850535732 0.9465127823 0.9513855998 1.0036473086 0.9999527616 0.9715068455 1.0113325014 0.8847532710 0.9463750682 1.0151489261 0.9571202985 0.9262534963 0.9882779210 0.9905285141 0.9230838593 0.9695445303 0.5826040842 0.5226696232 0.5857591914 0.5695522509 0.5715352306 0.5117888044 0.5191623820 0.5227605273 0.5823991139 0.5095087131 0.5693278427 0.5118931394 0.7469126646 0.8006848085 0.7722763683 0.8225132686 0.7677690658 0.7963162287 0.6346271235 0.6971232892 0.6995981211 0.7888202562 0.7040540138 0.6967643117 0.9897847252 1.0061038905 1.0260960751 0.3648032801 0.3207777398 0.3493723158 1.0166589198 0.7902228986 0.9591735857 1.0018946151 0.9787937015 0.9604648483 0.5585886246 0.7138789157 1.1809337399 0.9999999119 0.9999998656 1.0000000478 0.9999999260 0.9999998738 1.0000000154 0.9999999256 1.0000000140 0.9999998725 0.9999999112 1.0000000195 0.9999998487 0.9999991893 1.0000038691 0.9999998332 0.9999990816 1.0000050475 0.9999998538 0.9893201282 1.0269216282 1.0059065942 0.5070479019 0.7572255213 0.5236836076 0.9817210400 0.9645153888 0.9719978153 0.9522479269 0.9736107592 0.9617415308 1.0090485943 1.0030088193 0.9595126758 0.9680589850 0.9355713095 0.9425201490 0.8514732897 0.8774202907 0.8310955736 0.9708152459 0.9449038673 0.9686178044 1.0000632851 1.0000093205 0.9998300538 1.0000463047 0.9999996208 0.9999114953 0.9997926730 1.0000974093 0.9997619632 0.9998921420 1.0000400229 0.9998758179 0.8521026416 0.8310107434 0.8102074439 0.9856789990 0.9665829452 0.9695718427 0.9668074916 0.9533177408 0.9351994050 0.4960843657 0.5100034766 0.9575956802 1.0000000045 0.9999999937 0.9999999884 1.0000000074 0.9999999588 0.9999999727 0.9416551014 0.9445516297 0.9727138981 1.0000000419 1.0000000433 1.0000000329 1.0000000426 1.0000000669 0.9999999872 0.4679861047 0.5166189732 0.5340222390 0.8901379681 1.0576561191 0.6960591606 0.9656554491 0.9642446540 0.9840537505 0.9799766281 0.9812369227 0.9654312682 1.0517031021 0.4887743338 0.9723513538 1.0000001552 0.9999974205 1.0000029656 0.9999874361 1.0000018530 1.0000109837 1.0000037063 0.9999971762 1.0000061622 0.9486694553 0.9703083886 0.9447231106 0.9817657837 0.9898105478 0.9917159215 0.9927974714 0.9941161895 1.0016970615 0.9962813065 0.9933894552 0.9985907141 0.9999990644 1.0000046159 0.9999970272 0.8579338268 1.0612230952 1.0691394622 1.0000002053 0.9999998379 1.0000003455 1.0000001205 1.0000010647 0.9999996816 1.0000099821 0.9999790328 1.0000085654 1.0138982786 0.9741493089 0.9700393516 1.0000286679 0.9999893153 0.9999710711 0.9988477503 1.0015802032 0.9949140372 0.9891168227 0.9982481027 0.9913989345 0.4493768613 0.5113079428 0.5001960708 0.4568969639 0.5119522497 0.5224141689 1.0000000035 1.0000000027 0.9999999942 1.0000000082 1.0000000082 0.9999999754 0.4530995599 0.5343382323 0.5119638245 0.4344376183 0.5022204127 0.5154753513 0.7019488225 0.5227778281 0.6645874733 0.6302122723 0.6237993197 0.5716154417 0.6464280912 0.5858617592 0.6412712937 0.9991047874 0.9970075055 0.9978601374 0.9956265498 0.9912602562 0.9895793653 0.9709907420 1.0148130990 1.0062442702 1.0000000655 0.9999999800 1.0000001008 0.9950568879 0.9980589091 0.9970479698 1.0000367762 1.0000040960 0.9998552003 0.9997012989 0.9972438509 0.9986120427 0.4570760969 0.4574309093 0.5116060018 0.4488008989 0.4495272715 0.4998750382 0.7053901193 0.4291656453 0.4842079524 0.9999993847 0.9999999644 1.0000030981 0.9999993911 1.0000000640 1.0000035658 0.9972518207 0.9971234282 0.9916920953 0.5525702461 0.5954413560 0.5918717166 0.7219234631 0.7903700863 0.7766274464 1.0000593445 0.9998473833 0.9998243165 0.5918948147 0.5954452887 0.6326863494 0.5996070060 0.5274484019 0.5716551239 0.4946883168 0.5717683821 0.5346826416 1.0000543668 1.0000018917 0.9998354053 0.9813259436 0.9925199216 0.9821067790 1.0000174581 0.9999810450 0.9999979967 0.9422282387 0.9707311885 0.9672255791 0.8854101013 0.9470287046 1.0479182188 1.0000016078 1.0000002040 0.9999995273 1.0000014442 1.0000034536 0.9999999219 0.8234795167 0.8867750516 1.0768353668 0.9234818931 0.9068525875 0.9448153879 0.7523157084 0.7187063705 1.0465141282 0.9289064058 1.0511148339 0.7133635898 1.0369682920 1.0498475292 0.9930526410 1.0495752969 1.0445361573 0.9933105947 0.9836939416 0.9700795340 0.9824981147 0.9999999716 0.9999999432 1.0000000086 0.9999999715 1.0000000270 0.9999999535 0.9069505930 0.9144200892 0.9441213151 1.0000021948 1.0000014060 0.9999997659 0.9999923836 1.0000029320 1.0000033925 0.8000883849 0.8246699285 0.7723093156 0.8217884248 0.7963097656 0.8474093359 0.9836868859 0.9913126711 0.9947388347 1.0122634070 0.9710234673 1.0057840146 0.9973341225 0.9915713358 0.9973687074 0.9951398909 0.9976357546 0.9912772419 1.0000000140 1.0000000140 0.9999999509 1.0000000152 1.0000000152 0.9999999453 1.0000000155 1.0000000155 0.9999999441 1.0000000181 1.0000000181 0.9999999309 0.9643290810 0.9603730937 0.9349552037 0.9972966949 0.9990898775 0.9994202442 0.9969485632 0.9969759303 0.9994626861 0.9989464310 0.9991794521 0.9971153729 0.9937454408 0.9779055755 0.9924616338 0.9807884006 0.9720813958 0.9869005486 0.8716321090 0.9194484531 0.8792312375 0.9200002787 0.8797377125 0.9182834962 1.0000007664 1.0000018708 1.0000020545 0.9966330114 0.9984475791 0.9934418715 0.8481991484 0.8858778240 0.8847834209 0.9155707426 0.8843592693 0.8853835927 0.9342532386 0.9061370351 0.9071012507 0.8756591117 0.9075424385 0.9065593865 0.9998476394 0.9999384935 0.9992851695 0.9725969648 0.9804172894 0.9618205543 1.0225702947 0.9807757402 1.0376275345 0.9488095169 0.9416650457 0.9699474763 0.7846170669 0.7993906342 0.7539211593 0.9999451029 0.9999842601 1.0000168199 0.9999118929 0.9999779526 1.0000316822 0.9832505331 0.9821205270 0.9922339713 0.9999999907 1.0000017398 1.0000004813 0.9988653324 0.9994331355 1.0000247549 0.3641369596 0.4979904305 0.3354917093 0.9816590302 0.9571283190 1.0353932785 0.9770961589 0.9813515130 0.9936389434 0.7311978214 0.7816819087 0.7493390275 0.9017881124 0.9433642046 0.9369722695 0.5853627990 0.5046920277 0.5645464934 0.5460310041 0.5739978347 0.5074477124 0.4227030676 0.6434305285 0.6827143142 0.9341551501 0.7108922464 0.6857837599 0.8436234159 0.8816661629 0.8961774729 0.7845349333 0.8368705951 0.7990404093 0.7120121477 0.4721466607 0.7095384659 0.7750587163 0.7932790392 0.8586283895 0.8800986678 0.8761142280 0.8360659568 0.9530682802 0.9933340682 1.0263571225 1.0225683058 1.0147486514 0.9931929331 0.4576570493 0.4533573374 0.5115690519 0.4347607108 0.4511022300 0.5018005369 0.5799448011 1.1204416913 0.9540562037 0.7398853767 0.8749462617 0.5811270814 0.9214574850 0.9003309033 0.9736516625 0.9999998648 1.0000010903 1.0000001574 0.7469012005 0.7726835191 0.7192584619 0.7677178532 0.7425442580 0.7968790903 0.9999095006 0.9998712413 0.9994375189 0.7727309728 0.7689753067 0.7350630291 0.7918707806 0.8102183934 0.8313372133 0.8079064403 0.7688543080 0.7725495412 0.7714137277 0.6073892482 0.7570509566 0.7073655997 0.7962066863 0.6984899537 0.8762519725 0.8512512267 0.9039703325 1.0000443394 0.9992302946 0.9989841807 1.0019313625 1.0035554422 0.9977985021 0.9999380276 1.0000092527 1.0000135258 0.5943770472 0.5344012705 0.5165666082 0.9544539695 0.7002472494 1.0532957222 0.3959234027 0.3621960384 0.5207313203 0.7599209831 0.6386394450 0.9586174198 0.9438218624 0.9588872557 0.9799281002 0.9830192809 0.9780221533 0.9591510070 0.9937720846 0.9830477487 0.9882558353 0.9796443696 0.9871107823 0.9805214308 0.6495230089 0.5550252030 0.5471775926 0.9431353187 0.9449249913 0.8990970286 0.6434887068 0.5916284645 0.6336369656 0.9971715802 0.9997002206 0.9978396111 0.9998342723 0.9984344196 0.9971910492 1.0000439866 0.9998278253 0.9999968927 0.9999983069 0.9999852504 1.0000223891 1.0367045995 1.0214210604 1.0045094593 0.9662182493 0.9429928334 0.9649132233 0.5696448603 0.6302040077 0.5716196227 0.6464809829 0.5826754724 0.5858355915 0.9985390022 0.9940489050 0.9910213618 0.5132972236 0.5915081501 0.7847583050 0.5873401048 0.5661162659 0.6595635950 0.9646167085 0.9518772075 0.9728068547 0.9523764781 0.9627000911 0.9358323777 1.0123354291 0.9195143274 1.0307451678 0.4881343394 1.0531148347 0.8419145873 0.9639662078 0.9738782959 0.9828211584 0.9905458954 0.9820041594 0.9725533393 0.9864908930 0.9706393242 0.9656470594 1.0000000158 1.0000001448 0.9999998352 0.6350851239 0.6993140564 0.6263511871 0.9141367268 0.9397618015 0.9396894753 0.9999998950 1.0000000897 0.9999998837 0.9873573866 0.9864815288 0.9725338304 0.9999990323 0.9999852430 1.0000079128 1.0000007226 0.9999795403 1.0000134541 0.8019189772 0.7247400170 0.7097277720 0.9817318561 0.9599156380 0.9813014564 0.6933679795 0.7546307722 0.7282400473 0.7747099372 0.7279378175 0.7544883539 0.7813421726 0.8060106970 0.7492561490 0.9895556346 0.9941525012 0.9979901482 0.7076221132 0.7039955272 0.7634691916 0.9980227345 1.0003613910 0.9999293705 0.9980656901 1.0000363361 0.9985563585 0.9993946484 0.9986345975 0.9996719005 0.9989131725 1.0000997850 0.9989781868 0.9990661227 0.9991303686 0.9969715920 0.7978860600 0.9851763132 0.8302422999 0.4694028056 0.4469636403 0.5138088797 0.5128990398 0.9087471246 0.6812611678 0.8704333920 0.6749071137 0.5865558384 1.0150487135 0.9973219485 0.9728537678 0.7039093210 0.7541395586 0.7630885492 0.4482285737 0.5298593288 0.5022557408 0.6463681275 0.6412306941 0.6899334895 0.6301865988 0.6704252026 0.6237855226 0.9802122477 0.9619909131 0.9800933960 0.5719765954 0.4884645807 0.5525723478 0.9998177958 0.9998136615 1.0000557182 0.8809798829 0.8363321272 0.8481831620 1.0070323506 0.9904309757 0.9911949442 0.6435031814 0.5753309697 0.5916765090 0.9999987516 1.0000023809 1.0000049857 0.9999987155 1.0000037379 1.0000062676 0.4322288180 0.6787437103 0.5177010069 0.8797324870 0.8806987806 0.9185130167 1.0000000956 0.9999997212 1.0000000897 1.0000000672 1.0000000901 0.9999997276 1.0000001785 0.9999996744 1.0000001040 1.0000000330 1.0000001764 0.9999996498 0.9020917760 0.9376346175 0.9084061694 0.9542743119 0.9619222219 0.9716458767 0.9808962216 0.9709809830 0.9617036255 0.9878931940 0.9720811143 0.9801826910 0.9652288625 0.9809414472 0.9720315993 0.9801219937 1.0282792318 1.0370688877 0.5144715033 0.5424153804 0.9708322338 0.5755005509 0.5909197893 0.5316344604 0.5040473063 0.5043647620 0.5439110878 0.9460706255 0.9708417676 0.9395989519 0.5950971836 0.8086510948 0.7778900019 0.6606760721 0.5638536312 0.6302085237 0.7922696697 0.8323878297 0.7625077622 0.7964194139 0.7620150114 0.8312437583 0.9976880001 0.9978585569 1.0034978562 1.0000074691 1.0000002794 0.9999956726 1.0000000083 1.0000000083 0.9999999749 1.0000000052 1.0000000052 0.9999999860 0.8416771837 0.9404586700 0.7662798085 1.0000010963 1.0000135945 0.9999714168 0.8207913761 1.0204465301 1.0880001755 1.0000068709 1.0000066536 0.9999866502 0.9145906443 0.9405672951 0.9139679549 0.9999999333 0.9999999290 1.0000001045 0.8758520892 0.8306402086 0.8774305784 0.7452675053 0.7437031462 0.6826506997 0.9543619591 0.9753910936 0.9529763319 0.9639944920 0.9520052026 0.9747472516 0.7133633286 0.8393901234 0.7633003350 0.9549583301 0.9391636958 0.9393930762 0.6462023689 0.7138537374 0.7534594509 0.6486555160 0.5128363334 0.8083155898 0.9543911474 0.9391085191 0.9625872676 0.9653177931 0.9727032516 0.9531903338 0.4530203313 0.5121135777 0.5316609902 0.4251460437 0.5037431528 0.4565681848 0.6448937292 0.7556960238 0.6199744007 0.7223863789 0.6749461349 0.7900594819 0.3832356261 0.4536742305 0.4116888421 0.9608794693 0.9169591829 0.9513735141 0.6433956859 0.6336527661 0.6762035070 1.0000028914 0.9999967270 1.0000023645 1.0000042665 0.9999964644 1.0000046996 0.7744403743 0.6126982057 0.6051252602 0.7075257478 0.6985655163 0.6486778690 0.5996277112 0.6259128440 0.6544631929 0.9341988281 0.9642597243 0.9425787129 0.9998694422 0.9987678060 0.9993495695 0.9963202552 0.9983315800 0.9993469715 0.9994140317 0.9967887735 0.9968730329 0.9055640790 0.8976634494 0.9469170035 0.7077785829 0.6411888721 0.6614385627 0.6865737782 0.6404218000 0.6237134388 0.6042154780 0.5381031525 0.9146774495 0.5996589050 0.5717272691 0.6259044448 0.9832192951 0.9921251429 0.9922274299 0.7072328186 0.6898084737 0.6412971684 0.6861674536 0.6237620213 0.6704709481 0.8800474808 0.8482265811 0.8810638644 1.0000692685 0.9998162979 0.9999492343 1.0000516938 0.9998958521 0.9999732828 0.9150657603 0.9143931155 0.8841630970 0.8756823189 0.8861880792 0.9180160248 1.0196595662 0.9914280649 1.0188004261 0.9707500152 1.0206435553 0.9866954975 0.3870436671 0.3958795588 0.4673881691 0.4062651208 0.4685070650 0.3949283115 0.9770420223 1.0497885782 0.8341462326 0.9257482999 0.8314528163 1.0530857723 0.9997988467 1.0000696360 0.9998621727 0.9074274313 0.9173964000 0.8808025278 0.7621105418 0.7558277967 0.7209524632 0.9979422187 0.9988449217 1.0003196605 0.9989910993 0.9998075950 0.9998899738 0.9982589647 0.9985093105 0.9966196381 0.5167248128 0.6319641854 0.4848803777 0.5159361573 0.6507953253 0.6328960804 0.9928083562 0.9962002252 0.9977753133 0.9987904331 0.9974445079 0.9960816834 0.5621830636 0.5350316999 0.5875287435 0.5486944492 0.5712130951 0.5172874576 0.9630032324 0.9821557114 0.9774436098 0.9999974560 1.0000035534 1.0000013653 0.8233037594 1.0861875726 0.8871392948 0.8298432798 0.8857849055 0.8515329925 0.7557765914 0.8091732861 0.8224222211 1.0000000955 1.0000016803 1.0000009702 0.9999999010 1.0000018729 1.0000021109 0.9988449741 1.0002315570 0.9990305237 1.0000011440 1.0000009018 0.9999984395 1.0000015053 1.0000014647 0.9999980947 1.0000000124 0.9999999791 0.9999999784 1.0000000459 0.9999999251 0.9999999263 0.9999996628 1.0000047665 1.0000005276 1.0000004238 1.0000058067 0.9999995362 0.5956961849 0.6505823504 0.6323099917 0.6938945748 0.6324772749 0.6504237305 1.0012374513 0.9981914492 0.9984340909 0.9999222773 1.0000482477 0.9999471352 0.5751779228 0.5318818043 0.5125309783 0.5038995741 0.4565967748 0.5042943568 0.9906554577 1.0383951041 0.9811270644 0.5620666712 0.5118764842 0.5350592733 0.5485811389 0.5172937659 0.4999062067 1.0000034009 0.9999806364 1.0000003414 0.9999912332 0.9999495585 1.0000139834 0.9648259459 0.9352018714 0.9342393273 0.8974193231 0.9341831544 0.9367597832 0.9911467782 0.9731213119 0.9816287188 0.9855388083 0.9945729732 0.9816822531 0.9937887515 0.9880514205 0.9831129322 0.9656871605 0.9838143383 0.9804077879 0.9539423479 0.9712722402 0.9736471389 0.9631008481 0.9764352147 0.9428280730 0.9999985038 0.9999780757 1.0000193120 0.9876655496 1.0297701689 1.0500347243 0.9484028441 0.9665387913 0.9693260989 0.9465098241 0.9800053632 0.9695203655 0.9072802744 0.8757512698 0.9152523999 0.9695397885 1.0056978222 0.9318587867 0.9969721111 1.0048693372 1.0076973094 1.0000014349 0.9999978696 1.0000012560 0.8794691721 0.9169048857 0.8756439732 0.9927375042 1.0015202940 0.9971310598 1.0000030116 1.0000112127 0.9999806934 0.8401886357 0.8356580094 0.8769193652 0.6092778216 0.6637553478 0.5243134991 0.9859728558 0.9948140268 0.9894605007 0.6317877505 0.5733188473 0.3896535047 0.7210309948 0.7561334262 0.6986649835 0.8796566674 0.9170752091 0.9157370288 0.9968044734 0.9907240861 0.9933418479 0.4943464667 0.5347930525 0.4673103954 0.7288273931 0.9127281470 0.5413019068 0.9972956817 0.9962548361 0.9994913543 0.9989715251 0.9979023475 0.9997582835 0.6329990847 0.3873770674 0.4143016174 0.5970387996 0.5526151637 0.5301799638 0.6114902042 0.4802374881 0.6348985829 0.9917228297 0.9972218529 0.9918193379 1.0000007193 1.0000202986 0.9999714938 0.7919657556 0.7537897308 0.8108398646 0.8565822319 1.0703548381 0.9817093875 1.0000028167 1.0000015586 0.9999725982 0.6742753899 0.6967572628 0.6441902720 0.7225894563 0.6966124603 0.6742479051 0.9999481956 1.0000250660 0.9999814661 0.9999223836 1.0000670427 0.9999497545 0.6936523408 0.7364716062 0.7537201123 0.7856504299 0.7533518777 0.7363546178 0.6934840072 0.6779503444 0.6327096018 0.6865762766 0.7202182818 0.6666338427 0.9047851675 0.8741929692 1.0021465931 0.9648954981 0.9976888978 0.8776623674 0.6866825305 0.6666477438 0.6400971834 1.0032910527 1.0327306084 1.0677475454 1.0000086350 1.0000091365 1.0000015429 1.0000082319 1.0000133022 1.0000039009 0.8476445303 0.8942094438 1.0183741151 0.4542678811 0.4711281350 0.5328819972 0.5277931093 0.5442125256 0.6434247904 0.9999502335 0.9990899354 0.9999164891 0.9989079796 0.9978746122 0.9996354764 0.6204429437 0.6317806387 0.6836413970 0.9798978397 0.9897614690 0.9895443969 0.9947798849 0.9891790036 0.9893555138 0.4496558809 0.4484427917 0.5018084006 0.9969513427 0.9932955579 0.9931917884 0.9869555538 0.9934568195 0.9935886865 1.0000010013 1.0000013787 1.0000010696 0.9970575720 1.0049357417 0.9972882087 0.9090289879 0.7150604850 0.7538597974 1.0000076498 1.0000028466 0.9999860552 1.0581100075 1.1215173230 0.8274675797 0.6353512213 0.4130386886 0.4882170311 0.8933127786 0.9252876839 0.9347772082 0.5823418055 0.9748553159 1.1181060427 0.8193340104 0.6754534093 0.8773379518 1.0000093908 0.9999978833 1.0000105863 1.0000058849 0.9999963150 1.0000156425 0.7383029703 0.9810634433 0.8908357249 0.9706499413 0.9771524679 0.8929667282 1.0203991694 1.0164913676 1.0463448196 0.9999253088 0.9999736035 1.0000309802 0.8000766000 0.8488149859 0.8239218716 0.8702562189 0.8218135579 0.8465690181 0.9693517099 0.9791410113 0.9572093862 0.6722531520 0.7317173136 0.7166453217 1.0000000004 1.0000000002 0.9999999995 1.0000000006 0.9999999994 0.9999999991 1.0035774712 0.9519441963 1.0243572257 1.0000000086 0.9999999737 1.0000000086 1.0000001923 1.0000004763 1.0000008118 1.0000001527 1.0000010999 1.0000002962 0.6896367750 1.1101667363 0.7525469210 0.9992450015 1.0000098208 0.9998106359 0.5151893380 1.1865884988 0.5416643570 1.0000001740 0.9999999655 0.9999999720 1.0000001544 0.9999999705 0.9999999680 1.0000002399 0.9999999568 0.9999999760 1.0000001395 0.9999999562 0.9999999640 0.6923824603 0.6832321685 0.6321430569 0.9970793672 1.0076200197 1.0031954664 1.0000002727 1.0000002381 1.0000000393 0.9496266279 0.9453305903 0.9167412549 1.0000001923 1.0000000072 1.0000001428 1.0000001271 0.9999999778 1.0000002932 0.9944997676 0.9814812601 0.9754648840 0.9829536033 0.9937443629 0.9765459331 0.9880355277 0.9777078492 0.9930396208 0.6571793531 0.8102390726 0.5101927039 0.9931491865 0.9879850797 0.9944568459 0.9940920590 0.9957296468 0.9895596728 0.7794165829 0.9917673310 0.7516393817 0.9100286828 0.7524052971 0.9923593570 0.7731032900 0.8013097211 0.8242280998 0.9998631834 1.0000436148 0.9998332545 1.0000363839 0.9998515012 1.0000049002 0.9656794704 0.9409291031 0.9517817827 0.9247492378 0.9534705446 0.9356603851 0.3728016433 0.4952670590 0.5126683024 0.9484915808 1.0236856266 1.0472751533 0.6056364244 0.9125394156 0.9401071100 0.8428257557 0.8235963169 0.8013830146 0.7559837649 0.8224742246 0.7646523666 0.6363937309 0.6617357426 0.6139093743 0.6135909193 0.5958076606 0.6405951562 1.0557568208 1.0264070528 0.9906875962 0.6364513669 0.6138778183 0.5878310789 0.6136041462 0.5696674558 0.5957888678 0.9998243402 0.9999891411 1.0000161591 1.0035919615 1.0143638792 1.0333028177 0.7869902768 0.7694097807 0.8605793918 0.9998960061 0.9987326846 0.9991971234 0.4878893780 0.4173028223 0.5224990392 0.7517558731 0.4192288411 0.6249081624 0.6898271083 0.7472998600 0.7192510853 0.7682196682 0.7087397909 0.7425771335 0.9230718320 0.9151720599 0.9411543530 0.9959067261 0.9738226733 0.9765821750 0.9042235556 0.8607093660 0.8968949553 0.8104852115 0.8363862863 0.7851264172 0.8495421183 0.8358047102 0.8104874384 0.9433849316 0.8441892458 0.8699343392 0.5848187179 0.9474511614 0.7808057889 1.000001