<?xml version="1.0"?>
<VTKFile type="UnstructuredGrid" version="0.1" byte_order="LittleEndian">
<UnstructuredGrid>
<Piece NumberOfPoints="3142" NumberOfCells="1054">
<Points>
<DataArray type="Float64" NumberOfComponents="3" format="ascii">
0.02576622439977887 0.024532886826226379 0 0 0 0 0.049999999999899652 0 0 0.02576622439977887 0.024532886826226379 0 0 0 0 0 0.050000000000207989 0 0.02576622439977887 0.024532886826226379 0 0.049999999999899652 0 0 0.053064897599215843 0.048131547304697528 0 0.02576622439977887 0.024532886826226379 0 0.053064897599215843 0.048131547304697528 0 0 0.050000000000207989 0 0 0.050000000000207989 0 0 0.10000000000041601 0 0.044310582753132287 0.101412518374475 0 0 0.10000000000041601 0 0.044310582753132287 0.101412518374475 0 0 0.15000000000062411 0 0.053064897599215843 0.048131547304697528 0 0.044310582753132287 0.101412518374475 0 0.083411279318303222 0.089699755330707398 0 0.053064897599215843 0.048131547304697528 0 0 0.050000000000207989 0 0.044310582753132287 0.101412518374475 0 0.044310582753132287 0.101412518374475 0 0.083411279318303222 0.089699755330707398 0 0.065374659239632718 0.1448908038746782 0 0.083411279318303222 0.089699755330707398 0 0.065374659239632718 0.1448908038746782 0 0.1053400320299198 0.12877248826361379 0 0.083411279318303222 0.089699755330707398 0 0.12372429750337779 0.095814237875728972 0 0.1053400320299198 0.12877248826361379 0 0.12372429750337779 0.095814237875728972 0 0.1053400320299198 0.12877248826361379 0 0.14332333627550789 0.14578431753966009 0 0.12372429750337779 0.095814237875728972 0 0.10266856499169109 0.044518360900210059 0 0.14618258501891079 0.062070108745602003 0 0.083411279318303222 0.089699755330707398 0 0.12372429750337779 0.095814237875728972 0 0.10266856499169109 0.044518360900210059 0 0.10266856499169109 0.044518360900210059 0 0.099999999999814668 0 0 0.14999999999970359 0 0 0.049999999999899652 0 0 0.053064897599215843 0.048131547304697528 0 0.099999999999814668 0 0 0.053064897599215843 0.048131547304697528 0 0.10266856499169109 0.044518360900210059 0 0.099999999999814668 0 0 0.053064897599215843 0.048131547304697528 0 0.083411279318303222 0.089699755330707398 0 0.10266856499169109 0.044518360900210059 0 0.044081577119474857 0.2271058242433576 0 0 0.20000000000083221 0 0 0.25000000000104028 0 0.044081577119474857 0.2271058242433576 0 0 0.20000000000083221 0 0.038512288486115001 0.1844147282893184 0 0.044081577119474857 0.2271058242433576 0 0.038512288486115001 0.1844147282893184 0 0.083105206071467416 0.20007701332709979 0 0.038512288486115001 0.1844147282893184 0 0 0.15000000000062411 0 0.065374659239632718 0.1448908038746782 0 0.044310582753132287 0.101412518374475 0 0 0.15000000000062411 0 0.065374659239632718 0.1448908038746782 0 0.038512288486115001 0.1844147282893184 0 0.065374659239632718 0.1448908038746782 0 0.083105206071467416 0.20007701332709979 0 0 0.20000000000083221 0 0.038512288486115001 0.1844147282893184 0 0 0.15000000000062411 0 0.065374659239632718 0.1448908038746782 0 0.1053400320299198 0.12877248826361379 0 0.106902708054812 0.16453234188234539 0 0.1053400320299198 0.12877248826361379 0 0.106902708054812 0.16453234188234539 0 0.14332333627550789 0.14578431753966009 0 0.065374659239632718 0.1448908038746782 0 0.106902708054812 0.16453234188234539 0 0.083105206071467416 0.20007701332709979 0 0.083105206071467416 0.20007701332709979 0 0.095326043202144745 0.24554465089224409 0 0.13737030665753211 0.20313708640667491 0 0.106902708054812 0.16453234188234539 0 0.083105206071467416 0.20007701332709979 0 0.13737030665753211 0.20313708640667491 0 0.044081577119474857 0.2271058242433576 0 0.083105206071467416 0.20007701332709979 0 0.095326043202144745 0.24554465089224409 0 0.044081577119474857 0.2271058242433576 0 0.095326043202144745 0.24554465089224409 0 0.049706944316556423 0.27522722923869108 0 0.095326043202144745 0.24554465089224409 0 0.14377654328998779 0.2442024734791064 0 0.13737030665753211 0.20313708640667491 0 0.17933913398461551 0.2350063570234002 0 0.14377654328998779 0.2442024734791064 0 0.13737030665753211 0.20313708640667491 0 0.17933913398461551 0.2350063570234002 0 0.13737030665753211 0.20313708640667491 0 0.18124454140915969 0.18790916706335251 0 0.18124454140915969 0.18790916706335251 0 0.14332333627550789 0.14578431753966009 0 0.18652628422869419 0.14162325200928061 0 0.106902708054812 0.16453234188234539 0 0.13737030665753211 0.20313708640667491 0 0.14332333627550789 0.14578431753966009 0 0.13737030665753211 0.20313708640667491 0 0.18124454140915969 0.18790916706335251 0 0.14332333627550789 0.14578431753966009 0 0.14332333627550789 0.14578431753966009 0 0.18652628422869419 0.14162325200928061 0 0.16141998738593399 0.10404039647458049 0 0.18652628422869419 0.14162325200928061 0 0.22985637510995899 0.1298347970200906 0 0.2185883431182947 0.18019736283949719 0 0.22985637510995899 0.1298347970200906 0 0.2185883431182947 0.18019736283949719 0 0.25557216766470708 0.15874861286892261 0 0.2185883431182947 0.18019736283949719 0 0.25557216766470708 0.15874861286892261 0 0.26429849586623999 0.19346700179430079 0 0.18124454140915969 0.18790916706335251 0 0.18652628422869419 0.14162325200928061 0 0.2185883431182947 0.18019736283949719 0 0.17933913398461551 0.2350063570234002 0 0.18124454140915969 0.18790916706335251 0 0.224700362040408 0.22206622194729711 0 0.18124454140915969 0.18790916706335251 0 0.2185883431182947 0.18019736283949719 0 0.224700362040408 0.22206622194729711 0 0.2185883431182947 0.18019736283949719 0 0.224700362040408 0.22206622194729711 0 0.26429849586623999 0.19346700179430079 0 0.224700362040408 0.22206622194729711 0 0.25195515620380449 0.25883339815888678 0 0.21049769590865089 0.26857363548218488 0 0.17933913398461551 0.2350063570234002 0 0.224700362040408 0.22206622194729711 0 0.21049769590865089 0.26857363548218488 0 0.184418230509967 0.038773194583122873 0 0.14999999999970359 0 0 0.14618258501891079 0.062070108745602003 0 0.184418230509967 0.038773194583122873 0 0.14618258501891079 0.062070108745602003 0 0.19922788606653311 0.085920220746880993 0 0.184418230509967 0.038773194583122873 0 0.14999999999970359 0 0 0.19999999999955789 0 0 0.10266856499169109 0.044518360900210059 0 0.14999999999970359 0 0 0.14618258501891079 0.062070108745602003 0 0.12372429750337779 0.095814237875728972 0 0.14618258501891079 0.062070108745602003 0 0.16141998738593399 0.10404039647458049 0 0.12372429750337779 0.095814237875728972 0 0.14332333627550789 0.14578431753966009 0 0.16141998738593399 0.10404039647458049 0 0.18652628422869419 0.14162325200928061 0 0.16141998738593399 0.10404039647458049 0 0.19922788606653311 0.085920220746880993 0 0.14618258501891079 0.062070108745602003 0 0.16141998738593399 0.10404039647458049 0 0.19922788606653311 0.085920220746880993 0 0.18652628422869419 0.14162325200928061 0 0.22985637510995899 0.1298347970200906 0 0.19922788606653311 0.085920220746880993 0 0.22985637510995899 0.1298347970200906 0 0.19922788606653311 0.085920220746880993 0 0.24218496799700481 0.089025544070598317 0 0.22985637510995899 0.1298347970200906 0 0.24218496799700481 0.089025544070598317 0 0.27474541102162192 0.11822029332053539 0 0.19922788606653311 0.085920220746880993 0 0.24218496799700481 0.089025544070598317 0 0.22668068146512929 0.045875643423131329 0 0.24218496799700481 0.089025544070598317 0 0.22668068146512929 0.045875643423131329 0 0.27499999999933927 0.060310814194988557 0 0.184418230509967 0.038773194583122873 0 0.19922788606653311 0.085920220746880993 0 0.22668068146512929 0.045875643423131329 0 0.184418230509967 0.038773194583122873 0 0.22668068146512929 0.045875643423131329 0 0.19999999999955789 0 0 0.22668068146512929 0.045875643423131329 0 0.19999999999955789 0 0 0.24999999999941211 0 0 0.24999999999941211 0 0 0.27499999999933927 0.060310814194988557 0 0.29999999999926641 0 0 0.22668068146512929 0.045875643423131329 0 0.24999999999941211 0 0 0.27499999999933927 0.060310814194988557 0 0.27499999999933927 0.060310814194988557 0 0.29999999999926641 0 0 0.32541448401678508 0.046215317981507749 0 0.29999999999926641 0 0 0.32541448401678508 0.046215317981507749 0 0.34999999999912063 0 0 0.32541448401678508 0.046215317981507749 0 0.3615861437013822 0.03582617922508851 0 0.35312867752657662 0.084946736076730367 0 0.3615861437013822 0.03582617922508851 0 0.35312867752657662 0.084946736076730367 0 0.39591832466117061 0.056982757562006353 0 0.32541448401678508 0.046215317981507749 0 0.3615861437013822 0.03582617922508851 0 0.34999999999912063 0 0 0.3615861437013822 0.03582617922508851 0 0.34999999999912063 0 0 0.3999999999989749 0 0 0.35312867752657662 0.084946736076730367 0 0.36246644853392812 0.1399454205365751 0 0.39823268594401579 0.1116623613130045 0 0.35312867752657662 0.084946736076730367 0 0.32215584939770009 0.1218492143506909 0 0.36246644853392812 0.1399454205365751 0 0.32541448401678508 0.046215317981507749 0 0.35312867752657662 0.084946736076730367 0 0.3096713403101819 0.085471541595262421 0 0.35312867752657662 0.084946736076730367 0 0.32215584939770009 0.1218492143506909 0 0.3096713403101819 0.085471541595262421 0 0.32215584939770009 0.1218492143506909 0 0.3096713403101819 0.085471541595262421 0 0.27474541102162192 0.11822029332053539 0 0.27499999999933927 0.060310814194988557 0 0.32541448401678508 0.046215317981507749 0 0.3096713403101819 0.085471541595262421 0 0.27499999999933927 0.060310814194988557 0 0.3096713403101819 0.085471541595262421 0 0.27474541102162192 0.11822029332053539 0 0.24218496799700481 0.089025544070598317 0 0.27499999999933927 0.060310814194988557 0 0.27474541102162192 0.11822029332053539 0 0.22985637510995899 0.1298347970200906 0 0.27474541102162192 0.11822029332053539 0 0.25557216766470708 0.15874861286892261 0 0.27474541102162192 0.11822029332053539 0 0.25557216766470708 0.15874861286892261 0 0.29336099386129338 0.15892013001050981 0 0.25557216766470708 0.15874861286892261 0 0.29336099386129338 0.15892013001050981 0 0.26429849586623999 0.19346700179430079 
[...]
<PointData Scalars="tracer_conc,region_id," Vectors="" Tensors="">
<DataArray type="Float64" Name="tracer_conc" format="ascii">
0.07386526581802394 0.064852449294318923 0.083298418026254303 0.07370194735731693 0.064946517355880917 0.064511681229170573 0.073860020115100608 0.083824515270573718 0.084621571498270473 0.073892472575659757 0.084003520811332485 0.064392417268300417 0.064347891961448814 0.064386459053455053 0.080042488990303015 0.06608298239019432 0.08155088290340734 0.058738962254289408 0.084497896553789573 0.080814573365772441 0.09751577840391068 0.084031687610878508 0.064090959315705728 0.080557088235762436 0.080753101779606637 0.098459867976291304 0.087285075345315377 0.098846743082998206 0.087200902282161236 0.1095618561981728 0.09781222710273535 0.11854099836170232 0.10857990825558288 0.11901945729462564 0.10856051852374954 0.12957451815563836 0.1189916224442161 0.10836271915635048 0.13259890529624327 0.097825058683896626 0.11858430452136301 0.10835703419210845 0.10842589134925955 0.10754745130756144 0.13526160932240866 0.083912079437781062 0.084732682196520429 0.10635746066290717 0.084357772277412091 0.1079762449591246 0.10715398655795698 0.084586679019900191 0.097767475287822453 0.10778656128564161 0.21569068277063583 0.042782567709195495 0.34621958505095191 0.20196157037308077 0.067026033938384508 0.015972421590133325 0.20496712391894692 0.013875534391473781 0.07219204944001921 0.055740424785596224 0.051844015303622974 0.074497393859101771 0.082244544210644144 0.058149071205785663 0.085267194190777662 0.055622993821365721 0.075401219795786942 0.06811042159857511 0.038046128729024131 0.043192784066108277 0.051023082830712149 0.080848093671031324 0.11323468740998641 0.082528726504096928 0.11389014274386022 0.082406551245662304 0.11818820987615898 0.075606557000571326 0.084885293608183893 0.068376762158264826 0.069987554819218298 0.40437131467789922 0.13040004418659529 0.086740609522168721 0.069749958498371512 0.094019099948022489 0.23142793172357573 0.073929115641375068 0.40040591322041896 0.22903971981694909 0.45847732475394792 0.63345344877577536 0.407322473691758 0.44284174608964388 0.13135081253882974 0.38361132581879004 0.44382498490748279 0.12936350993331575 0.37137737279413996 0.1495334987994997 0.090103856427103779 0.096303828875858019 0.12731955512846341 0.15972899943056312 0.086732554514926521 0.094787598161945194 0.10884547870365406 0.094897970229126535 0.094319865096960553 0.10916974438011232 0.12978923851703256 0.15815685040346913 0.14213908119348584 0.15346628817587851 0.1957603169508278 0.14521072306932281 0.19659956590343172 0.1449445783312745 0.19707523226208221 0.14140792020249351 0.19414467615261907 0.16418169776752584 0.09595415719147217 0.16053798708610742 0.13575887996486846 0.37433025296281275 0.08832834342089016 0.31079221445351651 0.1036937552656538 0.091255335206198246 0.30838297372501255 0.090663231326015351 0.3101271702722172 0.16156850307412787 0.32030458015429597 0.75378802354771168 0.81755746957501996 0.41532257193391592 0.32104567435462927 0.81677522473264741 0.15891637643116022 0.13666188191935319 0.1333327674900644 0.15962573311267936 0.13279831154234228 0.16876791321001539 0.15939562083086717 0.13641026859147154 0.17128087853434107 0.10798373635190993 0.13619212031620115 0.13300450184637125 0.11895282340057052 0.13309575333809953 0.14178627433057828 0.11906582388621668 0.12987024302062133 0.14166541647339545 0.15861256373526608 0.14205886582540456 0.16910092857705294 0.13316160710407984 0.14214638477269001 0.16804675505458294 0.15863856507358112 0.19369010106861836 0.16952528020696794 0.19400861586955326 0.16855272445130007 0.20345840330810891 0.19426326559437129 0.20399570745232723 0.23400758466822982 0.16916451899193349 0.2042093060034372 0.19300753406507376 0.20477607196455405 0.19316314607227172 0.2358215831294847 0.15988207021019613 0.16941723744936327 0.19221095443070996 0.15957459887897155 0.19211283312016436 0.17201513658206624 0.19271570588904133 0.17193143078767106 0.21351509784690229 0.21442423204462258 0.23710376651616519 0.2635842129631718 0.19272215985663804 0.21441799418249355 0.23634048292422563 0.23706129313343513 0.26457335484689687 0.29098597982336138 0.26456297676447504 0.29203979935827651 0.32194933086763605 0.29202992655676696 0.33682437778235491 0.32317425082419104 0.33725238497651971 0.3233107970753723 0.3813329857338697 0.29202142076188242 0.33625511490494087 0.3229515516563165 0.33657504865239773 0.32328387360879685 0.3884747098997402 0.32360319104471597 0.32958799079090267 0.38022362566143331 0.32329638311476661 0.28282979146498793 0.3291819166454224 0.29210912386517757 0.32236617290823971 0.27208033077938143 0.32242713524118644 0.28312087080040482 0.27263121388340344 0.28244851819170558 0.27227284022892662 0.23292136967004845 0.23660660413772561 0.29130428172773326 0.27189437933144628 0.23720668123943911 0.2714708424398049 0.23370668310715972 0.20447592657771405 0.23688668821320535 0.23348532122413312 0.19208528155267229 0.23799024336222652 0.20009807599699633 0.23879106019285476 0.19992077339870282 0.23559116477077749 0.19457086462706075 0.2286328098991432 0.16468496272320166 0.22956646306348569 0.20563294598325729 0.26260481764782712 0.2293529734769281 0.16437417534451962 0.20481683413468876 0.28717339562827948 0.23900765344586206 0.23603633510679425 0.32515746957086517 0.47000532064530343 0.74418161787409287 0.33600460521937592 0.45053104918078224 0.16097007250011192 0.45170124632089481 0.160038503563003 0.24446867607996389 0.47733321068417789 0.63073484368712507 0.9124662352262114 0.44709348589376674 0.55754020246467184 0.25080309002822149 0.55757504253006629 0.25108410549476617 0.21507112353587307 0.55668357408708868 0.21619386077353581 0.39916484279744557 0.61492341919131022 0.44785438690712387 0.97573778392292587 0.2886768284816873 0.23470408840533927 0.27252942194268487 0.28909450743173598 0.2728515366692883 0.3301633063556354 0.20697067718405618 0.26230343369008924 0.24966985273302228 0.26777717368576753 0.33253299533670688 0.33805662740414744 0.26687400545505796 0.26774383171902849 0.33211529255255307 0.32670564083415687 0.36459157199075148 0.38277563924336222 0.35254859536595973 0.35117394027042176 0.45210014953584571 0.36475484983310252 0.44433612982716364 0.38324662286628552 0.45158032697004563 0.80514715493943634 0.97090790039224684 0.28970200000182827 0.30991872728285125 0.36753986455669729 0.31077411038487818 0.36728324648865524 0.33130776354047348 0.45490173220254959 0.30439319204110049 0.77745356198803195 0.30774327168764698 0.54295752410035081 0.77387198768827459 0.37321217626496656 0.49452587783784963 0.38976753721135349 0.45492994185274216 0.55200090879598729 0.49260372006225922 0.49321407629910446 0.39150069833351137 0.41251728063795678 0.56362818123706326 0.75204360344527632 0.37374228502711726 0.44161189253116395 0.46079844482549742 0.50675666173283385 0.35124546062025341 0.45271264439473247 0.44053725666882221 0.46070055568810536 0.50728387415477594 0.5506510920187162 0.43794007794121848 0.50427806201661762 0.50442850820032881 0.50449436769347822 0.50502151833225783 0.55405899859069352 0.43865942668608315 0.503767425011167 0.4409488668564373 0.50439130860053605 0.4972789326535943 0.43900518815910167 0.50473336788927758 0.49751651802897706 0.58552469529821827 0.49530776784852759 0.54797758304249278 0.58545082035659524 0.49538892920958183 0.54731951872092743 0.46561626558652863 0.49499545679898421 0.46559939050440902 0.4350055669533186 0.49640563064344684 0.43694756137806384 0.43983728474294553 0.4349398867629945 0.3900304359247857 0.38236258340944679 0.43663278517181031 0.38132051614702006 0.43946654044646094 0.46482383311247488 0.43486920648666416 0.39006875843537547 0.33620321440790851 0.38962276500131532 0.38210464098675134 0.32218901140606715 0.38207720145820229 0.37911878755616896 0.43827255012809774 0.37812266577997594 0.44053093274338478 0.38259599262174271 0.37958551779602717 0.43933499146450872 0.29389677129777181 0.30991775598788157 0.4206384024463703 0.31479795351897238 0.394574510552823 0.2401771532430749 0.35847432113674854 0.48735297104706232 1.0196028113396089 0.32436865063084497 0.38866008617082315 0.42491907804004575 0.37419753645916493 0.44168987571411844 0.37075225611539514 0.3743236770565701 0.44214426012366886 0.42958491218896383 0.44292417327343087 0.42964448652712695 0.47453172976243374 0.43316543874174013 0.47314232819691199 0.51698139283376321 0.44542759516911551 0.47682497619346104 0.53330614792771014 0.47666063252366037 0.53419756136887797 0.51359260422872655 0.53178263486235655 0.36615562002097723 0.5002659222293121 0.42857756088071669 0.53156466005507175 0.36508118636731601 0.29451224298686945 0.42089966178411448 0.35937222684579612 0.36605250209305856 0.33535372050951873 0.84139358028374012 0.36324801144822211 0.81012984267191612 0.37185401356836806 0.94127409213354518 0.99643408559703728 1.0276689861015513 0.94071855182256292 0.99831517687084925 0.93375353515821213 1.0050480414352454 0.92686630150157567 1.032497226477592 0.33914032317579795 0.82242081066216632 0.83581453543287465 0.80843148499913875 0.98320392018721559 1.1050096144236983 0.59677103336034309 0.78973593018656452 1.023176400411314 1.0198994425158163 1.0413809725256946 1.0692057979179643 1.0198568210094836 1.0417512039588515 1.0279779781617631 0.59242139894415269 1.0278571420817288 0.78290952164387861 1.03633042262229 0.84637823057816541 1.0971162468142761 0.84364961128374294 1.1011183010643559 0.92632441780824404 1.0912437059209805 0.95188855045358978 1.076706523107579 0.36221892499572639 0.86757689830734741 1.0142736922541435 0.92564778190076469 1.0346748687813403 0.94706010930956519 1.0371408678519178 0.94468520920678833 1.0088861011432491 0.97266156655601888 1.0297947062790955 0.8436430125224581 0.48242994614150625 1.0252766618494706 0.76147232901177253 1.0322374628637634 0.98382513136314542 0.84076320250498626 0.98607118352626399 0.83952889297803546 0.87787318178481644 0.64986353983246525 0.96852321851165912 1.0470815312842867 0.95109381633860957 1.0785951337475934 0.9921279289474918 1.0694315176480538 1.0343147316719057 1.0171721063589496 1.034753448118064 1.0178062286272607 1.0161195166529402 0.6472030435603312 1.0503029717123313 0.88642522045634087 1.0331252967313787 0.93534378762028014 1.0397835712774559 0.93497214882265622 1.0419985714273401 0.97730864284465913 0.92943509535294544 0.78926657357998065 1.0080741660861623 0.47611008651132825 0.91397740712665909 0.74123563621569055 0.79352938364829739 0.94156315505566568 0.46323447273280943 1.005475943585308 0.87321558243227571 1.0437375545915013 0.87234542879689081 1.0464221720183173 0.87688950732626292 1.0476041322492344 0.89889571112662103 1.0268460835892197 0.93152586596051479 0.94135482392740277 0.48523588438805981 0.94208355990357651 0.4855355373099548 0.60680479582526992 0.3456016743536704 0.12795404286436821 0.18356521340382714 0.17545823611412331 0.21030858093510479 0.12973729418577426 0.34677162771595588 0.12781641661167384 0.18661496611013134 0.75085694907348488 0.44989368086337655 0.17753689027151931 0.74994903895784537 0.17865525989357839 0.21146373053089276 0.19562938480082281 0.23529523220712339 0.28367924820810753 0.20894348621585312 0.19559034045907439 0.2827548495404954 0.27874945801645057 0.23600576698853259 0.28338047771538361 0.39462044187947226 0.23963598858915558 0.28429855560902495 0.44405412472708 0.74831518666250274 0.21260098642388542 0.37382859586208567 0.32252501418650353 0.3703740989930584 0.38220946620618707 0.32980955447583826 0.30103240563535028 0.32412772748240481 0.38776905383207577 0.29217163967503501 0.21637854750616686 0.29441253152783109 0.28564815247907593 0.32389793070812073 0.27772860438788705 0.30475499319994365 0.32915389179059457 0.3010616382049508 0.27739576273696898 0.27919399909254411 0.22327024950712832 0.24967766024714655 0.21669532513615633 0.28447276230820123 0.21592939424728175 0.22345230157173113 0.20679033399246063 0.24894225590889121 0.21316455152554903 0.16706035509045714 0.17089886099604965 0.17368098521890263 0.16617209334571781 0.11269398872616847 0.20970197026200257 0.16153545625504018 0.1299383229456044 0.21896547151227283 0.21403692935413987 0.17059816747271034 0.39626857438569235 0.11453815564702073 0.57019669292161435 0.020285163016506642 0.33108558811922206 0.53478564823227692 0.11823883135470302 0.016415609848405954 0.53820673920932927 0.16117702855368385 0.12936078651100541 0.10911020171249933 0.1085950969845073 0.067471779471268298 0.13305588700839879 0.021488920962423583 0.32685565255977339 0.0016867917136871172 0.32399671332786673 0.0063409958089142111 0.28407594382235835 0.068148207024270546 0.13220131356299322 0.11013199048772648 0.13467237904608786 0.10939427026500943 0.1231323546887277 0.13520495611779668 0.12318901966893048 0.15157957707790451 0.17133186646555651 0.13512504898674846 0.15224266099406433 0.17294145698328134 0.11292490800192126 0.12749812237752062 0.78921982031885785 0.80218712283858506 1.0095961440031622 0.81947035389188427 1.0176419119699438 0.99950727431718112 0.81988167721328897 1.0003542954620572 0.82280059142275164 0.95128935580688678 0.92295752011970211 0.78573624665623498 1.0300985845971491 0.94130280331741445 0.90087048377798684 0.89878716173144724 1.0280034785888474 0.90158902089300386 0.93104104635954843 0.94645367177124418 0.63430735258693449 0.94748284136934946 0.63415700501274841 0.75060741706398459 0.306232652049934 0.58538679862395204 0.77149978611202574 0.33773048104534298 0.77578583935673429 0.87182900467894753 0.33995623994257279 0.86727213346878851 0.28177448509450698 0.95336107151724303 0.78530754569162498 0.80752584833773067 0.98543189926936403 0.87197195751032208 0.87576490685410568 0.8844319372397661 0.87482021376132335 0.78641009715846311 0.48093543074388939 0.86186953720540505 0.72221230568441552 0.43010740379489509 0.81781886249605851 0.86356101446790001 0.43110832626362805 0.47950625695308363 0.86236489901511715 0.49486352892357227 0.85083068209023993 0.60560108314538441 0.43635748995815615 0.4822017137324629 0.72019289411872212 0.49232382322412116 0.75741082228779077 0.85296575681338183 0.88511887462716332 0.78665579115727424 0.78213698909705454 0.84245629341173489 0.75658524943117644 0.654979680521241 0.82992921805362641 0.69457099632809083 0.69796596655401133 0.87841714478973743 0.82962791820381443 0.6942469284427899 0.86459410981851037 0.62514522223683666 0.2856638858292237 0.62023251728146811 0.28793803785969668 0.2541281759721391 0.65066286780910887 0.76143460332810819 0.27583899978491144 0.50145641613189351 0.75672332601411463 0.28105150542203339 0.56642406779537036 0.7554239558246949 0.68021458454606631 0.75570239456741739 0.62609081609925132 0.65611830062017262 0.6652357802278337 0.39905832348058923 0.64163459624800834 0.23308996466741611 0.36776892538158557 0.62895297007048512 0.10020333941742561 0.10856271201630804 0.061868429988143958 0.091658805901498733 0.10932932369586727 0.12235510081632388 0.067889001535576352 0.10915516461314151 0.053324056118575623 0.018594253209682603 0.25195123915097345 -0.018022054694314601 0.25097408540186716 -0.01554264113632145 0.23338448443505244 -0.013503062979464513 0.0082165456789883608 0.229466628657508 0.5010377064229945 0.26592057457022539 0.10840332606835007 0.011641767939241709 0.22612347159125917 0.12716350791276207 0.010665562018022183 0.088719892874604661 0.0012639369255259786 0.0086266167093741637 0.044627981560598017 0.07899318975627917 0.096338601756925782 0.070196856337329902 0.069510226618376844 0.099502645745064192 0.062090846051742699 0.065948341303476904 0.046625960138557104 0.0079041957089804188 0.079867856319100927 0.053980987486384857 0.072149507989005546 0.070189195352516609 0.092475144650470159 0.064875014263099606 0.080482727572157686 0.064894839139234523 0.063914389400812954 0.079992820825121255 0.06407368039148216 0.080698823394824912 0.077474867319442239 0.081012257721537737 0.096095114893413103 0.07763645875282367 0.093373315725413186 0.080637236851970703 0.099229003550755021 0.093454486480770982 0.099612885176581178 0.11964715848577126 0.080897312632771265 0.099758221588453141 0.096616815847411358 0.10008931730614049 0.11626658748340168 0.09681064531923865 0.099940754339444618 0.11905779576467113 0.11673977330609252 0.11057695561733598 0.11694648278298851 0.096900299731972339 0.10773989564019792 0.083079825993433221 0.10706102337809349 0.10957323762682905 0.097230660983145728 0.08407004447436732 0.096742340180531336 0.084170977409225189 0.077765425792958268 0.064394586457586694 0.077218517372249967 0.0648938007681545 0.083825312583828998 0.064343921815432997 0.067580167682771877 0.083737279438398302 0.077635616860761036 0.064521067974681753 0.071136222649568218 0.08458114458528225 0.057070563440352495 0.085059751272877501 0.088459885869112298 0.10794668176111544 0.084807548495373614 0.067293413314408496 0.088001720145880993 0.049921972494647492 0.062184063414352848 0.055249778328044383 0.083351297770567642 0.055196586011347221 0.060498023105908398 0.064470616135172854 0.058905993691700992 0.085369588140457142 0.067723761699720983 0.081480794922799388 0.090121693660090763 0.081444646761178255 0.088386998313338461 0.090760576192693024 0.084459560382048826 0.060007606344197897 0.090583053499745034 0.093983537912361248 0.099153188929079109 0.12558373249282936 0.084008870105049718 0.10470623994637525 0.11064397441380648 0.10483697897964195 0.11135122961685766 0.13423329653958233 0.10817518181388842 0.10755196311231742 0.12782355795392047 0.10420852355375894 0.13500789337455313 0.16013217430356874 0.1282042295578904 0.16142283925811651 0.1422134261165415 0.16214610626891696 0.17563291222785787 0.14208545071199324 0.096219999546948237 0.16183130220288486 0.1024874018452127 0.093336599578412519 0.09420181837921951 0.12658234767931842 0.09149106292878674 0.084211266269135693 0.098385211024217392 0.1647091829928603 0.10101022491814771 0.12452645572763889 0.093725293826722164 0.12739828189236499 0.15445457321120187 0.092206041132486996 0.11026769114977486 0.15572254041257672 0.10968989385338766 0.1403955814895142 0.15746782041362539 0.12596031232632182 0.12734233456737981 0.19217186376841805 0.12632689176984793 0.1939554865594014 0.16670626846302483 0.14505170112300328 0.22669013628209925 0.20166232379454749 0.14789818176476599 0.18820393888251846 0.15458444477117322 0.16369061833965151 0.2166526986158879 0.1761248933785827 0.16590298639245496 0.12443261163890096 0.19512914012571983 0.2183320178585528 0.22201393855555399 0.1755151069108572 0.21892577017186207 0.22343893347376448 0.27416946061347719 0.21942407403512418 0.17739877644417276 0.19697710007879235 0.22024180931345064 0.19692590958412634 0.23371826725765071 0.17694025670795191 0.19656486865096987 0.16314123758387516 0.19824591355979596 0.17381853678991546 0.16402039286431139 0.19875741268829553 0.22032363063690777 0.23793083766691575 0.19892005807956847 0.17366156353410081 0.21888156486974208 0.20584924779505417 0.17364599111553583 0.21831315953038477 0.17119220172479052 0.17305151730649118 0.14828838625903665 0.20739190686963405 0.17134221211936954 0.17337954181234955 0.17315878315284955 0.13714745924587241 0.16377564108210854 0.17222090053472053 0.14796683507977332 0.13702840094304791 0.11947932859904875 0.14747370149799158 0.13674963295089804 0.11930435715515963 0.11691775429367669 0.13659593943328929 0.1169138887607223 0.13772136689577366 0.14435668756240239 0.11067108791961042 0.11730219639615012 0.14323227024507645 0.10846660448734693 0.12801979700051963 0.14137236853479948 0.17641569898817044 0.14455537866972945 0.16308262947198521 0.13790315544772117 0.14476526796995398 0.16299601239850225 0.11336030070970832 0.11479580255975999 0.14400887768593562 0.11408427624387972 0.08857168520077302 0.1037096972930245 0.11202091338347522 0.087431891241091547 0.088720227991046188 0.11292330608227749 0.11427459552670667 0.088306850314268825 0.087337740216385198 0.076657738499846584 0.088587956696477926 0.08674353863660493 0.066725946