<?xml version="1.0"?>
<VTKFile type="UnstructuredGrid" version="0.1" byte_order="LittleEndian">
<UnstructuredGrid>
<Piece NumberOfPoints="3142" NumberOfCells="1054">
<Points>
<DataArray type="Float64" NumberOfComponents="3" format="ascii">
0.02576622439977887 0.024532886826226379 0 0 0 0 0.049999999999899652 0 0 0.02576622439977887 0.024532886826226379 0 0 0 0 0 0.050000000000207989 0 0.02576622439977887 0.024532886826226379 0 0.049999999999899652 0 0 0.053064897599215843 0.048131547304697528 0 0.02576622439977887 0.024532886826226379 0 0.053064897599215843 0.048131547304697528 0 0 0.050000000000207989 0 0 0.050000000000207989 0 0 0.10000000000041601 0 0.044310582753132287 0.101412518374475 0 0 0.10000000000041601 0 0.044310582753132287 0.101412518374475 0 0 0.15000000000062411 0 0.053064897599215843 0.048131547304697528 0 0.044310582753132287 0.101412518374475 0 0.083411279318303222 0.089699755330707398 0 0.053064897599215843 0.048131547304697528 0 0 0.050000000000207989 0 0.044310582753132287 0.101412518374475 0 0.044310582753132287 0.101412518374475 0 0.083411279318303222 0.089699755330707398 0 0.065374659239632718 0.1448908038746782 0 0.083411279318303222 0.089699755330707398 0 0.065374659239632718 0.1448908038746782 0 0.1053400320299198 0.12877248826361379 0 0.083411279318303222 0.089699755330707398 0 0.12372429750337779 0.095814237875728972 0 0.1053400320299198 0.12877248826361379 0 0.12372429750337779 0.095814237875728972 0 0.1053400320299198 0.12877248826361379 0 0.14332333627550789 0.14578431753966009 0 0.12372429750337779 0.095814237875728972 0 0.10266856499169109 0.044518360900210059 0 0.14618258501891079 0.062070108745602003 0 0.083411279318303222 0.089699755330707398 0 0.12372429750337779 0.095814237875728972 0 0.10266856499169109 0.044518360900210059 0 0.10266856499169109 0.044518360900210059 0 0.099999999999814668 0 0 0.14999999999970359 0 0 0.049999999999899652 0 0 0.053064897599215843 0.048131547304697528 0 0.099999999999814668 0 0 0.053064897599215843 0.048131547304697528 0 0.10266856499169109 0.044518360900210059 0 0.099999999999814668 0 0 0.053064897599215843 0.048131547304697528 0 0.083411279318303222 0.089699755330707398 0 0.10266856499169109 0.044518360900210059 0 0.044081577119474857 0.2271058242433576 0 0 0.20000000000083221 0 0 0.25000000000104028 0 0.044081577119474857 0.2271058242433576 0 0 0.20000000000083221 0 0.038512288486115001 0.1844147282893184 0 0.044081577119474857 0.2271058242433576 0 0.038512288486115001 0.1844147282893184 0 0.083105206071467416 0.20007701332709979 0 0.038512288486115001 0.1844147282893184 0 0 0.15000000000062411 0 0.065374659239632718 0.1448908038746782 0 0.044310582753132287 0.101412518374475 0 0 0.15000000000062411 0 0.065374659239632718 0.1448908038746782 0 0.038512288486115001 0.1844147282893184 0 0.065374659239632718 0.1448908038746782 0 0.083105206071467416 0.20007701332709979 0 0 0.20000000000083221 0 0.038512288486115001 0.1844147282893184 0 0 0.15000000000062411 0 0.065374659239632718 0.1448908038746782 0 0.1053400320299198 0.12877248826361379 0 0.106902708054812 0.16453234188234539 0 0.1053400320299198 0.12877248826361379 0 0.106902708054812 0.16453234188234539 0 0.14332333627550789 0.14578431753966009 0 0.065374659239632718 0.1448908038746782 0 0.106902708054812 0.16453234188234539 0 0.083105206071467416 0.20007701332709979 0 0.083105206071467416 0.20007701332709979 0 0.095326043202144745 0.24554465089224409 0 0.13737030665753211 0.20313708640667491 0 0.106902708054812 0.16453234188234539 0 0.083105206071467416 0.20007701332709979 0 0.13737030665753211 0.20313708640667491 0 0.044081577119474857 0.2271058242433576 0 0.083105206071467416 0.20007701332709979 0 0.095326043202144745 0.24554465089224409 0 0.044081577119474857 0.2271058242433576 0 0.095326043202144745 0.24554465089224409 0 0.049706944316556423 0.27522722923869108 0 0.095326043202144745 0.24554465089224409 0 0.14377654328998779 0.2442024734791064 0 0.13737030665753211 0.20313708640667491 0 0.17933913398461551 0.2350063570234002 0 0.14377654328998779 0.2442024734791064 0 0.13737030665753211 0.20313708640667491 0 0.17933913398461551 0.2350063570234002 0 0.13737030665753211 0.20313708640667491 0 0.18124454140915969 0.18790916706335251 0 0.18124454140915969 0.18790916706335251 0 0.14332333627550789 0.14578431753966009 0 0.18652628422869419 0.14162325200928061 0 0.106902708054812 0.16453234188234539 0 0.13737030665753211 0.20313708640667491 0 0.14332333627550789 0.14578431753966009 0 0.13737030665753211 0.20313708640667491 0 0.18124454140915969 0.18790916706335251 0 0.14332333627550789 0.14578431753966009 0 0.14332333627550789 0.14578431753966009 0 0.18652628422869419 0.14162325200928061 0 0.16141998738593399 0.10404039647458049 0 0.18652628422869419 0.14162325200928061 0 0.22985637510995899 0.1298347970200906 0 0.2185883431182947 0.18019736283949719 0 0.22985637510995899 0.1298347970200906 0 0.2185883431182947 0.18019736283949719 0 0.25557216766470708 0.15874861286892261 0 0.2185883431182947 0.18019736283949719 0 0.25557216766470708 0.15874861286892261 0 0.26429849586623999 0.19346700179430079 0 0.18124454140915969 0.18790916706335251 0 0.18652628422869419 0.14162325200928061 0 0.2185883431182947 0.18019736283949719 0 0.17933913398461551 0.2350063570234002 0 0.18124454140915969 0.18790916706335251 0 0.224700362040408 0.22206622194729711 0 0.18124454140915969 0.18790916706335251 0 0.2185883431182947 0.18019736283949719 0 0.224700362040408 0.22206622194729711 0 0.2185883431182947 0.18019736283949719 0 0.224700362040408 0.22206622194729711 0 0.26429849586623999 0.19346700179430079 0 0.224700362040408 0.22206622194729711 0 0.25195515620380449 0.25883339815888678 0 0.21049769590865089 0.26857363548218488 0 0.17933913398461551 0.2350063570234002 0 0.224700362040408 0.22206622194729711 0 0.21049769590865089 0.26857363548218488 0 0.184418230509967 0.038773194583122873 0 0.14999999999970359 0 0 0.14618258501891079 0.062070108745602003 0 0.184418230509967 0.038773194583122873 0 0.14618258501891079 0.062070108745602003 0 0.19922788606653311 0.085920220746880993 0 0.184418230509967 0.038773194583122873 0 0.14999999999970359 0 0 0.19999999999955789 0 0 0.10266856499169109 0.044518360900210059 0 0.14999999999970359 0 0 0.14618258501891079 0.062070108745602003 0 0.12372429750337779 0.095814237875728972 0 0.14618258501891079 0.062070108745602003 0 0.16141998738593399 0.10404039647458049 0 0.12372429750337779 0.095814237875728972 0 0.14332333627550789 0.14578431753966009 0 0.16141998738593399 0.10404039647458049 0 0.18652628422869419 0.14162325200928061 0 0.16141998738593399 0.10404039647458049 0 0.19922788606653311 0.085920220746880993 0 0.14618258501891079 0.062070108745602003 0 0.16141998738593399 0.10404039647458049 0 0.19922788606653311 0.085920220746880993 0 0.18652628422869419 0.14162325200928061 0 0.22985637510995899 0.1298347970200906 0 0.19922788606653311 0.085920220746880993 0 0.22985637510995899 0.1298347970200906 0 0.19922788606653311 0.085920220746880993 0 0.24218496799700481 0.089025544070598317 0 0.22985637510995899 0.1298347970200906 0 0.24218496799700481 0.089025544070598317 0 0.27474541102162192 0.11822029332053539 0 0.19922788606653311 0.085920220746880993 0 0.24218496799700481 0.089025544070598317 0 0.22668068146512929 0.045875643423131329 0 0.24218496799700481 0.089025544070598317 0 0.22668068146512929 0.045875643423131329 0 0.27499999999933927 0.060310814194988557 0 0.184418230509967 0.038773194583122873 0 0.19922788606653311 0.085920220746880993 0 0.22668068146512929 0.045875643423131329 0 0.184418230509967 0.038773194583122873 0 0.22668068146512929 0.045875643423131329 0 0.19999999999955789 0 0 0.22668068146512929 0.045875643423131329 0 0.19999999999955789 0 0 0.24999999999941211 0 0 0.24999999999941211 0 0 0.27499999999933927 0.060310814194988557 0 0.29999999999926641 0 0 0.22668068146512929 0.045875643423131329 0 0.24999999999941211 0 0 0.27499999999933927 0.060310814194988557 0 0.27499999999933927 0.060310814194988557 0 0.29999999999926641 0 0 0.32541448401678508 0.046215317981507749 0 0.29999999999926641 0 0 0.32541448401678508 0.046215317981507749 0 0.34999999999912063 0 0 0.32541448401678508 0.046215317981507749 0 0.3615861437013822 0.03582617922508851 0 0.35312867752657662 0.084946736076730367 0 0.3615861437013822 0.03582617922508851 0 0.35312867752657662 0.084946736076730367 0 0.39591832466117061 0.056982757562006353 0 0.32541448401678508 0.046215317981507749 0 0.3615861437013822 0.03582617922508851 0 0.34999999999912063 0 0 0.3615861437013822 0.03582617922508851 0 0.34999999999912063 0 0 0.3999999999989749 0 0 0.35312867752657662 0.084946736076730367 0 0.36246644853392812 0.1399454205365751 0 0.39823268594401579 0.1116623613130045 0 0.35312867752657662 0.084946736076730367 0 0.32215584939770009 0.1218492143506909 0 0.36246644853392812 0.1399454205365751 0 0.32541448401678508 0.046215317981507749 0 0.35312867752657662 0.084946736076730367 0 0.3096713403101819 0.085471541595262421 0 0.35312867752657662 0.084946736076730367 0 0.32215584939770009 0.1218492143506909 0 0.3096713403101819 0.085471541595262421 0 0.32215584939770009 0.1218492143506909 0 0.3096713403101819 0.085471541595262421 0 0.27474541102162192 0.11822029332053539 0 0.27499999999933927 0.060310814194988557 0 0.32541448401678508 0.046215317981507749 0 0.3096713403101819 0.085471541595262421 0 0.27499999999933927 0.060310814194988557 0 0.3096713403101819 0.085471541595262421 0 0.27474541102162192 0.11822029332053539 0 0.24218496799700481 0.089025544070598317 0 0.27499999999933927 0.060310814194988557 0 0.27474541102162192 0.11822029332053539 0 0.22985637510995899 0.1298347970200906 0 0.27474541102162192 0.11822029332053539 0 0.25557216766470708 0.15874861286892261 0 0.27474541102162192 0.11822029332053539 0 0.25557216766470708 0.15874861286892261 0 0.29336099386129338 0.15892013001050981 0 0.25557216766470708 0.15874861286892261 0 0.29336099386129338 0.15892013001050981 0 0.26429849586623999 0.19346700179430079 
[...]
<PointData Scalars="tracer_conc,region_id," Vectors="" Tensors="">
<DataArray type="Float64" Name="tracer_conc" format="ascii">
0.48022392632516864 0.45103799743437367 0.50917837526773069 0.4801276567511959 0.45111049205749437 0.44978587693289723 0.48023711106917 0.50946954690327417 0.51184501511998715 0.4802647702058459 0.51148709719814889 0.44968609754171146 0.44952727145903432 0.44880089893678615 0.4998750382132866 0.45110222996532551 0.50180053692068005 0.43476071079741879 0.51156065158792985 0.50033376049747558 0.54691736689183201 0.51130794277283187 0.44937686125643711 0.50019607076730255 0.49990620668319541 0.54858113894731464 0.51729376591236609 0.54869444923689581 0.5172874575737173 0.57121309509233298 0.54725768721938195 0.59565102002621972 0.56987533071410401 0.59578886781075135 0.56966745577049493 0.61360414615864345 0.59521577260557434 0.57169677149685361 0.62375731979949434 0.54665393607354151 0.5951792179583576 0.57169208169821384 0.5716196227180661 0.56964486032941197 0.63020400774159713 0.50950871312686496 0.51189313938686942 0.56932784266207181 0.51178880441513541 0.57153523062994249 0.56955225092073569 0.51186747020537671 0.54662231037042597 0.57157053044610839 0.62490816243408032 0.41922884109613412 0.75175587306138725 0.61347292460402469 0.44170830503968134 0.41337010163891474 0.61209984108646998 0.41472408695388141 0.5071347369626058 0.45656818482492167 0.42514604371464881 0.50374315280713688 0.50222041267326512 0.43443761832139349 0.51547535133534916 0.45659677480454691 0.50429435681494472 0.50389957413794917 0.40615530542506284 0.44272820415053277 0.42258719129807881 0.51029649713082059 0.57465322845118416 0.54127277437474941 0.57453113826863478 0.54153924679303644 0.60453576915687524 0.50436476198760816 0.54391108782312136 0.50404730633155537 0.51329722360775187 0.78475830495624332 0.59150815008607793 0.54560392479501529 0.50580102221183154 0.57136454814797177 0.6315641506493056 0.51024564980097764 0.78755506323026758 0.64171733462160507 0.81466906016890184 0.95496081024169066 0.77789000191572433 0.80865109483757525 0.59509718360945263 0.7799579882487675 0.80622714026253162 0.60003916279053704 0.77444037434741908 0.61269820573600731 0.60512526018605117 0.61247027741623228 0.60934737019260543 0.66623344533723239 0.54567137225410278 0.57147566624850488 0.59639583840330301 0.5714496681896355 0.61023067408498255 0.59644493210386795 0.61344089344273511 0.66671678953978863 0.64058137539115445 0.66195349236964773 0.7212488601173529 0.67340739792107052 0.72080413241633889 0.67372932976002264 0.73367459927793388 0.67225315197231839 0.73171731357333836 0.71664532170962814 0.61301138006880562 0.66583293301164037 0.66862502423016723 0.7714137276738986 0.60738924816801898 0.7570509566437047 0.61997440071483845 0.64489372921143606 0.75569602376223399 0.64620236890563743 0.7534594508980883 0.71385373738991731 0.76077363399400333 0.94446603450442235 0.97263592035652524 0.79261778482025269 0.75758957034698315 0.97726070990892866 0.67042520264183969 0.63018659883789252 0.62378552260966758 0.67047094813639618 0.62376202128333358 0.6861674535898078 0.6702189105541676 0.63027642607839773 0.68997814766904286 0.57161544174726409 0.63021227226611731 0.62379931971156111 0.59521366139863552 0.62371786968362586 0.64046047499570513 0.59580766058935697 0.61359091928074549 0.64059515616553286 0.66664774384524261 0.64009718344222732 0.68668253045568295 0.62371343877868302 0.64042179995881832 0.68657377823016674 0.66663384267377712 0.72021828183357517 0.68657627662313692 0.71960797029284151 0.68566463397046107 0.73497064581282145 0.71958525607753587 0.73469640608999742 0.77046081119096588 0.68600335999481132 0.73543739587739643 0.71951564126599443 0.73520046214891299 0.71944725632733608 0.77316968524447305 0.67041097843756947 0.68600997288588683 0.7197533243917823 0.67018291661659513 0.71947488383996294 0.68978673010833369 0.71925108532967141 0.68982710830170235 0.74729986001915794 0.74691266460385275 0.77227636828685209 0.80068480844998779 0.71925846192623311 0.7469012004805583 0.77268351906972188 0.77230931560448746 0.80008838487047496 0.82466992848121989 0.80007660001835657 0.82392187162441166 0.84881498585242299 0.82410738886586721 0.85792983598491901 0.8482164807633964 0.85757366979199945 0.84811122393560323 0.88640056493638109 0.82394304199358381 0.8576109306684544 0.84805602949938086 0.8571094831014141 0.8480789648698589 0.89110329970837343 0.84863966338372743 0.85247804020273188 0.88654927796744176 0.84887342320368209 0.81678080274993237 0.85281500237291308 0.82398834683227373 0.84885796456576201 0.80692872584157516 0.84953259444246643 0.81656175109486384 0.80761651787285593 0.81701853218606868 0.80784354555128635 0.76850827923546461 0.7724004710777318 0.82454660085407339 0.80704175867027339 0.77254954118754415 0.80790644029621861 0.76885430795878973 0.73506302910169863 0.77273097276977087 0.76897530674467018 0.71784727851448693 0.77268204484819381 0.73478511292605397 0.77221485163836612 0.73495506617854034 0.77632160715011611 0.73131415271767386 0.77391977910703591 0.71664682841805993 0.77292131282660148 0.76793942501454304 0.80941780969380084 0.77341762748250631 0.71707758161685076 0.7681336456910941 0.82055252652016952 0.77196805285026104 0.77613385889160114 0.76627980854072797 0.841677183746663 0.94045867004886996 0.76330033498465599 0.83939012341020736 0.71336332855497409 0.83665556599626656 0.71664671796374324 0.7801964333228214 0.84645237363437753 0.90619582278780719 0.99072388103886477 0.83152752370442407 0.8915101741708864 0.78276076333092337 0.88878078615326028 0.786080140437589 0.80228466393326381 0.88564291945331663 0.80402481217804278 0.86486858671521116 0.90478516747320381 0.87419296920537914 1.002146593109849 0.82005695562221359 0.77596347191230486 0.8127570001625225 0.81966362195032005 0.81260021207927324 0.85414757234817273 0.76890104379773372 0.80859104579065944 0.81515604557248367 0.82131750433149053 0.85351424720650215 0.86937840223361373 0.81024667445033205 0.82108930112877243 0.85407808694009968 0.85117605999476509 0.8758150668079262 0.88664473916373876 0.87163210896352983 0.87923123751194265 0.91944845312984202 0.8756823188800904 0.91801602481912781 0.88618807922969578 0.87766236738569414 0.96489549814829512 0.99768889776485736 0.82761872160986738 0.86098885438299555 0.85818322011789294 0.86097703412411486 0.85761054960843575 0.87385768161281863 0.8805680372816993 0.86571598315733855 0.95944669941202732 0.86808563857271315 0.92267757804542172 0.95626012124050463 0.88390069908938307 0.9153060518264845 0.90985997142351116 0.92189636172567502 0.95461221597461177 0.93635156747471127 0.9143925166427973 0.90994182426646586 0.92248435156976627 0.92708194692843104 0.96275546745490925 0.91527104775336854 0.91517205993994455 0.92307183204436649 0.94115435301856687 0.87973771245436916 0.91828349620585537 0.92000027870001055 0.92324152077409882 0.94040661025187955 0.95472555026269046 0.91413672681687297 0.93968947525279811 0.93976180150814792 0.93916369584816961 0.93939307616518264 0.95495833006516317 0.91396795487486548 0.94056729508741033 0.91459064428973491 0.93939398411416231 0.9365107917197204 0.91402194635693834 0.93890579528248608 0.93616638288992227 0.96398036786117514 0.93583237773117389 0.95237647805361236 0.96270009108007082 0.93566038513559335 0.95347054457362201 0.92474923784404062 0.93620110131105916 0.92475862878492698 0.91182080883525574 0.93720836903293514 0.91240493347926699 0.91388178380552365 0.91283602940341813 0.88966780713677285 0.88523538323262208 0.91276055666492983 0.88528698936942019 0.91429558389407151 0.92567230361498942 0.91195831895354096 0.89000522997760534 0.85745182530566333 0.89005894776989158 0.88548284798771504 0.84819914837233035 0.8858778239546512 0.8847834208627644 0.91439311550498958 0.8841630970433535 0.91506576030530973 0.88538359265585187 0.88435926929798203 0.91557074264036087 0.86005265951704379 0.85191593498547935 0.90557370634998513 0.86477291025460978 0.86384915188424649 0.83231065652210223 0.87353163829628799 0.89012819727030523 1.0099699930466557 0.85573792317246578 0.88543603100605184 0.90762592265778119 0.88069878059202267 0.91851301665854335 0.87973248700666828 0.88080252777265411 0.91739640002977851 0.9074274313221905 0.91674496362080959 0.90715844528328948 0.92951301675706755 0.90779278592286561 0.92918492456050339 0.94396753184435522 0.91721081445001795 0.92910400717681507 0.95050423983356436 0.92931481846934827 0.94917661777453111 0.94173591356048969 0.94492499133982877 0.89909702857571894 0.94313531870301348 0.90556407897095859 0.94691700346439456 0.89766344941889764 0.86070936596293579 0.90422355559994094 0.89689495534188823 0.88010830870989465 0.89099035280821459 0.97456918840901463 0.90033090333459953 0.97365166248665569 0.9214574849876731 0.99154929415266824 0.99982361245562734 1.0043527647380166 0.99135556994066543 1.0002562974582767 0.99002435305063796 1.0013490193856436 0.98862883453880523 1.0066753232114261 0.8929667282311361 0.97715246788602916 0.97064994126917004 0.97285376778742816 0.99732194853966594 1.015048713515843 0.93185878668015343 0.96953978846637645 1.0056978221935291 1.0038933145482491 1.0062279189348255 1.0101958402083413 1.0037826680541775 1.0063328161990448 1.0059547375719795 0.92971595678891994 1.0080697535402277 0.9595177385036886 1.0076077186440329 0.97212203998045021 1.0189347447382737 0.97075001518761894 1.0206435553176121 0.98669549752750452 1.018800426086701 0.99142806488141577 1.0196595662436616 0.87638260281077318 0.97983753336772261 1.0055765243452628 0.98824845797453931 1.0072208427979983 0.99243740427819382 1.0076686442847995 0.99179154008692538 1.004575245757781 0.9999527615891588 1.0113325013850307 0.97150684548564925 0.88475327100283352 1.0151489260571109 0.94637506823894035 1.0119823136515771 1.0039441023102853 0.97054323129099007 1.0047115375967075 0.96992695291925424 0.98182263258018199 0.91370949034637783 0.99909007383927861 1.0197444784626561 0.99073684853877519 1.020456343515483 1.0032306735263168 1.0187715255935932 1.0159862492766649 1.0084613881030169 1.0160956251595741 1.008326617650112 1.0154382140704759 0.91058210177162136 1.0223910926377275 0.97851523811470886 1.0145200985950786 0.9940129091519746 1.0218535104753304 0.99319293305273659 1.0225683058143562 1.0147486513794839 0.99333406822104486 0.95306828019885337 1.0263571225472363 0.84348951845494591 0.99320521510323667 0.93342963001060164 0.96263999683872803 1.0083325719476164 0.84606769812433336 1.0091677716240293 0.98069584421812295 1.0229004548449958 0.98003168252411776 1.0240365745684858 0.98637199717546986 1.0241375742023666 0.99196628345203641 1.0290301398960051 1.0056178793325674 1.0134562345328386 0.85145157785918002 1.0183741151171115 0.84764453028007647 0.89420944376839195 0.80191897720275673 0.72474001700936941 0.70972777204212645 0.74526750532216968 0.74370314624767697 0.68265069967395298 0.79953204913464881 0.72646967135268825 0.76559816086094568 0.95428626600235444 0.8368620110096564 0.76353437374200284 0.94918248484000378 0.76848913035110489 0.79719603116986837 0.76864408520261585 0.80519714886553406 0.82361270324508296 0.75980023164214461 0.76811212932177719 0.82461980839172977 0.84334650131806077 0.80523034388249104 0.82292291944741713 0.86489330098315842 0.8316261889395602 0.82105090424411131 0.87597685232343958 0.94462261940235315 0.79922037662046619 0.88106386437983508 0.84822658109396309 0.88004748083283357 0.88578490545328759 0.85153299253299652 0.8298432798297386 0.85560179530020875 0.88658829551701734 0.82719861617906998 0.76281816901281396 0.82884901952118062 0.81369054511634731 0.84954211830685933 0.810487438365049 0.83580471020914548 0.85204459029614721 0.82982137520788868 0.80982780366598539 0.8124858687806118 0.7527039507815102 0.78640594372570483 0.76239901748121452 0.81459347757821166 0.74812072495256166 0.75264548454747349 0.73635319291246804 0.78678452630428231 0.74185417608524007 0.68008415840637515 0.6943807831590102 0.68323216854819502 0.69238246032275086 0.6321430569298977 0.74420035154327036 0.68923222720580646 0.68223066655316567 0.75038462485636692 0.74142914083800626 0.69459225986656503 0.81933401036346021 0.67545340927896769 0.8773379518278821 0.58112708135672431 0.73988537668921528 0.87494626169370049 0.67490711366068001 0.58655583843954406 0.87043339198281666 0.68963442728988045 0.68215401554593025 0.63157696108250749 0.62958916393818365 0.55373122431281363 0.62459659696219849 0.57869042085137079 0.74464935951605316 0.51707922921986638 0.74707899438507219 0.51240647965945718 0.69413945833928281 0.55311822297899804 0.62489153039500211 0.57148220766864721 0.6259044448375658 0.571727269118387 0.59965890503617347 0.62591284399693914 0.59962771119245706 0.6544631929089928 0.68410963846720751 0.62597130107436327 0.65435612270120214 0.68364139698303195 0.63178063868407841 0.62044294368711872 0.95192966346216268 0.96483284266693592 1.0281968418261653 0.97072367404329973 1.0297237742251917 1.0399936506005139 0.96980586794949453 1.0415068684449618 0.98564854010295211 1.0239557789539775 1.0111853460473572 0.9777346169932446 1.0305277233854091 1.0191502176888139 0.99901967682126425 0.99150783037015933 1.0297835198189547 0.999729537652428 1.01211823071453 1.0228078937624137 0.90726819494960742 1.0250482298728496 0.90523588056525517 0.9596862471200287 0.73830297028616376 0.89083572485578943 0.98106344329307327 0.75571990124402688 0.98103408153536753 1.0389169107728928 0.75231570840305917 1.0465141281938628 0.71870637050743758 1.0253885338751998 0.97673615230037258 0.99683974433555356 1.0367045994671231 1.0214210604204679 1.004509459283502 1.0260960750535368 1.0061038904786259 0.98978472520770944 0.81952207288172452 1.0142803967795615 0.95706422725596496 0.79764403932181716 0.97686601765227898 1.0085685995296383 0.79554422403343661 0.82247109154582454 1.0119573185864146 0.83145281626580358 1.0530857722974718 0.92574829985417106 0.79929835755232936 0.81818559143701219 0.96019537130062527 0.83414623256501053 0.97704202229318582 1.0497885782095757 1.0269216281867695 0.98932012815347181 1.0059065942499512 1.0451057486056854 1.0340765049984051 0.95751379234619438 1.0296304952335222 0.97938313074462668 0.99842314312977742 1.0370688877431722 1.0282792317721376 0.98012199370660325 1.0511148339217469 0.92890640583149597 0.71336358984134562 0.93415515014567629 0.71089224637686599 0.68578375992642915 0.95445396946745553 1.0532957221969488 0.70024724943244609 0.8901379680956325 1.0576561190714449 0.69605916063634088 0.94849158076973739 1.0472751532759641 1.0236856265594436 1.0353932784814699 0.98165903020411616 0.95712831903151374 1.0166589197728835 0.79022289859480621 0.95917358572068556 0.63863944503159242 0.75992098308261202 0.95861741984338877 0.53468264155923295 0.5717683820949615 0.49468831681654157 0.52744840190138265 0.57165512392456042 0.59960700602551764 0.5525723478384047 0.5719765953613789 0.48846458068498094 0.51770100689492393 0.67874371027165548 0.43222881803006991 0.68271431423956708 0.42270306763136545 0.64343052855016736 0.42105286954842058 0.40754154024501965 0.64579294846176261 0.90874712457960227 0.68126116782347745 0.51289903978596851 0.40562542134568663 0.64721628319094071 0.51406838963645007 0.40247316887238388 0.47041337438645003 0.35767689649071555 0.40015017128195529 0.41226866089021502 0.48118903073349872 0.53288199720195939 0.47112813502803969 0.4542678810935879 0.53479305252737652 0.4943464667091067 0.46731039540464803 0.47924632664716721 0.40066237776725844 0.48100567003492772 0.4229819166972093 0.47345533106999216 0.45537103491992609 0.52985932875939989 0.4482285737490832 0.502255740819469 0.44844279170418727 0.4496558808733942 0.50180840062794574 0.4497060892408023 0.50200496189782995 0.4923447246436955 0.50217552923231468 0.54484033736878212 0.49244501601789309 0.53022747475911702 0.5024691426402037 0.55246878859779869 0.53017996380144383 0.55261516368803743 0.59703879962772566 0.50221391639467616 0.55253467639152665 0.54494773123059748 0.5526226334013955 0.5917983199669038 0.54501269797332419 0.55257024613192751 0.59544135595450831 0.59187171655738802 0.57534938636637556 0.5916274512921682 0.54459557342732057 0.56454649336907381 0.5046920276933049 0.58536279897173904 0.57399783470319354 0.54603100408423166 0.50744771241455422 0.5458149190038849 0.50755496766694552 0.49242208068374238 0.4508213810988751 0.49207801595758993 0.44990676861504469 0.51380887972251099 0.44696364027273455 0.46940280562013642 0.50738193904250695 0.49227152768968474 0.448858927538205 0.4952670589894706 0.51266830239265215 0.37280164327222715 0.51656660822481304 0.53440127051572006 0.59437704719222806 0.51661897322993489 0.46798610467982515 0.53402223896216927 0.32077773980308938 0.34937231584470857 0.3648032801004511 0.49799043045196878 0.36413695958390002 0.33549170925774319 0.36219603843385484 0.39592340272798709 0.52073132029712665 0.3870436671187904 0.3958795588375652 0.46738816905296154 0.39492831147586754 0.40626512082215399 0.46850706497242439 0.50060759206714345 0.33329456948851172 0.4507301600420679 0.43629618498081196 0.51847983587168389 0.57179501657520415 0.5057643894515329 0.52564128636735041 0.60774017142802383 0.52431349906828406 0.6092778216166731 0.66375534776039569 0.56427317993593584 0.58607280250591698 0.62776795020376863 0.52277782811395856 0.66458747330635592 0.70194882245307133 0.62635118712255233 0.69931405643535693 0.63508512392066385 0.69959812111100161 0.69712328918933186 0.63462712350412176 0.48420795237503117 0.7053901193036417 0.42916564527360618 0.43569936934401632 0.39083507644822685 0.57196115994084051 0.45367423054619643 0.38323562614712614 0.411688842069242 0.70900908526172679 0.42584645445678865 0.47213830432980547 0.38965350468551679 0.57331884725085214 0.63178775046989 0.38737706738020994 0.41430161740127491 0.63299908465581212 0.41303868855192472 0.48821703110246201 0.63535122130330413 0.48531104141118409 0.43611367534666878 0.69398550240917944 0.43462400211738056 0.69576168184694365 0.51903368947514927 0.51019270389708438 0.81023907257819516 0.65717935313872511 0.51876280725010115 0.61080422854350314 0.48112813844088442 0.70405401378509835 0.78882025621029006 0.69676431169093633 0.70953846588949721 0.47214666071658662 0.71201214765179099 0.78872665375950723 0.76710435663690124 0.6961419635612125 0.78699027675465172 0.76940978067730725 0.86057939177635545 0.7561334262418381 0.69866498347009998 0.7210309948027146 0.75582779667504341 0.72095246320452988 0.76211054178076187 0.69661246028317536 0.72258945633654181 0.67424790505477072 0.72850210438593488 0.69330019018494093 0.67789391715249125 0.72793781753940034 0.75448835386792623 0.77470993719374903 0.72824004733817715 0.69336797952337759 0.75463077224051278 0.7364716061712796 0.69365234079592064 0.75372011234007663 0.68415691059100681 0.69381917461122111 0.65038348582177263 0.73860420227417489 0.6840794336781828 0.69375190693516775 0.69348400723757753 0.63270960184178104 0.67795034441214741 0.6938945747672659 0.65042373053962677 0.63247727488243666 0.59569618491976462 0.65058235036677081 0.6323099916844197 0.59544528868361035 0.59189481471968985 0.63268634937071078 0.59162846445901984 0.63363696561613414 0.64348870679034775 0.57533096968265152 0.59167650901849589 0.64350318135905049 0.56729810815808857 0.62582445137234921 0.63540204592886851 0.69675726282328554 0.64419027198634549 0.67427538993252567 0.63365276613333588 0.64339568590661622 0.67620350704601428 0.58267547242916884 0.58583559145312403 0.64648098291425038 0.58571508926585414 0.52276031271132195 0.56119041941642367 0.58239911390656107 0.51916238204758935 0.52276052728797373 0.58260408423673959 0.58575919144279853 0.52266962316063892 0.51912512969748004 0.4887284203853553 0.52270993805814958 0.51882415147364302 0.45729110623552149 0.48870878619331026 0.45734858982940485 0.48859234880768532 0.45707960616832977 0.48872313344970791 0.45701330712006516 0.52235702284120933 0.45689696389581724 0.52241416891035652 0.51195224970542474 0.52265733027089034 0.51212225928860333 0.5