<?xml version="1.0"?>
<VTKFile type="UnstructuredGrid" version="0.1" byte_order="LittleEndian">
<UnstructuredGrid>
<Piece NumberOfPoints="3142" NumberOfCells="1054">
<Points>
<DataArray type="Float64" NumberOfComponents="3" format="ascii">
0 0 0 0.049999999999899652 0 0 0.02576622439977887 0.024532886826226379 0 0 0 0 0.02576622439977887 0.024532886826226379 0 0 0.050000000000207989 0 0 0.050000000000207989 0 0.02576622439977887 0.024532886826226379 0 0.053064897599215843 0.048131547304697528 0 0.049999999999899652 0 0 0.053064897599215843 0.048131547304697528 0 0.02576622439977887 0.024532886826226379 0 0.099999999999814668 0 0 0.10266856499169109 0.044518360900210059 0 0.053064897599215843 0.048131547304697528 0 0.049999999999899652 0 0 0.099999999999814668 0 0 0.053064897599215843 0.048131547304697528 0 0.099999999999814668 0 0 0.14999999999970359 0 0 0.10266856499169109 0.044518360900210059 0 0.083411279318303222 0.089699755330707398 0 0.053064897599215843 0.048131547304697528 0 0.10266856499169109 0.044518360900210059 0 0.14618258501891079 0.062070108745602003 0 0.12372429750337779 0.095814237875728972 0 0.10266856499169109 0.044518360900210059 0 0.083411279318303222 0.089699755330707398 0 0.10266856499169109 0.044518360900210059 0 0.12372429750337779 0.095814237875728972 0 0.083411279318303222 0.089699755330707398 0 0.12372429750337779 0.095814237875728972 0 0.1053400320299198 0.12877248826361379 0 0.14332333627550789 0.14578431753966009 0 0.1053400320299198 0.12877248826361379 0 0.12372429750337779 0.095814237875728972 0 0.083411279318303222 0.089699755330707398 0 0.1053400320299198 0.12877248826361379 0 0.065374659239632718 0.1448908038746782 0 0.083411279318303222 0.089699755330707398 0 0.065374659239632718 0.1448908038746782 0 0.044310582753132287 0.101412518374475 0 0 0.050000000000207989 0 0.053064897599215843 0.048131547304697528 0 0.044310582753132287 0.101412518374475 0 0.083411279318303222 0.089699755330707398 0 0.044310582753132287 0.101412518374475 0 0.053064897599215843 0.048131547304697528 0 0 0.10000000000041601 0 0 0.050000000000207989 0 0.044310582753132287 0.101412518374475 0 0 0.15000000000062411 0 0 0.10000000000041601 0 0.044310582753132287 0.101412518374475 0 0 0.15000000000062411 0 0.044310582753132287 0.101412518374475 0 0.065374659239632718 0.1448908038746782 0 0.083105206071467416 0.20007701332709979 0 0.038512288486115001 0.1844147282893184 0 0.065374659239632718 0.1448908038746782 0 0 0.15000000000062411 0 0.065374659239632718 0.1448908038746782 0 0.038512288486115001 0.1844147282893184 0 0 0.20000000000083221 0 0 0.15000000000062411 0 0.038512288486115001 0.1844147282893184 0 0 0.20000000000083221 0 0.038512288486115001 0.1844147282893184 0 0.044081577119474857 0.2271058242433576 0 0 0.25000000000104028 0 0 0.20000000000083221 0 0.044081577119474857 0.2271058242433576 0 0.083105206071467416 0.20007701332709979 0 0.044081577119474857 0.2271058242433576 0 0.038512288486115001 0.1844147282893184 0 0.049706944316556423 0.27522722923869108 0 0.044081577119474857 0.2271058242433576 0 0.095326043202144745 0.24554465089224409 0 0.083105206071467416 0.20007701332709979 0 0.095326043202144745 0.24554465089224409 0 0.044081577119474857 0.2271058242433576 0 0.083105206071467416 0.20007701332709979 0 0.106902708054812 0.16453234188234539 0 0.13737030665753211 0.20313708640667491 0 0.083105206071467416 0.20007701332709979 0 0.13737030665753211 0.20313708640667491 0 0.095326043202144745 0.24554465089224409 0 0.083105206071467416 0.20007701332709979 0 0.065374659239632718 0.1448908038746782 0 0.106902708054812 0.16453234188234539 0 0.065374659239632718 0.1448908038746782 0 0.1053400320299198 0.12877248826361379 0 0.106902708054812 0.16453234188234539 0 0.14332333627550789 0.14578431753966009 0 0.106902708054812 0.16453234188234539 0 0.1053400320299198 0.12877248826361379 0 0.14332333627550789 0.14578431753966009 0 0.16141998738593399 0.10404039647458049 0 0.18652628422869419 0.14162325200928061 0 0.14332333627550789 0.14578431753966009 0 0.18652628422869419 0.14162325200928061 0 0.18124454140915969 0.18790916706335251 0 0.14332333627550789 0.14578431753966009 0 0.13737030665753211 0.20313708640667491 0 0.106902708054812 0.16453234188234539 0 0.14332333627550789 0.14578431753966009 0 0.18124454140915969 0.18790916706335251 0 0.13737030665753211 0.20313708640667491 0 0.13737030665753211 0.20313708640667491 0 0.14377654328998779 0.2442024734791064 0 0.095326043202144745 0.24554465089224409 0 0.17933913398461551 0.2350063570234002 0 0.14377654328998779 0.2442024734791064 0 0.13737030665753211 0.20313708640667491 0 0.17933913398461551 0.2350063570234002 0 0.13737030665753211 0.20313708640667491 0 0.18124454140915969 0.18790916706335251 0 0.2185883431182947 0.18019736283949719 0 0.224700362040408 0.22206622194729711 0 0.18124454140915969 0.18790916706335251 0 0.17933913398461551 0.2350063570234002 0 0.18124454140915969 0.18790916706335251 0 0.224700362040408 0.22206622194729711 0 0.17933913398461551 0.2350063570234002 0 0.224700362040408 0.22206622194729711 0 0.21049769590865089 0.26857363548218488 0 0.25195515620380449 0.25883339815888678 0 0.21049769590865089 0.26857363548218488 0 0.224700362040408 0.22206622194729711 0 0.2185883431182947 0.18019736283949719 0 0.26429849586623999 0.19346700179430079 0 0.224700362040408 0.22206622194729711 0 0.2185883431182947 0.18019736283949719 0 0.22985637510995899 0.1298347970200906 0 0.25557216766470708 0.15874861286892261 0 0.2185883431182947 0.18019736283949719 0 0.25557216766470708 0.15874861286892261 0 0.26429849586623999 0.19346700179430079 0 0.2185883431182947 0.18019736283949719 0 0.18124454140915969 0.18790916706335251 0 0.18652628422869419 0.14162325200928061 0 0.2185883431182947 0.18019736283949719 0 0.18652628422869419 0.14162325200928061 0 0.22985637510995899 0.1298347970200906 0 0.19922788606653311 0.085920220746880993 0 0.24218496799700481 0.089025544070598317 0 0.22985637510995899 0.1298347970200906 0 0.27474541102162192 0.11822029332053539 0 0.22985637510995899 0.1298347970200906 0 0.24218496799700481 0.089025544070598317 0 0.27499999999933927 0.060310814194988557 0 0.24218496799700481 0.089025544070598317 0 0.22668068146512929 0.045875643423131329 0 0.19922788606653311 0.085920220746880993 0 0.22668068146512929 0.045875643423131329 0 0.24218496799700481 0.089025544070598317 0 0.19922788606653311 0.085920220746880993 0 0.22985637510995899 0.1298347970200906 0 0.18652628422869419 0.14162325200928061 0 0.19922788606653311 0.085920220746880993 0 0.18652628422869419 0.14162325200928061 0 0.16141998738593399 0.10404039647458049 0 0.14332333627550789 0.14578431753966009 0 0.12372429750337779 0.095814237875728972 0 0.16141998738593399 0.10404039647458049 0 0.14618258501891079 0.062070108745602003 0 0.16141998738593399 0.10404039647458049 0 0.12372429750337779 0.095814237875728972 0 0.19922788606653311 0.085920220746880993 0 0.16141998738593399 0.10404039647458049 0 0.14618258501891079 0.062070108745602003 0 0.19922788606653311 0.085920220746880993 0 0.14618258501891079 0.062070108745602003 0 0.184418230509967 0.038773194583122873 0 0.14999999999970359 0 0 0.184418230509967 0.038773194583122873 0 0.14618258501891079 0.062070108745602003 0 0.14999999999970359 0 0 0.14618258501891079 0.062070108745602003 0 0.10266856499169109 0.044518360900210059 0 0.14999999999970359 0 0 0.19999999999955789 0 0 0.184418230509967 0.038773194583122873 0 0.19999999999955789 0 0 0.22668068146512929 0.045875643423131329 0 0.184418230509967 0.038773194583122873 0 0.19922788606653311 0.085920220746880993 0 0.184418230509967 0.038773194583122873 0 0.22668068146512929 0.045875643423131329 0 0.19999999999955789 0 0 0.24999999999941211 0 0 0.22668068146512929 0.045875643423131329 0 0.24999999999941211 0 0 0.29999999999926641 0 0 0.27499999999933927 0.060310814194988557 0 0.29999999999926641 0 0 0.32541448401678508 0.046215317981507749 0 0.27499999999933927 0.060310814194988557 0 0.24999999999941211 0 0 0.27499999999933927 0.060310814194988557 0 0.22668068146512929 0.045875643423131329 0 0.27499999999933927 0.060310814194988557 0 0.27474541102162192 0.11822029332053539 0 0.24218496799700481 0.089025544070598317 0 0.27474541102162192 0.11822029332053539 0 0.3096713403101819 0.085471541595262421 0 0.32215584939770009 0.1218492143506909 0 0.3096713403101819 0.085471541595262421 0 0.27474541102162192 0.11822029332053539 0 0.27499999999933927 0.060310814194988557 0 0.27499999999933927 0.060310814194988557 0 0.32541448401678508 0.046215317981507749 0 0.3096713403101819 0.085471541595262421 0 0.35312867752657662 0.084946736076730367 0 0.3096713403101819 0.085471541595262421 0 0.32541448401678508 0.046215317981507749 0 0.35312867752657662 0.084946736076730367 0 0.32215584939770009 0.1218492143506909 0 0.3096713403101819 0.085471541595262421 0 0.35312867752657662 0.084946736076730367 0 0.36246644853392812 0.1399454205365751 0 0.32215584939770009 0.1218492143506909 0 0.35312867752657662 0.084946736076730367 0 0.39823268594401579 0.1116623613130045 0 0.36246644853392812 0.1399454205365751 0 0.35312867752657662 0.084946736076730367 0 0.3615861437013822 0.03582617922508851 0 0.39591832466117061 0.056982757562006353 0 0.35312867752657662 0.084946736076730367 0 0.32541448401678508 0.046215317981507749 0 0.3615861437013822 0.03582617922508851 0 0.29999999999926641 0 0 0.34999999999912063 0 0 0.32541448401678508 0.046215317981507749 0 0.34999999999912063 0 0 0.3615861437013822 0.03582617922508851 0 0.32541448401678508 0.046215317981507749 0 0.34999999999912063 0 0 0.3999999999989749 0 0 0.3615861437013822 0.03582617922508851 0 0.3999999999989749 0 0 0.39591832466117061 0.056982757562006353 0 0.3615861437013822 0.03582617922508851 0 0.3999999999989749 0 0 0.4320097814748517 0.037406712692169303 0 0.39591832466117061 0.056982757562006353 0 0.43698630808430822 0.080423614171545449 0 0.39591832466117061 0.056982757562006353 0 0.4320097814748517 0.037406712692169303 0 0.3999999999989749 0 0 0.4499999
[...]
<PointData Scalars="tracer_conc,region_id," Vectors="" Tensors="">
<DataArray type="Float64" Name="tracer_conc" format="ascii">
0.45103799743445266 0.50917837526781451 0.48022392632524324 0.45111049205756476 0.48012765675127217 0.44978587693298738 0.44968609754180994 0.48026477020592218 0.51148709719825569 0.50946954690335644 0.51184501512009117 0.48023711106924649 0.56955225092081674 0.5715352306300534 0.51178880441524321 0.50950871312694646 0.5693278426621553 0.5118931393869699 0.56964486032949313 0.63020400774167951 0.57161962271818056 0.54662231037059461 0.51186747020549228 0.57157053044622852 0.62375731979965876 0.5952157726057562 0.57169677149697684 0.54665393607370583 0.5716920816983323 0.59517921795855 0.54725768721954626 0.59565102002639114 0.56987533071421281 0.61360414615873171 0.56966745577059563 0.5957888678109291 0.54869444923707134 0.5712130950924349 0.51728745757376304 0.54858113894749361 0.51729376591241283 0.4999062066833494 0.44937686125654414 0.51130794277295177 0.50019607076748485 0.54691736689200632 0.50033376049765788 0.51156065158804975 0.44880089893695341 0.44952727145914179 0.49987503821346874 0.43476071079744188 0.45110222996547977 0.50180053692083637 0.43443761832141692 0.50222041267341988 0.51547535133539801 0.50389957413781894 0.45659677480446975 0.50429435681497936 0.42514604371466547 0.50374315280716808 0.45656818482484457 0.40615530542495226 0.42258719129809608 0.44272820415045766 0.44170830503956549 0.41337010163884069 0.61347292460380132 0.75175587306118052 0.41922884109598818 0.6249081624338394 0.50713473696245215 0.61209984108624516 0.41472408695380725 0.9549608102416437 0.64171733462133385 0.81466906016867935 0.51024564980081899 0.78755506322997204 0.631564150649086 0.50580102221169354 0.54560392479499886 0.57136454814781101 0.513297223607597 0.59150815008588886 0.78475830495594501 0.50404730633142369 0.50436476198764546 0.54391108782309616 0.51029649713084413 0.57465322845128364 0.54127277437472887 0.60453576915692309 0.5415392467930159 0.57453113826873325 0.61344089344281838 0.64058137539133742 0.6667167895399051 0.60934737019264562 0.66623344533730222 0.61247027741614102 0.59639583840335264 0.57147566624834334 0.54567137225408691 0.59644493210391514 0.61023067408486786 0.57144966818947784 0.59509718360926356 0.80865109483725117 0.7778900019154239 0.77995798824847629 0.80622714026222009 0.60003916279034608 0.77444037434710455 0.61269820573584244 0.60512526018590584 0.64489372921133348 0.75569602376194633 0.61997440071468224 0.77141372767357752 0.60738924816789264 0.75705095664342537 0.79261778481993683 0.75758957034661478 0.97726070990880898 0.94446603450419719 0.97263592035639512 0.76077363399365172 0.64620236890554195 0.71385373738967373 0.75345945089778943 0.67372932976002387 0.72080413241643349 0.73367459927800804 0.67225315197220759 0.73171731357358027 0.71664532170942841 0.66862502423016834 0.6130113800687057 0.66583293301171498 0.67340739792106696 0.6619534923697048 0.72124886011744316 0.68566463397065525 0.73497064581304639 0.71960797029304402 0.77046081119117016 0.71958525607774459 0.73469640609022413 0.77316968524470442 0.73520046214915724 0.71944725632746398 0.68600335999507278 0.71951564126611356 0.73543739587765766 0.68657627662337839 0.72021828183376879 0.66663384267388148 0.68668253045592076 0.66664774384535419 0.64009718344241984 0.61359091928083431 0.59580766058953494 0.6405951561657236 0.62371786968380372 0.64046047499592429 0.59521366139880016 0.68657377823039367 0.64042179995904114 0.62371343877885643 0.68616745359005682 0.62376202128349645 0.6704709481365011 0.63018659883797845 0.67042520264195182 0.62378552260980236 0.63021227226619847 0.62379931971169711 0.57161544174738077 0.63027642607849765 0.68997814766912324 0.67021891055428295 0.68978673010844371 0.71947488384006009 0.67018291661668239 0.68600997288614429 0.6704109784376695 0.71975332439193929 0.6898271083018227 0.74729986001926441 0.71925108532976467 0.74691266460396488 0.80068480845011902 0.77227636828701252 0.80008838487060852 0.82466992848135889 0.77230931560464411 0.74690120048067365 0.77268351906990751 0.7192584619263177 0.77273097277001679 0.76897530674487802 0.73506302910190402 0.76850827923569853 0.80784354555144022 0.81701853218629883 0.80790644029642411 0.76885430795904453 0.77254954118780828 0.77240047107793863 0.82454660085427456 0.80704175867050554 0.84885796456603502 0.80692872584180175 0.82398834683246824 0.84953259444266704 0.81656175109508433 0.80761651787299871 0.84887342320387527 0.85281500237301344 0.8167808027501251 0.84863966338392582 0.886549277967697 0.85247804020284179 0.84811122393584792 0.85757366979218452 0.88640056493666664 0.8482164807636553 0.82410738886607071 0.85792983598513584 0.80007660001853642 0.84881498585259951 0.82392187162450881 0.84805602949954517 0.85761093066857397 0.82394304199369517 0.84807896487009549 0.89110329970855351 0.85710948310145141 0.89005894777006056 0.88548284798800392 0.85745182530571695 0.88966780713698324 0.9128360294035629 0.88523538323278783 0.91429558389437071 0.88528698936961747 0.91276055666499578 0.89000522997775811 0.92567230361504027 0.9119583189537912 0.9247586287850339 0.93620110131120438 0.91182080883545436 0.92474923784413954 0.95347054457366154 0.93566038513575278 0.95237647805367254 0.96270009108028654 0.93583237773133299 0.91388178380578944 0.91240493347931728 0.93720836903313864 0.91402194635725753 0.93651079171987661 0.93939398411447705 0.96398036786148822 0.93890579528282614 0.93616638289004517 0.954958330065663 0.93916369584834258 0.93939307616561063 0.91459064429007564 0.94056729508782588 0.91396795487500715 0.91506576030571207 0.91439311550515168 0.8841630970435741 0.91557074264068405 0.88435926929827857 0.88538359265610056 0.84819914837247945 0.88587782395494286 0.88478342086301043 0.87581506680792698 0.85117605999484236 0.88664473916396369 0.87163210896360599 0.91944845312994605 0.87923123751186194 0.87568231888011661 0.8861880792299095 0.91801602481930844 0.91413672681701286 0.9397618015086141 0.93968947525295321 0.92324152077421096 0.94040661025193695 0.95472555026278039 0.92000027870003565 0.87973771245428833 0.91828349620595917 0.92307183204445165 0.9151720599399753 0.94115435301867567 0.90985997142342068 0.91530605182592772 0.88390069908913238 0.92189636172562406 0.95461221597476054 0.93635156747474291 0.90994182426637005 0.92248435156939779 0.91439251664224019 0.9627554674545451 0.92708194692800661 0.91527104775288681 0.95626012124014581 0.8680856385722665 0.92267757804495942 0.95944669941166405 0.88056803728140698 0.86571598315688358 0.86098885438309658 0.85818322011742243 0.82761872160982453 0.86097703412423787 0.87385768161251443 0.85761054960795058 0.96489549814795772 0.99768889776475755 0.8776623673853029 0.90478516747298143 0.87419296920501044 1.0021465931097382 0.88878078615287637 0.78608014043740815 0.80228466393309628 0.88564291945292783 0.80402481217788158 0.86486858671478706 0.86937840223365792 0.82131750433147943 0.85351424720660751 0.81024667445029253 0.85407808694024223 0.8210893011288144 0.81275700016253272 0.77596347191229587 0.82005695562235115 0.81260021207927624 0.81966362195045273 0.85414757234829941 0.80859104579065055 0.81515604557248855 0.76890104379746682 0.71707758161668556 0.77341762748259479 0.76813364569092701 0.8094178096938458 0.76793942501429657 0.77292131282667287 0.77196805285050163 0.82055252652034771 0.77613385889160291 0.77221485163859382 0.77632160715006204 0.73495506617846562 0.77268204484843517 0.73478511292599547 0.71784727851462826 0.71664682841790339 0.73131415271784539 0.77391977910714704 0.71336332855463569 0.83939012341002273 0.76330033498443617 0.71664671796345236 0.7801964333225786 0.83665556599602497 0.89151017417050971 0.8315275237041555 0.78276076333069944 0.90619582278742594 0.99072388103879383 0.8464523736339562 0.84167718374630152 0.9404586700486578 0.76627980854037636 0.93342963001051182 0.84348951845448472 0.99320521510317361 0.95306828019866874 0.99333406822108272 1.026357122547451 1.0218535104754753 0.99401290915207363 1.0145200985952911 1.022568305814435 1.0147486513796269 0.99319293305284029 1.0241375742024423 0.99196628345218374 1.0290301398960684 0.85145157785891012 1.0134562345329488 1.0056178793325981 0.84764453027980402 0.89420944376833189 1.0183741151172208 0.84606769812408045 1.0083325719476224 0.96263999683860357 1.0229004548451197 1.0091677716241829 0.98069584421827061 1.0240365745685616 0.98003168252426109 0.98637199717558333 1.0119823136517356 0.97054323129094344 1.0039441023104199 0.96992695291911546 0.98182263258019076 1.0047115375969056 0.88475327100253276 0.94637506823883366 1.0151489260570552 0.9999527615892333 0.97150684548560917 1.0113325013851964 1.0204563435156655 1.0032306735264209 0.99073684853874255 1.0187715255937495 1.0159862492767844 1.0084613881032181 1.0154382140705611 1.0083266176503765 1.0160956251596229 0.91058210177124099 1.0223910926378084 0.97851523811467667 0.91370949034599025 0.99909007383916082 1.0197444784627501 1.0196595662438992 0.991428064881414 1.0188004260869705 0.97212203998026159 1.0076077186441281 1.0189347447385357 0.97075001518740711 1.0206435553178514 0.98669549752747121 0.95951773850337407 0.92971595678854224 1.0080697535403722 1.015048713515992 0.99732194853971512 0.97285376778727828 0.96953978846610656 1.005697822193641 0.93185878667976696 1.0101958402085067 1.0038933145483708 1.0062279189349039 1.0059547375721944 1.0063328161991161 1.0037826680542321 0.98862883453870543 1.0066753232115884 1.0013490193856831 0.99002435305052205 1.00025629745833 0.99135556994054397 1.0043527647382082 0.99154929415248183 0.99982361245572449 0.97064994126890025 0.97715246788586141 0.89296672823086731 0.97983753336744572 0.87638260281049507 1.0055765243452173 0.98824845797445693 0.99243740427830918 1.0072208427981724 1.0045752457579071 1.0076686442849472 0.99179154008709358 0.89012819727001125 1.0099699930465844 0.87353163829602365 0.8638491518839676 0.86477291025443781 0.83231065652206127 0.90557370634991852 0.85191593498536233 0.8600526595168968 0.97456918840872186 0.89099035280793759 0.88010830870975465 0.92145748498742397 0.90033090333429733 0.97365166248646717 0.94313531870309009 0.94492499133978014 0.89909702857568929 0.90422355559986234 0.86070936596279413 0.89689495534181207 0.90556407897092583 0.89766344941876763 0.94691700346437357 0.90779278592280321 0.94396753184416382 0.92918492456020441 0.90715844528306411 0.92951301675688514 0.91674496362075242 0.94917661777465523 0.9293148184692237 0.94173591356013153 0.95050423983374654 0.91721081445009944 0.92910400717665431 0.90742743132197123 0.91739640002970269 0.88080252777255075 0.90762592265759179 0.88543603100586821 0.85573792317229636 0.87973248700702411 0.88069878059179429 0.91851301665864959 0.88004748083319295 0.84822658109393134 0.88106386437961415 0.82982137520774391 0.85204459029592827 0.80982780366584006 0.84954211830682169 0.83580471020947578 0.81048743836489068 0.8288490195210616 0.81369054511620176 0.76281816901270971 0.82719861617895762 0.8556017953001136 0.88658829551680707 0.82984327982959949 0.88578490545308686 0.85153299253280301 0.8229229194473503 0.80523034388226444 0.8433465013179583 0.8759768523230802 0.79922037662012746 0.94462261940219727 0.86489330098288519 0.83162618893948403 0.8210509042438594 0.94918248483984291 0.79719603116951165 0.76848913035074606 0.82461980839170879 0.75980023164205301 0.76811212932147377 0.8236127032450179 0.76864408520236382 0.80519714886534599 0.79953204913427056 0.76559816086061894 0.72646967135258766 0.83686201100933255 0.95428626600225297 0.76353437374165434 0.74526750532209585 0.74370314624755729 0.6826506996738152 0.80191897720239291 0.72474001700927537 0.70972777204188231 0.76239901748113093 0.814593477578054 0.74812072495239146 0.78640594372581241 0.75270395078127184 0.81248586878040074 0.78678452630438711 0.73635319291248347 0.75264548454723668 0.69438078315887941 0.74185417608521831 0.68008415840629755 0.69459225986643358 0.75038462485614754 0.74142914083798683 0.68923222720567201 0.68223066655302 0.74420035154313802 0.69238246032262818 0.68323216854810565 0.63214305692975137 0.62597130107425891 0.68410963846716066 0.65435612270128085 0.59962771119254588 0.62591284399683156 0.65446319290910293 0.59965890503625607 0.5717272691182691 0.62590444483744212 0.62489153039493994 0.57148220766860691 0.55311822297883895 0.62044294368704245 0.63178063868394674 0.68364139698292425 0.6245965969621341 0.55373122431265853 0.62958916393804842 0.74464935951582678 0.57869042085117073 0.51707922921970306 0.74707899438483205 0.51240647965927921 0.69413945833910407 0.87043339198260772 0.67490711366037437 0.58655583843933234 0.739885376689006 0.874946261693478 0.58112708135652114 0.68963442728978164 0.63157696108233508 0.68215401554578781 0.81933401036313258 0.67545340927865438 0.87733795182772478 0.90726819494954458 1.0228078937625844 1.0121182307146264 0.73830297028587488 0.98106344329312589 0.890835724855641 0.90523588056520654 0.95968624712008288 1.025048229872966 1.0239557789540674 1.0111853460474938 0.97773461699333042 1.0191502176888676 1.0305277233854544 0.99901967682141557 1.0297835198190428 0.9915078303703122 0.99972953765252226 0.95192966346197072 1.0281968418264151 0.9648328426668189 1.0399936506006455 0.97072367404327442 1.0297237742253682 1.0415068684450954 0.9856485401029923 0.96980586794947066 1.0367045994672324 1.0214210604205645 1.0045094592835597 0.79764403932148542 0.97686601765220626 1.0085685995296685 0.79554422403312774 1.0119573185864044 0.82247109154557951 0.95706422725592044 0.81952207288146706 1.0142803967795402 0.98978472520772198 1.0061038904786777 1.0260960750536632 1.0253885338752673 0.97673615230050714 0.99683974433560785 0.7557199012437944 1.0389169107730498 0.98103408153545502 0.75231570840281659 0.71870637050723563 1.0465141281939931 0.92890640583154627 1.0511148339218799 0.71336358984113346 0.93415515014572637 0.71089224637665527 0.68578375992627572 0.97938313074469685 0.9984231431298678 1.0296304952336122 0.98012199370667463 1.0282792317722271 1.0370688877433027 0.9893201281534757 1.026921628186898 1.0059065942500216 0.96019537130054267 0.79929835755215362 0.81818559143676373 0.97704202229314252 1.0497885782096716 0.83414623256482412 0.92574829985411911 0.8314528162656265 1.0530857722975744 0.95751379234616429 1.0451057486057864 1.0340765049985319 0.98165903020416045 0.95712831903148499 1.0353932784815956 0.75992098308246037 0.63863944503132763 0.95861741984333626 1.0166589197729361 0.79022289859465855 0.95917358572064326 0.94849158076981466 1.0236856265595267 1.0472751532760893 0.89013796809566359 1.0576561190715699 0.69605916063621054 0.95445396946751149 0.70024724943231498 1.053295722197076 0.51289903978581375 0.90874712457962714 0.68126116782334378 0.51406838963632218 0.64721628319079227 0.40562542134554969 0.3576768964906249 0.47041337438631203 0.40247316887224927 0.42105286954826793 0.40754154024488615 0.64579294846161328 0.4227030676312139 0.64343052855001515 0.68271431423938145 0.43222881802992147 0.67874371027147007 0.51770100689474075 0.49468831681643233 0.57176838209488545 0.53468264155921863 0.57197659536133938 0.48846458068485987 0.55257234783823284 0.59960700602560557 0.52744840190139441 0.5716551239244444 0.45426788109363792 0.47112813502796186 0.53288199720195528 0.47924632664704347 0.48100567003487604 0.40066237776712399 0.49434646670899418 0.53479305252735221 0.46731039540458846 0.41226866089013769 0.4001501712818209 0.48118903073344671 0.45537103491996439 0.42298191669712037 0.47345533106992149 0.44965588087342451 0.44844279170424955 0.50180840062800203 0.44822857374913383 0.52985932875944619 0.50225574081953583 0.54484033736879778 0.49244501601791224 0.50217552923234843 0.44970608924082361 0.50200496189786159 0.49234472464371437 0.44990676861507617 0.45082138109890252 0.4920780159576193 0.44885892753822937 0.49227152768971921 0.50738193904252138 0.46940280562018416 0.44696364027274188 0.51380887972251577 0.5458149190039141 0.50755496766696229 0.49242208068377247 0.58536279897176724 0.50469202769332544 0.56454649336910512 0.54603100408425964 0.57399783470321153 0.50744771241457409 0.54459557342735176 0.59162745129219152 0.57534938636639499 0.55257024613197825 0.59544135595460057 0.59187171655739357 0.5450126979733273 0.55262263340145068 0.5917983199669119 0.54494773123060947 0.50221391639471458 0.55253467639156795 0.59703879962782103 0.55261516368811203 0.53017996380149024 0.53022747475916199 0.5524687885978754 0.50246914264027309 0.59569618491986409 0.6505823503668744 0.63230999168445079 0.59189481471968519 0.5954452886837126 0.63268634937074197 0.69348400723757608 0.67795034441213164 0.63270960184179315 0.6938945747673293 0.6324772748824683 0.65042373053973379 0.69375190693531252 0.68407943367816504 0.73860420227425405 0.69381917461135068 0.6503834858218337 0.68415691059099604 0.69365234079597382 0.73647160617141572 0.75372011234009928 0.6933679795233707 0.75463077224037445 0.72824004733815917 0.69330019018493816 0.72850210438591834 0.67789391715247982 0.77470993719387848 0.72793781753949205 0.75448835386772728 0.72103099480285482 0.75613342624187141 0.69866498347014061 0.76211054178084636 0.75582779667507249 0.72095246320467643 0.72258945633665239 0.69661246028322521 0.67424790505482146 0.67427538993260894 0.69675726282333983 0.64419027198634504 0.64339568590666274 0.63365276613333044 0.67620350704604648 0.64348870679038261 0.59162846445903927 0.63363696561613259 0.63540204592887184 0.62582445137238707 0.5672981081581191 0.64350318135909679 0.57533096968266828 0.5916765090185212 0.63508512392067251 0.69931405643545519 0.6263511871226084 0.70194882245323653 0.52277782811413254 0.66458747330640255 0.63462712350413397 0.69712328918934807 0.69959812111109232 0.78882025621037455 0.7040540137851975 0.69676431169094788 0.78872665375959183 0.69614196356122304 0.76710435663692678 0.78699027675473843 0.76940978067733623 0.86057939177638121 0.71201214765201926 0.47214666071673594 0.7095384658896724 0.69398550240943446 0.43611367534671702 0.48531104141127013 0.69576168184720955 0.51903368947541118 0.43462400211741742 0.61080422854311456 0.51876280724999779 0.4811281384410302 0.65717935313835452 0.81023907257816508 0.51019270389675608 0.63535122130301547 0.41303868855194381 0.488217031102263 0.63299908465553012 0.38737706738020489 0.4143016174012758 0.63178775046960611 0.57331884725062088 0.38965350468551374 0.70900908526192319 0.47213830432993836 0.42584645445690172 0.70539011930384288 0.42916564527371731 0.48420795237516218 0.38323562614702988 0.45367423054638711 0.41168884206930617 0.4356993693439235 0.3908350764482183 0.57196115994060648 0.40626512082205096 0.46850706497219308 0.39492831147602703 0.43629618498071243 0.57179501657499243 0.51847983587148205 0.38704366711875932 0.39587955883772219 0.46738816905273745 0.3332945694885156 0.50060759206731753 0.4507301600422236 0.60927782161674349 0.66375534776043599 0.5243134990684557 0.58607280250594518 0.56427317993596804 0.62776795020379472 0.607740171428096 0.52564128636751839 0.50576438945165125 0.59437704719227646 0.53440127051582831 0.51656660822481326 0.46798610467988538 0.51661897322993511 0.53402223896227652 0.37280164327234477 0.49526705898955198 0.51266830239279548 0.36413695958397507 0.49799043045213987 0.3354917092577494 0.39592340272788695 0.36219603843376197 0.52073132029700009 0.36480328010031493 0.32077773980317281 0.34937231584466483 0.48788937797033982 0.41730282227387466 0.52249903916877527 0.46956620803469667 0.52522169680525355 0.51801787489944218 0.58230788232006869 0.51814629572681226 0.52536649298048799 0.35995377029208164 0.50034558241166038 0.52320856505682567 0.58686057361372412 0.51786422745851524 0.56637916532709298 0.66067607205604395 0.5638536311820439 0.63020852366206548 0.58734010481235832 0.56611626593999886 0.65956359502473383 0.57640602280661601 0.64957889064292285 0.59233779655916952 0.57550055093640229 0.5909197893166146 0.5316344604024078 0.6332402308892332 0.58649464983146427 0.5883115449