<?xml version="1.0"?>
<VTKFile type="UnstructuredGrid" version="0.1" byte_order="LittleEndian">
<UnstructuredGrid>
<Piece NumberOfPoints="3142" NumberOfCells="1054">
<Points>
<DataArray type="Float64" NumberOfComponents="3" format="ascii">
0 0 0 0.049999999999899652 0 0 0.02576622439977887 0.024532886826226379 0 0 0 0 0.02576622439977887 0.024532886826226379 0 0 0.050000000000207989 0 0.049999999999899652 0 0 0.053064897599215843 0.048131547304697528 0 0.02576622439977887 0.024532886826226379 0 0 0.050000000000207989 0 0.02576622439977887 0.024532886826226379 0 0.053064897599215843 0.048131547304697528 0 0 0.10000000000041601 0 0 0.050000000000207989 0 0.044310582753132287 0.101412518374475 0 0 0.15000000000062411 0 0 0.10000000000041601 0 0.044310582753132287 0.101412518374475 0 0.083411279318303222 0.089699755330707398 0 0.044310582753132287 0.101412518374475 0 0.053064897599215843 0.048131547304697528 0 0 0.050000000000207989 0 0.053064897599215843 0.048131547304697528 0 0.044310582753132287 0.101412518374475 0 0.083411279318303222 0.089699755330707398 0 0.065374659239632718 0.1448908038746782 0 0.044310582753132287 0.101412518374475 0 0.083411279318303222 0.089699755330707398 0 0.1053400320299198 0.12877248826361379 0 0.065374659239632718 0.1448908038746782 0 0.083411279318303222 0.089699755330707398 0 0.12372429750337779 0.095814237875728972 0 0.1053400320299198 0.12877248826361379 0 0.14332333627550789 0.14578431753966009 0 0.1053400320299198 0.12877248826361379 0 0.12372429750337779 0.095814237875728972 0 0.14618258501891079 0.062070108745602003 0 0.12372429750337779 0.095814237875728972 0 0.10266856499169109 0.044518360900210059 0 0.083411279318303222 0.089699755330707398 0 0.10266856499169109 0.044518360900210059 0 0.12372429750337779 0.095814237875728972 0 0.099999999999814668 0 0 0.14999999999970359 0 0 0.10266856499169109 0.044518360900210059 0 0.049999999999899652 0 0 0.099999999999814668 0 0 0.053064897599215843 0.048131547304697528 0 0.099999999999814668 0 0 0.10266856499169109 0.044518360900210059 0 0.053064897599215843 0.048131547304697528 0 0.083411279318303222 0.089699755330707398 0 0.053064897599215843 0.048131547304697528 0 0.10266856499169109 0.044518360900210059 0 0 0.25000000000104028 0 0 0.20000000000083221 0 0.044081577119474857 0.2271058242433576 0 0 0.20000000000083221 0 0.038512288486115001 0.1844147282893184 0 0.044081577119474857 0.2271058242433576 0 0.083105206071467416 0.20007701332709979 0 0.044081577119474857 0.2271058242433576 0 0.038512288486115001 0.1844147282893184 0 0 0.15000000000062411 0 0.065374659239632718 0.1448908038746782 0 0.038512288486115001 0.1844147282893184 0 0 0.15000000000062411 0 0.044310582753132287 0.101412518374475 0 0.065374659239632718 0.1448908038746782 0 0.083105206071467416 0.20007701332709979 0 0.038512288486115001 0.1844147282893184 0 0.065374659239632718 0.1448908038746782 0 0 0.20000000000083221 0 0 0.15000000000062411 0 0.038512288486115001 0.1844147282893184 0 0.065374659239632718 0.1448908038746782 0 0.1053400320299198 0.12877248826361379 0 0.106902708054812 0.16453234188234539 0 0.14332333627550789 0.14578431753966009 0 0.106902708054812 0.16453234188234539 0 0.1053400320299198 0.12877248826361379 0 0.083105206071467416 0.20007701332709979 0 0.065374659239632718 0.1448908038746782 0 0.106902708054812 0.16453234188234539 0 0.083105206071467416 0.20007701332709979 0 0.13737030665753211 0.20313708640667491 0 0.095326043202144745 0.24554465089224409 0 0.083105206071467416 0.20007701332709979 0 0.106902708054812 0.16453234188234539 0 0.13737030665753211 0.20313708640667491 0 0.083105206071467416 0.20007701332709979 0 0.095326043202144745 0.24554465089224409 0 0.044081577119474857 0.2271058242433576 0 0.049706944316556423 0.27522722923869108 0 0.044081577119474857 0.2271058242433576 0 0.095326043202144745 0.24554465089224409 0 0.13737030665753211 0.20313708640667491 0 0.14377654328998779 0.2442024734791064 0 0.095326043202144745 0.24554465089224409 0 0.17933913398461551 0.2350063570234002 0 0.14377654328998779 0.2442024734791064 0 0.13737030665753211 0.20313708640667491 0 0.17933913398461551 0.2350063570234002 0 0.13737030665753211 0.20313708640667491 0 0.18124454140915969 0.18790916706335251 0 0.14332333627550789 0.14578431753966009 0 0.18652628422869419 0.14162325200928061 0 0.18124454140915969 0.18790916706335251 0 0.14332333627550789 0.14578431753966009 0 0.13737030665753211 0.20313708640667491 0 0.106902708054812 0.16453234188234539 0 0.14332333627550789 0.14578431753966009 0 0.18124454140915969 0.18790916706335251 0 0.13737030665753211 0.20313708640667491 0 0.14332333627550789 0.14578431753966009 0 0.16141998738593399 0.10404039647458049 0 0.18652628422869419 0.14162325200928061 0 0.2185883431182947 0.18019736283949719 0 0.18652628422869419 0.14162325200928061 0 0.22985637510995899 0.1298347970200906 0 0.2185883431182947 0.18019736283949719 0 0.22985637510995899 0.1298347970200906 0 0.25557216766470708 0.15874861286892261 0 0.2185883431182947 0.18019736283949719 0 0.25557216766470708 0.15874861286892261 0 0.26429849586623999 0.19346700179430079 0 0.2185883431182947 0.18019736283949719 0 0.18124454140915969 0.18790916706335251 0 0.18652628422869419 0.14162325200928061 0 0.17933913398461551 0.2350063570234002 0 0.18124454140915969 0.18790916706335251 0 0.224700362040408 0.22206622194729711 0 0.2185883431182947 0.18019736283949719 0 0.224700362040408 0.22206622194729711 0 0.18124454140915969 0.18790916706335251 0 0.2185883431182947 0.18019736283949719 0 0.26429849586623999 0.19346700179430079 0 0.224700362040408 0.22206622194729711 0 0.25195515620380449 0.25883339815888678 0 0.21049769590865089 0.26857363548218488 0 0.224700362040408 0.22206622194729711 0 0.17933913398461551 0.2350063570234002 0 0.224700362040408 0.22206622194729711 0 0.21049769590865089 0.26857363548218488 0 0.14999999999970359 0 0 0.184418230509967 0.038773194583122873 0 0.14618258501891079 0.062070108745602003 0 0.19922788606653311 0.085920220746880993 0 0.14618258501891079 0.062070108745602003 0 0.184418230509967 0.038773194583122873 0 0.14999999999970359 0 0 0.19999999999955789 0 0 0.184418230509967 0.038773194583122873 0 0.14999999999970359 0 0 0.14618258501891079 0.062070108745602003 0 0.10266856499169109 0.044518360900210059 0 0.14618258501891079 0.062070108745602003 0 0.16141998738593399 0.10404039647458049 0 0.12372429750337779 0.095814237875728972 0 0.14332333627550789 0.14578431753966009 0 0.12372429750337779 0.095814237875728972 0 0.16141998738593399 0.10404039647458049 0 0.19922788606653311 0.085920220746880993 0 0.18652628422869419 0.14162325200928061 0 0.16141998738593399 0.10404039647458049 0 0.19922788606653311 0.085920220746880993 0 0.16141998738593399 0.10404039647458049 0 0.14618258501891079 0.062070108745602003 0 0.19922788606653311 0.085920220746880993 0 0.22985637510995899 0.1298347970200906 0 0.18652628422869419 0.14162325200928061 0 0.19922788606653311 0.085920220746880993 0 0.24218496799700481 0.089025544070598317 0 0.22985637510995899 0.1298347970200906 0 0.27474541102162192 0.11822029332053539 0 0.22985637510995899 0.1298347970200906 0 0.24218496799700481 0.089025544070598317 0 0.19922788606653311 0.085920220746880993 0 0.22668068146512929 0.045875643423131329 0 0.24218496799700481 0.089025544070598317 0 0.27499999999933927 0.060310814194988557 0 0.24218496799700481 0.089025544070598317 0 0.22668068146512929 0.045875643423131329 0 0.19922788606653311 0.085920220746880993 0 0.184418230509967 0.038773194583122873 0 0.22668068146512929 0.045875643423131329 0 0.19999999999955789 0 0 0.22668068146512929 0.045875643423131329 0 0.184418230509967 0.038773194583122873 0 0.19999999999955789 0 0 0.24999999999941211 0 0 0.22668068146512929 0.045875643423131329 0 0.24999999999941211 0 0 0.29999999999926641 0 0 0.27499999999933927 0.060310814194988557 0 0.24999999999941211 0 0 0.27499999999933927 0.060310814194988557 0 0.22668068146512929 0.045875643423131329 0 0.29999999999926641 0 0 0.32541448401678508 0.046215317981507749 0 0.27499999999933927 0.060310814194988557 0 0.29999999999926641 0 0 0.34999999999912063 0 0 0.32541448401678508 0.046215317981507749 0 0.35312867752657662 0.084946736076730367 0 0.32541448401678508 0.046215317981507749 0 0.3615861437013822 0.03582617922508851 0 0.35312867752657662 0.084946736076730367 0 0.3615861437013822 0.03582617922508851 0 0.39591832466117061 0.056982757562006353 0 0.34999999999912063 0 0 0.3615861437013822 0.03582617922508851 0 0.32541448401678508 0.046215317981507749 0 0.34999999999912063 0 0 0.3999999999989749 0 0 0.3615861437013822 0.03582617922508851 0 0.35312867752657662 0.084946736076730367 0 0.39823268594401579 0.1116623613130045 0 0.36246644853392812 0.1399454205365751 0 0.35312867752657662 0.084946736076730367 0 0.36246644853392812 0.1399454205365751 0 0.32215584939770009 0.1218492143506909 0 0.35312867752657662 0.084946736076730367 0 0.3096713403101819 0.085471541595262421 0 0.32541448401678508 0.046215317981507749 0 0.35312867752657662 0.084946736076730367 0 0.32215584939770009 0.1218492143506909 0 0.3096713403101819 0.085471541595262421 0 0.27474541102162192 0.11822029332053539 0 0.3096713403101819 0.085471541595262421 0 0.32215584939770009 0.1218492143506909 0 0.27499999999933927 0.060310814194988557 0 0.32541448401678508 0.046215317981507749 0 0.3096713403101819 0.085471541595262421 0 0.3096713403101819 0.085471541595262421 0 0.27474541102162192 0.11822029332053539 0 0.27499999999933927 0.060310814194988557 0 0.27499999999933927 0.060310814194988557 0 0.27474541102162192 0.11822029332053539 0 0.24218496799700481 0.089025544070598317 0 0.27474541102162192 0.11822029332053539 0 0.25557216766470708 0.15874861286892261 0 0.22985637510995899 0.1298347970200906 0 0.27474541102162192 0.11822029332053539 0 0.29336099386129338 0.15892013001050981 0 0.25557216766470708 0.15874861286892261 0 0.26429849586623999 0.19346700179430079 0 0.25557216766470708 0.15874861286892261 0 0.29336099386129338 0.15892013001050981 
[...]
<PointData Scalars="tracer_conc,region_id," Vectors="" Tensors="">
<DataArray type="Float64" Name="tracer_conc" format="ascii">
0.32651053017696391 0.37946739705437021 0.35293256240599841 0.3266279951332246 0.35274570812675604 0.32543685750550533 0.38004146551027207 0.38226580593157 0.35294243356679722 0.32528368644359001 0.35297968338757202 0.38158058594949135 0.32462717831610072 0.32514941217757248 0.3707357013754588 0.31110912698268656 0.32710251402822027 0.37276524298378055 0.41538580940458614 0.37159914220399781 0.38199838085271109 0.32486560314012752 0.38149111567262795 0.37132813918148655 0.41716148871088976 0.38735039618438089 0.37120555323884169 0.41748805819838958 0.43953292945996153 0.38729762729958706 0.41595759439238394 0.46343221933336243 0.43824880035263392 0.4820857872596741 0.43804255015737359 0.46382518854306015 0.49211896105306419 0.4632937921107052 0.4399244854993562 0.41540523013650049 0.43991461819657396 0.46303495230489605 0.43791826644285181 0.49836995531467276 0.43989387659883306 0.38012786847630048 0.43694867102713325 0.38237531028604776 0.43761142333407116 0.4395601325083352 0.38206587066460262 0.41534354285768427 0.38226231544711098 0.439477377755572 0.67239122785883743 0.29602184991419461 0.52253220284863899 0.32173343142566008 0.27907207233239789 0.50843596996827989 0.37573426345740502 0.50812449701493401 0.27972660043689263 0.30077695897474316 0.37142358063974451 0.3279223912830132 0.31052775687802808 0.37352553058135757 0.38491659981458259 0.37120353247590671 0.32792771975666984 0.37244942416129362 0.28242639508132727 0.29830008668489988 0.31219827187499355 0.37941505937782283 0.44353306350421207 0.40599146470837139 0.47073596281761393 0.40627772371055459 0.44369704855093878 0.37151742370139312 0.3726072683346297 0.40898098346495659 0.38147658503635884 0.46443768713925659 0.71021299113316505 0.3734564743055368 0.41119021262742106 0.43658353131059902 0.37953660007783852 0.71187434988657905 0.53196569831756979 0.91984646777508661 0.54180310862695935 0.7489334831173714 0.46828013587191353 0.73723550845709029 0.70419869407992119 0.69566596649687762 0.73512627452452373 0.47263103504955922 0.68826724934306971 0.48824629801903846 0.46550723304849728 0.47759188271023056 0.53713317663104798 0.47375099306941537 0.46107328081554994 0.43710273180950077 0.41126173335463878 0.46131573839113121 0.47099527826989834 0.43711700173130724 0.48204723517420917 0.50982075167262197 0.53738847405605727 0.54136769815105334 0.53205281716704178 0.59744425486108521 0.54163956272375158 0.59735213820165556 0.61009384868837013 0.53974650399785684 0.60752536657371192 0.58827267507393655 0.5347748216419641 0.47425650566578592 0.53707397879371432 0.68583478596699787 0.46757372580160123 0.6565942141640172 0.50348738547339 0.65465636950062289 0.48290287803288684 0.50487363607200353 0.58471495438197418 0.65270350133293031 0.91627711065305317 0.95748631433233233 0.66321352603868411 0.71340206725765731 0.65992945286063165 0.96221775140112054 0.49910917322923543 0.54123004277552178 0.49251718905550862 0.55822972587837061 0.4922469835997898 0.54160284392462077 0.49906351884390654 0.56240566295910988 0.54129549842798297 0.49888289979622225 0.49235409927989354 0.43965062068907895 0.49236247365055602 0.50953434762809513 0.46326236534931042 0.48223092265304407 0.46387304968895332 0.5095846816994819 0.55885195478532756 0.53762185624623215 0.50933621919441852 0.55823720403037913 0.50968524330083465 0.49239596543745773 0.55896112172496593 0.59607349001685173 0.5376200223315527 0.55784773788210629 0.61273596306506817 0.59578980011768612 0.65402078416992915 0.59585134544013885 0.61272809875076351 0.55829651839157202 0.59568456615519672 0.61335437923278302 0.65723668702064897 0.61337926089421879 0.5956881034202679 0.55840170073951012 0.54167404632837046 0.59555064213850684 0.56258427046291981 0.59527863331452147 0.54135270353787002 0.56258690557213831 0.62691512311023201 0.5953425895208051 0.62694580057665628 0.69075350822411652 0.65689969116919522 0.62692631893918005 0.65698623227191022 0.59535742229211452 0.69054052114152764 0.72092451990419204 0.65692094879348606 0.69053675695867811 0.75214637415845786 0.72054456245523146 0.75191130748029023 0.72072143570243852 0.76475982621443017 0.75184631810993352 0.76451504047308017 0.80341067283792122 0.75169253405920256 0.76431018551492913 0.72056570587586366 0.75179900201229144 0.80972590992424687 0.76389874223299015 0.75244105564103569 0.80321004268778973 0.75749856855975783 0.75258758574460538 0.75772348927586375 0.71118498133750596 0.75231077007947356 0.69905329690778972 0.72062493717582421 0.75298341589537809 0.71105166898408179 0.69985078016039048 0.65208980534926553 0.69994622338385359 0.71127062300309907 0.65686356491378728 0.720907911699738 0.69909468213973691 0.69974971142236675 0.6526592363280983 0.65719588581703769 0.65724713967049486 0.65268853197027366 0.61315035358328018 0.65703381550857276 0.61205211089805811 0.5936989074565493 0.65688752035038145 0.6606656684482668 0.61217852832322783 0.58847935037857801 0.60733209333134686 0.65661787887938283 0.70005296418765273 0.64834087560712661 0.65607020593509691 0.58875378309998372 0.65642693313603084 0.64825828810140518 0.65670888238338332 0.71554269782364988 0.66066742216339658 0.76685112471435146 0.91081369063389861 0.66951674987471954 0.58442412518354936 0.7613278474464733 0.66675949868162487 0.58797780362239704 0.66654666368089122 0.75870244939945908 0.8553350880708821 0.98406944989343004 0.77333687444823229 0.83037554524133061 0.75231363636061055 0.67051028765122478 0.82747972180465501 0.67440402412757994 0.68680530772022286 0.82368493310226654 0.68919016176910941 0.78039603680783165 0.85162102110233917 0.79693303318772757 1.0018724697981698 0.70539348485459086 0.66021501031758412 0.71549920414343071 0.70536031539865496 0.7152256192735349 0.75908987562237884 0.69928278609782313 0.70533832193011914 0.64952208808327383 0.77815159558650537 0.71469185244988076 0.75893565136358021 0.70196529560805698 0.75940209751794507 0.71443294823249659 0.78903900614053279 0.75562404853593734 0.80380499787129245 0.78278487667925456 0.85138214944546919 0.79211636237806637 0.78894181614834158 0.80344045897264793 0.84871058790118659 0.94028443931654704 0.99620925964623974 0.80149326401202059 0.76520790072143929 0.76921013709068664 0.72459945731734821 0.76553223361314005 0.78357850194282164 0.76843516388765176 0.93130047611582156 0.80472442396286703 0.7713732370575298 0.92702825454538129 0.77477164039562862 0.8640887130893613 0.83425608633833581 0.85064189779064081 0.80005587396928757 0.8554772676301845 0.90729534321686922 0.87800483984625421 0.83475388916365412 0.85322244686827076 0.84930115574507081 0.9326736044946875 0.87131835859109041 0.84083877190398426 0.85757769735594847 0.84545133045066378 0.88515566548094926 0.85164892483550081 0.79270126525363427 0.85023187703615499 0.85775893156374372 0.88437916346410572 0.90730497634984375 0.8437423755253578 0.88330890735298007 0.88314331308832184 0.9081279919484857 0.88256974725674364 0.88296849946424072 0.84478343737216011 0.88411533690260136 0.8436628126004283 0.84384752021095943 0.87848609507170283 0.88285346630678263 0.92312082811637186 0.88234203374025244 0.8781231021141761 0.90422825203147228 0.92154759081550119 0.87743794754840176 0.86017374964421645 0.90543408114543489 0.87723804649066661 0.86017657586430829 0.87779639295091971 0.84073386577310116 0.84381307942231132 0.84169648432236943 0.87914297129194419 0.80860644569724394 0.84180090257409812 0.80245225065409487 0.8441940801490293 0.80231315541828585 0.84202614426698386 0.8089742557017946 0.86104647355049102 0.84085208037992265 0.80892428622758128 0.80265273381112101 0.76416560686974599 0.75168655444842458 0.80304780142405785 0.80127460649363458 0.84522597141834199 0.84405020907054451 0.80047126446816119 0.84553706621805058 0.80094881921660654 0.80265021568539296 0.83088877495031799 0.75501935643679485 0.76355538137897616 0.77957077840645328 0.77135287707709344 0.72424621158768598 0.82022881116977731 1.0162975381500621 0.7868296290621648 0.8337775430326434 0.80295481792777679 0.76102492803785404 0.79443092976977803 0.79594555630125641 0.84922200071709009 0.83442578665838008 0.84819699191484221 0.79597604837544478 0.83414536282485952 0.86703061371911538 0.84764322796343272 0.8351771230381333 0.88965521298647499 0.86654036127156453 0.89996772086008181 0.84842261868901825 0.86682814640505912 0.89855840771463713 0.86705058923857659 0.88683244101009473 0.88785505714391233 0.89221889542534416 0.81876790022560186 0.83206527987282075 0.81695058175045021 0.89444221841848148 0.82952495798417014 0.76437561621263694 0.81529074256893619 0.95617546152097388 0.80584455925320386 0.79534185450260098 0.8491111444768733 0.82045907559141318 0.95180656448472978 1.0076828795422235 0.98500018563137515 0.99970154530547772 0.98289593484867166 1.0003350927440162 0.98471257081340402 0.98064103882948983 1.0111938622223218 1.0022052560629471 0.95060122608426656 0.95724348516916191 0.80889911381905477 1.0276635821498159 0.99542864131593967 0.95017008389240265 0.94437787425107045 1.0095401050745232 0.88049496048970943 1.0185284407654465 1.0066446472737223 1.0114374579858236 1.0100497478952191 1.0116205492433399 1.0064774708425859 0.9314187523092432 0.87741295533991315 1.0128675130095368 0.95278278272666517 1.0128443766284789 1.032117353292741 0.9508806265617642 1.0344815218595367 0.97815263715004019 1.0313616984988345 0.98631702401973365 1.0312059711781185 0.96487383170531416 0.79078868142389025 1.0103882274847489 0.98010298151212039 0.98729024985130576 1.0119736107572639 1.0071699972450887 1.0126322900633646 0.9863812328984185 0.99907146886682607 0.95538041195274981 1.0170010486678467 0.81320697167835365 0.91671589554135802 1.0229559252382951 1.0178989589440564 0.95408846547532267 1.0052017032657694 0.95329942746320695 0.97129631846723297 1.0062348184273817 0.86620449773904584 0.99725358664507935 1.0299983150616965 1.032422531043814 1.0047236279498641 0.985432234534242 1.0294817545579258 1.0237323271037644 1.0131950384901633 1.0221796680953619 1.0130899112779497 1.0238743125603411 0.86236008938323216 1.0332779606637421 0.96723024896866361 1.0318008393959872 0.99030091677653798 1.0220094599536476 1.0327875184811499 1.0193822284182052 0.98934969655157579 0.93010476124231622 0.98881848266054806 1.0359572712985392 0.9024358363032432 0.76994116694761805 0.98691869739095239 0.771217245360725 1.0094865190372573 0.93935628229370016 1.033206080201015 1.0131391382576265 0.96953356403488811 1.0347295252641775 0.96870361099778035 0.97739495873103577 1.0349870466713043 0.9857272814950887 1.040184757401502 0.78025239628639098 1.0164763603691305 1.0050881429541263 0.77608969479957857 0.84586684264779499 1.0219338789188552 0.70701056252613659 0.58998458966454048 0.58535259700876952 0.61861413366681528 0.62243901670224533 0.54848820624132899 0.70459737772105591 0.64353871352468839 0.59212550631188321 0.7586240171265517 0.92481078410554718 0.64068411364151856 0.91905702375194676 0.68184112902546312 0.64651731985399363 0.7187251226846082 0.64775116691634471 0.69313768777313511 0.71938781430427723 0.63950708306265502 0.64724176997582272 0.71806708399888119 0.6933278687314447 0.7410788277805328 0.7808352543276661 0.72320391548676144 0.71720637290230616 0.79880248692744604 0.68443223798376429 0.91359569811664498 0.79466297734653235 0.75173117956892266 0.79623866189854187 0.72827807988451132 0.80218023960370366 0.75634511025625839 0.72408906988037958 0.76079439815939209 0.80393580653799523 0.72581293047576911 0.70810867274261613 0.6436096949247313 0.75325097417508236 0.73540927445570636 0.70358384420322051 0.72825464075670132 0.75666843095614134 0.70283301481976357 0.67351618873465902 0.63424643556263904 0.70558179970204526 0.64324082898312873 0.70861670696513845 0.62831816959356102 0.67358809090052973 0.61487341973333831 0.63426767155854291 0.56648199810143629 0.6213117419785088 0.55216131301875471 0.56356636055316611 0.55626453253000419 0.49577012630979717 0.5598385202905336 0.5481371298983797 0.62268002988269289 0.56660791379505115 0.6308894507427345 0.62125113521845743 0.73273870810019281 0.53929651373002618 0.8235057646444579 0.64674030455643128 0.81540627124854315 0.42870668477422691 0.81150581699041302 0.538922100972687 0.43361609966073345 0.5601019895442928 0.49467076260733689 0.54776972284562597 0.4928841898828013 0.41360241256216423 0.49214743946799921 0.65070471430024834 0.42619004861036891 0.36546799653953876 0.65235253542885463 0.36185530297795854 0.59709048944829013 0.49276573552702402 0.43986100029126735 0.41319557731300599 0.46837810835301347 0.43991390906195449 0.49423308771417285 0.46835480308595256 0.49454502892123064 0.52469125120232907 0.49459205996811995 0.55662082098741006 0.52491922069765562 0.48780684867930801 0.49543145547808226 0.5563705377335465 0.9288534536531452 1.0381405314791192 0.94660721876859244 1.0517854702645284 0.955238570122251 1.040521888745761 1.0535462277356418 0.97381412299640213 0.9543213216410279 1.0287576921556862 1.0113138522800593 0.96127244132074441 1.0224039381837986 1.0422510336200583 0.99492462291373307 1.041163599423697 0.98519574161005519 0.9958048519202326 0.86440077916034153 1.0273108684512908 1.0131761756272759 0.8622140478508864 0.9370948016054077 1.0298761232317599 0.6420690144004747 0.96318289081544228 0.83966230795984842 0.66559587977127999 1.0393945412411798 0.9635691746632864 0.66252426975437251 0.62248714168316177 1.0463676078525137 1.0307407196532588 0.96009683893539211 0.98530364837674811 1.0467762662951416 1.0192417957424631 1.0003961012615263 0.97564802373037451 1.0021894961791535 1.025667055470149 0.93282142257279399 0.75385876504444282 1.0097011171100376 0.72110753580374354 0.96181231834802805 1.0040358278167154 0.71909680189682978 1.0073530991382145 0.75663824828002402 0.88638048073768316 0.77185160916230522 1.0514899779153182 0.93563960350873632 0.72970236291619039 0.75277907979444902 0.95841497671910603 1.048467376157276 0.77400832707675171 0.97522938051631747 1.026744281656889 0.99293354474896967 0.92620981906336719 1.0422181275312159 1.018630448342001 0.95354954213788234 0.9738192599648684 1.0241210390578461 0.95430790544578892 1.0224051399200123 1.0371863175388132 0.89153359333198745 1.0506361616372797 0.61781067976505 0.89576916445087473 0.61586901733963151 0.58851518768839362 0.92126091988013814 0.60680613712769804 1.0391321667575857 0.83417481121334747 1.0424853379847656 0.60395572154885291 0.90245622534927172 0.99606936094537257 1.0320063067135079 0.9458685555908195 0.92625903851143387 1.0198715149068471 0.98665046367484555 0.71934598214549428 0.9256580872925293 0.6843429142517139 0.53982822226310234 0.92241245547786466 0.36073563701062861 0.43951226378186969 0.40590397652305743 0.46791439359051495 0.39727653324345236 0.43978751606809341 0.44002312621154394 0.35299329644063782 0.41235640347056296 0.28451169931002146 0.57560421113559679 0.36908539249074301 0.2762504589657182 0.54344938398746789 0.57899250325131302 0.27520070901297983 0.27210849124818054 0.5445132536530678 0.39784075280818937 0.85151693817299168 0.58640900686920461 0.40274148978017987 0.54473718849548658 0.27139433342182867 0.22816098697563469 0.35361314191907595 0.26816491924625735 0.28820078622301482 0.26553249538449269 0.3552962531285444 0.3308699935448659 0.34404909729838018 0.40287806042049107 0.3604111361087452 0.40572717416720111 0.33954761592020322 0.34269140172940271 0.35544459412067797 0.26583165656625779 0.33199167336454199 0.30016179545884114 0.34654041630584759 0.32426739993264769 0.39946574709750765 0.37291026292503726 0.32504228413427672 0.32454063737890665 0.37219940412183289 0.32508189611406929 0.37277481356759878 0.36384785412971055 0.41307821896039193 0.36403457657064175 0.37311490151936894 0.40030447531876512 0.42059891399872534 0.37322393319524677 0.4647676784320699 0.42096838451241991 0.40027934690550293 0.41351193780899559 0.37305021763217322 0.4208591475782823 0.41368590270769529 0.4211290360265692 0.45932350765673369 0.42099697813369769 0.46347284278560297 0.45965856000422828 0.41340335829274127 0.45953174323629203 0.44401859165452306 0.44757718775138139 0.37650880398058989 0.43499515700024666 0.4145642945159565 0.4424894852708946 0.37904621399058364 0.41409045014698032 0.37918999775265622 0.36407347057490336 0.32587675683759448 0.32604363500585609 0.36345300289179933 0.34026081932427354 0.32354957385024141 0.38290824609949142 0.32493505944850953 0.36387075254018186 0.37876894292075386 0.27192257989849239 0.35928693544994772 0.38274912502644809 0.45405865594109457 0.39962948487902533 0.3855615969125234 0.33920357977524368 0.38542695373334712 0.39904078517186192 0.2655176710913893 0.23356833706365884 0.26205358816109914 0.26492366017086733 0.37243460482607699 0.25169195863978228 0.28783037193343936 0.2720017297599881 0.38845381195912421 0.29004459913988156 0.30585744365659218 0.35893405539894235 0.31752407312498132 0.36018802409190182 0.30505995639134781 0.24971110483698522 0.37511716655438976 0.34851021924851522 0.34125718727804522 0.45285759154465899 0.39888549369405479 0.46464281267633117 0.4076692940136859 0.37798996360766501 0.46627332006920563 0.51929300433223236 0.40669723752559922 0.44842570899743434 0.43504249593949745 0.49123343208645076 0.56313820488577604 0.40511379955919474 0.5203927762398538 0.50631687935742475 0.56231947531311477 0.4905774661264804 0.50587271773709042 0.5701296999802189 0.56291518365381765 0.56625510575589633 0.34166947576754392 0.37423908007119794 0.34023979069571436 0.31038662371825859 0.45360241624467729 0.2992825743568977 0.35070056167883468 0.32733822859589351 0.57072098828207296 0.38400252006842328 0.33813308407982995 0.51197391056839536 0.45515288521623909 0.30914336119243169 0.5136034709211651 0.30646937533783508 0.33533681783022046 0.51645957466042169 0.33394832170579691 0.40366204121374138 0.5768554881263529 0.35915746734473275 0.39355447229519819 0.5792202135526292 0.43788814601519593 0.35735859963840244 0.55602085492927922 0.67841856982840854 0.42140938132032413 0.5153784576286603 0.42894724350024344 0.40408005261882379 0.65800201004235603 0.56700634943617756 0.57001470317626335 0.59145231826175193 0.38373563164203239 0.57210455385640935 0.65864528173057169 0.56921451705091319 0.6456468932638133 0.65774470358242942 0.64784508431064158 0.73977296602245346 0.59907340982359703 0.63643598717971961 0.57210254374110836 0.64809334372233118 0.63648972947543447 0.59898317970345283 0.60009655548600471 0.57038009620699681 0.54642170315714356 0.56628506458248384 0.60516883121589338 0.54946699891868656 0.65931521735543452 0.60496854296807423 0.63552028359987278 0.56628250878593278 0.63515083608431766 0.60522420482639239 0.56651259913232077 0.61477313692959901 0.6342917746349982 0.56650856827864493 0.52025547319125276 0.55698197361701252 0.56661718579936415 0.55696567685803056 0.61688381980083173 0.56613687513028244 0.54939988336685752 0.50135676959185049 0.56612284318633355 0.50120687606892023 0.52026554088004651 0.46382238627224975 0.520138682609391 0.50093694883287332 0.45978271046262598 0.4636084240360025 0.5010908684294515 0.5134003206633535 0.45954668337852045 0.50227436403826464 0.51282594829457628 0.44405839080617526 0.45977270126792535 0.50613534592317666 0.49004327793753155 0.43720435008609904 0.54641733406799708 0.57026616564244959 0.51400451482863663 0.51352891956929747 0.50238318213142008 0.54778180240577934 0.51530985256006234 0.45084719291514158 0.45401190349910003 0.42947522492832363 0.45350663681628461 0.39254405835925393 0.38923501132686589 0.39264176393468486 0.44983548367281767 0.45053713131882145 0.39232461940493574 0.45364902605811358 0.38914671998941341 0.36075356968487404 0.392517919060837 0.33212898142087999 0.36073436888379179 0.38852429816961026 0.33223677320910322 0.33199418222250893 0.36051574139713127 0.33187230730246509 0.39179329743752261 0.36075811505502475 0.33164483718935034 0.38212812096300863 0.39201654695347227 0.4292023091891628 0.39254962227755963 0.382455031