<?xml version="1.0"?>
<VTKFile type="UnstructuredGrid" version="0.1" byte_order="LittleEndian">
<UnstructuredGrid>
<Piece NumberOfPoints="3142" NumberOfCells="1054">
<Points>
<DataArray type="Float64" NumberOfComponents="3" format="ascii">
0 0 0 0.049999999999899652 0 0 0.02576622439977887 0.024532886826226379 0 0 0 0 0.02576622439977887 0.024532886826226379 0 0 0.050000000000207989 0 0.049999999999899652 0 0 0.053064897599215843 0.048131547304697528 0 0.02576622439977887 0.024532886826226379 0 0 0.050000000000207989 0 0.02576622439977887 0.024532886826226379 0 0.053064897599215843 0.048131547304697528 0 0 0.10000000000041601 0 0 0.050000000000207989 0 0.044310582753132287 0.101412518374475 0 0 0.15000000000062411 0 0 0.10000000000041601 0 0.044310582753132287 0.101412518374475 0 0.083411279318303222 0.089699755330707398 0 0.044310582753132287 0.101412518374475 0 0.053064897599215843 0.048131547304697528 0 0 0.050000000000207989 0 0.053064897599215843 0.048131547304697528 0 0.044310582753132287 0.101412518374475 0 0.083411279318303222 0.089699755330707398 0 0.065374659239632718 0.1448908038746782 0 0.044310582753132287 0.101412518374475 0 0.083411279318303222 0.089699755330707398 0 0.1053400320299198 0.12877248826361379 0 0.065374659239632718 0.1448908038746782 0 0.083411279318303222 0.089699755330707398 0 0.12372429750337779 0.095814237875728972 0 0.1053400320299198 0.12877248826361379 0 0.14332333627550789 0.14578431753966009 0 0.1053400320299198 0.12877248826361379 0 0.12372429750337779 0.095814237875728972 0 0.14618258501891079 0.062070108745602003 0 0.12372429750337779 0.095814237875728972 0 0.10266856499169109 0.044518360900210059 0 0.083411279318303222 0.089699755330707398 0 0.10266856499169109 0.044518360900210059 0 0.12372429750337779 0.095814237875728972 0 0.099999999999814668 0 0 0.14999999999970359 0 0 0.10266856499169109 0.044518360900210059 0 0.049999999999899652 0 0 0.099999999999814668 0 0 0.053064897599215843 0.048131547304697528 0 0.099999999999814668 0 0 0.10266856499169109 0.044518360900210059 0 0.053064897599215843 0.048131547304697528 0 0.083411279318303222 0.089699755330707398 0 0.053064897599215843 0.048131547304697528 0 0.10266856499169109 0.044518360900210059 0 0 0.25000000000104028 0 0 0.20000000000083221 0 0.044081577119474857 0.2271058242433576 0 0 0.20000000000083221 0 0.038512288486115001 0.1844147282893184 0 0.044081577119474857 0.2271058242433576 0 0.083105206071467416 0.20007701332709979 0 0.044081577119474857 0.2271058242433576 0 0.038512288486115001 0.1844147282893184 0 0 0.15000000000062411 0 0.065374659239632718 0.1448908038746782 0 0.038512288486115001 0.1844147282893184 0 0 0.15000000000062411 0 0.044310582753132287 0.101412518374475 0 0.065374659239632718 0.1448908038746782 0 0.083105206071467416 0.20007701332709979 0 0.038512288486115001 0.1844147282893184 0 0.065374659239632718 0.1448908038746782 0 0 0.20000000000083221 0 0 0.15000000000062411 0 0.038512288486115001 0.1844147282893184 0 0.065374659239632718 0.1448908038746782 0 0.1053400320299198 0.12877248826361379 0 0.106902708054812 0.16453234188234539 0 0.14332333627550789 0.14578431753966009 0 0.106902708054812 0.16453234188234539 0 0.1053400320299198 0.12877248826361379 0 0.083105206071467416 0.20007701332709979 0 0.065374659239632718 0.1448908038746782 0 0.106902708054812 0.16453234188234539 0 0.083105206071467416 0.20007701332709979 0 0.13737030665753211 0.20313708640667491 0 0.095326043202144745 0.24554465089224409 0 0.083105206071467416 0.20007701332709979 0 0.106902708054812 0.16453234188234539 0 0.13737030665753211 0.20313708640667491 0 0.083105206071467416 0.20007701332709979 0 0.095326043202144745 0.24554465089224409 0 0.044081577119474857 0.2271058242433576 0 0.049706944316556423 0.27522722923869108 0 0.044081577119474857 0.2271058242433576 0 0.095326043202144745 0.24554465089224409 0 0.13737030665753211 0.20313708640667491 0 0.14377654328998779 0.2442024734791064 0 0.095326043202144745 0.24554465089224409 0 0.17933913398461551 0.2350063570234002 0 0.14377654328998779 0.2442024734791064 0 0.13737030665753211 0.20313708640667491 0 0.17933913398461551 0.2350063570234002 0 0.13737030665753211 0.20313708640667491 0 0.18124454140915969 0.18790916706335251 0 0.14332333627550789 0.14578431753966009 0 0.18652628422869419 0.14162325200928061 0 0.18124454140915969 0.18790916706335251 0 0.14332333627550789 0.14578431753966009 0 0.13737030665753211 0.20313708640667491 0 0.106902708054812 0.16453234188234539 0 0.14332333627550789 0.14578431753966009 0 0.18124454140915969 0.18790916706335251 0 0.13737030665753211 0.20313708640667491 0 0.14332333627550789 0.14578431753966009 0 0.16141998738593399 0.10404039647458049 0 0.18652628422869419 0.14162325200928061 0 0.2185883431182947 0.18019736283949719 0 0.18652628422869419 0.14162325200928061 0 0.22985637510995899 0.1298347970200906 0 0.2185883431182947 0.18019736283949719 0 0.22985637510995899 0.1298347970200906 0 0.25557216766470708 0.15874861286892261 0 0.2185883431182947 0.18019736283949719 0 0.25557216766470708 0.15874861286892261 0 0.26429849586623999 0.19346700179430079 0 0.2185883431182947 0.18019736283949719 0 0.18124454140915969 0.18790916706335251 0 0.18652628422869419 0.14162325200928061 0 0.17933913398461551 0.2350063570234002 0 0.18124454140915969 0.18790916706335251 0 0.224700362040408 0.22206622194729711 0 0.2185883431182947 0.18019736283949719 0 0.224700362040408 0.22206622194729711 0 0.18124454140915969 0.18790916706335251 0 0.2185883431182947 0.18019736283949719 0 0.26429849586623999 0.19346700179430079 0 0.224700362040408 0.22206622194729711 0 0.25195515620380449 0.25883339815888678 0 0.21049769590865089 0.26857363548218488 0 0.224700362040408 0.22206622194729711 0 0.17933913398461551 0.2350063570234002 0 0.224700362040408 0.22206622194729711 0 0.21049769590865089 0.26857363548218488 0 0.14999999999970359 0 0 0.184418230509967 0.038773194583122873 0 0.14618258501891079 0.062070108745602003 0 0.19922788606653311 0.085920220746880993 0 0.14618258501891079 0.062070108745602003 0 0.184418230509967 0.038773194583122873 0 0.14999999999970359 0 0 0.19999999999955789 0 0 0.184418230509967 0.038773194583122873 0 0.14999999999970359 0 0 0.14618258501891079 0.062070108745602003 0 0.10266856499169109 0.044518360900210059 0 0.14618258501891079 0.062070108745602003 0 0.16141998738593399 0.10404039647458049 0 0.12372429750337779 0.095814237875728972 0 0.14332333627550789 0.14578431753966009 0 0.12372429750337779 0.095814237875728972 0 0.16141998738593399 0.10404039647458049 0 0.19922788606653311 0.085920220746880993 0 0.18652628422869419 0.14162325200928061 0 0.16141998738593399 0.10404039647458049 0 0.19922788606653311 0.085920220746880993 0 0.16141998738593399 0.10404039647458049 0 0.14618258501891079 0.062070108745602003 0 0.19922788606653311 0.085920220746880993 0 0.22985637510995899 0.1298347970200906 0 0.18652628422869419 0.14162325200928061 0 0.19922788606653311 0.085920220746880993 0 0.24218496799700481 0.089025544070598317 0 0.22985637510995899 0.1298347970200906 0 0.27474541102162192 0.11822029332053539 0 0.22985637510995899 0.1298347970200906 0 0.24218496799700481 0.089025544070598317 0 0.19922788606653311 0.085920220746880993 0 0.22668068146512929 0.045875643423131329 0 0.24218496799700481 0.089025544070598317 0 0.27499999999933927 0.060310814194988557 0 0.24218496799700481 0.089025544070598317 0 0.22668068146512929 0.045875643423131329 0 0.19922788606653311 0.085920220746880993 0 0.184418230509967 0.038773194583122873 0 0.22668068146512929 0.045875643423131329 0 0.19999999999955789 0 0 0.22668068146512929 0.045875643423131329 0 0.184418230509967 0.038773194583122873 0 0.19999999999955789 0 0 0.24999999999941211 0 0 0.22668068146512929 0.045875643423131329 0 0.24999999999941211 0 0 0.29999999999926641 0 0 0.27499999999933927 0.060310814194988557 0 0.24999999999941211 0 0 0.27499999999933927 0.060310814194988557 0 0.22668068146512929 0.045875643423131329 0 0.29999999999926641 0 0 0.32541448401678508 0.046215317981507749 0 0.27499999999933927 0.060310814194988557 0 0.29999999999926641 0 0 0.34999999999912063 0 0 0.32541448401678508 0.046215317981507749 0 0.35312867752657662 0.084946736076730367 0 0.32541448401678508 0.046215317981507749 0 0.3615861437013822 0.03582617922508851 0 0.35312867752657662 0.084946736076730367 0 0.3615861437013822 0.03582617922508851 0 0.39591832466117061 0.056982757562006353 0 0.34999999999912063 0 0 0.3615861437013822 0.03582617922508851 0 0.32541448401678508 0.046215317981507749 0 0.34999999999912063 0 0 0.3999999999989749 0 0 0.3615861437013822 0.03582617922508851 0 0.35312867752657662 0.084946736076730367 0 0.39823268594401579 0.1116623613130045 0 0.36246644853392812 0.1399454205365751 0 0.35312867752657662 0.084946736076730367 0 0.36246644853392812 0.1399454205365751 0 0.32215584939770009 0.1218492143506909 0 0.35312867752657662 0.084946736076730367 0 0.3096713403101819 0.085471541595262421 0 0.32541448401678508 0.046215317981507749 0 0.35312867752657662 0.084946736076730367 0 0.32215584939770009 0.1218492143506909 0 0.3096713403101819 0.085471541595262421 0 0.27474541102162192 0.11822029332053539 0 0.3096713403101819 0.085471541595262421 0 0.32215584939770009 0.1218492143506909 0 0.27499999999933927 0.060310814194988557 0 0.32541448401678508 0.046215317981507749 0 0.3096713403101819 0.085471541595262421 0 0.3096713403101819 0.085471541595262421 0 0.27474541102162192 0.11822029332053539 0 0.27499999999933927 0.060310814194988557 0 0.27499999999933927 0.060310814194988557 0 0.27474541102162192 0.11822029332053539 0 0.24218496799700481 0.089025544070598317 0 0.27474541102162192 0.11822029332053539 0 0.25557216766470708 0.15874861286892261 0 0.22985637510995899 0.1298347970200906 0 0.27474541102162192 0.11822029332053539 0 0.29336099386129338 0.15892013001050981 0 0.25557216766470708 0.15874861286892261 0 0.26429849586623999 0.19346700179430079 0 0.25557216766470708 0.15874861286892261 0 0.29336099386129338 0.15892013001050981 
[...]
<PointData Scalars="tracer_conc,region_id," Vectors="" Tensors="">
<DataArray type="Float64" Name="tracer_conc" format="ascii">
0.0026263961378249511 0.003772647463784889 0.0031731061232472641 0.0026349986474327202 0.0031568143710817937 0.0026059482375699657 0.003825950448166898 0.0038732123711504841 0.0031715602848461743 0.0025953518910243841 0.0031744013954524732 0.0038116005579529443 0.0025862364162879885 0.0025963252974838535 0.0035307237301587771 0.0023186257310033793 0.0028395200697204936 0.0038243131288296598 0.0047449854916325317 0.0036063584107095524 0.0038707962577279498 0.0025713373808949418 0.0038231533231309128 0.0035807123380910849 0.004774718542902295 0.0045242898801773658 0.003637525813172296 0.0048083916289076946 0.0063540975412447543 0.0045314951305925272 0.0046424179779651353 0.0062730894515709863 0.0060675967715104048 0.0083736425256818823 0.0061453310864135278 0.0063002350082263965 0.007616202036856274 0.0064640790122220881 0.0056166871936122994 0.0048004943316168839 0.0056164399262208248 0.0064094562476556954 0.0055598078045857599 0.0078256341037191268 0.0056255431799178256 0.0038354698068023122 0.0054169015384323282 0.003884975807085946 0.0055109722576234732 0.0055699235710687375 0.0038402154456984132 0.0047950409800631161 0.0038695392085128341 0.0055462854441868893 0.053821459784159746 -0.0040032576654387203 0.027712292276292023 0.0021640210347405628 -0.0083918716524451573 0.024846525432843231 -0.002306876679629778 0.026075182012438469 -0.0093472278910391639 0.0013496916283236699 0.002351720831814166 -0.00050226744499127444 0.0022451632478522822 0.003902284538215089 0.0042165705215360923 -0.0016594408239943995 -0.00064422389965160633 0.002483538437124946 -0.002611210039932259 0.0014566816619693336 -0.0028738539179056027 0.0032739320296388034 0.0072725527559411082 0.00092827918045629916 0.0058498664225114143 0.00074887541301816814 0.0074961884379305755 -0.0017462897455060402 0.0026218408208310414 0.0010994374311323885 -0.006150241971912245 0.0064919974813608767 0.079935712277184878 -0.0016651473612131645 0.0012396218179249068 -0.0017772606069718054 -0.0033987530445335791 0.077058150147708837 0.033793957740832069 0.14578221379231562 0.02817442089006935 0.10166787521497808 0.0053998038208085668 0.10052945958590692 0.084209737117708031 0.081745339490370161 0.10233669368253293 0.0023624491553716773 0.074795279039209378 0.011866668351998998 -0.0085122837650507335 0.008819428646598312 0.012514166836643812 -0.0073852939388006911 0.0037018520758223109 -0.0018154901205121626 0.0013704822269268925 0.0038265439031642079 -0.0073738187988482582 -0.0019350000322273333 0.0085259378428306602 0.0084602457652785748 0.010984224475123233 0.0027538533080695704 0.0098395033608269841 0.015778283413876937 0.0023688738990340842 0.01616617365505724 0.013197014095979454 -0.00088068011806055103 0.013256204526480766 -0.007328717810200204 -0.0010246647589247323 -0.0080929918784627131 0.012998884492677597 0.077945101394190516 -0.010738459565023369 0.056849932103168986 -0.020368797034668328 0.058270311352067596 -0.0079152516785812518 -0.021986396299250362 -0.0072943192955659611 0.060899597862636677 0.32098395103166993 0.33334629043765063 0.051692414840252894 0.098101503583768887 0.056826967009465261 0.32525375916118326 0.0080296696000574375 0.010124538324025075 0.0077277421636870458 0.011138890678564304 0.0076398917282693712 0.010237768198232983 0.00798276996658045 0.011405904236479728 0.010212218890103314 0.0079587672694209719 0.0076789889466168 0.0055619555840662896 0.007686944863563752 0.0084643016860622717 0.0064588800017400276 0.0084438245725599603 0.0062752683410126171 0.0084120137402426843 0.011021266814915312 0.010939848422747206 0.0086141501916206318 0.010939217621499651 0.0085218385869785564 0.0076958444562229287 0.011077998286166625 0.01469377545436943 0.01097337463773102 0.010978843491123731 0.014961431396610094 0.014609652537386086 0.019397078999505105 0.014715139571289702 0.015059545417807376 0.011208868167055006 0.013901703156122162 0.015184570500623036 0.01919359379074758 0.015311761410799218 0.013935961982326979 0.011256499946504288 0.010283197387117816 0.01373989166073014 0.011541192872235198 0.013742721940314895 0.010242739117816256 0.01152136337416905 0.016315739640891006 0.013869088864506647 0.016520436656890344 0.023277944375563107 0.019577788977588769 0.016524618437652634 0.019375199504499299 0.013866531304866031 0.023574511282470449 0.027670032725857 0.019559924964011724 0.023563059984188287 0.033100974037996063 0.028040126134223728 0.033546208095419396 0.028003676954068791 0.036125807504832831 0.033602972838882618 0.036328552039823075 0.045247459569473292 0.033507726006526788 0.035997288567912934 0.028024480253408996 0.03360641767080659 0.046698433639853175 0.036188433747792445 0.033518846134219168 0.045221823388493565 0.035400753667246362 0.03340887476672906 0.035198226298794322 0.026716539791351988 0.033207056572221283 0.024741269569859746 0.028052480915351841 0.033063989211663557 0.026820735396941516 0.024757131823195961 0.019118670957865517 0.024657293381421676 0.026581124859638702 0.019431484165977748 0.027766928953885914 0.024685926993478415 0.024469259050533727 0.019220664961662113 0.019525611499952276 0.019441461556215241 0.019155335099001813 0.015274786296401084 0.020706233635216807 0.013373245672521782 0.014220577641865196 0.020996926015242681 0.017638924225315135 0.013212869325277307 -0.0077060633208327657 0.013836720004272579 0.016787330689820454 0.019146071787433945 -0.010407314312944111 0.01806662886754792 -0.0083571553728246373 0.017222737444485194 -0.010080059116342591 0.02120571590047789 0.028456822394842894 0.017681896994874567 0.13909255616882746 0.31548279928147077 0.049618150138986995 -0.0087047833625168314 0.12587792845173765 0.074921383982437736 -0.013622050346329514 0.015581986713106242 0.13001886808959548 0.28561578361847023 0.50403378998958459 0.13471196716120659 0.20154305663264879 0.13279323214044036 0.017471314159749857 0.20660571700083499 0.011269607330579745 -0.030855960578410391 0.21310573035087557 -0.034987790279394755 0.078033682214056904 0.27226709381897479 0.11414228521558911 0.68124328711059545 0.022001522145165452 0.01700489674497746 0.0290832652547591 0.021990729296349366 0.029425648047493244 0.036419245935094866 0.0193376574374318 -0.0048877322789026784 -0.010966330387114526 0.025390457101562222 0.0071894309767790328 0.038594763888505752 0.01846782168882271 0.037986728832085911 0.0076380334268855536 0.041845002189125041 0.034431496383205758 0.046441130063869109 0.034508482103022861 0.069199104401549694 0.017574479347140549 0.041901037794619393 0.046754928345899914 0.063476544638113114 0.50711239018615695 0.69147832578245749 0.10590054950388539 0.0072538974319643259 0.053736496030402023 0.019307601086249012 0.0063235799038896118 -0.0044305943719605487 0.05513481266167311 0.45425992304073781 0.13233816255344596 -0.038150024568042021 0.46240308866692126 -0.044903005074541161 0.17804442712412433 -0.0010178506827389271 0.12936981484387064 0.03461145988284034 0.062215654961835322 0.096946602706955612 0.071015547404274043 -0.0029136756861171671 -0.021452988459569493 0.13224590235067155 0.44753379168259433 0.21770548653430988 -0.071077334316676663 0.065691935459266326 0.060622829950240785 0.079679031400823011 0.046988813146535656 0.016642457295310428 0.070549117865003813 0.065498075341723763 0.080385071253150434 0.095388455407022774 0.059185206400307125 0.078937457521219362 0.079031749330787021 0.096503218119418449 0.079447657432385396 0.079462806760259339 0.060366390440714748 0.078209899751130241 0.05962929147593013 0.059639343906844784 0.077126053835015959 0.079203944855347777 0.10824354751464019 0.079664584432560082 0.077453248825152254 0.094903447774414604 0.10932843932424162 0.076356145085497429 0.067400943998386198 0.093755715277885759 0.076563654895538472 0.067400546401793687 0.076070569031840896 0.05876878137810905 0.060148108369729884 0.059456380115999817 0.076320453662703597 0.047599479304639342 0.058421450474715697 0.045893766115556033 0.059834441954871913 0.045431469858707635 0.059184042488801575 0.047500922520153213 0.066669350008109377 0.058679876340345383 0.047344450818832026 0.045733682584801066 0.035972025691431167 0.03318573777234899 0.045627789469557159 0.044832246478609485 0.060003818302957833 0.059311047452156117 0.044535363877443342 0.059341952907941281 0.045094155816092774 0.045944965413910153 0.062464916912993322 0.011564983656748438 -0.036642710101603644 0.058744681920467563 -0.02462770116724021 -0.036255930389276748 0.1366951814804816 0.70621736672223578 -0.0026176772193039956 0.06276821912667728 0.055746366286079742 0.025323580913685972 0.042263192070268581 0.044540086802232343 0.05785391843746044 0.064450423013058075 0.057506182594738268 0.045839027354236783 0.064812987322894575 0.067843892226042868 0.057821135102863103 0.07053305101639995 0.088521592064457616 0.065434509835096313 0.087918253632718366 0.061240633660913694 0.071106259535089034 0.089178327186398759 0.070907571202325867 0.083667134228886136 0.05102584472135898 0.11199331170518782 -0.023025433936605645 0.069397120764716561 -0.020058877531435426 0.10921981676109282 0.064338088110731967 -0.03814867692326683 -0.025271108857072525 0.50632998494837822 -0.057113026651599945 0.0082098178640139449 -0.1117306734853926 -0.048533322291468332 0.49280408875454657 1.0560663868298064 0.74242960998512131 0.91646231824944357 0.67674092500440686 0.92056696945353644 0.74186216755059964 0.66644603297063765 0.95887129455101316 0.94129003256483246 0.51726576285630588 0.50403247665560491 -0.063477774541816426 1.1716761697970999 0.88482433173331465 0.54794467258213508 0.51549671713365064 0.91723926011178303 0.22360235318983832 1.1206528737652612 0.98308937416417808 0.99757251304092953 0.93136551215050956 0.99811888497113377 0.98583935406482603 0.50744882590171625 0.22666350607740354 0.91488627738469619 0.58587138763453017 0.96023662977521096 1.0390641395597635 0.58831539241762132 1.0380705254980873 0.6702481767543228 0.89868667016237336 0.71067473206456133 1.0251923215254073 0.54997632726840218 -0.010236311662304948 0.71741998117882788 0.66619133673545905 0.68154420858689146 0.96045609110149288 0.79933279948488356 0.96294662001668085 0.68131217693142854 0.68466341791898322 0.41446066578971041 0.80801216290747635 0.1498085128461632 0.37948647777389244 0.6935237306753016 0.80629990225592651 0.41714636732403454 0.66393239854068908 0.41881743718846098 0.45153287108242884 0.66142515069984631 0.29500659471599977 0.69043243020579581 0.73573110246912532 0.89718337500611567 0.69482635149473304 0.71276509051439241 0.87638761268669341 0.7361435866370597 0.73720145072921728 0.64620695077801849 0.73745533972376476 0.73587252935610437 0.30232292711664133 0.7292147334956588 0.49732831238281627 0.67655284951366623 0.53884018014842661 0.73291253893889663 0.67369377514273099 0.51693032794182903 0.54075665235774695 0.35723851764924314 0.52584124342189997 0.53871879302357562 0.32948072521822858 0.14107509350132133 0.49825628656228288 0.12667527922415381 0.46760308504691861 0.37461221183786098 0.68491578750854554 0.68817629684005088 0.45123295704285515 0.6808029881235369 0.4531699014635554 0.41748503649236529 0.67563090840436546 0.44955147660325123 0.57196448359515628 0.14133105039137187 0.4402612703794419 0.46145214677758334 0.14785076843415285 0.19353480244723253 0.43052297149528107 0.063963681476114934 -0.032667080101537904 0.005863733607944779 -0.0077809636865936701 0.018739251469437647 -0.015497280723264024 0.067149507817513401 -0.031317247101985281 -0.035345888873275742 0.13472077869335408 0.33874664001372573 -0.046909758727871245 0.3487174034117807 -0.049593966055582021 -0.056671129151705475 0.025991654955716367 -0.020746469094427344 -0.018149970215302957 0.024946330278302144 0.0069226086910189558 -0.019717168687137829 0.026370392347336406 -0.018200235140042417 -0.0057257208828456552 0.05673201933298673 -0.034443144827602822 0.0091025775782661404 0.11074059743482212 -0.054127526100803479 0.35821566142496308 0.042105028878954141 0.033403271215022498 0.04428345591502382 0.032037223347683004 0.050584451533739735 0.036696141892481313 0.026649794232304326 0.025813156661131618 0.054617169090787482 0.029473863409689001 0.031066816850540899 0.012126613707519029 0.033850329791724247 0.029227629965870409 0.027008224240379072 0.032058071815147526 0.03640710526700975 0.02729965201233174 0.021143219961433202 0.020041028176081055 0.0278023686922927 0.012605022943321326 0.030394396467480905 0.017691810668435132 0.020997719419274183 0.016000980547606906 0.020009290444358736 0.011454146713921858 0.017714263696536437 0.011828728799368032 0.0092287515899770484 0.015429327398687584 -0.0042911533511906614 0.0073609398441285704 -0.014784695461285089 0.018140692172950217 0.011305954858469342 0.019306174700637752 0.017977593440916415 0.093767614261851137 -0.026496857292589198 0.17212564754714435 0.069405040904041579 0.14477905689337572 -0.041219790276026298 0.15038295708002331 -0.021213288861750865 -0.047635516428163327 0.0067252742695718005 -0.0069976068404857435 -0.014335150896160109 0.0081467970087812577 -0.0083708563667869631 -0.0049514898447728046 0.064282382530474164 -0.038523528478653098 -0.032768906445691512 0.061621094795830056 -0.028201918818992814 0.050405216429614222 0.0078135483481597962 0.0070732809298317397 -0.0077266662305999489 0.0071433015511401876 0.00662337447882383 0.0089698258104048984 0.007127236558376898 0.0090654820578969855 0.0098354622824235304 0.0090745774051746581 0.013305552634195469 0.0099372512190456595 0.0065844335453902492 -0.0038005091324483991 0.014950524379833392 0.35939046445077044 0.53389464340870507 0.32628535805283543 0.46392415890571431 0.34079061735541794 0.54003124918475864 0.46016163381184638 0.30332251444210279 0.34215579669674384 0.42319558902930049 0.41698196518417857 0.27439382144826802 0.418940534367299 0.56619168089814509 0.41502270976069716 0.56949425579121948 0.45056016313865638 0.4130040641697964 0.20035233331733202 0.42790075518792459 0.43320958592979741 0.20431686656629044 0.25914879187519113 0.42261969927022242 0.046447851875511884 0.2542143743054438 0.17427363651093658 0.057386696818066352 0.28788551059321849 0.25941944989770399 0.061776137559446859 0.030647270098142127 0.27697433890424605 0.41829641105808862 0.27680936576070175 0.2682395650267837 0.44180719669758522 0.31046525375331951 0.34122131201049605 0.25005788988554956 0.33550942409891488 0.31829699683434864 0.22071692985999139 0.12537347614079011 0.31099530236510736 0.10792249470282475 0.32630881639987636 0.32080296553766663 0.11098388652421848 0.31525544482703705 0.12083962541091638 0.14021701267036546 0.11812620276691176 0.25044558514252191 0.2162242091733968 0.093877907033765501 0.12668189652894526 0.23433088395240115 0.2553577795438538 0.114861119382941 0.2507886154517614 0.31594138459360593 0.22859496192893156 0.15778400200057427 0.24752215796953222 0.19019653471585588 0.17786130574744347 0.16742770508473082 0.25044868335575904 0.17663773989756087 0.2533844462677266 0.29574148112534554 0.15715727903977939 0.27001863743986609 0.037890393109079233 0.15064390773415512 0.040571021076946275 0.027130182355020689 0.16024224344264731 0.034832382586907129 0.18332457876285765 0.092978659483951412 0.17810060713385581 0.039398581870373324 0.10915167079232016 0.14507056624304723 0.18118618984202156 0.12845707681020949 0.15788707311162115 0.18820500843466867 0.13889755217659588 0.069239937002295707 0.14756316216309975 0.062006753702066625 0.031431417771972399 0.14145499374594875 -0.0014967728252844516 0.0063457062383947237 0.0069782454666280089 0.0070511353849732703 0.0047551297118083357 0.0065956927529227521 0.0064193898403117509 -0.0039337115072070224 -0.0072955982311974409 -0.022552589043281588 0.038850343246840273 -0.022825892871011749 -0.018862043754826401 0.031909809105426547 0.037075607250612735 -0.017724826830908647 -0.010410341749029359 0.030064963318724918 0.0037560218527864782 0.087894484082358976 0.036772611679612752 0.012001889764735285 0.028719299932773449 -0.0089629004625821525 -0.0070015122140265574 0.0051805643601996743 -0.0086566772885014794 5.1092513125812007e-05 -0.008932356289086207 0.0046921459714988146 0.0035239660188498925 0.0031144174294258911 0.0059422824800602677 -0.0012641302874721767 0.006711899488576133 0.0021215910457159314 -0.0044662338764140516 0.0050293463652100511 -0.009342524175113014 0.0036437254805403627 0.0017764266971763119 0.0034808133805661694 0.0027766377558368278 0.0047244389537596087 0.0034796343669997189 0.0024914900983323898 0.0027291303029463353 0.0034571536120286974 0.0025468304150825802 0.0035666264067313533 0.0033719481959793994 0.0046092985739995635 0.0033879248463455263 0.0035977626662584061 0.0048449254372636202 0.0047639099301086648 0.0034635198681704921 0.0066045114875393825 0.0047929823708667369 0.0048865617864142733 0.0046646477019887476 0.0035877625495285346 0.0049027260966466027 0.0046858225977965831 0.0049420322146729416 0.0061445931253209761 0.0049274949175390857 0.0064639733596453955 0.006202617926439633 0.0047286266305699674 0.0062790311612209932 0.0058213702326027064 0.0052746092237505628 0.0038089769685487711 0.0056481855842457421 0.0047491158052895719 0.0057163406821104587 0.0038792293963190944 0.0046958381147364971 0.0038879669714782738 0.0034128071986330587 0.0026446280679281921 0.0025662484450536668 0.0033555547874861706 0.0027009122703449302 0.0026252512367021812 0.0037727899327365628 0.0026152939802730488 0.003402701260343755 0.0038413856260515931 0.0026048026470751892 0.0027835535521486842 0.003850707478497382 0.0052473177656492329 0.0039823090782520852 0.0038750249466567629 0.0026800271666317841 0.0038434017463927143 0.0039406000915558721 0.0024762233804594067 0.0024542477080751008 0.0034106762929400534 0.0025154258654627587 0.003903784668480766 0.0034567644928948254 0.0025307720297782469 0.0034789438803485575 0.0038140936903690386 0.0035720360138706618 0.005248054285258868 0.0049879245957837239 0.00595525452687206 0.0050257593307754924 0.0052990138475743492 0.0034667206832605102 0.0039640253729803353 0.0053847268491264344 0.0061064903035561368 0.0076106145341800404 0.0052155160639366536 0.0053606693497220042 0.0058339586141427377 0.0038645590088624286 0.0053951248358589023 0.0071459250885379747 0.0059031340837438114 0.0053108486381532281 0.0057162335391562156 0.0069636334771194927 0.0096202362297844006 0.0058816884267033041 0.0072172950453840232 0.0086574590767544684 0.0097919321245981978 0.0070205781874655357 0.0086663288054593963 0.011854343912927027 0.0098850466684807601 0.0098364493439912354 0.0076788815382294725 0.0055512143202325623 0.0060873164281130881 0.0073685284709959819 0.0077341305715947738 0.00588348303935578 0.0055381349531857431 0.0074502782226360236 0.010075957669025538 0.010191432848413375 0.0076595311800118368 0.010331605877511507 0.0077761928435838646 0.0073765954852932462 0.010463268487401452 0.0072864573558337397 0.009642080213255376 0.010572061284083526 0.0096643625009370879 0.01250856041180495 0.014772014355875721 0.012400854630467046 0.010198557557320943 0.014930779842637026 0.017203402873634772 0.012379956268919192 0.017330353412920763 0.016357181683832506 0.012644586856103583 0.01689532400796815 0.0129662683586059 0.016676433126660953 0.015378422133977802 0.0099471210370862852 0.011980255417621878 0.014600187354400881 0.010255081611546962 0.010125073747149221 0.015674808140009329 0.011927656109361175 0.017076650296115093 0.015777690769375977 0.017301086609872996 0.022605864352486436 0.014480233800397445 0.016996593905021042 0.012078248210280624 0.019296965110329609 0.0171837153620941 0.014476794185463097 0.014338310718641088 0.012067965598945603 0.010659870620958412 0.011590800942638093 0.014460766584293147 0.010700611142647424 0.019546932033263038 0.014536393257109453 0.017271134195538978 0.011548279608836259 0.016897444380814614 0.014609160942730045 0.011537144335594652 0.015490051584685293 0.016684895159172833 0.011226619567211