<?xml version="1.0"?>
<VTKFile type="UnstructuredGrid" version="0.1" byte_order="LittleEndian">
<UnstructuredGrid>
<Piece NumberOfPoints="3142" NumberOfCells="1054">
<Points>
<DataArray type="Float64" NumberOfComponents="3" format="ascii">
0 0 0 0.049999999999899652 0 0 0.02576622439977887 0.024532886826226379 0 0 0 0 0.02576622439977887 0.024532886826226379 0 0 0.050000000000207989 0 0 0.050000000000207989 0 0.02576622439977887 0.024532886826226379 0 0.053064897599215843 0.048131547304697528 0 0.049999999999899652 0 0 0.053064897599215843 0.048131547304697528 0 0.02576622439977887 0.024532886826226379 0 0.099999999999814668 0 0 0.10266856499169109 0.044518360900210059 0 0.053064897599215843 0.048131547304697528 0 0.049999999999899652 0 0 0.099999999999814668 0 0 0.053064897599215843 0.048131547304697528 0 0.099999999999814668 0 0 0.14999999999970359 0 0 0.10266856499169109 0.044518360900210059 0 0.083411279318303222 0.089699755330707398 0 0.053064897599215843 0.048131547304697528 0 0.10266856499169109 0.044518360900210059 0 0.14618258501891079 0.062070108745602003 0 0.12372429750337779 0.095814237875728972 0 0.10266856499169109 0.044518360900210059 0 0.083411279318303222 0.089699755330707398 0 0.10266856499169109 0.044518360900210059 0 0.12372429750337779 0.095814237875728972 0 0.083411279318303222 0.089699755330707398 0 0.12372429750337779 0.095814237875728972 0 0.1053400320299198 0.12877248826361379 0 0.14332333627550789 0.14578431753966009 0 0.1053400320299198 0.12877248826361379 0 0.12372429750337779 0.095814237875728972 0 0.083411279318303222 0.089699755330707398 0 0.1053400320299198 0.12877248826361379 0 0.065374659239632718 0.1448908038746782 0 0.083411279318303222 0.089699755330707398 0 0.065374659239632718 0.1448908038746782 0 0.044310582753132287 0.101412518374475 0 0 0.050000000000207989 0 0.053064897599215843 0.048131547304697528 0 0.044310582753132287 0.101412518374475 0 0.083411279318303222 0.089699755330707398 0 0.044310582753132287 0.101412518374475 0 0.053064897599215843 0.048131547304697528 0 0 0.10000000000041601 0 0 0.050000000000207989 0 0.044310582753132287 0.101412518374475 0 0 0.15000000000062411 0 0 0.10000000000041601 0 0.044310582753132287 0.101412518374475 0 0 0.15000000000062411 0 0.044310582753132287 0.101412518374475 0 0.065374659239632718 0.1448908038746782 0 0.083105206071467416 0.20007701332709979 0 0.038512288486115001 0.1844147282893184 0 0.065374659239632718 0.1448908038746782 0 0 0.15000000000062411 0 0.065374659239632718 0.1448908038746782 0 0.038512288486115001 0.1844147282893184 0 0 0.20000000000083221 0 0 0.15000000000062411 0 0.038512288486115001 0.1844147282893184 0 0 0.20000000000083221 0 0.038512288486115001 0.1844147282893184 0 0.044081577119474857 0.2271058242433576 0 0 0.25000000000104028 0 0 0.20000000000083221 0 0.044081577119474857 0.2271058242433576 0 0.083105206071467416 0.20007701332709979 0 0.044081577119474857 0.2271058242433576 0 0.038512288486115001 0.1844147282893184 0 0.049706944316556423 0.27522722923869108 0 0.044081577119474857 0.2271058242433576 0 0.095326043202144745 0.24554465089224409 0 0.083105206071467416 0.20007701332709979 0 0.095326043202144745 0.24554465089224409 0 0.044081577119474857 0.2271058242433576 0 0.083105206071467416 0.20007701332709979 0 0.106902708054812 0.16453234188234539 0 0.13737030665753211 0.20313708640667491 0 0.083105206071467416 0.20007701332709979 0 0.13737030665753211 0.20313708640667491 0 0.095326043202144745 0.24554465089224409 0 0.083105206071467416 0.20007701332709979 0 0.065374659239632718 0.1448908038746782 0 0.106902708054812 0.16453234188234539 0 0.065374659239632718 0.1448908038746782 0 0.1053400320299198 0.12877248826361379 0 0.106902708054812 0.16453234188234539 0 0.14332333627550789 0.14578431753966009 0 0.106902708054812 0.16453234188234539 0 0.1053400320299198 0.12877248826361379 0 0.14332333627550789 0.14578431753966009 0 0.16141998738593399 0.10404039647458049 0 0.18652628422869419 0.14162325200928061 0 0.14332333627550789 0.14578431753966009 0 0.18652628422869419 0.14162325200928061 0 0.18124454140915969 0.18790916706335251 0 0.14332333627550789 0.14578431753966009 0 0.13737030665753211 0.20313708640667491 0 0.106902708054812 0.16453234188234539 0 0.14332333627550789 0.14578431753966009 0 0.18124454140915969 0.18790916706335251 0 0.13737030665753211 0.20313708640667491 0 0.13737030665753211 0.20313708640667491 0 0.14377654328998779 0.2442024734791064 0 0.095326043202144745 0.24554465089224409 0 0.17933913398461551 0.2350063570234002 0 0.14377654328998779 0.2442024734791064 0 0.13737030665753211 0.20313708640667491 0 0.17933913398461551 0.2350063570234002 0 0.13737030665753211 0.20313708640667491 0 0.18124454140915969 0.18790916706335251 0 0.2185883431182947 0.18019736283949719 0 0.224700362040408 0.22206622194729711 0 0.18124454140915969 0.18790916706335251 0 0.17933913398461551 0.2350063570234002 0 0.18124454140915969 0.18790916706335251 0 0.224700362040408 0.22206622194729711 0 0.17933913398461551 0.2350063570234002 0 0.224700362040408 0.22206622194729711 0 0.21049769590865089 0.26857363548218488 0 0.25195515620380449 0.25883339815888678 0 0.21049769590865089 0.26857363548218488 0 0.224700362040408 0.22206622194729711 0 0.2185883431182947 0.18019736283949719 0 0.26429849586623999 0.19346700179430079 0 0.224700362040408 0.22206622194729711 0 0.2185883431182947 0.18019736283949719 0 0.22985637510995899 0.1298347970200906 0 0.25557216766470708 0.15874861286892261 0 0.2185883431182947 0.18019736283949719 0 0.25557216766470708 0.15874861286892261 0 0.26429849586623999 0.19346700179430079 0 0.2185883431182947 0.18019736283949719 0 0.18124454140915969 0.18790916706335251 0 0.18652628422869419 0.14162325200928061 0 0.2185883431182947 0.18019736283949719 0 0.18652628422869419 0.14162325200928061 0 0.22985637510995899 0.1298347970200906 0 0.19922788606653311 0.085920220746880993 0 0.24218496799700481 0.089025544070598317 0 0.22985637510995899 0.1298347970200906 0 0.27474541102162192 0.11822029332053539 0 0.22985637510995899 0.1298347970200906 0 0.24218496799700481 0.089025544070598317 0 0.27499999999933927 0.060310814194988557 0 0.24218496799700481 0.089025544070598317 0 0.22668068146512929 0.045875643423131329 0 0.19922788606653311 0.085920220746880993 0 0.22668068146512929 0.045875643423131329 0 0.24218496799700481 0.089025544070598317 0 0.19922788606653311 0.085920220746880993 0 0.22985637510995899 0.1298347970200906 0 0.18652628422869419 0.14162325200928061 0 0.19922788606653311 0.085920220746880993 0 0.18652628422869419 0.14162325200928061 0 0.16141998738593399 0.10404039647458049 0 0.14332333627550789 0.14578431753966009 0 0.12372429750337779 0.095814237875728972 0 0.16141998738593399 0.10404039647458049 0 0.14618258501891079 0.062070108745602003 0 0.16141998738593399 0.10404039647458049 0 0.12372429750337779 0.095814237875728972 0 0.19922788606653311 0.085920220746880993 0 0.16141998738593399 0.10404039647458049 0 0.14618258501891079 0.062070108745602003 0 0.19922788606653311 0.085920220746880993 0 0.14618258501891079 0.062070108745602003 0 0.184418230509967 0.038773194583122873 0 0.14999999999970359 0 0 0.184418230509967 0.038773194583122873 0 0.14618258501891079 0.062070108745602003 0 0.14999999999970359 0 0 0.14618258501891079 0.062070108745602003 0 0.10266856499169109 0.044518360900210059 0 0.14999999999970359 0 0 0.19999999999955789 0 0 0.184418230509967 0.038773194583122873 0 0.19999999999955789 0 0 0.22668068146512929 0.045875643423131329 0 0.184418230509967 0.038773194583122873 0 0.19922788606653311 0.085920220746880993 0 0.184418230509967 0.038773194583122873 0 0.22668068146512929 0.045875643423131329 0 0.19999999999955789 0 0 0.24999999999941211 0 0 0.22668068146512929 0.045875643423131329 0 0.24999999999941211 0 0 0.29999999999926641 0 0 0.27499999999933927 0.060310814194988557 0 0.29999999999926641 0 0 0.32541448401678508 0.046215317981507749 0 0.27499999999933927 0.060310814194988557 0 0.24999999999941211 0 0 0.27499999999933927 0.060310814194988557 0 0.22668068146512929 0.045875643423131329 0 0.27499999999933927 0.060310814194988557 0 0.27474541102162192 0.11822029332053539 0 0.24218496799700481 0.089025544070598317 0 0.27474541102162192 0.11822029332053539 0 0.3096713403101819 0.085471541595262421 0 0.32215584939770009 0.1218492143506909 0 0.3096713403101819 0.085471541595262421 0 0.27474541102162192 0.11822029332053539 0 0.27499999999933927 0.060310814194988557 0 0.27499999999933927 0.060310814194988557 0 0.32541448401678508 0.046215317981507749 0 0.3096713403101819 0.085471541595262421 0 0.35312867752657662 0.084946736076730367 0 0.3096713403101819 0.085471541595262421 0 0.32541448401678508 0.046215317981507749 0 0.35312867752657662 0.084946736076730367 0 0.32215584939770009 0.1218492143506909 0 0.3096713403101819 0.085471541595262421 0 0.35312867752657662 0.084946736076730367 0 0.36246644853392812 0.1399454205365751 0 0.32215584939770009 0.1218492143506909 0 0.35312867752657662 0.084946736076730367 0 0.39823268594401579 0.1116623613130045 0 0.36246644853392812 0.1399454205365751 0 0.35312867752657662 0.084946736076730367 0 0.3615861437013822 0.03582617922508851 0 0.39591832466117061 0.056982757562006353 0 0.35312867752657662 0.084946736076730367 0 0.32541448401678508 0.046215317981507749 0 0.3615861437013822 0.03582617922508851 0 0.29999999999926641 0 0 0.34999999999912063 0 0 0.32541448401678508 0.046215317981507749 0 0.34999999999912063 0 0 0.3615861437013822 0.03582617922508851 0 0.32541448401678508 0.046215317981507749 0 0.34999999999912063 0 0 0.3999999999989749 0 0 0.3615861437013822 0.03582617922508851 0 0.3999999999989749 0 0 0.39591832466117061 0.056982757562006353 0 0.3615861437013822 0.03582617922508851 0 0.3999999999989749 0 0 0.4320097814748517 0.037406712692169303 0 0.39591832466117061 0.056982757562006353 0 0.43698630808430822 0.080423614171545449 0 0.39591832466117061 0.056982757562006353 0 0.4320097814748517 0.037406712692169303 0 0.3999999999989749 0 0 0.4499999
[...]
<PointData Scalars="tracer_conc,region_id," Vectors="" Tensors="">
<DataArray type="Float64" Name="tracer_conc" format="ascii">
0.00047000929433001161 0.00070181105121226034 0.00057967709809322149 0.0004718128692473771 0.00057586896863431782 0.00046621460921454589 0.00046411830708894332 0.00057965859071762253 0.00070953444920714376 0.00071399265826994028 0.00072339559307537196 0.00057925409254750999 0.0010721835170679902 0.001084637458367759 0.00071537348434489356 0.00071621439187358378 0.0010496740399192509 0.00072611775681184461 0.0010841601305325416 0.0015861847539279613 0.001098046531701449 0.00091449936531721218 0.00072310517954706389 0.0010797964292014873 0.001540246635004196 0.00127737884887733 0.0010972181347358159 0.00091544223926970933 0.00109692243046806 0.0012640123702072343 0.00084358416553091784 0.0011991696093544355 0.0012836563606835171 0.0019462570218449829 0.0013228605047204576 0.0011961510341057249 0.00089255477113286432 0.001386229839624817 0.00097222314250694703 0.00088833685166648754 0.0009645625768018968 0.00067122499419652165 0.00046052071872914924 0.0007146606908511946 0.00065369153438723225 0.00089819129211345702 0.00065871319574708077 0.0007259876067573915 0.00045566491509096187 0.00046562477382145736 0.00064277530364240435 0.00044087215633398946 0.00052571979945923689 0.00073446384293949574 0.00042394248726198994 0.0007529734667043015 0.00087498199906037744 -0.0012922978738547147 -0.00066666526179814782 0.00037252689808195833 0.00018265996081887572 0.00032933360794660654 -0.00060012674667218662 -0.0012292740272708453 0.00024512457555732651 -0.0013341635905897555 0.00014930851522358622 -0.0030882179058993021 0.0067160210851689665 0.01590962561513146 -0.0019864219406839092 0.007611212754208189 -0.0018774726951413818 0.0071507254213075688 -0.0034332168803090676 0.050286869394001059 0.0073036689586275317 0.035101157038594441 -0.0025338343990873838 0.024957999304315071 0.0099557203974479647 -0.0013591271243296749 -0.00033409675889704393 -0.0019287990628614215 -0.0037033735816113678 0.00024301578824297362 0.026199430442535417 -0.0013474222099098614 0.00043909360204209558 -0.00033582401029816047 0.00057544546635332613 0.0017054529178634618 -0.00032264232988253995 0.001133005265119335 -0.00039849917427821346 0.0017882834560083909 0.0020226052287191845 0.0017063710833475391 0.0025537650875811961 0.0022820462769013597 0.0033030208403830559 -0.0044153844815854578 0.00043647104156148452 -0.0019926544684974782 -0.00025249338592547854 0.00050165375583189492 -0.0043078787031172513 -0.0020776229141770881 -0.00037987564528296411 0.035039867458246401 0.028223958683178105 0.027686666578136232 0.035940842305939504 -0.0018372701910014339 0.024309088447780194 0.0025298221045690719 -0.0046912477250679778 -0.010695488450748808 0.019587501225054094 -0.0051410110354565275 0.025704772787829157 -0.0056846305290516675 0.018260309463886421 0.034702942186745182 0.016456407048127938 0.14494151660686994 0.15004993561875288 0.15054763044404743 0.012999801407513232 -0.011537858106440726 -0.0073833268984299216 0.020892692470535164 -0.0010052857609023612 0.004074932543176377 0.0028971861019079334 -0.0027818050223984681 0.003258672237359496 -0.0074304011586041468 -0.0023924915644777819 -0.0047902152084271649 0.0035327523624877235 -0.00081242017856905614 0.0021692297576434783 0.0039102093437604138 0.0022946751591523887 0.003284940779996626 0.0033464280521385494 0.0045373120506876311 0.0033897336042899235 0.0033072072619888208 0.0043905676328147032 0.0034041647924041257 0.0030581787104477678 0.0023853699374628014 0.0030484661779962901 0.0033675133946246129 0.0023002799107465408 0.0034139020947274732 0.0025301035972300472 0.0022920970459813783 0.0025110221339680397 0.0017874474583866916 0.0019733832553593257 0.0011797300483601472 0.0017024177343008685 0.0015584303973219203 0.0017260923253255558 0.0012747440135560757 0.0022953053032915031 0.0017408010058333678 0.0015610358818828358 0.0023665358275640636 0.0015452658963146086 0.0021541012474998698 0.0016381600747514913 0.002124467718778006 0.0015686491261553397 0.0016199087314374568 0.0015561845647584307 0.0010818992719756029 0.001625276433006895 0.0024312997485757938 0.0021482514850816731 0.0024681437783477898 0.0030060249476543933 0.0021563862788391485 0.0023984140101872332 0.00216633130879948 0.003003239882586451 0.0024623499769680893 0.0036534390287466748 0.0030417252890331489 0.003712309669316744 0.0054925283348943353 0.0045128591815201298 0.005584839583562015 0.0067086978755110625 0.0045069096599799222 0.0037140713284031231 0.0044517710440909646 0.0030406716162024927 0.0044606016799476128 0.0044245286429407324 0.0033980532217812017 0.0044321064505141493 0.005861061579701194 0.0064772826361474611 0.0058095531145910097 0.0044458557470117661 0.0044848763603894393 0.0044663750965601061 0.0067397225914590702 0.0058864474866920031 0.0082900135210069205 0.005903452645945763 0.006832669406398313 0.0082193730516006945 0.0065582964961693139 0.0058874061631106391 0.008332275530458181 0.0090505091416951296 0.0065290379025891914 0.0083613013486291236 0.011981555810063499 0.009128300238715966 0.0084243610373446656 0.0092315329608969945 0.011904520022223987 0.0084052178381607296 0.0068145948808703812 0.0091607700831967016 0.0055802307011992439 0.0082569667248226578 0.0068285278958610104 0.0083937395423980404 0.0091205910008307026 0.00682260700606316 0.0084257973884217848 0.012338958937227749 0.009188462686692803 0.012573627206552125 0.012083260507637203 0.0091092204375979417 0.01266835271547212 0.016105518470017503 0.012142728992006786 0.016588010150164322 0.011972585833990653 0.016387228075476899 0.012625765840956094 0.018841989402617082 0.016215179491068241 0.019137609564102837 0.022079492462225812 0.016247851999700663 0.019136558794303895 0.02836318674923128 0.022288598932976321 0.02887581049290338 0.034234083117920908 0.022191407457394119 0.016712008620086632 0.016495583687458234 0.022151927662481058 0.016508970929535613 0.022485712471153756 0.023186112672262994 0.033702625241493617 0.02338381294285382 0.022626918363515196 0.029388934619501515 0.023289857448637222 0.023279788818691891 0.016779098957464475 0.02276018918915072 0.016512941317975528 0.016634654382831314 0.016388326928687646 0.011674515662743043 0.016384988950674903 0.011875748748852406 0.012158456709899772 0.0082802126289140601 0.012041084042987458 0.011780853039060192 0.011013884582526719 0.008775729812153573 0.012477568464882391 0.0072972050294228619 0.021838655912765129 -0.0037786173400974786 0.011030858113058336 0.012598041693998262 0.018762873236242591 0.01633511541402638 0.023064344970873771 0.02310643083495182 0.018526679567461964 0.023582207976632699 0.02903235257294123 0.0078144128359411372 -0.0045514693926612948 0.02271737605886797 0.018608848477135335 0.01683436181908067 0.023281949163203322 -0.020575603201402878 0.057366746471747158 0.004991292265105772 0.01717668649432939 0.029787573492859799 0.019703897522855333 -0.022757641436779556 -0.043544652193053313 0.060171823822736017 0.28284537515485675 0.11863728237878872 -0.079471179019078048 0.2779196356507857 -0.054232879876026784 0.079381160457074662 0.26841031882451655 0.060068137052009939 -0.046528134518974341 -0.0054009024571480694 0.012815612466467076 0.0010409573488671833 -0.0060034221997825104 -0.020276937192435313 0.013579795259318763 0.31819984495370984 0.44210265662460219 0.030039733406599788 0.13778258589706516 0.040340885419163579 0.42800039497364617 0.093704717992687925 -0.0031356365863111761 -0.025673045863293963 0.098555890092800108 -0.028832927835276401 0.024212144598490141 0.0032897324654359169 -0.0039602845987061494 0.011120755252294112 0.0028361337977813638 0.010746400635706491 -0.0036196998772119204 0.0046329997168574654 0.0034414796713315462 0.0075255823094195554 0.0045976269791130888 0.0076855175035141507 0.0098624292542662424 0.0043750366970891725 -0.010636368922632316 -0.013059621480885367 -0.0082751261374271311 0.0043132330168807837 -0.011806409170711222 0.0040984227964851357 -0.012271591595529027 0.0050281527375364609 0.0052378513568514459 0.0072812954108406143 0.0037318345939753327 0.0051398857799910894 0.0037379918209323316 0.0026474030814943573 0.0050351666642294585 0.0027178534147690296 0.0032309286511418029 -0.0077872958881259014 0.0036600988205072668 0.0040516053705632786 -0.0082652263446341238 0.049737592974385486 0.027226154513797549 -0.011154100111156853 0.00055804192334260561 0.052220818832254601 0.090007340547785211 0.054414506459867618 0.0011265429299062216 0.14598779182066676 0.2689992537737953 0.050301754681331287 0.055846241289409369 0.14749866358157235 0.010696154252927238 0.15864428130726224 0.056089011581800748 0.26327523110184664 0.17234334818884048 0.2830285624925602 0.27567217900209307 0.3897337986765374 0.29432002213660663 0.45011227836795076 0.38500747495715493 0.26307715121590219 0.29582662711928254 0.3836741611604268 0.2268106291570802 0.29821359284130777 0.056696386742275784 0.21153141088331057 0.22898945916547811 0.061280393156917204 0.078544296549395057 0.20398417427602086 0.049577464059891843 0.23163020333634191 0.18543381611616394 0.39623189167831951 0.41599335403192167 0.23456934459537693 0.3903815593053675 0.23674887140969775 0.20398635754342362 0.53525801727970623 0.2070856441557683 0.40313482353371005 0.21015653978674828 0.23192031410886513 0.39795534480481065 0.069658393499802629 0.19758303029521077 0.41933388285848205 0.43538417183005962 0.20018574284475135 0.54109519465277889 0.61938998699102721 0.42766745713816284 0.47668241792480914 0.59672510746403851 0.4549875177082125 0.46323027969408459 0.36776728801987391 0.46193935856324769 0.45387306063872895 0.15735704464647893 0.44264249461254673 0.26927532720783515 0.14902165582339005 0.44068805252632592 0.45181259695580056 0.62430289697905184 0.47467299964031867 0.79278510278654601 0.3911117669788014 0.78019214885409016 0.82012638165589813 0.39787571418060486 0.81001993160491914 0.43719999901145312 0.33315221590894251 0.10003967496336898 0.719786784542918 1.0914069332659835 0.7253187038508202 0.38433834566451686 0.35243927044145151 0.73087260447247504 0.090082613925619739 1.051398469754093 0.85194518035029942 0.83914309281656652 0.7258125832620933 0.83879283263127347 0.85302208037932747 0.43853136215433969 0.76653310011512132 0.78876822457026219 0.44076706790413395 0.7665954368273874 0.5377559111992376 1.004501707212808 0.53710584384872295 0.76965413806720562 0.31486802379401918 0.3170998461622207 -0.073375488835644528 0.33858160704223206 -0.04098564603717058 0.44920277872918535 0.44140077976268421 0.4417726792194509 0.76129068392246635 0.54643074516853685 0.75509139780571732 0.44763213834743265 0.05568410923314291 0.43532390440599383 -0.031817642608756413 0.010144041141629452 -0.03681158474835633 -0.029335122480547059 0.021580609710576664 -0.0049688869833288815 -0.040799476199496074 0.30190150162466334 -0.065659592643999301 -0.020645778045581889 -0.12224389444389244 -0.066387041135675978 0.30980268487957935 0.00010375486592884329 0.047115189996933371 -0.041053078197098448 0.023376787618682279 -0.042694448198357368 -0.040618642437911148 0.02596570971342875 -0.037444697316330183 0.044517189178720509 0.025722878491696539 0.02913035081571318 0.016475579507092403 0.021443550993263304 0.018338745548488234 0.014593852901372854 0.026673905618132435 0.020450699672870758 0.025200377346249365 0.026135753951377856 0.016990730463369096 0.020522398800380023 0.02111626773223484 0.014645373260948519 0.012845127404303155 0.020829706458288348 0.01819949404352952 0.0035995954413282289 0.010699600071435869 0.011850172785324081 0.015149484768772663 0.01066230670040934 0.0083581498005918277 0.011741250337522663 0.0089639911816398084 0.0097172263809307512 0.0070756146539335809 0.0085394745991284847 0.0069061194979632302 0.0068773435905055301 0.0080203140667832896 0.0087024193075966715 0.001866706063222188 0.0062567128391701667 0.0040045191592246593 0.017536758244226715 0.0089794863871104011 0.015345692263646011 0.0098066549459721718 0.0076519727026349519 -0.019815391595422081 -0.012682055244518559 0.044521370299405311 -0.0454597756546666 0.18306565783560352 0.0090428634080971081 -0.028213992947689313 -0.0074016328844966712 0.1751182023923317 -0.041558035635249777 -0.043054325822416348 0.0064269678685658672 -0.00081241040087374626 -0.017156311230323587 0.0071584963806813019 -0.018074909536087112 -0.019539710989794238 0.022588448511994888 -0.024735685764120701 -0.020536669511808516 0.057562466098434989 0.16708454715507948 -0.035395761686994598 -0.007292517928106014 0.0054975551922418226 -0.010283331628986106 0.020876581692898216 -0.018986656173690938 -0.0014779872662351741 0.0021009768153658244 0.0084163697180047962 0.0043522638692311821 0.0048556682444620154 0.0052295652065075309 0.0072545789526290583 0.0048307250507275403 0.0036601758837279817 0.0051909968593288969 0.0027389635507735553 0.0042430075493281169 0.0027315314788346474 0.0026972132063597374 0.0051125481317101026 0.0043212891683498495 0.0010045579444336891 -0.0098101512964816583 0.0051424801518546934 0.0017412789341015118 0.0043780937988432515 -0.0034640864855010039 0.0022384218953285001 0.0033268465734896933 0.0021117837467549663 0.0014350773921674989 0.0022165812830722774 0.0020928887183543233 0.0014554185273499814 0.0015621386626586968 0.0021798819841611253 0.0016886177933464663 0.0017556619619726011 -0.0038620331216904545 0.0012740772131848257 -0.0031991891388638964 0.0041464223032162397 0.0018272745938935967 -0.0041674153581901336 -0.0035962442813008526 0.021857754155985017 -0.017364594379633121 -0.013804519902488958 0.020618899896827379 -0.011704164000687859 0.01634179111016382 0.057898960380411833 -0.013004456155371505 -0.022087406166421471 0.024337398848727577 0.054941096143007705 -0.018763475740149881 0.00061459191580842177 -0.0047817146464425864 -0.0094501765865654674 0.035135876984076907 -0.015947741442264542 0.068400282839069793 0.079773638959857937 0.20192946890082106 0.2078724373549144 0.012518960007673297 0.10307603315220995 0.068586156435536644 0.082800697535821546 0.10797735825978533 0.19756149946805648 0.19600597194932418 0.1964647911570776 0.11464833838492389 0.19435395441987841 0.29170979120648644 0.19842890497246463 0.29561529247389351 0.22747164534610437 0.1965270036911401 0.17389377060423072 0.27105610462157192 0.14655658331063959 0.21901678298804778 0.15519053627158541 0.27330339617389793 0.21590189019437037 0.12880445498129003 0.15595161172404051 0.204148248881248 0.12941844682291179 0.14848844677350934 0.039964385258890102 0.14527785468874596 0.13690021391534624 0.041804787924556629 0.13338836632702053 0.044130514455275507 0.086507076213119025 0.046865381621517599 0.13059747736890762 0.099092367778623167 0.1446629765887277 0.13317184956339159 0.19179723215668329 0.11647521279933232 0.10852131150664393 0.016835463855153356 0.11602775998781807 0.10604415133492677 0.019288170964445808 0.0055342560584953618 0.10980943374320462 0.056742444788517928 0.10584531794048047 0.0094785521328776875 0.053461443472333316 0.010838926431291356 0.0058504059256204765 0.064277776517112167 0.05859556570130374 0.096420352492777764 0.063570924190352915 0.098269113244309605 0.11969212841638585 0.099547850721040651 0.13141654466222683 0.086997122708026536 0.083978071555675035 0.031828346668093491 0.047479804042487986 0.09188494118456815 0.097916443768829145 0.040427175438726121 0.048492131098304241 0.042067697212016593 0.095208775170785243 0.055423641131846661 0.093919547800549313 0.067876008921013309 0.042047581105715368 0.055380491992018679 0.066813463622625871 0.019008615066859722 0.0087622919594311302 0.0482803364487423 0.045808726559180973 0.021449795102107719 0.050744006834209751 0.035030944608898426 0.048293582724998785 0.063185181430224654 0.029454026049504596 0.061642832664208821 0.011048093251964083 0.057027319188528297 0.0089651819857606979 0.064126837049439084 -0.00017320265706403842 0.027145960737061953 0.010333654801169554 0.0029916137923242546 0.0078819863953484403 -0.0032429832342100243 -0.0022729437595806852 0.00096196790045533951 -0.0030896100910988923 -0.0063038625770829686 -0.0037612743360054615 0.0083609482835149285 -0.0067391118942234027 0.0090424912803322138 0.0110809633834932 -0.0083801864937054476 0.011914602788798587 -0.0094994653444689346 -0.0010476370701505235 0.001444516558864179 0.0017571851091263012 0.001464402922420782 -0.0019252378935892367 -0.0036331018580910055 0.0014407146890565354 0.00097722673747538381 0.0015426354721598038 0.00073606213193175296 0.00062584208436240448 0.0013867308382541914 -0.0019706135742402859 0.0012196532533874102 -0.0033153135815618272 -0.00094891806853318551 0.0016545495358647447 0.00029484481050009277 -0.00023207727794456327 -0.0031552818144263525 0.0010945512857035049 0.00077556117778966442 0.00029333921937217829 0.0007346278527900395 0.00043262622984195528 0.00050084771755183014 0.00062274350893808887 0.00051862702730114606 0.00094343066104202872 0.0006238434567690628 0.00087139206377207477 0.0006209618033113126 0.00066066509897454368 0.0004504174628509623 0.00065374108129117681 0.00061724221174181315 0.00047539374092509001 0.00045438977395400589 0.00061434094812746131 0.00046887746210714408 0.00062560510143165084 0.00071987882222298942 0.00047825307128255168 0.00047271593800498701 0.00070028077349811588 0.00089432985321473305 0.00073079595617883848 0.00062762378892671899 0.0010033165691856528 0.00071445253788198686 0.0011105289047712015 0.00090671926187316015 0.0011197232126421448 0.00072902061662512611 0.00090237244752652791 0.0012394161002297539 0.0011444626483061125 0.00093910179412239113 0.0012739827113821798 0.0012145430705110664 0.00088900383675648883 0.00094227660136815842 0.0012006985934199265 0.00088397959234016847 0.00065857699725887153 0.00093299121239692957 0.0013179261451832516 0.00089118692650193754 0.00099102653969106039 0.00097567950143103484 0.00088701513660528232 0.00061509619011865333 0.0013063580954642239 0.0018648369630612335 0.0015670800111448682 0.0012195456801120661 0.0012832028662134243 0.0015717985290343234 0.0024222998289331874 0.0022554412415162067 0.0016103210538573063 0.0023162519596928422 0.0015731172443665595 0.0018870181586661241 0.002305910872266437 0.0029005329608493427 0.0036477379095621624 0.0023090284386594259 0.001971219340882473 0.0028702605313219321 0.0024363138741800589 0.0034445012737590519 0.0036986952601171506 0.0024389398272963571 0.0037888039785875082 0.0032352695377537324 0.0024530795601382933 0.0031919822728540869 0.0022700418974972054 0.0044901964507481013 0.0032041982459560031 0.003909916909598697 0.0032031256644148892 0.0038229658157513755 0.0025949638428017854 0.0044542696568511311 0.0038771760512068421 0.0032027030063559287 0.0031615067114581811 0.0025947414700429896 0.0022628897707724824 0.0022592833453355227 0.0025677050330853066 0.0018054167986173608 0.0018292858315810459 0.0016442014650625252 0.0022361699567132755 0.0018105073457124802 0.0012346561484130947 0.0016382815691295951 0.0017568634008950079 0.001390437553461897 0.0011254034263624782 0.0017667585080426325 0.0011482774051708635 0.0012507595311573114 0.0017949010882405609 0.0019954584859404158 0.0013869182203869841 0.00195734935137534 0.0011964587991409139 0.0014027693843241718 0.0018000116483098928 0.0025420098270343872 0.0020174004058820163 0.0032934701432288586 0.0020187363518785226 0.0025807055904609973 0.0033703386152972325 0.0025736424347898054 0.0038275365020995862 0.003389018522238199 0.0038910983179839299 0.0051227355490258523 0.0032726270311847169 0.00246586418966814 0.0020559010778442646 0.0033631215146655989 0.0032020371887025189 0.002438592670002375 0.003391297235197396 0.0045238065610994412 0.0032137028797055408 0.0040914403976082987 0.0031697721506990738 0.0044915427562776996 0.0040806469340871144 0.0035202444812733771 0.0030711614554434856 0.0022500140626367936 0.0024034054020990619 0.0030724773389604844 0.0022383043691843259 0.0017441704203322178 0.0023846477526676059 0.0022097029631366698 0.0016059352238873806 0.001754