<?xml version="1.0"?>
<VTKFile type="UnstructuredGrid" version="0.1" byte_order="LittleEndian">
<UnstructuredGrid>
<Piece NumberOfPoints="3142" NumberOfCells="1054">
<Points>
<DataArray type="Float64" NumberOfComponents="3" format="ascii">
0 0 0 0.049999999999899652 0 0 0.02576622439977887 0.024532886826226379 0 0 0 0 0.02576622439977887 0.024532886826226379 0 0 0.050000000000207989 0 0 0.050000000000207989 0 0.02576622439977887 0.024532886826226379 0 0.053064897599215843 0.048131547304697528 0 0.049999999999899652 0 0 0.053064897599215843 0.048131547304697528 0 0.02576622439977887 0.024532886826226379 0 0.099999999999814668 0 0 0.10266856499169109 0.044518360900210059 0 0.053064897599215843 0.048131547304697528 0 0.049999999999899652 0 0 0.099999999999814668 0 0 0.053064897599215843 0.048131547304697528 0 0.099999999999814668 0 0 0.14999999999970359 0 0 0.10266856499169109 0.044518360900210059 0 0.083411279318303222 0.089699755330707398 0 0.053064897599215843 0.048131547304697528 0 0.10266856499169109 0.044518360900210059 0 0.14618258501891079 0.062070108745602003 0 0.12372429750337779 0.095814237875728972 0 0.10266856499169109 0.044518360900210059 0 0.083411279318303222 0.089699755330707398 0 0.10266856499169109 0.044518360900210059 0 0.12372429750337779 0.095814237875728972 0 0.083411279318303222 0.089699755330707398 0 0.12372429750337779 0.095814237875728972 0 0.1053400320299198 0.12877248826361379 0 0.14332333627550789 0.14578431753966009 0 0.1053400320299198 0.12877248826361379 0 0.12372429750337779 0.095814237875728972 0 0.083411279318303222 0.089699755330707398 0 0.1053400320299198 0.12877248826361379 0 0.065374659239632718 0.1448908038746782 0 0.083411279318303222 0.089699755330707398 0 0.065374659239632718 0.1448908038746782 0 0.044310582753132287 0.101412518374475 0 0 0.050000000000207989 0 0.053064897599215843 0.048131547304697528 0 0.044310582753132287 0.101412518374475 0 0.083411279318303222 0.089699755330707398 0 0.044310582753132287 0.101412518374475 0 0.053064897599215843 0.048131547304697528 0 0 0.10000000000041601 0 0 0.050000000000207989 0 0.044310582753132287 0.101412518374475 0 0 0.15000000000062411 0 0 0.10000000000041601 0 0.044310582753132287 0.101412518374475 0 0 0.15000000000062411 0 0.044310582753132287 0.101412518374475 0 0.065374659239632718 0.1448908038746782 0 0.083105206071467416 0.20007701332709979 0 0.038512288486115001 0.1844147282893184 0 0.065374659239632718 0.1448908038746782 0 0 0.15000000000062411 0 0.065374659239632718 0.1448908038746782 0 0.038512288486115001 0.1844147282893184 0 0 0.20000000000083221 0 0 0.15000000000062411 0 0.038512288486115001 0.1844147282893184 0 0 0.20000000000083221 0 0.038512288486115001 0.1844147282893184 0 0.044081577119474857 0.2271058242433576 0 0 0.25000000000104028 0 0 0.20000000000083221 0 0.044081577119474857 0.2271058242433576 0 0.083105206071467416 0.20007701332709979 0 0.044081577119474857 0.2271058242433576 0 0.038512288486115001 0.1844147282893184 0 0.049706944316556423 0.27522722923869108 0 0.044081577119474857 0.2271058242433576 0 0.095326043202144745 0.24554465089224409 0 0.083105206071467416 0.20007701332709979 0 0.095326043202144745 0.24554465089224409 0 0.044081577119474857 0.2271058242433576 0 0.083105206071467416 0.20007701332709979 0 0.106902708054812 0.16453234188234539 0 0.13737030665753211 0.20313708640667491 0 0.083105206071467416 0.20007701332709979 0 0.13737030665753211 0.20313708640667491 0 0.095326043202144745 0.24554465089224409 0 0.083105206071467416 0.20007701332709979 0 0.065374659239632718 0.1448908038746782 0 0.106902708054812 0.16453234188234539 0 0.065374659239632718 0.1448908038746782 0 0.1053400320299198 0.12877248826361379 0 0.106902708054812 0.16453234188234539 0 0.14332333627550789 0.14578431753966009 0 0.106902708054812 0.16453234188234539 0 0.1053400320299198 0.12877248826361379 0 0.14332333627550789 0.14578431753966009 0 0.16141998738593399 0.10404039647458049 0 0.18652628422869419 0.14162325200928061 0 0.14332333627550789 0.14578431753966009 0 0.18652628422869419 0.14162325200928061 0 0.18124454140915969 0.18790916706335251 0 0.14332333627550789 0.14578431753966009 0 0.13737030665753211 0.20313708640667491 0 0.106902708054812 0.16453234188234539 0 0.14332333627550789 0.14578431753966009 0 0.18124454140915969 0.18790916706335251 0 0.13737030665753211 0.20313708640667491 0 0.13737030665753211 0.20313708640667491 0 0.14377654328998779 0.2442024734791064 0 0.095326043202144745 0.24554465089224409 0 0.17933913398461551 0.2350063570234002 0 0.14377654328998779 0.2442024734791064 0 0.13737030665753211 0.20313708640667491 0 0.17933913398461551 0.2350063570234002 0 0.13737030665753211 0.20313708640667491 0 0.18124454140915969 0.18790916706335251 0 0.2185883431182947 0.18019736283949719 0 0.224700362040408 0.22206622194729711 0 0.18124454140915969 0.18790916706335251 0 0.17933913398461551 0.2350063570234002 0 0.18124454140915969 0.18790916706335251 0 0.224700362040408 0.22206622194729711 0 0.17933913398461551 0.2350063570234002 0 0.224700362040408 0.22206622194729711 0 0.21049769590865089 0.26857363548218488 0 0.25195515620380449 0.25883339815888678 0 0.21049769590865089 0.26857363548218488 0 0.224700362040408 0.22206622194729711 0 0.2185883431182947 0.18019736283949719 0 0.26429849586623999 0.19346700179430079 0 0.224700362040408 0.22206622194729711 0 0.2185883431182947 0.18019736283949719 0 0.22985637510995899 0.1298347970200906 0 0.25557216766470708 0.15874861286892261 0 0.2185883431182947 0.18019736283949719 0 0.25557216766470708 0.15874861286892261 0 0.26429849586623999 0.19346700179430079 0 0.2185883431182947 0.18019736283949719 0 0.18124454140915969 0.18790916706335251 0 0.18652628422869419 0.14162325200928061 0 0.2185883431182947 0.18019736283949719 0 0.18652628422869419 0.14162325200928061 0 0.22985637510995899 0.1298347970200906 0 0.19922788606653311 0.085920220746880993 0 0.24218496799700481 0.089025544070598317 0 0.22985637510995899 0.1298347970200906 0 0.27474541102162192 0.11822029332053539 0 0.22985637510995899 0.1298347970200906 0 0.24218496799700481 0.089025544070598317 0 0.27499999999933927 0.060310814194988557 0 0.24218496799700481 0.089025544070598317 0 0.22668068146512929 0.045875643423131329 0 0.19922788606653311 0.085920220746880993 0 0.22668068146512929 0.045875643423131329 0 0.24218496799700481 0.089025544070598317 0 0.19922788606653311 0.085920220746880993 0 0.22985637510995899 0.1298347970200906 0 0.18652628422869419 0.14162325200928061 0 0.19922788606653311 0.085920220746880993 0 0.18652628422869419 0.14162325200928061 0 0.16141998738593399 0.10404039647458049 0 0.14332333627550789 0.14578431753966009 0 0.12372429750337779 0.095814237875728972 0 0.16141998738593399 0.10404039647458049 0 0.14618258501891079 0.062070108745602003 0 0.16141998738593399 0.10404039647458049 0 0.12372429750337779 0.095814237875728972 0 0.19922788606653311 0.085920220746880993 0 0.16141998738593399 0.10404039647458049 0 0.14618258501891079 0.062070108745602003 0 0.19922788606653311 0.085920220746880993 0 0.14618258501891079 0.062070108745602003 0 0.184418230509967 0.038773194583122873 0 0.14999999999970359 0 0 0.184418230509967 0.038773194583122873 0 0.14618258501891079 0.062070108745602003 0 0.14999999999970359 0 0 0.14618258501891079 0.062070108745602003 0 0.10266856499169109 0.044518360900210059 0 0.14999999999970359 0 0 0.19999999999955789 0 0 0.184418230509967 0.038773194583122873 0 0.19999999999955789 0 0 0.22668068146512929 0.045875643423131329 0 0.184418230509967 0.038773194583122873 0 0.19922788606653311 0.085920220746880993 0 0.184418230509967 0.038773194583122873 0 0.22668068146512929 0.045875643423131329 0 0.19999999999955789 0 0 0.24999999999941211 0 0 0.22668068146512929 0.045875643423131329 0 0.24999999999941211 0 0 0.29999999999926641 0 0 0.27499999999933927 0.060310814194988557 0 0.29999999999926641 0 0 0.32541448401678508 0.046215317981507749 0 0.27499999999933927 0.060310814194988557 0 0.24999999999941211 0 0 0.27499999999933927 0.060310814194988557 0 0.22668068146512929 0.045875643423131329 0 0.27499999999933927 0.060310814194988557 0 0.27474541102162192 0.11822029332053539 0 0.24218496799700481 0.089025544070598317 0 0.27474541102162192 0.11822029332053539 0 0.3096713403101819 0.085471541595262421 0 0.32215584939770009 0.1218492143506909 0 0.3096713403101819 0.085471541595262421 0 0.27474541102162192 0.11822029332053539 0 0.27499999999933927 0.060310814194988557 0 0.27499999999933927 0.060310814194988557 0 0.32541448401678508 0.046215317981507749 0 0.3096713403101819 0.085471541595262421 0 0.35312867752657662 0.084946736076730367 0 0.3096713403101819 0.085471541595262421 0 0.32541448401678508 0.046215317981507749 0 0.35312867752657662 0.084946736076730367 0 0.32215584939770009 0.1218492143506909 0 0.3096713403101819 0.085471541595262421 0 0.35312867752657662 0.084946736076730367 0 0.36246644853392812 0.1399454205365751 0 0.32215584939770009 0.1218492143506909 0 0.35312867752657662 0.084946736076730367 0 0.39823268594401579 0.1116623613130045 0 0.36246644853392812 0.1399454205365751 0 0.35312867752657662 0.084946736076730367 0 0.3615861437013822 0.03582617922508851 0 0.39591832466117061 0.056982757562006353 0 0.35312867752657662 0.084946736076730367 0 0.32541448401678508 0.046215317981507749 0 0.3615861437013822 0.03582617922508851 0 0.29999999999926641 0 0 0.34999999999912063 0 0 0.32541448401678508 0.046215317981507749 0 0.34999999999912063 0 0 0.3615861437013822 0.03582617922508851 0 0.32541448401678508 0.046215317981507749 0 0.34999999999912063 0 0 0.3999999999989749 0 0 0.3615861437013822 0.03582617922508851 0 0.3999999999989749 0 0 0.39591832466117061 0.056982757562006353 0 0.3615861437013822 0.03582617922508851 0 0.3999999999989749 0 0 0.4320097814748517 0.037406712692169303 0 0.39591832466117061 0.056982757562006353 0 0.43698630808430822 0.080423614171545449 0 0.39591832466117061 0.056982757562006353 0 0.4320097814748517 0.037406712692169303 0 0.3999999999989749 0 0 0.4499999
[...]
<PointData Scalars="tracer_conc,region_id," Vectors="" Tensors="">
<DataArray type="Float64" Name="tracer_conc" format="ascii">
0.12648582864475105 0.15686297690653647 0.14143843775961598 0.12661187202539326 0.14122215511169348 0.12591533971599003 0.12575514251610906 0.14147764212289052 0.15805274463076877 0.15754934505385126 0.15886146292289907 0.14143646188652961 0.19408230473551999 0.19535992947566352 0.1585454016595555 0.1576606494885448 0.19310653474200082 0.15900329744286584 0.19455670989056076 0.23620396354853943 0.19589818588211147 0.17957656641757383 0.15882531276919251 0.1951479724878917 0.23211538870131077 0.21184851293460039 0.19584513968584294 0.17965084826450831 0.19583534927360624 0.21137704737823543 0.17985498369901345 0.2114872229786918 0.19537312244065666 0.22616942072001892 0.19526803911498714 0.21207838670654591 0.18117672434234955 0.1964821081642599 0.16226786580604011 0.18069857907528847 0.16236941779743677 0.15244300564861582 0.12534725608201291 0.15807002418962851 0.15229260198617944 0.17932159218013219 0.15262296550162294 0.15867952125606793 0.12561664995664568 0.12568170263399447 0.15161344929595758 0.11681826741974523 0.12778571155355103 0.15344731540849804 0.11609277059453979 0.15433919794652862 0.15983550530388874 0.14260685673075499 0.11919823118487395 0.14786914263500844 0.10789753644739929 0.14669219214049126 0.11925595193971009 0.092162971851219036 0.10640315184662814 0.10405665545113428 0.12830607189597462 0.071616731857225766 0.29672402966715244 0.46682411262267365 0.10110007603446691 0.31243991190588954 0.14791301784859451 0.29897943501240787 0.070226410372639866 0.76654763444356122 0.3301381350002357 0.57252673231319473 0.15105563807137007 0.51740101893059887 0.32726840823488257 0.14477744644840743 0.16939114622832455 0.18440873182035886 0.14898028226277657 0.22254260195132894 0.51956283854752561 0.14299903622498503 0.14807702280794596 0.16704555140266497 0.15463565599293683 0.20066675580398691 0.16410946920210157 0.21327458820872292 0.1641699118731991 0.2012735881067986 0.22633609820012981 0.24570092697074752 0.26749652765825455 0.22270964139710087 0.26835913978368164 0.19893459531563207 0.2027263285345349 0.1853242714369932 0.16938654712065779 0.20311039827992058 0.19627932225438968 0.18544389933337296 0.22492920862195673 0.55448619359606421 0.51903304531764305 0.49420315727022662 0.55421865777917512 0.22540392595053219 0.48303378670925906 0.24528346486507574 0.19129321140928704 0.20734527456538152 0.42204104049424901 0.20840102516210346 0.48390404488419381 0.1911273111758261 0.42484522418220766 0.52265319854771186 0.43426760991727292 0.89253961332448162 0.82700542584303172 0.89036493754306212 0.43563336676660419 0.2077496962028606 0.29046935170477783 0.42223188243624388 0.25996995281980223 0.31882946419882413 0.32443365816489828 0.25706037387140834 0.32117762434867458 0.29404079120702981 0.25067934254855923 0.19897509954907 0.26898692867779633 0.26001523168498569 0.26212770916382611 0.31816700571772238 0.28315709233832825 0.33018175574712544 0.31650977774498695 0.36911966861977497 0.31673478893899371 0.33067252445709711 0.37188362337996411 0.33149248988359081 0.31602543065159494 0.28376696316381106 0.31588451694135872 0.33097648158403176 0.28433700722238775 0.31621758428004226 0.26807192937978502 0.2839045995913354 0.26805383369150493 0.24543510227709628 0.22649114507140394 0.21214586567925633 0.24517346234326534 0.23267142868654492 0.24527035426059998 0.21179691839190226 0.28270838629266548 0.24565721142042835 0.2327464999348563 0.28336724399074198 0.23235137052350674 0.27044483696880622 0.23777114999012686 0.26967170168420906 0.2329295262173087 0.23725359721769892 0.23256576961796641 0.19539997281543867 0.23752104475160821 0.28682121822674989 0.2701461687577249 0.2875582777703885 0.31495165091268551 0.27033216480133182 0.2840249672573143 0.2707063617858988 0.3151195602777459 0.28748475102725912 0.34320961411820017 0.31551924649973606 0.34403328103711961 0.40616517577743638 0.37287577134802363 0.40692725985238376 0.43899848327998647 0.37285088326672378 0.3440174466961014 0.37224309576188941 0.31553304486467798 0.37282169563911283 0.36838200163917029 0.33115527337586126 0.36770196252611648 0.41647543012391197 0.4285871842601664 0.41573863119408588 0.36856210913549931 0.37307995203063571 0.37245640880349679 0.43925464524819408 0.41586569570174564 0.47540375456321066 0.41600838737500401 0.43980852467337134 0.47571633381286027 0.42906086028451129 0.41674215657110319 0.47625626441296842 0.48260673869654686 0.42888052382372688 0.47644188049609826 0.53958813073403478 0.48283253061461051 0.47597226819546751 0.4916292315291152 0.54061168149779659 0.47588953149066837 0.43978564240560203 0.49139778743996815 0.40692481200624198 0.47500615699468901 0.43972463062474876 0.47562894479976253 0.49078698503226864 0.43972273133399908 0.47592744056354608 0.54854136271440357 0.49087198943150601 0.54905669646443922 0.54086546182985806 0.49071119806461316 0.5492148547478668 0.59627482678035948 0.54096657944029058 0.60055893194669308 0.54017314869058441 0.59755616776809961 0.54941383928661547 0.62618271957626237 0.59578424439084066 0.62628083810483426 0.6550339281293216 0.59582920275380047 0.6262951960184503 0.70402857176296707 0.65499298242273152 0.70374962429403076 0.73734060643478261 0.6550669413078114 0.6006327365172246 0.59761443705634953 0.65665632298416809 0.60010752944714552 0.65688403902438286 0.66387493385882768 0.73834984363940459 0.66381873992373575 0.65683961358651899 0.709850546058168 0.6637588174121789 0.66437115989595064 0.60187087146554863 0.6641568353220606 0.59972288702967436 0.60179637002637676 0.5996384140600034 0.53703668899957258 0.60109895620199438 0.53828084347668814 0.54122017301504344 0.47507365402642132 0.54101253995118892 0.53807142448957868 0.52222596747398198 0.47999722158135061 0.54164353890406247 0.51152529641863709 0.6117975506001565 0.51713748804711324 0.52231125383121602 0.54183032790234076 0.60557579414591189 0.59928871513027637 0.66417352485192205 0.66393027160108853 0.62186927081084442 0.66649964757208691 0.70710042585983812 0.60658607998227587 0.51752511948734126 0.61163535407439429 0.6218278121485793 0.6025648143416551 0.66657517888099327 0.56738444099771612 0.634664542098475 0.53457328786048841 0.61707865426231234 0.70784130037772031 0.65426854412789215 0.56901416454243547 0.59443615632481095 0.6328841826426177 0.82662509922726302 0.68504057049646816 0.56560854718997355 0.83545389117862112 0.48313783943819755 0.66954602786021122 0.84040338051368457 0.58336062877622841 0.47873739338403343 0.47603265267581563 0.51278971270660911 0.44087547843928454 0.47701587623408565 0.50077813859590459 0.51205409882245523 0.86055129155663734 0.98680665181018723 0.58070297718201047 0.70390541553238983 0.57558346541800098 0.9930559565394399 0.65831985134674975 0.39157564299785336 0.37561282083341963 0.65533233712605021 0.37800919941591266 0.53750153602138395 0.499980629403382 0.42214260611691007 0.48523938189054672 0.4143046854935159 0.48514240059119995 0.42196657900072204 0.41947201083989405 0.37273002796301791 0.43470503008203076 0.41974828597561042 0.43490421594917017 0.48367236602873853 0.40971337498425126 0.40606884212904415 0.35126037229507812 0.29444793469001557 0.36708130376679848 0.3490900659186168 0.41015967254837443 0.34981421173643523 0.36712004017282956 0.37390719829307928 0.43353806670896078 0.37386100349579382 0.37382254454122998 0.37345818104806272 0.32756061810835485 0.37320229085183193 0.32763096506835182 0.31428568875706703 0.29459034959215968 0.32145362820672718 0.36653695533455355 0.29022513642631426 0.56158942179527571 0.44535504772428902 0.29172740006257819 0.38268933488654516 0.56093930072110898 0.65992591757483843 0.55443486133790398 0.38894993583443477 0.7156203853403158 0.95212825319328775 0.58510575346852323 0.57674039818702738 0.81843455305872559 0.44178896201730339 0.8113377808951584 0.58236215122053392 0.95468947433896334 0.85497027222447186 0.96417040821901279 1.0385833396302167 1.0482563735197341 0.96826801381148342 1.0366303095906499 1.0500896224047216 1.0114139929488539 0.96744070876021071 1.0543603003722373 0.94847774788185213 1.0502291543808473 0.59392181721647919 0.99340977360431826 0.97891454566557534 0.59167087508498029 0.70592573730925656 0.99709690142402552 0.57558368854126085 0.9874282489837487 0.85996553246986529 1.0509259878079127 1.0166191846638191 0.92335534570308009 1.0534105846744932 0.92232527053883795 0.93206117438841718 1.0310730794827332 0.89578578323862934 1.0004389018329423 0.89464563490826809 0.9270443616051427 1.0022659428437846 0.60512783665664294 0.82719176960876251 1.035118038830521 0.98978129608256704 0.89805986606643851 1.0292949577248949 1.0646737294757882 1.0036024091777997 0.96780768080459101 1.0578938748589399 1.0381995749526396 1.0220165048969581 1.0298271218165824 1.0222475137373652 1.0384878201754542 0.72916878385425399 1.0538591770448507 0.92713141994842496 0.73306537585919451 0.98557897760825819 1.0500963976100346 1.0630645781754726 0.96883796023206714 1.0689713718306217 0.89016982022139302 1.0285075562718773 1.073113714424712 0.88747173456481965 1.0766567247000367 0.94987114505616033 0.84208127739092953 0.70514080115443167 1.0246394704797017 1.0732227774031811 0.98891799830176708 0.86787794022237297 0.85415824930860806 1.0199395822925272 0.70960765958283734 1.0482502770037199 1.015110664166734 1.0297956710716172 1.0221883188704475 1.0301413772266677 1.0149030677098216 0.95214685336876004 1.0249013793404993 1.0044903511866921 0.95710137709265874 0.99993424088120408 0.96079661343101852 1.0192015416786095 0.96126844506193498 0.9986858642644203 0.88490307579780336 0.88162026476312216 0.52385167967296475 0.91142403161052987 0.52466725396169001 1.0206156611330397 0.95121504404268098 0.96752865909232721 1.026398988635614 1.0119498506876803 1.0278990983243059 0.96582573920174142 0.61265709437083005 1.0276375643108355 0.51975549309247648 0.53588434494741788 0.48468384072617821 0.41190828919469985 0.58035664290654665 0.47051058062795548 0.4679297497055786 0.8921248178636243 0.51930708385944735 0.52886202248522041 0.57155814779753322 0.54492896208672981 0.8714066568652199 0.66628926161078161 0.68478656215116707 0.54443093719557223 0.57989080887258093 0.46878095116548119 0.53826827412392975 0.58599555812694637 0.54267294128813981 0.68585525436252925 0.59050772829630871 0.67518689066620297 0.63493815437562029 0.58806689011713309 0.63593155195721096 0.60491193004413402 0.69178660075720089 0.63717148422377778 0.67188835843156247 0.691986491259309 0.60672216078470032 0.63715306042656938 0.58816657137661754 0.60461992979430246 0.53198435252016918 0.58461581775224336 0.54436173782960962 0.48221575143040846 0.52915191108059068 0.53205449733752219 0.60465583435795667 0.52896291633320058 0.47528947051988363 0.53191086785297292 0.44928500096306784 0.48183774236984184 0.42116154475945961 0.47683915282560696 0.45547858677779213 0.42175891108738384 0.44343521896532617 0.42897414698505132 0.35287655255793748 0.44156185665292441 0.48187278290229307 0.54416208117612375 0.44928491745240656 0.53971467125500672 0.48222206270664686 0.43268552637833024 0.39243657528755665 0.44367429103788286 0.57492615164536398 0.37509840306843123 0.81852614606514351 0.53676365000585369 0.41073332855794448 0.43466809202254564 0.82293430118379962 0.37268971729182176 0.33458413685969141 0.43262111752807036 0.34640041123622184 0.34321792747187652 0.43310164948492885 0.34347813802148924 0.39183533569875867 0.46901762285416021 0.33633387675862869 0.27172788308264406 0.55952538363800775 0.82689490957433465 0.33028171234837306 0.31439953248998587 0.3385790044914388 0.25366437850768325 0.46961041300824014 0.27041443834336965 0.30633627111397371 0.35290749675319211 0.42824665733296069 0.34550540022225412 0.38885614097346161 0.35311535335716188 0.42338410453410025 0.38823673254437335 0.3335082895426148 0.3532933416003482 0.28794571339982233 0.34053320292700712 0.27978741184790307 0.28777260461661608 0.34847789409866692 0.3412531929778394 0.27887327487036956 0.25362669173635993 0.33819109409368209 0.2834627632609838 0.28582484188568213 0.21925014672042165 0.23467607347980168 0.28441444639067054 0.25881821865036042 0.21689415767323858 0.2347185683553295 0.25813076194297507 0.2168587530261733 0.19636698703193156 0.23410472424405721 0.2318131765666909 0.19687772916287438 0.15598798504018241 0.22660849077921896 0.21921789705145656 0.28527882705737895 0.23258715654913534 0.15568321958755665 0.21463368754164552 0.43616328302466933 0.12729387229171965 0.090204145889890647 0.43487674691885714 0.091824480980723544 0.3870299508372409 0.64684762338194346 0.24206235518736235 0.12776476184398175 0.43715905757074319 0.64649872172780276 0.12785891965799204 0.27873599756253803 0.21651685883666263 0.25289926965015336 0.5140618288664599 0.24030799320298876 0.67273396745771996 0.73335437790581581 1.0027478777664831 0.98497058481552646 0.42013160962924739 0.86981353433887343 0.69026160227297173 0.73198322544630767 0.84269777855928429 1.0049780100454082 1.0064815846288613 0.97975646061258226 0.87683011180740478 0.99714858182804822 1.053562841631541 0.95706478093735758 1.0515677679998583 0.94805573504953533 0.95807833611496673 0.85418966594971224 1.0408443638347447 0.87491556601105647 1.0465787634841583 0.8896955480187011 1.0465732910748706 1.0482257607962457 0.90493868792097376 0.88942812243808389 1.0364674265449001 0.95956685735180969 0.94997630951950973 0.53580754382133799 0.89286742107390193 0.94565558264239424 0.53537469442727925 0.94674218022138401 0.58666412139051471 0.82614186298194359 0.58607690650655431 0.94781201060833598 0.88704618257329493 0.95075926210712169 0.97026851563672301 1.0092466268759299 0.87577232722622345 0.90386541251291019 0.45215368030323311 0.97174033447295172 0.87240020646002459 0.45206394041088127 0.39857282544311368 0.97249545931025039 0.74699707436181584 0.97311814223182902 0.39872137026434462 0.74577288978920431 0.39941423935379733 0.36678959079221213 0.82088433706712727 0.83332799283584258 0.93959407975346509 0.82114485707132601 0.93814247619880398 0.97388463502557709 0.88698690824594228 0.97150254815677295 0.89449784861244863 0.82631846331211822 0.54919675111001454 0.58645794611929247 0.86071325601399606 0.96603396721575885 0.60604863440670886 0.73330814914752596 0.60671969042813045 0.96632888504089232 0.78372580664425595 0.95682467810939165 0.89175578387621945 0.77404638311756213 0.78472233413418879 0.89190907517871765 0.48682598233766611 0.33216718874317286 0.76463873970118623 0.81784106475520557 0.52294864408376751 0.77494262186606133 0.71430439205213692 0.83196401884570603 0.89765154687756388 0.64106762391360717 0.90310386084920191 0.39177784149905143 0.77749933370361424 0.38938739019015062 0.90467517837945088 0.18805416437121561 0.64764243170168312 0.37373142342488419 0.20341919548235374 0.32790661500939094 0.065770871945283735 0.043939037028545028 0.15647107569096308 0.063789334143729629 0.045701166220072954 0.063324525213390145 0.33047218843266701 0.044569704724878888 0.33310387462357682 0.35619546419899123 0.046002588922886688 0.35553792942765622 0.10314952488587509 0.13362597187827124 0.19549537666293346 0.17855164848872088 0.19622189869588019 0.12442930826576357 0.15529006216488925 0.21597434848366881 0.16903710435668656 0.19625679134032584 0.13177889801717999 0.13561801722416086 0.17436406592858811 0.11544086521133518 0.14708617728864037 0.060828559217837877 0.13363138696735366 0.17791850342720458 0.13078847670907873 0.098409441859614699 0.061250431627470646 0.14633472238617348 0.1326688978426383 0.10978543866054501 0.13796067568273221 0.12525739742387251 0.12604167662408258 0.15192722263760197 0.12590275981649907 0.17036628606279675 0.15263216108838873 0.17737958004563995 0.14772809787499058 0.15317851805041169 0.12538004010725048 0.15276972731031602 0.14751402578005041 0.12643293640777206 0.12591135642065596 0.14714281538923063 0.12585530976194059 0.14767263387194446 0.1572561832817044 0.13192691049493785 0.12540041810803132 0.15807098922547871 0.17822955131852769 0.15780924763228632 0.14785694295421162 0.19574648520868532 0.15611366230641704 0.19429671913625593 0.17884696150930346 0.1976836592633833 0.1576712239889127 0.17827849752710689 0.20894987601768447 0.19903752164430688 0.18306353691846419 0.2119451198429444 0.20881539533743462 0.17827423007159254 0.1832500398731913 0.20825307846836896 0.17803119328907976 0.15303487166036264 0.18284648036279907 0.21270141939330434 0.18281049522465989 0.17152909439961783 0.17147877394479219 0.18231448692916746 0.15289693150017056 0.21239717167008459 0.25335721824545965 0.23841024149236903 0.20902798835384243 0.21222130183150131 0.23826244011427747 0.28963128717738668 0.27636036883580894 0.23883482629076025 0.28881400800158374 0.23874987041129225 0.25386894411396743 0.29010613857296996 0.28486017813467396 0.3345530108426284 0.28975320007786892 0.25406922565176532 0.28474425219879773 0.29019742748298177 0.33279268086865005 0.34973730390839758 0.29015127207232133 0.35040272364708075 0.32388077528383763 0.29029021993138593 0.32325489185087608 0.27660772417432278 0.37434942024772988 0.32370098960977217 0.35175036839028362 0.32061130558011841 0.35117606088466063 0.29510909396630985 0.36767596351793902 0.35191824987288622 0.32053782526132762 0.32048878537246034 0.29426603279875352 0.27507114299940466 0.27501505569419038 0.29374662540193991 0.24912875517881697 0.24921533753925965 0.23978389744705314 0.27524532538262464 0.24878869892050856 0.20893517600683584 0.23957726571581106 0.24424979394326904 0.22673266122048361 0.19545869523656009 0.24754307854455565 0.1991415981144708 0.20936647177862916 0.24511531543022053 0.2765477884557716 0.22705885065008985 0.27528943157480801 0.18489274399568573 0.2399895674872764 0.24486948021750601 0.29293921111951038 0.27740454684523802 0.35328926343533318 0.27989111210963691 0.29334763503983363 0.35501551360909828 0.29255093380306629 0.35579247705248296 0.35541924777940104 0.35759293323629093 0.42803333915051073 0.31695137849752786 0.20131371302570739 0.28321929899286191 0.31067626078500776 0.19824694589336478 0.20485487291099314 0.31303944053957239 0.2537081380204036 0.19674059220214693 0.29282657878163898 0.23417881819037051 0.23398883617861238 0.31544830878656155 0.36767480878172348 0.22977144322815479 0.26319638077375535 0.17572982790580613 0.22136770390725077 0.26071768658175631 0.15259979404630861 0.17669924421443606 0.25906084286757991 0.21951778250683002 0.15480541783022786 0.28156473695153683 0.20156878144416934 0.16815459302108277 0.27757230682137191 0.17056604272271661 0.17047960096866213 0.14326859110908766 0.16086447426378278 0.16346176640600474 0.16087424842407119 0.1556186311243429 0.21830133400646518 0.15129274844123539 0.16206134131622124 0.14142493791045824 0.16184097733635147 0.21710578317993379 0.17839947255601699 0.12390037989145557 0.14167814856564243 0.16110334127489748 0.10811918454884722 0.15748375034240275 0.15962873536832747 0.2038936643668724 0.23893766541996811 0.18592387818934616 0.19645424375224529 0.19475028089511998 0.22676051237741418 0.2027730091271161 0.1860349522048497 0.15745909158230273 0.19789463618561032 0.16622610243657504 0.15990492472609916 0.13144159201525402 0.15960726112413767 0.16560883833406601 0.10863444137341831 0.13917726611926762 0.15890322851837343 0.10530010320268555 0.15571470765433751 0.10909079708994449 0.11341153205272453 0.11721084554291453 0.16080174393297836 0.10552852311728524 0.094008578619810546 0.11288926756415578 0.13757789971364814 0.11956216098861809 0.16077514181871155 0.13243179221625753 0.16248250622866539 0.15810126383560844 0.19415263261277221 0.15837113668343514 0.1629180547444703 0.11629657540950729 0.17112855334827595 0.16243230974807185 0.19664864613053304 0.16019955590221532 0.19341676564125149 0.24840579816943997 0.19215448044790182 0.24000016966058707 0.19721933361984534 0.19374110444407994 0.24645949415315746 0.19314520794524503 0.2430023456773738 0.20899360538340658 0.19282917239486599 0.20