<?xml version="1.0"?>
<VTKFile type="UnstructuredGrid" version="0.1" byte_order="LittleEndian">
<UnstructuredGrid>
<Piece NumberOfPoints="3142" NumberOfCells="1054">
<Points>
<DataArray type="Float64" NumberOfComponents="3" format="ascii">
0 0 0 0.049999999999899652 0 0 0.02576622439977887 0.024532886826226379 0 0 0 0 0.02576622439977887 0.024532886826226379 0 0 0.050000000000207989 0 0 0.050000000000207989 0 0.02576622439977887 0.024532886826226379 0 0.053064897599215843 0.048131547304697528 0 0.049999999999899652 0 0 0.053064897599215843 0.048131547304697528 0 0.02576622439977887 0.024532886826226379 0 0.099999999999814668 0 0 0.10266856499169109 0.044518360900210059 0 0.053064897599215843 0.048131547304697528 0 0.049999999999899652 0 0 0.099999999999814668 0 0 0.053064897599215843 0.048131547304697528 0 0.099999999999814668 0 0 0.14999999999970359 0 0 0.10266856499169109 0.044518360900210059 0 0.083411279318303222 0.089699755330707398 0 0.053064897599215843 0.048131547304697528 0 0.10266856499169109 0.044518360900210059 0 0.14618258501891079 0.062070108745602003 0 0.12372429750337779 0.095814237875728972 0 0.10266856499169109 0.044518360900210059 0 0.083411279318303222 0.089699755330707398 0 0.10266856499169109 0.044518360900210059 0 0.12372429750337779 0.095814237875728972 0 0.083411279318303222 0.089699755330707398 0 0.12372429750337779 0.095814237875728972 0 0.1053400320299198 0.12877248826361379 0 0.14332333627550789 0.14578431753966009 0 0.1053400320299198 0.12877248826361379 0 0.12372429750337779 0.095814237875728972 0 0.083411279318303222 0.089699755330707398 0 0.1053400320299198 0.12877248826361379 0 0.065374659239632718 0.1448908038746782 0 0.083411279318303222 0.089699755330707398 0 0.065374659239632718 0.1448908038746782 0 0.044310582753132287 0.101412518374475 0 0 0.050000000000207989 0 0.053064897599215843 0.048131547304697528 0 0.044310582753132287 0.101412518374475 0 0.083411279318303222 0.089699755330707398 0 0.044310582753132287 0.101412518374475 0 0.053064897599215843 0.048131547304697528 0 0 0.10000000000041601 0 0 0.050000000000207989 0 0.044310582753132287 0.101412518374475 0 0 0.15000000000062411 0 0 0.10000000000041601 0 0.044310582753132287 0.101412518374475 0 0 0.15000000000062411 0 0.044310582753132287 0.101412518374475 0 0.065374659239632718 0.1448908038746782 0 0.083105206071467416 0.20007701332709979 0 0.038512288486115001 0.1844147282893184 0 0.065374659239632718 0.1448908038746782 0 0 0.15000000000062411 0 0.065374659239632718 0.1448908038746782 0 0.038512288486115001 0.1844147282893184 0 0 0.20000000000083221 0 0 0.15000000000062411 0 0.038512288486115001 0.1844147282893184 0 0 0.20000000000083221 0 0.038512288486115001 0.1844147282893184 0 0.044081577119474857 0.2271058242433576 0 0 0.25000000000104028 0 0 0.20000000000083221 0 0.044081577119474857 0.2271058242433576 0 0.083105206071467416 0.20007701332709979 0 0.044081577119474857 0.2271058242433576 0 0.038512288486115001 0.1844147282893184 0 0.049706944316556423 0.27522722923869108 0 0.044081577119474857 0.2271058242433576 0 0.095326043202144745 0.24554465089224409 0 0.083105206071467416 0.20007701332709979 0 0.095326043202144745 0.24554465089224409 0 0.044081577119474857 0.2271058242433576 0 0.083105206071467416 0.20007701332709979 0 0.106902708054812 0.16453234188234539 0 0.13737030665753211 0.20313708640667491 0 0.083105206071467416 0.20007701332709979 0 0.13737030665753211 0.20313708640667491 0 0.095326043202144745 0.24554465089224409 0 0.083105206071467416 0.20007701332709979 0 0.065374659239632718 0.1448908038746782 0 0.106902708054812 0.16453234188234539 0 0.065374659239632718 0.1448908038746782 0 0.1053400320299198 0.12877248826361379 0 0.106902708054812 0.16453234188234539 0 0.14332333627550789 0.14578431753966009 0 0.106902708054812 0.16453234188234539 0 0.1053400320299198 0.12877248826361379 0 0.14332333627550789 0.14578431753966009 0 0.16141998738593399 0.10404039647458049 0 0.18652628422869419 0.14162325200928061 0 0.14332333627550789 0.14578431753966009 0 0.18652628422869419 0.14162325200928061 0 0.18124454140915969 0.18790916706335251 0 0.14332333627550789 0.14578431753966009 0 0.13737030665753211 0.20313708640667491 0 0.106902708054812 0.16453234188234539 0 0.14332333627550789 0.14578431753966009 0 0.18124454140915969 0.18790916706335251 0 0.13737030665753211 0.20313708640667491 0 0.13737030665753211 0.20313708640667491 0 0.14377654328998779 0.2442024734791064 0 0.095326043202144745 0.24554465089224409 0 0.17933913398461551 0.2350063570234002 0 0.14377654328998779 0.2442024734791064 0 0.13737030665753211 0.20313708640667491 0 0.17933913398461551 0.2350063570234002 0 0.13737030665753211 0.20313708640667491 0 0.18124454140915969 0.18790916706335251 0 0.2185883431182947 0.18019736283949719 0 0.224700362040408 0.22206622194729711 0 0.18124454140915969 0.18790916706335251 0 0.17933913398461551 0.2350063570234002 0 0.18124454140915969 0.18790916706335251 0 0.224700362040408 0.22206622194729711 0 0.17933913398461551 0.2350063570234002 0 0.224700362040408 0.22206622194729711 0 0.21049769590865089 0.26857363548218488 0 0.25195515620380449 0.25883339815888678 0 0.21049769590865089 0.26857363548218488 0 0.224700362040408 0.22206622194729711 0 0.2185883431182947 0.18019736283949719 0 0.26429849586623999 0.19346700179430079 0 0.224700362040408 0.22206622194729711 0 0.2185883431182947 0.18019736283949719 0 0.22985637510995899 0.1298347970200906 0 0.25557216766470708 0.15874861286892261 0 0.2185883431182947 0.18019736283949719 0 0.25557216766470708 0.15874861286892261 0 0.26429849586623999 0.19346700179430079 0 0.2185883431182947 0.18019736283949719 0 0.18124454140915969 0.18790916706335251 0 0.18652628422869419 0.14162325200928061 0 0.2185883431182947 0.18019736283949719 0 0.18652628422869419 0.14162325200928061 0 0.22985637510995899 0.1298347970200906 0 0.19922788606653311 0.085920220746880993 0 0.24218496799700481 0.089025544070598317 0 0.22985637510995899 0.1298347970200906 0 0.27474541102162192 0.11822029332053539 0 0.22985637510995899 0.1298347970200906 0 0.24218496799700481 0.089025544070598317 0 0.27499999999933927 0.060310814194988557 0 0.24218496799700481 0.089025544070598317 0 0.22668068146512929 0.045875643423131329 0 0.19922788606653311 0.085920220746880993 0 0.22668068146512929 0.045875643423131329 0 0.24218496799700481 0.089025544070598317 0 0.19922788606653311 0.085920220746880993 0 0.22985637510995899 0.1298347970200906 0 0.18652628422869419 0.14162325200928061 0 0.19922788606653311 0.085920220746880993 0 0.18652628422869419 0.14162325200928061 0 0.16141998738593399 0.10404039647458049 0 0.14332333627550789 0.14578431753966009 0 0.12372429750337779 0.095814237875728972 0 0.16141998738593399 0.10404039647458049 0 0.14618258501891079 0.062070108745602003 0 0.16141998738593399 0.10404039647458049 0 0.12372429750337779 0.095814237875728972 0 0.19922788606653311 0.085920220746880993 0 0.16141998738593399 0.10404039647458049 0 0.14618258501891079 0.062070108745602003 0 0.19922788606653311 0.085920220746880993 0 0.14618258501891079 0.062070108745602003 0 0.184418230509967 0.038773194583122873 0 0.14999999999970359 0 0 0.184418230509967 0.038773194583122873 0 0.14618258501891079 0.062070108745602003 0 0.14999999999970359 0 0 0.14618258501891079 0.062070108745602003 0 0.10266856499169109 0.044518360900210059 0 0.14999999999970359 0 0 0.19999999999955789 0 0 0.184418230509967 0.038773194583122873 0 0.19999999999955789 0 0 0.22668068146512929 0.045875643423131329 0 0.184418230509967 0.038773194583122873 0 0.19922788606653311 0.085920220746880993 0 0.184418230509967 0.038773194583122873 0 0.22668068146512929 0.045875643423131329 0 0.19999999999955789 0 0 0.24999999999941211 0 0 0.22668068146512929 0.045875643423131329 0 0.24999999999941211 0 0 0.29999999999926641 0 0 0.27499999999933927 0.060310814194988557 0 0.29999999999926641 0 0 0.32541448401678508 0.046215317981507749 0 0.27499999999933927 0.060310814194988557 0 0.24999999999941211 0 0 0.27499999999933927 0.060310814194988557 0 0.22668068146512929 0.045875643423131329 0 0.27499999999933927 0.060310814194988557 0 0.27474541102162192 0.11822029332053539 0 0.24218496799700481 0.089025544070598317 0 0.27474541102162192 0.11822029332053539 0 0.3096713403101819 0.085471541595262421 0 0.32215584939770009 0.1218492143506909 0 0.3096713403101819 0.085471541595262421 0 0.27474541102162192 0.11822029332053539 0 0.27499999999933927 0.060310814194988557 0 0.27499999999933927 0.060310814194988557 0 0.32541448401678508 0.046215317981507749 0 0.3096713403101819 0.085471541595262421 0 0.35312867752657662 0.084946736076730367 0 0.3096713403101819 0.085471541595262421 0 0.32541448401678508 0.046215317981507749 0 0.35312867752657662 0.084946736076730367 0 0.32215584939770009 0.1218492143506909 0 0.3096713403101819 0.085471541595262421 0 0.35312867752657662 0.084946736076730367 0 0.36246644853392812 0.1399454205365751 0 0.32215584939770009 0.1218492143506909 0 0.35312867752657662 0.084946736076730367 0 0.39823268594401579 0.1116623613130045 0 0.36246644853392812 0.1399454205365751 0 0.35312867752657662 0.084946736076730367 0 0.3615861437013822 0.03582617922508851 0 0.39591832466117061 0.056982757562006353 0 0.35312867752657662 0.084946736076730367 0 0.32541448401678508 0.046215317981507749 0 0.3615861437013822 0.03582617922508851 0 0.29999999999926641 0 0 0.34999999999912063 0 0 0.32541448401678508 0.046215317981507749 0 0.34999999999912063 0 0 0.3615861437013822 0.03582617922508851 0 0.32541448401678508 0.046215317981507749 0 0.34999999999912063 0 0 0.3999999999989749 0 0 0.3615861437013822 0.03582617922508851 0 0.3999999999989749 0 0 0.39591832466117061 0.056982757562006353 0 0.3615861437013822 0.03582617922508851 0 0.3999999999989749 0 0 0.4320097814748517 0.037406712692169303 0 0.39591832466117061 0.056982757562006353 0 0.43698630808430822 0.080423614171545449 0 0.39591832466117061 0.056982757562006353 0 0.4320097814748517 0.037406712692169303 0 0.3999999999989749 0 0 0.4499999
[...]
<PointData Scalars="tracer_conc,region_id," Vectors="" Tensors="">
<DataArray type="Float64" Name="tracer_conc" format="ascii">
0.0098706588397749814 0.013647971289018282 0.01168720716458875 0.0098965387309543334 0.011640647781561455 0.0098016504264196377 0.009769111509860812 0.011693063571898567 0.013781763953533119 0.013800861027981394 0.013959975949350304 0.011683707477645182 0.019082668942945035 0.019268696992148664 0.013871360498763223 0.013827552596557253 0.01882543997525591 0.01399329756238043 0.019213732571706606 0.026028362685778503 0.01941894671708767 0.01689000681319967 0.013947684912175205 0.019202035872630446 0.025393009553238477 0.02198239752989006 0.019391579968562316 0.016906792173448548 0.019391165248248327 0.021838287283697244 0.016695174457088527 0.021659111039972308 0.020066424261986491 0.025979666551677421 0.020157424128098223 0.021783929444582063 0.01708195593932969 0.020607688950374094 0.015180006873504305 0.016969366115073697 0.015191204700096122 0.013191303835797438 0.0096893046152597556 0.013800420183908476 0.013073204237916511 0.016780394203759472 0.013149558721787585 0.013935536008261055 0.0097761569160690134 0.0097636115544200361 0.012926831418114881 0.0086447709276772818 0.010390457124104429 0.013567540933461755 0.008446163110555174 0.013782074257389556 0.01445902353867216 0.0037542891460043914 0.0036633476422615312 0.010470830887116717 0.0062320578785777488 0.010167606822853637 0.0038524874011963998 -0.0012773655543705169 0.0062669176165292568 -0.0013816585032803673 0.0098715076246273445 -0.013251194632031225 0.062419925700873451 0.12512458034894394 -0.0023641701431489663 0.06861201872054612 0.0040205875333564692 0.064665951198477511 -0.014959807108229667 0.29397795777064473 0.0718190978617822 0.20588182785470194 0.0031274762051470878 0.16478056161839283 0.07928876682286061 0.0040805919273582203 0.01011583158145719 0.0073665793543653399 -0.0011295028904554655 0.025678955479716686 0.16915299545011961 0.0037098490947469536 0.010660210379378329 0.0095836038993814508 0.012454233538722197 0.022428055498863533 0.0088844453315898141 0.020662830062537472 0.0086222541646902556 0.022838129571226561 0.026188320685396407 0.027945406038138276 0.033538542627673619 0.026028085958794953 0.03560633807482743 -0.00028420517650010765 0.016190789189100246 0.0075118582211424279 0.010229290590291911 0.016369808279882346 -0.00069034437967641744 0.0074408736513503979 0.024579870118154861 0.20126894508020368 0.1749584192155958 0.16688260098986699 0.20356781766103915 0.020506043292200692 0.15669548854752074 0.035261318105405864 -0.0028579341265920692 -0.017346021686802642 0.12168858077159223 0.00092660350598276168 0.16114194026438133 -0.0059592366849554506 0.12132097208123958 0.19257682998970541 0.12546935014609262 0.5250901792901469 0.49969933865047916 0.53254312777435553 0.1205220298703417 -0.019284457742297725 0.01279676564366047 0.12505439103473864 0.019920458393578169 0.046204410794891113 0.04199088481692656 0.015842307450167722 0.04111089712615508 0.013191662476440198 0.014088088807442346 -0.0011358127849606446 0.036320113384878207 0.020412711389109193 0.031230770647791749 0.045567379519517046 0.035161717107283393 0.04586398494441335 0.043926428856819674 0.056662684397453457 0.044104570569703537 0.046112433985841937 0.056718832151829934 0.04656773272744931 0.042917210649742694 0.035560139174514858 0.042839212888292788 0.046281520508520461 0.035487301129361895 0.043923309542097611 0.033625865201143322 0.035321152594809058 0.033587381399705747 0.02811505354492478 0.026116671064207092 0.021768333112331582 0.027785852348382409 0.025575542899528885 0.027870526048332168 0.021971920486881034 0.034996021934947039 0.028014405249858616 0.02559835620380442 0.035390633272916007 0.025459368875293136 0.032845078682837328 0.026551237044301838 0.032563399691590639 0.025675238762194855 0.026371489364020981 0.025550930050514817 0.019255397141968 0.026439799212189339 0.036126534717042066 0.032773717753742104 0.036449545324616389 0.042455329223781348 0.03284832118955229 0.035672801082140902 0.032954896666203166 0.04246390424599486 0.036405563330812601 0.049264273028559305 0.042745653813761615 0.049725100927447481 0.066816743507775944 0.057508179313275364 0.067430950947990426 0.077380073263253107 0.057474172801353217 0.049730420802968092 0.057073821862517304 0.04274259629512854 0.057276598055894877 0.056316120644458678 0.046459070034207385 0.056148525114970989 0.070178734799599241 0.074404195904976905 0.06975652514102533 0.056449141432399312 0.057460373357102718 0.057208591492174374 0.077577424773292797 0.070153519701502423 0.090282021308651997 0.070268830794518247 0.078141523854933476 0.090102168880935959 0.074870770685866742 0.070399285542470727 0.090768092985929083 0.094002570504213581 0.074655802131746177 0.090997796410378085 0.11660972094806898 0.094357148211475547 0.091029880282661721 0.097161379694936933 0.11699159935048409 0.09092226505779441 0.078057008815459877 0.096790567248130108 0.067413591295226505 0.09005821001267289 0.078114160224252605 0.090833057903857414 0.096515624079227286 0.078088588996112762 0.091031698514191545 0.1202146928243336 0.096854623618224417 0.12134518074176005 0.11782778532725338 0.096479273018255554 0.12178019226359052 0.14448304433319473 0.11810122563886524 0.14722177792508331 0.11728169011846575 0.14582894316977121 0.12164828815540636 0.16103057555474648 0.14483725840526471 0.16216511403998057 0.17918028167376737 0.14498921472738752 0.16217081918979917 0.21232761870546388 0.17990376872540415 0.2139137190533891 0.23979698035822977 0.17963308323060379 0.14772058284931289 0.14625950351314168 0.17976128716195092 0.14689577165806747 0.18098878730980705 0.18508171145513755 0.23849043756057195 0.18574809511890555 0.18145996439973744 0.21720323550991569 0.18542263690630204 0.18555181336189386 0.14820992898850566 0.18365906115293068 0.14681058765054825 0.14763652136602876 0.14630099982285022 0.11548587256027039 0.14650684470687919 0.11651018748092443 0.11821216153508905 0.090243425987076353 0.117668269674958 0.11605111984188829 0.10927742220536402 0.092577429972777348 0.1186368747240341 0.098869856421946123 0.15934438513362736 0.082451770454403481 0.10940148957793533 0.11915290674541805 0.15164899348284827 0.14608877864182671 0.18474942687267593 0.18483990093829211 0.15869532208360154 0.18717366969601162 0.21489835705679791 0.13567193055051552 0.081727807095621274 0.16083758137508933 0.15895331594395945 0.14868045285928197 0.1861549051156248 0.077090658052241565 0.22845911791130169 0.10538083051530715 0.1536171337705258 0.2168958384592419 0.17333011247953517 0.076676914142901981 0.070964677395624412 0.22995438176212779 0.56983511945746945 0.32325377831930541 0.018584801150273368 0.6011710156744493 0.021845532322937258 0.28985144471423213 0.59747314365869597 0.22356808827022695 0.024878036159097523 0.059422689249477315 0.12745405512379948 0.069318289499779639 0.058890204655526732 0.059058769006062044 0.12869681453420645 0.64320314724747574 0.85051591825933226 0.20783717786791964 0.40330673025725483 0.21135024187118628 0.84697337872618805 0.33097328673350779 0.054704707835125016 0.00096089528348517503 0.33617988351298983 -0.0021654352012906424 0.16085328614987296 0.085297341116397613 0.050483185180392701 0.097986620132963609 0.061947317895677714 0.09728345177742681 0.050843817164933136 0.066881204509878181 0.053684935409064119 0.078582923420680628 0.066981801554859957 0.0790730168601992 0.095255195926954167 0.060752265715210627 0.034232952831687653 0.020124030865153398 0.0124786601713787 0.051999602328520876 0.019792992863881635 0.060763732524082265 0.019937282654156459 0.052657439881269995 0.05986843478211247 0.077482406980714208 0.054758189924587489 0.059577995487410627 0.054582728822622217 0.042849288930559337 0.059035371106474117 0.043081918569526832 0.043068986531726743 0.013077544684251536 0.041706698380187687 0.051410260136026995 0.011321352081817596 0.22683516573819307 0.14641867671975378 0.0061009781631794031 0.056478330653075864 0.23118767862729678 0.32671614683554845 0.23248104456147145 0.060203201544458657 0.42037726330545588 0.70371197579863809 0.24579068183970582 0.24593149813867149 0.49149533438672149 0.12049228902015986 0.50200433010617973 0.25002048274812821 0.70039841027318783 0.54227834884583059 0.72787489186828147 0.7721055129120149 0.88440933523336129 0.73890893589945894 0.91556948713478725 0.88456919363091213 0.74352693337898657 0.7403050246810029 0.88978041530217256 0.65682260592173369 0.80614100167793823 0.25170114568305818 0.66622213265276076 0.67962351700815171 0.25765099141268549 0.3388774776556982 0.65845087089187537 0.23103212761554959 0.68868968870311809 0.55580875747148462 0.89209997404463615 0.87206891920651608 0.64643051080981817 0.89153088319330442 0.64722450881705285 0.6240028804382588 0.95589200832716115 0.61040262432982106 0.84312608983679593 0.61034353880814607 0.64991792150682837 0.84376714790733953 0.24877755984781943 0.54538461184561171 0.88251930176790883 0.84643677044738908 0.61179037484920262 0.95413069971099651 1.0339018994648095 0.86902229753350657 0.85090908605315474 1.0180256171969089 0.91707047543979237 0.90841059334024576 0.85261002360689964 0.90959116119503403 0.91748384431813779 0.43916911136551345 0.92062036637092948 0.6876418637955618 0.43565160758233396 0.84874440941550577 0.92243245780578675 1.0327846524211586 0.8499146527573509 1.1024535146743175 0.71173761764320642 1.0236440853523348 1.1103914949795013 0.71091288699551725 1.1138462506003592 0.8125973586705143 0.62864847908459598 0.35192590729145173 0.99558777720550862 1.1663462094520787 0.94810530743383314 0.65733968011944921 0.62870642637256025 0.99334600133904827 0.35320740899787961 1.1137814569196707 1.0179557061022138 1.0446946346093815 1.0083363982722409 1.0451542154868476 1.019525011650624 0.80747329284361224 1.0237803389160725 0.9900030829514781 0.81869313097035001 0.97513236383314528 0.85208682205231678 1.0504144614462214 0.85283022685882248 0.97068883918602034 0.66791429209835629 0.64452833144398525 0.016274137500451532 0.70376093801806983 0.0753530299253245 0.89211119630622782 0.80594467274331161 0.83015033302498764 1.0274730735657578 0.93473969456761041 1.0324686270390342 0.82710508760325541 0.24181927974992923 0.88753440254306704 0.078573291730060488 0.14418271193423096 0.040040986447474371 -4.6064866940002254e-05 0.14264107863764222 0.066152082012947561 0.020679362043994075 0.66321241243809514 0.018729774779009559 0.086423453242453804 -0.010505832220522211 0.03747079592428474 0.63126861577692406 0.16129971512916724 0.22024237176024627 0.055397577026457263 0.1441267584570336 0.020062338533053149 0.050563215792906742 0.15140094713887456 0.056884788884435031 0.21788180133127449 0.1541883890797483 0.19668890431789449 0.16308837499595932 0.1485040563222905 0.16540408826635242 0.14664821572540448 0.20389653964198859 0.16871692587177031 0.19219845059775073 0.20208127571181808 0.15026049091089821 0.16902291168209882 0.14819427083579706 0.14587338699136007 0.1157200633071178 0.14468652720699238 0.12910430631749248 0.082490104215110938 0.11144766340021996 0.11464452091841673 0.1457259332542383 0.11112259045699681 0.090596888814242618 0.1142357362916053 0.084029994201948843 0.095326728517755421 0.074224198159675736 0.091375888477456396 0.082104717932776475 0.07400411462651324 0.079402548359591471 0.080283374862940196 0.043991678049109167 0.07626863339885237 0.08279878678047306 0.1277060782443997 0.083975404350914815 0.12226609484609019 0.095870889980528604 0.072574038030222887 0.019812106072441896 0.039776599893290805 0.20345181919045408 -0.016407774353085117 0.52348221106103099 0.14221439889344256 0.0015003543941298316 0.060895856662108172 0.51650141010418404 -0.013235581229822487 -0.028550826453113465 0.071335822891775591 0.036886245782148601 0.0076359975646389218 0.072499168317972346 0.006925869163686425 0.019469368513563998 0.13917579533297955 -0.004939979908954297 -0.027293205640126675 0.23284872693622088 0.50875352329455115 -0.02079801080352536 0.013138966493551899 0.050639250432513716 -0.0031173843181517358 0.13546828994382323 -0.024461326171930895 0.033005306643950238 0.044604739800183174 0.079209835290576777 0.051212817058393645 0.061734282232556184 0.055525223520685757 0.075153099701591133 0.061358730481423852 0.047819595957466911 0.055555776587191456 0.035515190992871946 0.051181117174489803 0.036030471135897468 0.035239852217078899 0.053621061260664585 0.05171962075609228 0.028832520840459661 -0.002423722227303205 0.049916561305584299 0.032014773818192982 0.041483636865949088 0.0064673256562463753 0.02749031345922516 0.038600441506309473 0.031530202228254062 0.023629976945198115 0.02752508647232595 0.031257686219346457 0.023615965859686061 0.020803222159394799 0.027320674718845226 0.02545499338811967 0.021502322377381051 -0.0051192911602317261 0.023011257789851473 0.007050057993059528 0.040792147379460082 0.026021618504257847 -0.0060147713162464426 0.0047740887446743674 0.13344051742500354 -0.052280984851517637 -0.048524518522938369 0.12969477855830119 -0.04205065937806203 0.10911293663209562 0.27654025292992845 -0.01167619253758812 -0.063609125542512163 0.14031988554565919 0.26964710523661373 -0.055597811530677395 0.028141442881639923 0.0026919081209729168 -0.0021989217851748942 0.17919529093184963 -0.017975175314485177 0.30749313845945742 0.35414413817207674 0.65754711974656921 0.65655208297611634 0.11008109353078517 0.44426584214101555 0.31360195750483671 0.35739506883274558 0.44332502947443869 0.65382209848173067 0.65754476596925826 0.64091978595179633 0.46802347447415904 0.65029897929308289 0.80419495680417241 0.63116804181571728 0.80506830606958735 0.65769768320075339 0.63003215310494987 0.54414001792755073 0.76939000100537347 0.52220837264967301 0.70908790773598585 0.54013808652185702 0.77859801610273482 0.70648508691076661 0.50804860021080656 0.54166967852175951 0.6862833714270431 0.52851365611881462 0.55961133980507305 0.20590643056107913 0.52673243428112071 0.5358237073786829 0.20921588821814399 0.53021559939143259 0.23230277974015093 0.39768433428913047 0.23715213438108673 0.52614326077010032 0.44502321363340869 0.55421881499105485 0.53986088474848226 0.65463351479322018 0.46989391049135709 0.46882841183243451 0.12941200136754188 0.50512236439500502 0.45053992734424708 0.13457456452948274 0.086680071868470474 0.49273972578149011 0.30512106091435925 0.48491674828523351 0.095325596409231175 0.29668427929815983 0.09885119796047151 0.075245274371512905 0.34407354794029404 0.33289835467706785 0.45651400380937929 0.34273281093035574 0.45927174294389028 0.51587545334185803 0.4457905273977153 0.53810918298121913 0.42125587436828021 0.39252075232688188 0.19252279637958453 0.23898695581338414 0.42119347020341802 0.46706428968620356 0.22841495553324642 0.28198689219744399 0.23267004490702689 0.46136592753848815 0.3128495733451272 0.45652798090903068 0.37168633693356551 0.27123835389113299 0.31333054301481367 0.36931998948955458 0.13969225722193607 0.076614767276003859 0.28788284656436641 0.29141718755221618 0.15448005653543878 0.29804828554570356 0.23528636851592558 0.30191299455948811 0.361028183214057 0.20299965108623291 0.35736719704295467 0.095194312872395812 0.31441270441715569 0.08861265747484301 0.36450518809383287 0.018576979437372326 0.19616158115476226 0.089030819993953431 0.032872214581641301 0.071361445586680117 -0.014688411123897221 -0.013094396312872248 0.017369767033742795 -0.014408469580713502 -0.031346055444490449 -0.017316457210906851 0.073820372913367432 -0.033269333344239267 0.077062403398220958 0.086151259022551274 -0.038530617263551115 0.088542784101621447 -0.033104253156810162 0.0028824377257659077 0.020326922322061271 0.020493331400419316 0.020520323737947765 -0.001768517587447101 -0.0046580283961525498 0.023344671600814153 0.016126822583421539 0.020776375539288544 0.011891595726125973 0.011095709813053028 0.018484023510923795 -0.0036209172946457353 0.01527728610237779 -0.015811583328370366 0.0032309650369167185 0.020023048367729886 0.0090583146345282507 0.0034031090636848678 -0.015128031090787739 0.014671343598827455 0.012152171897075337 0.0072559642026877825 0.011918217579414043 0.0095417739888674288 0.010072034296646621 0.012774172432635834 0.010145199803073036 0.016211534708387161 0.012873684739012334 0.016375911995558497 0.012423488352164535 0.013127888677339173 0.0096514140917044345 0.013037437590872775 0.012377615752063423 0.0099102839434954161 0.0097160065717541277 0.01232059592378627 0.0098215976013578676 0.012450289799349635 0.01382213044961072 0.010219968965171125 0.0098289642064285521 0.013680317139427004 0.016594341378760157 0.013953016965270444 0.012482348779054396 0.018587262970713378 0.013703441571349419 0.01940450711330342 0.016743921899375541 0.019686842287842267 0.013926133852296747 0.016677846815105851 0.021429203824767692 0.019981193245436887 0.01734047429557925 0.021996662504754221 0.021279706549786694 0.016593356026630885 0.017383752420632673 0.021121725911608467 0.016534009703541071 0.013096602824422626 0.017276074547358189 0.022284036100864092 0.017095209070054983 0.016589518585323565 0.016517231445751037 0.016994619802941213 0.012870359985053922 0.022209750723260435 0.029459834451769293 0.026271261750300107 0.021337378286292358 0.022090026117360835 0.026237750654635295 0.036490047309526728 0.033997604321510361 0.02650351804911542 0.03592166718116202 0.026361502241452825 0.029663331992726191 0.036258936195657926 0.037743915285672711 0.047933630467085625 0.036157956675641187 0.029991144198747349 0.037624923605955596 0.036664515272872171 0.047003516182163599 0.050531828958447045 0.036690565953747804 0.050882278398978964 0.044681994263443256 0.036777798823446714 0.044348134715828012 0.03410840359611949 0.057557025120664032 0.044565704323180994 0.051659551839431966 0.044285366896036342 0.051087777261678187 0.037963218849722459 0.056662365359202535 0.051506182038772344 0.044273112174398999 0.043982151967378751 0.037903523117160678 0.033955836192479737 0.033928250893522298 0.037668337617218786 0.028653305160580563 0.028803457252869754 0.026782361123617222 0.033776236725197577 0.028633928880399694 0.021401447950097751 0.026716881558226872 0.027896700480363593 0.023833098138816976 0.019581566145951877 0.02820514913780843 0.020017073502951729 0.021552444642738477 0.028245602401871517 0.032164502828222079 0.02384886268204181 0.031688380715425964 0.019627539291655671 0.02478944743936469 0.028244863658216487 0.037362481733284728 0.032414936200423211 0.047930279527535737 0.03269942607935352 0.037633315883571973 0.04865363222187738 0.037460125465426257 0.05147728947344813 0.048936689763008655 0.052012390671371311 0.066822328979005127 0.044269594881196618 0.029606202325119093 0.033245053375570384 0.044271806952113218 0.033585390077538899 0.029618538900744524 0.044770270907963872 0.045763635008554279 0.033407881123382048 0.047798059742722901 0.036720321802163267 0.043499534354810868 0.050030046900742628 0.050712835691119076 0.035930534543854885 0.033416248021811847 0.027118732511384639 0.035230224399138435 0.033009939478340411 0.021227548203107433 0.027161893516345383 0.032630904345017434 0.025369345021972352 0.021567999661326907 0.032998373984602099 0.029523391092778052 0.022711357796776691 0.032245469420242437 0.022921346289107632 0.018315788195617824 0.017993570861004875 0.017891205028872162 0.022143479767516006 0.01914512934443385 0.021613390540302802 0.025199053841784357 0.018493296321507986 0.016887024136094178 0.016608581136850271 0.019259005884814814 0.024864206562384597 0.017935981696060144 0.012126300419246235 0.016524785733359932 0.016748847944179381 0.01132008366449396 0.0141624427511394 0.017544740737920245 0.019175245262251974 0.024576250670532152 0.019731988531091291 0.018705666326511095 0.019575892190720673 0.023693044069169285 0.019039876040783676 0.019588076066859039 0.013907931376348994 0.018595164228021113 0.014482566838172424 0.013987968940171075 0.010156718745315567 0.013903475472467454 0.014357456533285243 0.00932205857380