<?xml version="1.0"?>
<VTKFile type="UnstructuredGrid" version="0.1" byte_order="LittleEndian">
<UnstructuredGrid>
<Piece NumberOfPoints="251" NumberOfCells="250">
<Points>
<DataArray type="Float64" NumberOfComponents="3" format="ascii">
0 0 -0.17099999999979171 0 0 -0.1559999999997522 0 0 -0.15699999999975489 0 0 -0.1579999999997575 0 0 -0.15899999999976011 0 0 -0.1599999999997628 0 0 -0.16099999999976539 0 0 -0.161999999999768 0 0 -0.16299999999977069 0 0 -0.1639999999997733 0 0 -0.16499999999977599 0 0 -0.1659999999997786 0 0 -0.16699999999978121 0 0 -0.16799999999978391 0 0 -0.16899999999978649 0 0 -0.1699999999997891 0 0 -0.15499999999974959 0 0 -0.1719999999997944 0 0 -0.17299999999979701 0 0 -0.1739999999997997 0 0 -0.17499999999980231 0 0 -0.17599999999980501 0 0 -0.17699999999980759 0 0 -0.1779999999998102 0 0 -0.17899999999981281 0 0 -0.1799999999998155 0 0 -0.18099999999981811 0 0 -0.18199999999982069 0 0 -0.18299999999982339 0 0 -0.183999999999826 0 0 -0.18499999999982869 0 0 -0.1859999999998313 0 0 -0.13999999999971011 0 0 -0.12499999999967321 0 0 -0.12599999999967451 0 0 -0.12699999999967579 0 0 -0.1279999999996784 0 0 -0.12899999999968109 0 0 -0.1299999999996837 0 0 -0.13099999999968631 0 0 -0.13199999999968889 0 0 -0.13299999999969159 0 0 -0.1339999999996942 0 0 -0.13499999999969689 0 0 -0.1359999999996995 0 0 -0.13699999999970211 0 0 -0.1379999999997048 0 0 -0.13899999999970741 0 0 -0.18699999999983391 0 0 -0.14099999999971269 0 0 -0.1419999999997153 0 0 -0.14299999999971799 0 0 -0.1439999999997206 0 0 -0.14499999999972321 0 0 -0.14599999999972579 0 0 -0.14699999999972849 0 0 -0.1479999999997311 0 0 -0.14899999999973379 0 0 -0.1499999999997364 0 0 -0.15099999999973901 0 0 -0.1519999999997417 0 0 -0.15299999999974431 0 0 -0.15399999999974701 0 0 -0.2339999999999578 0 0 -0.21899999999991829 0 0 -0.2199999999999209 0 0 -0.22099999999992359 0 0 -0.2219999999999262 0 0 -0.22299999999992881 0 0 -0.22399999999993139 0 0 -0.22499999999993411 0 0 -0.2259999999999367 0 0 -0.22699999999993939 0 0 -0.227999999999942 0 0 -0.22899999999994469 0 0 -0.2299999999999473 0 0 -0.23099999999994991 0 0 -0.23199999999995249 0 0 -0.23299999999995519 0 0 -0.21799999999991571 0 0 -0.23499999999996049 0 0 -0.2359999999999631 0 0 -0.23699999999996571 0 0 -0.2379999999999684 0 0 -0.23899999999997101 0 0 -0.2399999999999736 0 0 -0.24099999999997629 0 0 -0.2419999999999789 0 0 -0.24299999999998159 0 0 -0.2439999999999842 0 0 -0.24499999999998681 0 0 -0.24599999999998939 0 0 -0.24699999999999209 0 0 -0.2479999999999947 0 0 -0.24899999999999739 0 0 -0.20299999999987611 0 0 -0.1879999999998366 0 0 -0.18899999999983921 0 0 -0.18999999999984191 0 0 -0.19099999999984449 0 0 -0.1919999999998471 0 0 -0.19299999999984971 0 0 -0.1939999999998524 0 0 -0.19499999999985501 0 0 -0.1959999999998577 0 0 -0.19699999999986029 0 0 -0.19799999999986301 0 0 -0.19899999999986559 0 0 -0.1999999999998682 0 0 -0.20099999999987081 0 0 -0.2019999999998735 0 0 -0.1239999999996748 0 0 -0.20399999999987881 0 0 -0.20499999999988139 0 0 -0.205999999999884 0 0 -0.20699999999988669 0 0 -0.2079999999998893 0 0 -0.20899999999989191 0 0 -0.2099999999998946 0 0 -0.21099999999989719 0 0 -0.21199999999989991 0 0 -0.21299999999990249 0 0 -0.2139999999999051 0 0 -0.21499999999990771 0 0 -0.2159999999999104 0 0 -0.21699999999991301 0 0 -0.045999999999900919 0 0 -0.03099999999994377 0 0 -0.031999999999941367 0 0 -0.032999999999938787 0 0 -0.033999999999935943 0 0 -0.034999999999933022 0 0 -0.035999999999930102 0 0 -0.036999999999927188 0 0 -0.037999999999924268 0 0 -0.038999999999921348 0 0 -0.039999999999918427 0 0 -0.040999999999915507 0 0 -0.041999999999912593 0 0 -0.042999999999909673 0 0 -0.043999999999906753 0 0 -0.044999999999903832 0 0 -0.02999999999994565 0 0 -0.046999999999897998 0 0 -0.047999999999895078 0 0 -0.048999999999892158 0 0 -0.049999999999889237 0 0 -0.050999999999886317 0 0 -0.051999999999883403 0 0 -0.052999999999880483 0 0 -0.053999999999877563 0 0 -0.054999999999874642 0 0 -0.055999999999871722 0 0 -0.056999999999868801 0 0 -0.057999999999865881 0 0 -0.058999999999862961 0 0 -0.059999999999860047 0 0 -0.060999999999857127 0 0 -0.014999999999969531 0 0 -0.25 0 0 -0.00099999999999810158 0 0 -0.001999999999996204 0 0 -0.0029999999999943271 0 0 -0.0039999999999924488 0 0 -0.004999999999990571 0 0 -0.0059999999999886811 0 0 -0.0069999999999867156 0 0 -0.007999999999984719 0 0 -0.008999999999982581 0 0 -0.0099999999999804221 0 0 -0.010999999999978201 0 0 -0.011999999999975971 0 0 -0.01299999999997375 0 0 -0.01399999999997158 0 0 -0.061999999999854213 0 0 -0.01599999999996761 0 0 -0.0169999999999659 0 0 -0.01799999999996427 0 0 -0.018999999999962731 0 0 -0.019999999999961209 0 0 -0.020999999999959669 0 0 -0.02199999999995814 0 0 -0.022999999999956611 0 0 -0.023999999999955082 0 0 -0.024999999999953549 0 0 -0.02599999999995202 0 0 -0.02699999999995048 0 0 -0.027999999999948951 0 0 -0.028999999999947419 0 0 -0.1089999999997172 0 0 -0.093999999999760914 0 0 -0.094999999999758 0 0 -0.095999999999755073 0 0 -0.096999999999752159 0 0 -0.097999999999749246 0 0 -0.098999999999746333 0 0 -0.099999999999743419 0 0 -0.10099999999974051 0 0 -0.10199999999973761 0 0 -0.10299999999973471 0 0 -0.10399999999973179 0 0 -0.1049999999997288 0 0 -0.1059999999997259 0 0 -0.106999999999723 0 0 -0.1079999999997201 0 0 -0.092999999999763827 0 0 -0.1099999999997143 0 0 -0.1109999999997113 0 0 -0.1119999999997084 0 0 -0.1129999999997055 0 0 -0.1139999999997026 0 0 -0.1149999999996997 0 0 -0.1159999999996968 0 0 -0.11699999999969379 0 0 -0.11799999999969089 0 0 -0.11899999999968799 0 0 -0.11999999999968509 0 0 -0.1209999999996822 0 0 -0.1219999999996793 0 0 -0.1229999999996764 0 0 -0.077999999999807557 0 0 -0.062999999999851286 0 0 -0.063999999999848373 0 0 -0.064999999999845445 0 0 -0.065999999999842532 0 0 -0.066999999999839618 0 0 -0.067999999999836705 0 0 -0.068999999999833792 0 0 -0.069999999999830878 0 0 -0.070999999999827965 0 0 -0.071999999999825051 0 0 -0.072999999999822124 0 0 -0.07399999999981921 0 0 -0.074999999999816297 0 0 -0.075999999999813383 0 0 -0.07699999999981047 0 0 0 0 0 -0.078999999999804643 0 0 -0.07999999999980173 0 0 -0.080999999999798802 0 0 -0.081999999999795889 0 0 -0.082999999999792975 0 0 -0.083999999999790062 0 0 -0.084999999999787149 0 0 -0.085999999999784235 0 0 -0.086999999999781322 0 0 -0.087999999999778394 0 0 -0.088999999999775481 0 0 -0.089999999999772567 0 0 -0.090999999999769654 0 0 -0.091999999999766741 
</DataArray>
</Points>
<Cells>
<DataArray type="UInt32" Name="connectivity" format="ascii">
17 18 2 3 3 4 4 5 5 6 6 7 7 8 8 9 9 10 10 11 11 12 12 13 13 14 14 15 15 0 0 17 1 2 18 19 19 20 20 21 21 22 22 23 23 24 24 25 25 26 26 27 27 28 28 29 29 30 30 31 31 48 48 96 49 50 34 35 35 36 36 37 37 38 38 39 39 40 40 41 41 42 42 43 43 44 44 45 45 46 46 47 47 32 32 49 96 97 50 51 51 52 52 53 53 54 54 55 55 56 56 57 57 58 58 59 59 60 60 61 61 62 62 16 16 1 80 81 65 66 66 67 67 68 68 69 69 70 70 71 71 72 72 73 73 74 74 75 75 76 76 77 77 78 78 63 63 80 64 65 81 82 82 83 83 84 84 85 85 86 86 87 87 88 88 89 89 90 90 91 91 92 92 93 93 94 94 159 112 113 97 98 98 99 99 100 100 101 101 102 102 103 103 104 104 105 105 106 106 107 107 108 108 109 109 110 110 95 95 112 33 34 113 114 114 115 115 116 116 117 117 118 118 119 119 120 120 121 121 122 122 123 123 124 124 125 125 79 79 64 143 144 128 129 129 130 130 131 131 132 132 133 133 134 134 135 135 136 136 137 137 138 138 139 139 140 140 141 141 126 126 143 127 128 144 145 145 146 146 147 147 148 148 149 149 150 150 151 151 152 152 153 153 154 154 155 155 156 156 157 157 174 174 221 175 176 160 161 161 162 162 163 163 164 164 165 165 166 166 167 167 168 168 169 169 170 170 171 171 172 172 173 173 158 158 175 221 222 176 177 177 178 178 179 179 180 180 181 181 182 182 183 183 184 184 185 185 186 186 187 187 188 188 142 142 127 206 207 191 192 192 193 193 194 194 195 195 196 196 197 197 198 198 199 199 200 200 201 201 202 202 203 203 204 204 189 189 206 190 191 207 208 208 209 209 210 210 211 211 212 212 213 213 214 214 215 215 216 216 217 217 218 218 219 219 111 111 33 237 238 222 223 223 224 224 225 225 226 226 227 227 228 228 229 229 230 230 231 231 232 232 233 233 234 234 235 235 220 220 237 236 160 238 239 239 240 240 241 241 242 242 243 243 244 244 245 245 246 246 247 247 248 248 249 249 250 250 205 205 190 
</DataArray>
<DataArray type="UInt32" Name="offsets" format="ascii">
2 4 6 8 10 12 14 16 18 20 22 24 26 28 30 32 34 36 38 40 42 44 46 48 50 52 54 56 58 60 62 64 66 68 70 72 74 76 78 80 82 84 86 88 90 92 94 96 98 100 102 104 106 108 110 112 114 116 118 120 122 124 126 128 130 132 134 136 138 140 142 144 146 148 150 152 154 156 158 160 162 164 166 168 170 172 174 176 178 180 182 184 186 188 190 192 194 196 198 200 202 204 206 208 210 212 214 216 218 220 222 224 226 228 230 232 234 236 238 240 242 244 246 248 250 252 254 256 258 260 262 264 266 268 270 272 274 276 278 280 282 284 286 288 290 292 294 296 298 300 302 304 306 308 310 312 314 316 318 320 322 324 326 328 330 332 334 336 338 340 342 344 346 348 350 352 354 356 358 360 362 364 366 368 370 372 374 376 378 380 382 384 386 388 390 392 394 396 398 400 402 404 406 408 410 412 414 416 418 420 422 424 426 428 430 432 434 436 438 440 442 444 446 448 450 452 454 456 458 460 462 464 466 468 470 472 474 476 478 480 482 484 486 488 490 492 494 496 498 500 
</DataArray>
<DataArray type="UInt32" Name="types" format="ascii">
3 3 3 3 3 3 3 3 3 3 3 3 3 3 3 3 3 3 3 3 3 3 3 3 3 3 3 3 3 3 3 3 3 3 3 3 3 3 3 3 3 3 3 3 3 3 3 3 3 3 3 3 3 3 3 3 3 3 3 3 3 3 3 3 3 3 3 3 3 3 3 3 3 3 3 3 3 3 3 3 3 3 3 3 3 3 3 3 3 3 3 3 3 3 3 3 3 3 3 3 3 3 3 3 3 3 3 3 3 3 3 3 3 3 3 3 3 3 3 3 3 3 3 3 3 3 3 3 3 3 3 3 3 3 3 3 3 3 3 3 3 3 3 3 3 3 3 3 3 3 3 3 3 3 3 3 3 3 3 3 3 3 3 3 3 3 3 3 3 3 3 3 3 3 3 3 3 3 3 3 3 3 3 3 3 3 3 3 3 3 3 3 3 3 3 3 3 3 3 3 3 3 3 3 3 3 3 3 3 3 3 3 3 3 3 3 3 3 3 3 3 3 3 3 3 3 3 3 3 3 3 3 3 3 3 3 3 3 3 3 3 3 3 3 3 3 3 3 3 3 
</DataArray>
</Cells>
<CellData Scalars="pressure_p0," Vectors="velocity_p0," Tensors="">
<DataArray type="Float64" Name="pressure_p0" format="ascii">
-6607.5894727663454 -6617.4357691870691 -6617.2071989641372 -6616.9462919868274 -6616.6486524861175 -6616.3093141122954 -6615.9226773181081 -6615.4824335020185 -6614.981475229838 -6614.4118062944599 -6613.7644392586144 -6613.0292825794477 -6612.195016479398 -6611.2489566982222 -6610.1769052374548 -6608.9629871930538 -6617.6358923448206 -6606.0365835500861 -6604.2822822079725 -6602.302044705214 -6600.0686143081857 -6597.5517366560998 -6594.717875321051 -6591.5299074191516 -6587.9467990189733 -6583.9232603192777 -6579.4093808411326 -6574.3502452050207 -6568.6855304471046 -6562.349086275598 -6555.2685001834943 -6547.3646499226697 -6618.8344293712362 -6618.9815942104833 -6618.9786415147082 -6618.9752221427289 -6618.9712639521604 -6618.9666867803007 -6618.9613950440598 -6618.9552759004255 -6618.9482029361043 -6618.9400308720178 -6618.9305928297226 -6618.9196972163381 -6618.9071241772126 -6618.8926215592346 -6618.875900320656 -6618.856629315409 -6538.551246511116 -6618.8088665712821 -6618.7794446381386 -6618.7455963075499 -6618.7066735660492 -6618.6619366124942 -6618.610541387885 -6618.5515255006858 -6618.4837923562254 -6618.4060932784105 -6618.3170073898946 -6618.2149189929642 -6618.0979921676089 -6617.9641422755722 -6617.8110040294468 -2083.3009775120086 -4791.3776153891304 -4650.4099123549558 -4502.3256001812078 -4347.2228809765111 -4185.2678826149458 -4016.7009011282739 -3841.8423877367104 -3661.0985221540568 -3474.9661895306867 -3284.0371521832321 -3089.0011787853618 -2890.6478630465072 -2689.8668309797649 -2487.6460006727561 -2285.0675211298758 -4925.1920712367573 -1883.5934094660818 -1687.2556480882145 -1495.644436804881 -1310.1397641788794 -1132.1168051710119 -962.91184476665239 -803.78154516126972 -655.8549063562989 -520.0772178652777 -397.14505273896862 -287.43037364184681 -190.8879818780625 -106.92258051416974 -33.985123537587704 -6169.0247763545567 -6528.7343716934356 -6517.8120146076953 -6505.673613330795 -6492.1996079797755 -6477.2610131361289 -6460.7190185300024 -6442.4246281646483 -6422.2183493686061 -6399.929944620746 -6375.3782603844984 -6348.3711485907716 -6318.7054977987 -6286.1673924085844 -6250.5324195665216 -6211.5661445442329 -6618.9841428616228 -6122.6560461212102 -6072.2003212046911 -6017.391978233245 -5957.9610579331584 -5893.63522392702 -5824.1420463993773 -5749.2116296409986 -5668.5795998990206 -5581.9904666019229 -5489.2013658170399 -5389.9861896553766 -5284.1400991859018 -5171.4844111822404 -5051.8718406229918 -6619.0002738270869 -6619.0013300807532 -6619.0012008699614 -6619.0010822178365 -6619.0009733521701 -6619.0008766368228 -6619.0007913792342 -6619.0007138313249 -6619.0006433837571 -6619.0005794627432 -6619.0005215298988 -6619.0004690817932 -6619.0004216492143 -6619.0003787961805 -6619.0003401187578 -6619.0003052437214 -6619.0014706536222 -6619.0002455525437 -6619.0002201298776 -6619.0001972933387 -6619.0001768000202 -6619.00015842827 -6619.0001419761375 -6619.0001272598765 -6619.0001141125049 -6619.0001023824298 -6619.0000919321483 -6619.0000826370369 -6619.0000743841692 -6619.0000670712488 -6619.0000606055919 -6619.0000549031583 -6619.0056686536482 -6619.015904075427 -6619.0149782020708 -6619.0140892080253 -6619.0132368372251 -6619.0124206983237 -6619.0116403732591 -6619.0108954204288 -6619.0101852724565 -6619.009509293508 -6619.0088667838936 -6619.0082569850274 -6619.0076790846661 -6619.0071322223594 -6619.00661549503 -6619.0061279626043 -6619.0000498876707 -6619.0052365709071 -6619.0048306967119 -6619.0044499981623 -6619.0040934320677 -6619.0037599495918 -6619.003448500569 -6619.0031580374834 -6619.0028875191019 -6619.0026359137437 -6619.0024022022644 -6619.0021853807484 -6619.001984462936 -6619.0017984824717 -6619.0016264949973 -6618.9983976884105 -6618.9999096956717 -6618.9998817034711 -6618.9998496286435 -6618.9998127234576 -6618.9997672528534 -6618.9997121874676 -6618.9996491798411 -6618.9995768233148 -6618.9994934832675 -6618.9993972607663 -6618.9992859506256 -6618.9991569929716 -6618.9990074172911 -6618.998833777805 -6618.9986320788103 -6618.9999342463907 -6618.998125238928 -6618.997808511931 -6618.9974403055385 -6618.9970122813829 -6618.9965147881721 -6618.9959366583244 -6618.9952649737243 -6618.9944847960151 -6618.9935788561943 -6618.9925271975462 -6618.9913067650778 -6618.9898909337135 -6618.9882489663141 -6618.9863453914768 -6619.0000193027627 -6619.0000454897727 -6619.0000416462299 -6619.0000382991811 -6619.0000353954401 -6619.0000328858041 -6619.0000307244045 -6619.0000288680803 -6619.000027275757 -6619.0000259078188 -6619.000024725512 -6619.0000236903034 -6619.0000227632327 -6619.000021904234 -6619.0000210714106 -6619.0000202202518 -6619.0168670000094 -6619.0000182665044 -6619.0000170535113 -6619.0000155990438 -6619.0000138301511 -6619.0000116640131 -6619.0000090059802 -6619.0000057472671 -6619.0000017622588 -6618.9999969052933 -6618.9999910068691 -6618.9999838691574 -6618.9999752607046 -6618.9999649101919 -6618.9999524990944 
</DataArray>
<DataArray type="Float64" Name="velocity_p0" NumberOfComponents="3" format="ascii">
0 0 2.0796022949268603e-08 0 0 3.0310561613337869e-09 0 0 3.4629257794596459e-09 0 0 3.9536902179509202e-09 0 0 4.5109900274794809e-09 0 0 5.1434757147932778e-09 0 0 5.8605805234926844e-09 0 0 6.6731268511384052e-09 0 0 7.5931191081958698e-09 0 0 8.633959708304872e-09 0 0 9.810594325948807e-09 0 0 1.1139669548185543e-08 0 0 1.2639703566456798e-08 0 0 1.4331270520429869e-08 0 0 1.6237199061874955e-08 0 0 1.8382785641999471e-08 0 0 2.6512749578282392e-09 0 0 2.3507843822810466e-08 0 0 2.6552380851852777e-08 0 0 2.9967241728115967e-08 0 0 3.3793800252225018e-08 0 0 3.8077502711289735e-08 0 0 4.2868189126524734e-08 0 0 4.822042863075738e-08 0 0 5.4193867977629337e-08 0 0 6.0853591889025541e-08 0 0 6.8270493645842588e-08 0 0 7.6521653995664506e-08 0 0 8.5690726110640087e-08 0 0 9.5868323975615277e-08 0 0 1.0715241123313821e-07 0 0 1.1964868715625428e-07 0 0 3.2503043332721181e-10 0 0 2.4867959242313828e-11 0 0 3.1052175139125789e-11 0 0 3.819361578602919e-11 0 0 4.6437382409042064e-11 0 0 5.5867622330299636e-11 0 0 6.6839961185478433e-11 0 0 7.9491032767777312e-11 0 0 9.4071805162856501e-11 0 0 1.1086968998734358e-10 0 0 1.3021364258863962e-10 0 0 1.524799425422809e-10 0 0 1.7809874148183235e-10 0 0 2.075614719877248e-10 0 0 2.4142922436444309e-10 0 0 2.8034220868036367e-10 0 0 1.3347096608171152e-07 0 0 3.7632574374166814e-10 0 0 4.3517538200268361e-10 0 0 5.0265724353289347e-10 0 0 5.799970243927559e-10 0 0 6.6858747376656233e-10 0 0 7.7000998413503269e-10 0 0 8.8605877683316434e-10 0 0 1.0187679607457594e-09 0 0 1.1704417696373625e-09 0 0 1.3436883071992072e-09 0 0 1.5414571593328531e-09 0 0 1.7670812569296097e-09 0 0 2.024323407635481e-09 0 0 2.3174279397619633e-09 0 0 6.4244404819605562e-06 0 0 2.4566051405785903e-06 0 0 2.639460914459051e-06 0 0 2.832717766253895e-06 0 0 3.0367132955925526e-06 0 0 3.2517784087578289e-06 0 0 3.4782351260606676e-06 0 0 3.7163937943441951e-06 0 0 3.9665494938886442e-06 0 0 4.2289773441225509e-06 0 0 4.5039263194748641e-06 0 0 4.7916110492412161e-06 0 0 5.0922008910856148e-06 0 0 5.4058053147686981e-06 0 0 5.7324542845351041e-06 0 0 6.0720718485357833e-06 0 0 2.2838079160015022e-06 0 0 6.7891528222427108e-06 0 0 7.165546200829519e-06 0 0 7.5526137356651994e-06 0 0 7.9488836595146195e-06 0 0 8.3522561307157551e-06 0 0 8.7597845505205225e-06 0 0 9.1673880626822391e-06 0 0 9.569487796585801e-06 0 0 9.9585819121215368e-06 0 0 1.0324835805334537e-05 0 0 1.065590158718031e-05 0 0 1.0937410263625302e-05 0 0 1.1154603437957723e-05 0 0 1.1293052237538775e-05 0 0 6.640745002891373e-07 0 0 1.4874154631688142e-07 0 0 1.6559156424253687e-07 0 0 1.841613290929917e-07 0 0 2.0460063369850052e-07 0 0 2.270690363526559e-07 0 0 2.5173610891955503e-07 0 0 2.7878164633141445e-07 0 0 3.0839583277306257e-07 0 0 3.4077936008400774e-07 0 0 3.7614349427264953e-07 0 0 4.1471008649804667e-07 0 0 4.5671152546253154e-07 0 0 5.0239062883761949e-07 0 0 5.5200047213802242e-07 0 0 6.0580415431774961e-07 0 0 1.9514606718056066e-11 0 0 7.2709370152657869e-07 0 0 7.9515289687117195e-07 0 0 8.6855169657742399e-07 0 0 9.475976534757946e-07 0 0 1.0326056858295644e-06 0 0 1.1238974569657794e-06 0 0 1.2218007170104264e-06 0 0 1.3266486119621845e-06 0 0 1.4387789648248267e-06 0 0 1.5585335324779604e-06 0 0 1.6862572402783087e-06 0 0 1.8222973938974201e-06 0 0 1.9670028644430526e-06 0 0 2.1207232382241509e-06 0 0 -1.3780817230828495e-11 0 0 -1.2288658413034025e-11 0 0 -1.2444348102693771e-11 0 0 -1.2588847123881991e-11 0 0 -1.2722609267783871e-11 0 0 -1.2934365817737046e-11 0 0 -1.3048459015001543e-11 0 0 -1.3153645581235224e-11 0 0 -1.3250429091729436e-11 0 0 -1.3339313569898417e-11 0 0 -1.3420798626741035e-11 0 0 -1.3495375588693725e-11 0 0 -1.3563523585328302e-11 0 0 -1.3625706100827557e-11 0 0 -1.3682368936550356e-11 0 0 -1.3733937876123977e-11 0 0 -1.2121346743156159e-11 0 0 -1.3823388640290822e-11 0 0 -1.3862011561562709e-11 0 0 -1.3897021633323111e-11 0 0 -1.3928732366011277e-11 0 0 -1.3957434411799723e-11 0 0 -1.3983397119201925e-11 0 0 -1.4006868836410257e-11 0 0 -1.4028077930548644e-11 0 0 -1.4047233650599144e-11 0 0 -1.406452773734379e-11 0 0 -1.4080134650386301e-11 0 0 -1.4094212898048303e-11 0 0 -1.4106906388628215e-11 0 0 -1.4118344710568625e-11 0 0 -1.4128644344816678e-11 0 0 -7.8737566377157926e-12 0 0 -7.8979840248065409e-13 0 0 -1.3148806153237364e-12 0 0 -1.8369233404554902e-12 0 0 -2.3547452266432269e-12 0 0 -2.8656866387544862e-12 0 0 -3.3716542981013791e-12 0 0 -3.8700786282386282e-12 0 0 -4.35995733335222e-12 0 0 -4.840350730869521e-12 0 0 -5.3103869759815445e-12 0 0 -5.7692665899864292e-12 0 0 -6.2162661679919186e-12 0 0 -6.6507405423119357e-12 0 0 -7.0721242014177597e-12 0 0 -7.4799315955138075e-12 0 0 -1.4137909669398965e-11 0 0 -8.2532709873687293e-12 0 0 -8.6182213631448313e-12 0 0 -8.9684266550423158e-12 0 0 -9.3037734705356069e-12 0 0 -9.6242124475380504e-12 0 0 -9.9297528405121425e-12 0 0 -1.022045817498125e-11 0 0 -1.0496440913269479e-11 0 0 -1.0757857805799269e-11 0 0 -1.1004906224355268e-11 0 0 -1.1237819623609995e-11 0 0 -1.1456864796643039e-11 0 0 -1.1662339375148895e-11 0 0 -1.1854569809103272e-11 0 0 -1.0604997755668889e-11 0 0 -1.3831587404609016e-11 0 0 -1.377814832209794e-11 0 0 -1.3714844934638307e-11 0 0 -1.3640035376879302e-11 0 0 -1.3470390060601713e-11 0 0 -1.3366167821223922e-11 0 0 -1.3243359611294762e-11 0 0 -1.3098951047382153e-11 0 0 -1.2929445857523714e-11 0 0 -1.2730791597691826e-11 0 0 -1.2498294163439253e-11 0 0 -1.2226517746883323e-11 0 0 -1.1909170417582283e-11 0 0 -1.1538970763657487e-11 0 0 -1.110749475385082e-11 0 0 -1.387656531011959e-11 0 0 -1.0020211880378724e-11 0 0 -9.3401097411500307e-12 0 0 -8.5496348043450874e-12 0 0 -7.6313902663921849e-12 0 0 -6.5652820958866765e-12 0 0 -5.3281078677728341e-12 0 0 -3.8930860823216059e-12 0 0 -2.2293149490813739e-12 0 0 -3.0115203300537666e-13 0 0 1.9324971491620936e-12 0 0 4.5189942858288609e-12 0 0 7.5129010267582728e-12 0 0 1.0977048167177952e-11 0 0 1.4983756109791598e-11 0 0 -1.4190890907967464e-11 0 0 -1.4146233290927652e-11 0 0 -1.4153696833459171e-11 0 0 -1.416037164890876e-11 0 0 -1.4166319319559237e-11 0 0 -1.4171591707834883e-11 0 0 -1.4176231750781722e-11 0 0 -1.4180273582041236e-11 0 0 -1.4183742304891621e-11 0 0 -1.4186654336121556e-11 0 0 -1.4189017578278707e-11 0 0 -1.4190830323100566e-11 0 0 -1.4192081868687514e-11 0 0 -1.4192751225327818e-11 0 0 -1.4192806899220518e-11 0 0 -1.4192205617474864e-11 0 0 -2.6288133189081748e-13 0 0 -1.4188792169399393e-11 0 0 -1.4185821863736213e-11 0 0 -1.4181873673688603e-11 0 0 -1.4176819096713415e-11 0 0 -1.4170504110592573e-11 0 0 -1.4162744233128274e-11 0 0 -1.4153319521504836e-11 0 0 -1.4141968163694223e-11 0 0 -1.4128378285727278e-11 0 0 -1.4112179647493896e-11 0 0 -1.409293193704052e-11 0 0 -1.4070113425044961e-11 0 0 -1.4043105606680382e-11 0 0 -1.401117691791374e-11 
</DataArray>
</CellData>
</Piece>
</UnstructuredGrid>
</VTKFile>
