<?xml version="1.0"?>
<VTKFile type="UnstructuredGrid" version="0.1" byte_order="LittleEndian">
<UnstructuredGrid>
<Piece NumberOfPoints="251" NumberOfCells="250">
<Points>
<DataArray type="Float64" NumberOfComponents="3" format="ascii">
0 0 -0.25 0 0 -0.24899999999999739 0 0 -0.2479999999999947 0 0 -0.24699999999999209 0 0 -0.24599999999998939 0 0 -0.24499999999998681 0 0 -0.24299999999998159 0 0 -0.2439999999999842 0 0 -0.23499999999996049 0 0 -0.2359999999999631 0 0 -0.23699999999996571 0 0 -0.2379999999999684 0 0 -0.23899999999997101 0 0 -0.2399999999999736 0 0 -0.24099999999997629 0 0 -0.2419999999999789 0 0 -0.22699999999993939 0 0 -0.227999999999942 0 0 -0.22899999999994469 0 0 -0.2299999999999473 0 0 -0.23099999999994991 0 0 -0.23199999999995249 0 0 -0.23299999999995519 0 0 -0.2339999999999578 0 0 -0.22499999999993411 0 0 -0.2259999999999367 0 0 -0.22399999999993139 0 0 -0.22299999999992881 0 0 -0.2219999999999262 0 0 -0.22099999999992359 0 0 -0.2199999999999209 0 0 -0.21899999999991829 0 0 -0.21799999999991571 0 0 -0.21699999999991301 0 0 -0.21499999999990771 0 0 -0.2159999999999104 0 0 -0.21299999999990249 0 0 -0.2139999999999051 0 0 -0.21199999999989991 0 0 -0.21099999999989719 0 0 -0.2099999999998946 0 0 -0.20899999999989191 0 0 -0.2079999999998893 0 0 -0.20399999999987881 0 0 -0.20499999999988139 0 0 -0.205999999999884 0 0 -0.20699999999988669 0 0 -0.18899999999983921 0 0 -0.1879999999998366 0 0 -0.19099999999984449 0 0 -0.18999999999984191 0 0 -0.19299999999984971 0 0 -0.1919999999998471 0 0 -0.19499999999985501 0 0 -0.1939999999998524 0 0 -0.19699999999986029 0 0 -0.1959999999998577 0 0 -0.19899999999986559 0 0 -0.19799999999986301 0 0 -0.20099999999987081 0 0 -0.1999999999998682 0 0 -0.20299999999987611 0 0 -0.2019999999998735 0 0 -0.13099999999968631 0 0 -0.13199999999968889 0 0 -0.1299999999996837 0 0 -0.12899999999968109 0 0 -0.1279999999996784 0 0 -0.12699999999967579 0 0 -0.12599999999967451 0 0 -0.13999999999971011 0 0 -0.13899999999970741 0 0 -0.1379999999997048 0 0 -0.13699999999970211 0 0 -0.1359999999996995 0 0 -0.13499999999969689 0 0 -0.13299999999969159 0 0 -0.1339999999996942 0 0 -0.14699999999972849 0 0 -0.1479999999997311 0 0 -0.14599999999972579 0 0 -0.14499999999972321 0 0 -0.1439999999997206 0 0 -0.14299999999971799 0 0 -0.1419999999997153 0 0 -0.14099999999971269 0 0 -0.1559999999997522 0 0 -0.15499999999974959 0 0 -0.15399999999974701 0 0 -0.15299999999974431 0 0 -0.1519999999997417 0 0 -0.15099999999973901 0 0 -0.14899999999973379 0 0 -0.1499999999997364 0 0 -0.16299999999977069 0 0 -0.1639999999997733 0 0 -0.161999999999768 0 0 -0.16099999999976539 0 0 -0.1599999999997628 0 0 -0.15899999999976011 0 0 -0.1579999999997575 0 0 -0.15699999999975489 0 0 -0.17099999999979171 0 0 -0.1699999999997891 0 0 -0.16899999999978649 0 0 -0.16799999999978391 0 0 -0.16699999999978121 0 0 -0.16499999999977599 0 0 -0.1659999999997786 0 0 -0.1779999999998102 0 0 -0.17899999999981281 0 0 -0.17699999999980759 0 0 -0.17599999999980501 0 0 -0.17499999999980231 0 0 -0.1739999999997997 0 0 -0.17299999999979701 0 0 -0.1719999999997944 0 0 -0.18699999999983391 0 0 -0.1859999999998313 0 0 -0.18499999999982869 0 0 -0.183999999999826 0 0 -0.18299999999982339 0 0 -0.18199999999982069 0 0 -0.1799999999998155 0 0 -0.18099999999981811 0 0 -0.068999999999833792 0 0 -0.069999999999830878 0 0 -0.067999999999836705 0 0 -0.066999999999839618 0 0 -0.065999999999842532 0 0 -0.064999999999845445 0 0 -0.063999999999848373 0 0 -0.062999999999851286 0 0 -0.077999999999807557 0 0 -0.07699999999981047 0 0 -0.075999999999813383 0 0 -0.074999999999816297 0 0 -0.07399999999981921 0 0 -0.072999999999822124 0 0 -0.070999999999827965 0 0 -0.071999999999825051 0 0 -0.083999999999790062 0 0 -0.084999999999787149 0 0 -0.082999999999792975 0 0 -0.081999999999795889 0 0 -0.080999999999798802 0 0 -0.07999999999980173 0 0 -0.078999999999804643 0 0 -0.092999999999763827 0 0 -0.091999999999766741 0 0 -0.090999999999769654 0 0 -0.089999999999772567 0 0 -0.088999999999775481 0 0 -0.087999999999778394 0 0 -0.085999999999784235 0 0 -0.086999999999781322 0 0 -0.099999999999743419 0 0 -0.10099999999974051 0 0 -0.098999999999746333 0 0 -0.097999999999749246 0 0 -0.096999999999752159 0 0 -0.095999999999755073 0 0 -0.094999999999758 0 0 -0.093999999999760914 0 0 -0.1089999999997172 0 0 -0.1079999999997201 0 0 -0.106999999999723 0 0 -0.1059999999997259 0 0 -0.1049999999997288 0 0 -0.10399999999973179 0 0 -0.10199999999973761 0 0 -0.10299999999973471 0 0 -0.1159999999996968 0 0 -0.11699999999969379 0 0 -0.1149999999996997 0 0 -0.1139999999997026 0 0 -0.1129999999997055 0 0 -0.1119999999997084 0 0 -0.1109999999997113 0 0 -0.1099999999997143 0 0 -0.12499999999967321 0 0 -0.1239999999996748 0 0 -0.1229999999996764 0 0 -0.1219999999996793 0 0 -0.1209999999996822 0 0 -0.11999999999968509 0 0 -0.11799999999969089 0 0 -0.11899999999968799 0 0 -0.047999999999895078 0 0 -0.046999999999897998 0 0 -0.049999999999889237 0 0 -0.048999999999892158 0 0 -0.051999999999883403 0 0 -0.050999999999886317 0 0 -0.053999999999877563 0 0 -0.052999999999880483 0 0 -0.055999999999871722 0 0 -0.054999999999874642 0 0 -0.057999999999865881 0 0 -0.056999999999868801 0 0 -0.059999999999860047 0 0 -0.058999999999862961 0 0 -0.061999999999854213 0 0 -0.060999999999857127 0 0 -0.042999999999909673 0 0 -0.043999999999906753 0 0 -0.044999999999903832 0 0 -0.045999999999900919 0 0 -0.041999999999912593 0 0 -0.040999999999915507 0 0 -0.039999999999918427 0 0 -0.038999999999921348 0 0 -0.037999999999924268 0 0 -0.035999999999930102 0 0 -0.036999999999927188 0 0 -0.033999999999935943 0 0 -0.034999999999933022 0 0 -0.032999999999938787 0 0 -0.031999999999941367 0 0 -0.03099999999994377 0 0 -0.02999999999994565 0 0 -0.028999999999947419 0 0 -0.027999999999948951 0 0 -0.02699999999995048 0 0 -0.02599999999995202 0 0 -0.023999999999955082 0 0 -0.024999999999953549 0 0 -0.01599999999996761 0 0 -0.0169999999999659 0 0 -0.01799999999996427 0 0 -0.018999999999962731 0 0 -0.019999999999961209 0 0 -0.020999999999959669 0 0 -0.02199999999995814 0 0 -0.022999999999956611 0 0 -0.007999999999984719 0 0 -0.008999999999982581 0 0 -0.0099999999999804221 0 0 -0.010999999999978201 0 0 -0.011999999999975971 0 0 -0.01299999999997375 0 0 -0.01399999999997158 0 0 -0.014999999999969531 0 0 -0.0059999999999886811 0 0 -0.0069999999999867156 0 0 -0.004999999999990571 0 0 -0.0039999999999924488 0 0 -0.0029999999999943271 0 0 -0.001999999999996204 0 0 -0.00099999999999810158 0 0 0 
</DataArray>
</Points>
<Cells>
<DataArray type="UInt32" Name="connectivity" format="ascii">
1 0 2 1 3 2 4 3 5 4 7 5 15 6 6 7 23 8 8 9 9 10 10 11 11 12 12 13 13 14 14 15 16 17 17 18 18 19 19 20 20 21 21 22 22 23 24 25 25 16 26 24 27 26 28 27 29 28 30 29 31 30 32 31 33 32 34 35 35 33 36 37 37 34 38 36 39 38 40 39 41 40 42 41 46 42 61 43 43 44 44 45 45 46 48 47 50 49 47 50 52 51 49 52 54 53 51 54 56 55 53 56 58 57 55 58 60 59 57 60 62 61 59 62 63 64 64 76 65 63 66 65 67 66 68 67 69 68 180 69 70 85 71 70 72 71 73 72 74 73 75 74 76 77 77 75 80 78 78 79 81 80 82 81 83 82 84 83 85 84 87 86 88 87 89 88 90 89 91 90 93 91 79 92 92 93 96 94 94 95 97 96 98 97 99 98 100 99 101 100 86 101 102 116 103 102 104 103 105 104 106 105 108 106 95 107 107 108 109 110 110 123 111 109 112 111 113 112 114 113 115 114 116 115 117 48 118 117 119 118 120 119 121 120 122 121 123 124 124 122 127 125 125 126 128 127 129 128 130 129 131 130 132 131 134 133 135 134 136 135 137 136 138 137 140 138 126 139 139 140 141 142 142 154 143 141 144 143 145 144 146 145 147 146 133 147 148 163 149 148 150 149 151 150 152 151 153 152 154 155 155 153 156 157 157 170 158 156 159 158 160 159 161 160 162 161 163 162 165 164 166 165 167 166 168 167 169 168 170 171 171 169 174 172 172 173 175 174 176 175 177 176 178 177 179 178 164 179 181 180 182 181 183 182 184 183 185 184 187 185 173 186 186 187 188 191 189 188 190 193 191 190 192 195 193 192 194 197 195 194 196 199 197 196 198 201 199 198 200 203 201 200 202 132 203 202 204 205 205 206 206 207 207 189 208 204 209 208 210 209 211 210 212 211 214 212 216 213 213 214 217 215 215 216 218 217 219 218 220 219 221 220 222 221 223 222 224 223 226 224 234 225 225 226 227 228 228 229 229 230 230 231 231 232 232 233 233 234 235 236 236 237 237 238 238 239 239 240 240 241 241 242 242 227 243 244 244 235 245 243 246 245 247 246 248 247 249 248 250 249 
</DataArray>
<DataArray type="UInt32" Name="offsets" format="ascii">
2 4 6 8 10 12 14 16 18 20 22 24 26 28 30 32 34 36 38 40 42 44 46 48 50 52 54 56 58 60 62 64 66 68 70 72 74 76 78 80 82 84 86 88 90 92 94 96 98 100 102 104 106 108 110 112 114 116 118 120 122 124 126 128 130 132 134 136 138 140 142 144 146 148 150 152 154 156 158 160 162 164 166 168 170 172 174 176 178 180 182 184 186 188 190 192 194 196 198 200 202 204 206 208 210 212 214 216 218 220 222 224 226 228 230 232 234 236 238 240 242 244 246 248 250 252 254 256 258 260 262 264 266 268 270 272 274 276 278 280 282 284 286 288 290 292 294 296 298 300 302 304 306 308 310 312 314 316 318 320 322 324 326 328 330 332 334 336 338 340 342 344 346 348 350 352 354 356 358 360 362 364 366 368 370 372 374 376 378 380 382 384 386 388 390 392 394 396 398 400 402 404 406 408 410 412 414 416 418 420 422 424 426 428 430 432 434 436 438 440 442 444 446 448 450 452 454 456 458 460 462 464 466 468 470 472 474 476 478 480 482 484 486 488 490 492 494 496 498 500 
</DataArray>
<DataArray type="UInt32" Name="types" format="ascii">
3 3 3 3 3 3 3 3 3 3 3 3 3 3 3 3 3 3 3 3 3 3 3 3 3 3 3 3 3 3 3 3 3 3 3 3 3 3 3 3 3 3 3 3 3 3 3 3 3 3 3 3 3 3 3 3 3 3 3 3 3 3 3 3 3 3 3 3 3 3 3 3 3 3 3 3 3 3 3 3 3 3 3 3 3 3 3 3 3 3 3 3 3 3 3 3 3 3 3 3 3 3 3 3 3 3 3 3 3 3 3 3 3 3 3 3 3 3 3 3 3 3 3 3 3 3 3 3 3 3 3 3 3 3 3 3 3 3 3 3 3 3 3 3 3 3 3 3 3 3 3 3 3 3 3 3 3 3 3 3 3 3 3 3 3 3 3 3 3 3 3 3 3 3 3 3 3 3 3 3 3 3 3 3 3 3 3 3 3 3 3 3 3 3 3 3 3 3 3 3 3 3 3 3 3 3 3 3 3 3 3 3 3 3 3 3 3 3 3 3 3 3 3 3 3 3 3 3 3 3 3 3 3 3 3 3 3 3 3 3 3 3 3 3 3 3 3 3 3 3 
</DataArray>
</Cells>
<CellData Scalars="pressure_p0," Vectors="velocity_p0," Tensors="">
<DataArray type="Float64" Name="pressure_p0" format="ascii">
-14.161595155618397 -43.344120701920588 -74.444873130545602 -107.77529661320764 -143.52659681452008 -181.83587683706804 -266.49231425831869 -222.80187326159557 -714.73280298599695 -649.43315268407491 -586.6595867088763 -526.48933466905976 -468.9880606032288 -414.20833952162457 -362.18801227680382 -312.9483965442833 -1234.2542295633198 -1154.1325889843183 -1075.7797138175397 -999.31928794026771 -924.87147078555859 -852.55198933912823 -782.47115525773779 -1399.2964481227109 -1316.0182715331678 -1483.9593072698169 -1569.8768694272148 -1656.919228575839 -1744.957102134468 -1833.8623303280233 -1923.5083282275573 -2013.7704930513626 -2104.5265692323446 -2287.0450835257843 -2195.6569736729803 -2470.1442116420239 -2378.5774887537227 -2561.6388953502556 -2652.9589635115708 -2744.0057528050156 -2834.6846203468813 -2924.9050276683511 -3014.5806029695009 -3366.2548332460447 -3279.5378753136683 -3191.9728379557851 -3103.6291832641173 -4530.373924777422 -4392.2063244206129 -4462.0016330392746 -4248.4066829842341 -4321.0022644242999 -4099.1254179072084 -4174.4398951266012 -3944.5641496546559 -4022.4900831006821 -3784.9793010122803 -3865.3814115088744 -3620.685468015573 -3703.3989871840422 -3452.0584557012999 -3536.887655959812 -6418.6925781498267 -6408.7514346874032 -6428.2059627128419 -6437.3074776771264 -6446.0125702454334 -6454.3362499496643 -6462.2930924731245 -6469.8972428120742 -6311.7692815489627 -6325.7579390170995 -6339.1757082010445 -6352.0420276425275 -6364.3758967045696 -6376.1958767796032 -6398.3661990776582 -6387.5200882661029 -6214.7067544056335 -6196.1424132738248 -6232.5525449776324 -6249.7020487774989 -6266.1771617268496 -6281.9993963137968 -6297.1898661892574 -6018.981240487763 -6044.133440156751 -6068.3780783513066 -6091.7396136512289 -6114.2423222080779 -6135.9102689619431 -6176.8369055836238 -6156.7672788577547 -5815.4282858193665 -5782.1256674461247 -5847.6257488653291 -5878.7425275291298 -5908.8032577509603 -5937.832685848145 -5965.8556182886705 -5992.8968732091253 -5473.084390312988 -5516.0694401797246 -5557.7669024832358 -5598.1976401649345 -5637.3832240479624 -5675.3458464652504 -5747.6936433932697 -5712.1082456608219 -5134.5714148886036 -5080.6476819410973 -5187.0765314220007 -5238.1750376852424 -5287.8803922187326 -5336.2073963252951 -5383.1720931447207 -5428.7916761639444 -4597.3117793709898 -4662.8065040543497 -4726.8520060171068 -4789.4446711754299 -4850.5832497497904 -4910.2687332654586 -5025.2948822920262 -4968.5042358323562 -6612.5567931623063 -6612.1606754281029 -6612.9308426150128 -6613.2839969892575 -6613.6173666234154 -6613.9320101287867 -6614.228936965229 -6608.0347590847468 -6608.6576832747915 -6609.2466830093645 -6609.8035110465353 -6610.3298318482648 -6610.827233144606 -6611.741254781824 -6611.2972294571091 -6602.5576394359869 -6601.5887882691204 -6603.4750229942047 -6604.3435149360803 -6605.1655784390296 -6605.9435568815879 -6606.6796785096049 -6607.3760695493929 -6591.632782437815 -6593.1220678191685 -6594.5343727226291 -6595.8734155785487 -6597.1427536525971 -6598.3457853978543 -6600.5657698024415 -6599.4857563994392 -6578.7028270927985 -6576.442134756071 -6580.8501361902636 -6582.8893238285682 -6584.8254328340754 -6586.6632971442414 -6588.4075490119449 -6590.0626288349522 -6556.9513513592838 -6560.1729401334987 -6563.237576129407 -6566.1522607190273 -6568.923720825218 -6574.0625723192607 -6571.5584210087272 -6529.3563518713145 -6524.5916514874098 -6533.8972827646603 -6538.2239248045407 -6542.3454208723833 -6546.2705816471371 -6550.0078939589566 -6553.5655277260339 -6477.1624208533904 -6484.1019268195505 -6490.7286471586358 -6497.0550608348749 -6503.093245977514 -6508.8548868478902 -6519.5933536044013 -6514.3512810866905 -6617.1032391887957 -6617.2183529148306 -6616.8511138136728 -6616.980968193393 -6616.5668358557468 -6616.7132283147084 -6616.2464833225476 -6616.4114311578578 -6615.8856846676172 -6616.0714317618022 -6615.4795708629199 -6615.688617410302 -6615.0227203111608 -6615.2578496490614 -6614.5091014576174 -6614.7734093964482 -6617.614975683714 -6617.5246732122141 -6617.4286990752771 -6617.3267124710801 -6617.6999285617585 -6617.7798361632704 -6617.8549859562809 -6617.9256494220017 -6617.9920828746908 -6618.0545282410285 -6618.1683548898873 -6618.1132138007051 -6618.2688042570562 -6618.2201545691023 -6618.3144843318587 -6618.3573647010198 -6618.3976053416063 -6618.4353568117895 -6618.4707607350147 -6618.5039502580275 -6618.5350504838007 -6618.5641788804869 -6618.6169541789886 -6618.5914456674 -6618.7536443086046 -6618.7380677151159 -6618.721289761761 -6618.7032467859372 -6618.6838671943306 -6618.6630773270617 -6618.6408012077727 -6618.8411672935199 -6618.8334301547402 -6618.8248483081579 -6618.8153905185709 -6618.8050269673431 -6618.7937192194167 -6618.7814200894372 -6618.7680785418906 -6618.8542145633164 -6618.8480875319374 -6618.8595696172415 -6618.8641715342728 -6618.8680352652445 -6618.8711727078789 -6618.8735927488451 -6618.8753012951793 
</DataArray>
<DataArray type="Float64" Name="velocity_p0" NumberOfComponents="3" format="ascii">
0 0 4.9125048231145987e-06 0 0 4.9222766843010516e-06 0 0 4.9251118074927189e-06 0 0 4.9181967103882832e-06 0 0 4.9010600114911117e-06 0 0 4.8739903545962187e-06 0 0 4.7929934485532638e-06 0 0 4.8376714773048752e-06 0 0 4.245169694980256e-06 0 0 4.3248030265180481e-06 0 0 4.4025469770532193e-06 0 0 4.4778549981229498e-06 0 0 4.5501009472065659e-06 0 0 4.6185743602759043e-06 0 0 4.682478173478156e-06 0 0 4.7409334974874951e-06 0 0 3.6673745101836239e-06 0 0 3.7500980032055765e-06 0 0 3.8331330397146915e-06 0 0 3.9162922463274741e-06 0 0 3.9993558500723298e-06 0 0 4.0820658239597955e-06 0 0 4.1641209586536177e-06 0 0 3.5034754231458022e-06 0 0 3.585121911127108e-06 0 0 3.4225497176989484e-06 0 0 3.3424415527300174e-06 0 0 3.2632324672999001e-06 0 0 3.1849908778527113e-06 0 0 3.107773913125697e-06 0 0 3.0316289842804086e-06 0 0 2.9565951287759439e-06 0 0 2.882704161191635e-06 0 0 2.7384478108667488e-06 0 0 2.8099816594681626e-06 0 0 2.5990041249131783e-06 0 0 2.6681181383417776e-06 0 0 2.531113750980081e-06 0 0 2.46445195725677e-06 0 0 2.3990210440996296e-06 0 0 2.3348210163763258e-06 0 0 2.2718498816532199e-06 0 0 2.2101039083205389e-06 0 0 1.9752478560912637e-06 0 0 2.0321580475327106e-06 0 0 2.0902651361187429e-06 0 0 2.1495778492965379e-06 0 0 1.2573400581892677e-06 0 0 1.3391540889933872e-06 0 0 1.2977452597959813e-06 0 0 1.4250413802624681e-06 0 0 1.381581254312232e-06 0 0 1.5151179601157276e-06 0 0 1.4695488427357915e-06 0 0 1.6094972990606963e-06 0 0 1.5617628228657914e-06 0 0 1.7082892420039893e-06 0 0 1.658335000118354e-06 0 0 1.8115988647672516e-06 0 0 1.7593730012170829e-06 0 0 1.9195249557763379e-06 0 0 1.8649789732234132e-06 0 0 1.4121366012671853e-07 0 0 1.4770552058324216e-07 0 0 1.3497619806605394e-07 0 0 1.2898479017526429e-07 0 0 1.2323126805226539e-07 0 0 1.1770771066071957e-07 0 0 1.1240633467878621e-07 0 0 1.0731956571200498e-07 0 0 2.0986463372571461e-07 0 0 2.0101377741220495e-07 0 0 1.9249109945905021e-07 0 0 1.8428669474721521e-07 0 0 1.7639077364428704e-07 0 0 1.6879397786932457e-07 0 0 1.5446031826854633e-07 0 0 1.614869080189863e-07 0 0 2.7044049768011339e-07 0 0 2.8188204347441975e-07 0 0 2.5940181201918891e-07 0 0 2.4875475557339042e-07 0 0 2.3848829849067055e-07 0 0 2.285915469829162e-07 0 0 2.1905376698728762e-07 0 0 3.8932407606494213e-07 0 0 3.7423404075560434e-07 0 0 3.5964304144039983e-07 0 0 3.4553846864295117e-07 0 0 3.3190783797307463e-07 0 0 3.187389383010476e-07 0 0 2.9373786242479354e-07 0 0 3.0601961810234871e-07 0 0 5.1001866827049123e-07 0 0 5.2957299255405298e-07 0 0 4.9106958544745992e-07 0 0 4.7271199030385218e-07 0 0 4.5493227799969493e-07 0 0 4.3771691162796809e-07 0 0 4.2105255538573513e-07 0 0 4.0492591440771837e-07 0 0 7.09484678281071e-07 0 0 6.8457963565212125e-07 0 0 6.6039384980069102e-07 0 0 6.3691273093426464e-07 0 0 6.1412189485626856e-07 0 0 5.9200668824890828e-07 0 0 5.4974643475436679e-07 0 0 5.7055291492525725e-07 0 0 9.0519980011732163e-07 0 0 9.3639240456688127e-07 0 0 8.7484551965622112e-07 0 0 8.4531451197777311e-07 0 0 8.1659185877928286e-07 0 0 7.8866238699250524e-07 0 0 7.6151126804853408e-07 0 0 7.3512364718215388e-07 0 0 1.2179236750840886e-06 0 0 1.1794813331273055e-06 0 0 1.141997842091858e-06 0 0 1.1054583038115155e-06 0 0 1.0698476639847892e-06 0 0 1.0351508394997947e-06 0 0 9.6843841090107038e-07 0 0 1.0013527293440311e-06 0 0 5.459602838840521e-09 0 0 5.782316628505367e-09 0 0 5.1540413163008655e-09 0 0 4.864773942305532e-09 0 0 4.590861770941486e-09 0 0 4.3317643869777375e-09 0 0 4.0866169821333446e-09 0 0 9.0990428505907911e-09 0 0 8.6029171284467373e-09 0 0 8.1324379041893309e-09 0 0 7.6863675110141247e-09 0 0 7.2634099307923089e-09 0 0 6.8626587500905841e-09 0 0 6.1230819002741253e-09 0 0 6.4829202498784337e-09 0 0 1.3406277286137469e-08 0 0 1.4159345850574285e-08 0 0 1.2690968922451938e-08 0 0 1.2011669823962275e-08 0 0 1.1366869562847704e-08 0 0 1.0754623628937799e-08 0 0 1.0173559109816299e-08 0 0 9.6221089995179804e-09 0 0 2.177925207618704e-08 0 0 2.0651517019840079e-08 0 0 1.9578471563084583e-08 0 0 1.8557690038425829e-08 0 0 1.7586894312539855e-08 0 0 1.6663736974908146e-08 0 0 1.4952000519168709e-08 0 0 1.5786119439328218e-08 0 0 3.142944931649174e-08 0 0 3.3094283220261428e-08 0 0 2.9842451055188781e-08 0 0 2.8330003211165777e-08 0 0 2.6888899984234121e-08 0 0 2.5516166790410768e-08 0 0 2.4208824817014323e-08 0 0 2.2964199343428308e-08 0 0 4.7229761049188871e-08 0 0 4.4917512704533506e-08 0 0 4.2709666510466777e-08 0 0 4.0602022906803333e-08 0 0 3.8590466112763286e-08 0 0 3.484035923925976e-08 0 0 3.6671185809383491e-08 0 0 6.6722408229797184e-08 0 0 7.003885752001193e-08 0 0 6.3549359644475527e-08 0 0 6.051428442454851e-08 0 0 5.7611958096943781e-08 0 0 5.4837198825722558e-08 0 0 5.2185100873886769e-08 0 0 4.9650754155668688e-08 0 0 1.024400188580149e-07 0 0 9.7760497212366115e-08 0 0 9.3273990232341226e-08 0 0 8.8973671962980823e-08 0 0 8.4852899133454147e-08 0 0 8.0905209129574375e-08 0 0 7.3504301123442956e-08 0 0 7.7124317848617913e-08 0 0 1.6721338314607582e-09 0 0 1.5732897973895904e-09 0 0 1.8878415554989603e-09 0 0 1.7768723577518421e-09 0 0 2.1298319763237327e-09 0 0 2.0053212023261343e-09 0 0 2.401312768410759e-09 0 0 2.2616917112583996e-09 0 0 2.7055961770139659e-09 0 0 2.5491288840901474e-09 0 0 3.0464270007491536e-09 0 0 2.8711941949174495e-09 0 0 3.4279426217669328e-09 0 0 3.2318243021373005e-09 0 0 3.8547098201867818e-09 0 0 3.6353665132355964e-09 0 0 1.2307093558799166e-09 0 0 1.3090109505100304e-09 0 0 1.3920235325120335e-09 0 0 1.4800209703614957e-09 0 0 1.1568594230294807e-09 0 0 1.0872150638162629e-09 0 0 1.0215427843329902e-09 0 0 9.5962106746072866e-10 0 0 9.0123978300344828e-10 0 0 8.4619962062343176e-10 0 0 7.4539629468379674e-10 0 0 7.9431154850208572e-10 0 0 6.5581299125282471e-10 0 0 6.9928384950274014e-10 0 0 6.1483083003111224e-10 0 0 5.7619237333715416e-10 0 0 5.3976010923280082e-10 0 0 5.0540360749666731e-10 0 0 4.7299913809748698e-10 0 0 4.4242930724491317e-10 0 0 4.1358270648294809e-10 0 0 3.8635358012767681e-10 0 0 3.3635107857591917e-10 0 0 3.606415037632715e-10 0 0 1.9894891241219634e-10 0 0 2.1559571408367765e-10 0 0 2.3311382218750838e-10 0 0 2.5157103394760246e-10 0 0 2.7112502666192852e-10 0 0 2.9167696586405725e-10 0 0 3.1339163818633858e-10 0 0 8.9899085947982511e-11 0 0 1.0170075099178298e-10 0 0 1.1392179738696616e-10 0 0 1.2661169811779192e-10 0 0 1.3968086169120331e-10 0 0 1.5346374329509865e-10 0 0 1.678745594192739e-10 0 0 1.8310860550685941e-10 0 0 6.7340897352079932e-11 0 0 7.846879900616446e-11 0 0 5.6514315050637332e-11 0 0 4.5922184431822726e-11 0 0 3.5520758740703799e-11 0 0 2.526696410788463e-11 0 0 1.5118249919482905e-11 0 0 5.0324358199580061e-12 
</DataArray>
</CellData>
</Piece>
</UnstructuredGrid>
</VTKFile>
