<?xml version="1.0"?>
<VTKFile type="UnstructuredGrid" version="0.1" byte_order="LittleEndian">
<UnstructuredGrid>
<Piece NumberOfPoints="714" NumberOfCells="1306">
<Points>
<DataArray type="Float64" NumberOfComponents="3" format="ascii">
0.000000000000000e+00 0.000000000000000e+00 0.000000000000000e+00 5.000000000000000e+00 0.000000000000000e+00 0.000000000000000e+00 5.000000000000000e+00 1.000000000000000e+00 0.000000000000000e+00 0.000000000000000e+00 1.000000000000000e+00 0.000000000000000e+00 9.999999999992801e-02 0.000000000000000e+00 0.000000000000000e+00 1.999999999998339e-01 0.000000000000000e+00 0.000000000000000e+00 2.999999999997341e-01 0.000000000000000e+00 0.000000000000000e+00 3.999999999996643e-01 0.000000000000000e+00 0.000000000000000e+00 4.999999999995944e-01 0.000000000000000e+00 0.000000000000000e+00 5.999999999995166e-01 0.000000000000000e+00 0.000000000000000e+00 6.999999999992880e-01 0.000000000000000e+00 0.000000000000000e+00 7.999999999989961e-01 0.000000000000000e+00 0.000000000000000e+00 8.999999999987042e-01 0.000000000000000e+00 0.000000000000000e+00 9.999999999984124e-01 0.000000000000000e+00 0.000000000000000e+00 1.099999999998120e+00 0.000000000000000e+00 0.000000000000000e+00 1.199999999997829e+00 0.000000000000000e+00 0.000000000000000e+00 1.299999999997537e+00 0.000000000000000e+00 0.000000000000000e+00 1.399999999997245e+00 0.000000000000000e+00 0.000000000000000e+00 1.499999999996953e+00 0.000000000000000e+00 0.000000000000000e+00 1.599999999996661e+00 0.000000000000000e+00 0.000000000000000e+00 1.699999999996369e+00 0.000000000000000e+00 0.000000000000000e+00 1.799999999996077e+00 0.000000000000000e+00 0.000000000000000e+00 1.899999999995785e+00 0.000000000000000e+00 0.000000000000000e+00 1.999999999995511e+00 0.000000000000000e+00 0.000000000000000e+00 2.099999999995593e+00 0.000000000000000e+00 0.000000000000000e+00 2.199999999995745e+00 0.000000000000000e+00 0.000000000000000e+00 2.299999999995897e+00 0.000000000000000e+00 0.000000000000000e+00 2.399999999996049e+00 0.000000000000000e+00 0.000000000000000e+00 2.499999999996201e+00 0.000000000000000e+00 0.000000000000000e+00 2.599999999996353e+00 0.000000000000000e+00 0.000000000000000e+00 2.699999999996505e+00 0.000000000000000e+00 0.000000000000000e+00 2.799999999996657e+00 0.000000000000000e+00 0.000000000000000e+00 2.899999999996809e+00 0.000000000000000e+00 0.000000000000000e+00 2.999999999996961e+00 0.000000000000000e+00 0.000000000000000e+00 3.099999999997114e+00 0.000000000000000e+00 0.000000000000000e+00 3.199999999997265e+00 0.000000000000000e+00 0.000000000000000e+00 3.299999999997417e+00 0.000000000000000e+00 0.000000000000000e+00 3.399999999997569e+00 0.000000000000000e+00 0.000000000000000e+00 3.499999999997721e+00 0.000000000000000e+00 0.000000000000000e+00 3.599999999997873e+00 0.000000000000000e+00 0.000000000000000e+00 3.699999999998025e+00 0.000000000000000e+00 0.000000000000000e+00 3.799999999998176e+00 0.000000000000000e+00 0.000000000000000e+00 3.899999999998329e+00 0.000000000000000e+00 0.000000000000000e+00 3.999999999998481e+00 0.000000000000000e+00 0.000000000000000e+00 4.099999999998633e+00 0.000000000000000e+00 0.000000000000000e+00 4.199999999998784e+00 0.000000000000000e+00 0.000000000000000e+00 4.299999999998937e+00 0.000000000000000e+00 0.000000000000000e+00 4.399999999999088e+00 0.000000000000000e+00 0.000000000000000e+00 4.499999999999240e+00 0.000000000000000e+00 0.000000000000000e+00 4.599999999999393e+00 0.000000000000000e+00 0.000000000000000e+00 4.699999999999545e+00 0.000000000000000e+00 0.000000000000000e+00 4.799999999999696e+00 0.000000000000000e+00 0.000000000000000e+00 4.899999999999848e+00 0.000000000000000e+00 0.000000000000000e+00 5.000000000000000e+00 9.999999999981467e-02 0.000000000000000e+00 5.000000000000000e+00 1.999999999995579e-01 0.000000000000000e+00 5.000000000000000e+00 2.999999999992664e-01 0.000000000000000e+00 5.000000000000000e+00 3.999999999989749e-01 0.000000000000000e+00 5.000000000000000e+00 4.999999999986943e-01 0.000000000000000e+00 5.000000000000000e+00 5.999999999989468e-01 0.000000000000000e+00 5.000000000000000e+00 6.999999999992100e-01 0.000000000000000e+00 5.000000000000000e+00 7.999999999994734e-01 0.000000000000000e+00 5.000000000000000e+00 8.999999999997368e-01 0.000000000000000e+00 4.899999999999999e+00 1.000000000000000e+00 0.000000000000000e+00 4.800000000000000e+00 1.000000000000000e+00 0.000000000000000e+00 4.699999999999999e+00 1.000000000000000e+00 0.000000000000000e+00 4.600000000000000e+00 1.000000000000000e+00 0.000000000000000e+00 4.499999999999999e+00 1.000000000000000e+00 0.000000000000000e+00 4.399999999999999e+00 1.000000000000000e+00 0.000000000000000e+00 4.299999999999999e+00 1.000000000000000e+00 0.000000000000000e+00 4.199999999999998e+00 1.000000000000000e+00 0.000000000000000e+00 4.099999999999999e+00 1.000000000000000e+00 0.000000000000000e+00 3.999999999999999e+00 1.000000000000000e+00 0.000000000000000e+00 3.899999999999999e+00 1.000000000000000e+00 0.000000000000000e+00 3.799999999999999e+00 1.000000000000000e+00 0.000000000000000e+00 3.699999999999998e+00 1.000000000000000e+00 0.000000000000000e+00 3.599999999999999e+00 1.000000000000000e+00 0.000000000000000e+00 3.499999999999999e+00 1.000000000000000e+00 0.000000000000000e+00 3.399999999999999e+00 1.000000000000000e+00 0.000000000000000e+00 3.299999999999999e+00 1.000000000000000e+00 0.000000000000000e+00 3.199999999999998e+00 1.000000000000000e+00 0.000000000000000e+00 3.099999999999999e+00 1.000000000000000e+00 0.000000000000000e+00 2.999999999999999e+00 1.000000000000000e+00 0.000000000000000e+00 2.899999999999999e+00 1.000000000000000e+00 0.000000000000000e+00 2.799999999999999e+00 1.000000000000000e+00 0.000000000000000e+00 2.699999999999999e+00 1.000000000000000e+00 0.000000000000000e+00 2.599999999999999e+00 1.000000000000000e+00 0.000000000000000e+00 2.500000000000000e+00 1.000000000000000e+00 0.000000000000000e+00 2.399999999999999e+00 1.000000000000000e+00 0.000000000000000e+00 2.299999999999999e+00 1.000000000000000e+00 0.000000000000000e+00 2.199999999999999e+00 1.000000000000000e+00 0.000000000000000e+00 2.100000000000000e+00 1.000000000000000e+00 0.000000000000000e+00 2.000000000000000e+00 1.000000000000000e+00 0.000000000000000e+00 1.899999999999999e+00 1.000000000000000e+00 0.000000000000000e+00 1.799999999999999e+00 1.000000000000000e+00 0.000000000000000e+00 1.699999999999999e+00 1.000000000000000e+00 0.000000000000000e+00 1.599999999999999e+00 1.000000000000000e+00 0.000000000000000e+00 1.500000000000000e+00 1.000000000000000e+00 0.000000000000000e+00 1.399999999999999e+00 1.000000000000000e+00 0.000000000000000e+00 1.299999999999999e+00 1.000000000000000e+00 0.000000000000000e+00 1.199999999999999e+00 1.000000000000000e+00 0.000000000000000e+00 1.100000000000000e+00 1.000000000000000e+00 0.000000000000000e+00 9.999999999999991e-01 1.000000000000000e+00 0.000000000000000e+00 8.999999999999995e-01 1.000000000000000e+00 0.000000000000000e+00 7.999999999999998e-01 1.000000000000000e+00 0.000000000000000e+00 7.000000000000002e-01 1.000000000000000e+00 0.000000000000000e+00 5.999999999999996e-01 1.000000000000000e+00 0.000000000000000e+00 4.999999999999991e-01 1.000000000000000e+00 0.000000000000000e+00 3.999999999999995e-01 1.000000000000000e+00 0.000000000000000e+00 3.000000000000007e-01 1.000000000000000e+00 0.000000000000000e+00 1.999999999999993e-01 1.000000000000000e+00 0.000000000000000e+00 9.999999999999964e-02 1.000000000000000e+00 0.000000000000000e+00 0.000000000000000e+00 8.999999999995836e-01 0.000000000000000e+00 0.000000000000000e+00 7.999999999999998e-01 0.000000000000000e+00 0.000000000000000e+00 7.000000000006934e-01 0.000000000000000e+00 0.000000000000000e+00 6.000000000013869e-01 0.000000000000000e+00 0.000000000000000e+00 5.000000000020587e-01 0.000000000000000e+00 0.000000000000000e+00 4.000000000016644e-01 0.000000000000000e+00 0.000000000000000e+00 3.000000000012483e-01 0.000000000000000e+00 0.000000000000000e+00 2.000000000008322e-01 0.000000000000000e+00 0.000000000000000e+00 1.000000000004160e-01 0.000000000000000e+00 7.477570327540725e-01 4.905967956478702e-01 0.000000000000000e+00 1.346210646643281e+00 4.806066422083806e-01 0.000000000000000e+00 1.949496869330408e+00 5.032480558805372e-01 0.000000000000000e+00 4.449999999999997e+00 5.000000000000384e-01 0.000000000000000e+00 3.859142349610828e+00 5.103468031113156e-01 0.000000000000000e+00 3.246530027037640e+00 5.183101712757180e-01 0.000000000000000e+00 2.657531292711257e+00 5.037429884868682e-01 0.000000000000000e+00 3.824015840967434e-01 6.064457502813875e-01 0.000000000000000e+00 2.306343155343502e+00 6.315316747431162e-01 0.000000000000000e+00 1.049999999998266e+00 3.374999999994497e-01 0.000000000000000e+00 1.641930697057102e+00 3.436055112169133e-01 0.000000000000000e+00 4.150000000000006e+00 6.625000000000185e-01 0.000000000000000e+00 3.552784161359181e+00 6.642488388863971e-01 0.000000000000000e+00 2.940292465243163e+00 6.575992780735344e-01 0.000000000000000e+00 1.641237689750194e+00 6.703960699373966e-01 0.000000000000000e+00 1.050000000000000e+00 6.706367924525535e-01 0.000000000000000e+00 2.960517759676693e+00 3.261740577967960e-01 0.000000000000000e+00 3.551899302943298e+00 3.210887133285832e-01 0.000000000000000e+00 4.150779393876139e+00 3.209867287821391e-01 0.000000000000000e+00 2.213980362532827e+00 3.194901812685164e-01 0.000000000000000e+00 4.927283029162088e-01 3.252862896001115e-01 0.000000000000000e+00 4.696684455724628e+00 3.145438084075651e-01 0.000000000000000e+00 4.690990908683984e+00 6.962960281446974e-01 0.000000000000000e+00 2.487221901830106e+00 2.763334294511438e-01 0.000000000000000e+00 6.215262983536076e-01 7.328515730233995e-01 0.000000000000000e+00 2.065768881873406e+00 7.342557316219342e-01 0.000000000000000e+00 2.543072460766750e+00 7.257064952909391e-01 0.000000000000000e+00 8.105176211436336e-01 2.535517621144286e-01 0.0000000000000
[...]
<CellData Scalars="A_conc,As-lin_conc,Bs-lang_conc,Cs-freund_conc," Vectors="" Tensors="">
<DataArray type="Float64" Name="A_conc" format="ascii">
1.438177588457036e-27 5.804893750549325e-01 0.000000000000000e+00 3.596165221401552e-61 5.131979596175028e-01 4.922449810794751e-259 6.587901285808211e-255 4.270783171599724e-01 5.636287351763908e-01 1.188784398965566e-25 5.632348362590211e-321 1.030874963365085e-173 1.258767833141575e-220 2.921337140956835e-316 6.411662858897066e-64 1.491903164899836e-12 2.860442069264820e-58 1.730706452909560e-24 5.741010934073375e-272 6.200206568799003e-26 1.806384526813518e-251 4.082439484788025e-231 1.167928407681789e-165 2.479058857586439e-211 6.404325934217158e-318 6.453262192483858e-214 1.995545043811046e-28 4.923470751936326e-01 0.000000000000000e+00 1.885323328742683e-29 1.782407347964270e-228 1.514731283210796e-153 2.677545810793825e-226 0.000000000000000e+00 1.148466504978559e-267 5.454970079878183e-01 3.329072405574584e-282 1.024515409115549e-248 5.955769783628667e-269 5.206354502455380e-01 5.979693370161658e-307 2.507743263258566e-225 0.000000000000000e+00 1.154215235450072e-268 9.509799872396956e-259 9.581720694885115e-260 1.304104806970334e-11 7.795325607365693e-230 2.460232291192410e-271 3.564820390405959e-264 5.619617146867457e-01 1.149064837075530e-216 1.313269475948626e-13 5.357272459807123e-01 5.571501448252830e-01 5.940079568711087e-01 7.496350463513912e-248 4.176613378944316e-01 4.808298081497180e-01 3.412590392423570e-13 1.118662323761981e-291 4.218754988806728e-01 1.008892756224607e-233 9.146891952319706e-256 3.135709486318946e-261 1.208880552287582e-246 4.098031053646964e-215 6.162288194973636e-236 5.741134973467985e-01 4.706857305510077e-01 1.314187353702486e-249 0.000000000000000e+00 6.219789005125213e-214 1.013061921038908e-24 6.997686275672432e-80 1.000694623908535e-265 3.282462530217667e-222 1.615658985179384e-259 5.815425459723640e-09 6.057294916577829e-248 9.093791482512100e-13 1.181265952398577e-263 2.569141358374482e-322 7.589373736282477e-302 3.053338219584835e-232 2.132126846953633e-219 8.056134236456508e-265 5.049245344026051e-26 1.648712241230361e-214 4.234779658024496e-236 1.168070722064945e-277 8.283046777139719e-224 4.517764339501290e-01 1.328296768579990e-227 3.298321686115151e-259 1.089742151297854e-61 9.437910382699920e-228 4.300255676382989e-01 0.000000000000000e+00 4.806070180258579e-01 3.603029564769277e-257 1.355081545775482e-211 3.776432524568903e-304 1.834803042081840e-236 1.203450776562105e-222 1.610291475871348e-39 5.060754578521668e-58 4.970577304953582e-01 1.303203172439005e-225 1.053149702007340e-13 1.494739239959730e-244 1.802153556082380e-212 1.119327662860520e-214 4.363655106515054e-223 2.407475837295496e-216 4.384579823274993e-01 3.649961931289477e-64 2.036142478723409e-245 1.511394235938978e-256 4.917102207565643e-01 4.098328872481018e-253 1.277875491372595e-314 4.001664924480426e-231 2.425847499111145e-318 4.841369707085133e-01 1.366097914003394e-245 1.976262583364986e-322 5.165443125017249e-217 4.487275874626205e-01 1.522333509073942e-01 7.153886834238265e-264 7.833862857846330e-240 1.515760462992965e-08 3.131676592248031e-01 2.247101063525531e-241 5.980284414375678e-263 1.143397745740184e-26 5.882304895294606e-01 1.729229760444363e-322 3.582219136001751e-247 7.500270327836815e-242 4.813604499031557e-01 8.478481387785387e-212 5.597086032602688e-268 6.554588870927111e-292 8.896311276959488e-297 1.427906375211737e-113 5.532126769823269e-230 2.828726925551049e-255 4.656873246461128e-38 6.812191847258176e-233 1.831257709634082e-259 3.407224769404406e-242 3.269122651965166e-223 1.010151232273126e-264 2.299183772232064e-297 5.053875014766362e-232 4.511978249148200e-01 1.934924376067517e-211 1.251438588910988e-292 1.635877562573062e-11 7.194818301900449e-02 1.687891389002923e-234 0.000000000000000e+00 1.429503197511842e-256 2.536710889381463e-318 1.332927008282517e-211 3.868093945470069e-237 2.618845269606991e-237 1.181700768464600e-292 1.099797247620281e-211 2.981872196629079e-225 1.450930091639837e-291 8.891459998415077e-297 4.425543907144550e-249 7.772660207896785e-236 4.120415707069082e-01 0.000000000000000e+00 4.920990163404856e-241 1.230026045830215e-250 1.933027940883573e-231 4.283180903424974e-01 5.274657581221578e-01 3.101552558766485e-240 1.180896113003178e-244 4.280871088326907e-226 2.493907126284330e-222 5.793985952593458e-237 0.000000000000000e+00 4.048870254319800e-252 1.592906117415777e-211 4.026433628317112e-225 2.227382280862839e-25 2.089127910007092e-154 7.040877607925129e-214 1.543416021432422e-248 9.235805445474059e-212 4.744500880646048e-214 0.000000000000000e+00 0.000000000000000e+00 1.044569101253028e-213 7.567477019047369e-252 6.144546857023732e-01 3.199365014424138e-230 4.337075934581240e-237 3.995904668382428e-01 3.285491490561195e-264 8.016062861768848e-226 1.551278529457228e-11 5.420454301335081e-01 6.541744308992367e-255 0.000000000000000e+00 7.942555046107735e-246 7.174333848994388e-28 4.863912751741085e-61 4.083457857436111e-255 1.821143469545292e-211 6.792966077920344e-260 2.749921926741025e-160 3.150208948641476e-268 1.059573615120949e-272 5.045765271716380e-01 9.631313829932324e-252 8.696605721330520e-224 4.168412816531833e-220 6.039996523617518e-01 1.483425894991360e-211 7.170838476786425e-67 2.177218025241635e-311 4.806379313407660e-245 9.042200180764339e-242 2.244471184983219e-216 7.607091541761842e-161 0.000000000000000e+00 6.749909239865849e-236 2.133412502334189e-218 6.308275756279932e-144 2.608713606981452e-251 1.232932199504206e-213 1.487581122388961e-306 4.144584957526564e-46 1.536521693192393e-226 3.191548680999531e-256 1.633966463878252e-259 1.183376658608127e-282 3.646815690891907e-228 4.373770189927393e-01 1.666603253830327e-297 1.236267573609202e-11 5.296382923378847e-307 2.242598564181028e-259 9.900021400375936e-258 7.918168757993582e-287 9.862446165422524e-230 4.366625966397293e-01 4.367365033438624e-01 2.105708424986947e-62 0.000000000000000e+00 1.009796053777281e-11 4.219216780573040e-313 2.940031444787648e-246 1.675231827009767e-214 3.713700908013845e-216 1.236335729944210e-220 1.266320618094843e-229 8.511268311395586e-12 1.176051754494310e-156 7.742144288157453e-65 3.455577118818725e-217 1.454741308721720e-306 2.036415059456684e-272 1.237096095756175e-236 1.038108029897500e-23 1.935931057495545e-259 3.183537109100699e-30 7.736402602069956e-12 1.112527595209393e-29 1.546601493376605e-151 4.869147895633786e-225 3.382044187562084e-222 6.098862333227329e-247 8.397335094884828e-03 4.954176697029758e-241 1.189094597972572e-25 4.953133604530314e-01 5.974678954323079e-229 7.092998642859129e-223 2.379072193017777e-238 2.012646311802130e-243 1.015445955738087e-219 2.341715024835738e-232 3.617674149143118e-276 1.173381955581990e-223 1.247973184960233e-220 2.723268650244832e-276 1.091274485597384e-269 2.266366996038681e-232 8.824348156593386e-27 2.044989928443669e-302 3.804738438094541e-237 5.438510692452294e-282 1.461776710080955e-233 2.918758054592771e-223 4.484608379524979e-01 1.317741975655296e-281 1.218438209714467e-12 6.214139238793501e-13 4.862912607968755e-01 1.363214169707868e-219 4.510844450131608e-282 5.990074108199850e-216 5.691612882753116e-277 1.293716595919236e-301 6.545003077405593e-243 1.708867774986346e-296 8.549116345618774e-68 6.133894601340576e-242 2.063971029843673e-238 5.638994307039074e-01 4.181050820228560e-01 4.031752756997969e-01 2.276724995054099e-245 3.704514577392253e-242 1.106655510987740e-216 4.567848479424733e-257 4.572698659936034e-231 4.942402145518799e-235 1.368338274926341e-217 1.275033759178178e-283 1.935458841652582e-61 5.896247412171706e-01 5.843754430656283e-01 5.853876631461781e-01 5.890619106098689e-01 4.753238684172542e-01 2.203185985688856e-25 3.351543715128680e-318 2.335185921495106e-252 7.045583498399834e-243 3.064498678577364e-227 1.943703034296455e-252 9.188739594431756e-214 1.329036587312953e-321 5.315628337448272e-01 2.004216540791584e-312 1.097607449563378e-153 7.553768171612109e-226 1.377845398897362e-307 4.220628610613526e-219 2.453243060241535e-214 6.074317201890069e-01 0.000000000000000e+00 6.846364024610122e-214 3.952094508554619e-261 1.428459056112772e-11 4.307765160270238e-01 6.465940287558857e-250 2.340843552199501e-246 1.829108730019401e-314 9.065231080123491e-240 3.341440785173715e-59 2.370353539708668e-272 6.302270480378358e-25 2.849319251798194e-01 7.293691763308892e-61 3.295778402399618e-01 3.224466435113681e-229 2.825907167777695e-224 2.751561259802944e-239 5.715214750524577e-01 6.151824382565690e-01 6.151824434097558e-01 5.093158801156309e-01 5.077743471847298e-01 1.239956030346234e-286 8.058255516172620e-256 4.474601896115841e-01 9.735545579324073e-256 4.126612222578327e-01 8.174858288933021e-254 5.700921471774102e-01 1.648680935808808e-24 1.154697953757563e-211 5.559237784042873e-216 3.176284490347208e-277 8.687602808705629e-220 9.917063304910890e-246 0.000000000000000e+00 9.218808377903515e-246 5.054573674111081e-01 5.679465247236287e-01 2.880149566663324e-259 3.836214267806474e-220 1.670874222672468e-303 3.813465748469165e-223 4.909071525104466e-24 4.330838493723465e-152 4.318246918367589e-04 3.972387424161870e-12 1.187111623581751e-234 3.409363065662493e-292 5.556981764513246e-01 4.124238260801360e-211 7.789977197232408e-75 0.000000000000000e+00 9.964612384713765e-319 4.007692664888331e-232 1.116094511013925e-254 5.368048040224178e-01 1.672884993082221e-07 2.119688298524925e-302 6.146559066709444e-01 7.804626569637618e-297 7.480216481234526e-217 3.806500655050103e-01 5.605304243619096e-01 1.437732255767475e-222 5.998834849027397e-220 7.176361406449244e-239 2.351091007032944e-253 1.529293383546921e-231 4.185754631400613e-259 7.664812833537150e-21 4.839795157682675e-01 7.389273674457444e-227 3.558653397045466e-70 9.833750242887569e-243 1.316512827716116e-242 2.373371838132577e-268 5.637289019048623e-321 4.759092998684924e-01 1.464755596168352e-26 2.657237828553785e-239 5.663344699000038e-273 7.474359220760623e-220 4.665001330261908e-01 3.992763975685662e-150 5.072893058496805e-261 7.086319404580159e-227 4.720957232256961e-238 1.782120840440884e-287 4.793965230824298e-231 3.824022706447429e-222 1.566581520494566e-01 1.111137777042435e-245 3.928254577308989e-01 6.629174258728058e-237 0.000000000000000e+00 7.181671345748493e-25 5.990952216821237e-01 0.000000000000000e+00 1.724647003950781e-231 2.623435757948561e-250 5.909787358349667e-01 2.162346198202127e-03 1.738938711484458e-250 1.118185495347035e-301 2.073468319701544e-211 0.000000000000000e+00 4.698185435272430e-254 5.285313972214793e-01 5.624907570877431e-01 3.299959891409185e-25 0.000000000000000e+00 6.210035386858415e-75 2.128075222223451e-151 5.922384561296682e-01 5.853039377099208e-01 1.696749064764273e-219 4.093527989414320e-01 1.617768436213220e-312 1.586576775045227e-311 2.728934789424422e-297 5.580130393029799e-01 5.459956309836915e-01 5.546605718171097e-01 6.227092807116935e-222 1.879625722817283e-211 1.262890861351544e-236 0.000000000000000e+00 4.751488238532324e-01 3.118135022133619e-223 5.093707177381310e-01 4.223855848785101e-232 6.234427225864971e-241 7.330478678481606e-256 4.444055620130211e-01 9.322792597794141e-227 2.615043512784512e-231 3.767378137051887e-315 3.702375320880217e-06 5.845949146339231e-01 5.188228302770403e-01 3.515518300649533e-01 4.232837862147532e-01 2.103981779435308e-232 0.000000000000000e+00 4.950252720566268e-01 7.389507393651110e-279 5.203684135140612e-01 5.578763544732376e-232 4.814493089266428e-314 1.293994814471024e-306 1.277761284236199e-13 1.028566709206955e-259 2.728967845653117e-265 4.217953811384974e-241 6.375921173885084e-220 1.386308131426568e-262 0.000000000000000e+00 4.979131594661506e-01 1.369224559824311e-11 0.000000000000000e+00 8.399744871759145e-147 3.757576793038324e-211 6.129054279643222e-214 2.128123427655914e-01 4.698503417589788e-01 5.224360161084575e-01 5.257157977183773e-01 4.852702260562697e-62 2.383413867559725e-25 5.568993396981198e-227 4.480104183269002e-260 5.392386382018386e-01 5.036984625444744e-01 2.454081400041148e-222 4.225698795993102e-01 2.145787168961535e-294 5.459310445053548e-01 9.560979062042417e-290 1.076130466985267e-213 5.123683804404799e-01 4.467697217905359e-01 1.164766182924135e-317 6.281618610170276e-260 6.948555575256557e-303 9.429359907033365e-152 2.192501641841503e-63 4.969955671253786e-01 2.531440052676815e-263 4.510087766711586e-01 4.171036656237775e-263 1.226869239347984e-225 9.921809529410191e-282 5.775757746294932e-260 2.795241333494845e-248 5.179006416903822e-01 1.268531877365939e-307 7.470972588854835e-25 2.709221713126005e-11 2.796880060530706e-272 9.307487072377597e-235 4.281615945040539e-07 1.169972822899832e-254 2.347830271418285e-60 4.831844144688002e-01 5.503854568691238e-01 2.688693594268194e-14 5.232313121182992e-32 1.310214814605312e-255 9.899184861739876e-168 1.895946313591729e-222 1.216459673798561e-272 3.458459520888726e-323 6.350464672290315e-235 2.703430067322132e-01 3.837401560291912e-11 5.747026930893948e-01 3.197615433585710e-24 2.003788362903855e-220 5.290589500115919e-01 5.230847039902536e-01 1.463533215939354e-246 4.869475892754039e-01 4.938313816552427e-01 6.335702085981833e-222 8.700913389047405e-302 1.918695676281750e-223 2.465257554958927e-157 8.747867037387610e-318 5.715265457321339e-01 5.629802241152486e-01 4.932452459503615e-182 4.168105672675261e-235 5.475441683970834e-232 0.000000000000000e+00 7.806237204291695e-322 1.415466177865014e-238 4.606460604060246e-01 1.923177088792958e-244 2.251781296356201e-239 3.346224460215586e-04 1.694060354504877e-242 8.532086402008796e-02 5.913459344168444e-01 5.828612965250934e-01 2.772822307164126e-295 4.750943108054841e-259 3.143661380776814e-12 1.296356575788487e-265 1.278098420932994e-238 1.189036533838844e-27 2.845783937645120e-11 2.123245875971479e-260 5.698466253623516e-01 1.484027025211384e-263 1.044597841454410e-228 3.867663105760724e-253 3.087046659758860e-317 1.301061687425658e-226 5.463058114168863e-25 1.079357414367396e-256 1.061339222963806e-219 4.943207601364266e-01 9.711629399316678e-229 8.317257944564846e-242 0.000000000000000e+00 6.932470944796839e-282 2.472915159232983e-252 4.020042070847621e-01 3.433143300756433e-316 1.050328641243349e-218 1.160788728232323e-11 4.600533779179243e-01 2.925877515309789e-250 0.000000000000000e+00 8.520460077951174e-227 2.344197802993758e-24 1.554333167226747e-150 4.176054143262230e-01 4.005502930321819e-01 1.091857883459059e-249 0.000000000000000e+00 9.378339284804981e-18 3.502646058644856e-219 5.023053550148328e-259 6.971643014553289e-241 2.910000348226101e-225 3.824893923780211e-268 7.393995207762075e-174 1.627484801347816e-238 2.552861925388808e-235 1.382116360839436e-238 7.583832000701636e-51 1.593452728217039e-255 1.283374385176305e-233 1.203366848629855e-312 4.924682155378345e-252 5.456576468045134e-233 2.998742330185724e-211 5.176419704250599e-01 1.627392244045449e-11 3.591921893442038e-223 1.763706309826472e-09 2.755109804670375e-255 6.663329726266174e-214 4.654587918283490e-01 4.584918350478528e-01 1.095206130101404e-222 6.502633379904712e-226 4.276456148113271e-01 2.264976112105508e-61 3.456180053806092e-220 4.207976247648487e-245 6.563613735453592e-259 0.000000000000000e+00 2.098328237728158e-308 0.000000000000000e+00 1.996465583213314e-214 1.888243073358051e-216 4.384408418197428e-01 4.300870903901141e-01 1.206124562250611e-291 3.734553422167101e-252 7.235940977980726e-249 1.787204254004913e-253 2.473191101714707e-13 5.606699072888359e-281 7.053362949890612e-251 7.422897224532178e-250 1.481095117844665e-266 2.866520067944289e-224 1.401836293996168e-11 2.238709779676998e-307 5.392291332972396e-01 1.058215482237765e-25 6.087326019026679e-01 6.075549492452822e-01 2.873374192587503e-221 6.533449047667947e-12 2.941059310341931e-236 2.017438189826785e-241 2.739894156906943e-288 6.969025676830826e-186 8.595192687770813e-301 1.659652446149119e-263 1.948909884223970e-228 3.379828404995534e-60 3.853712037561723e-322 4.706583350813934e-01 7.679591930147651e-238 5.996152336000455e-01 6.081647390345706e-01 6.084035198852165e-01 5.998658476566451e-01 5.967512856842568e-01 5.979745931548559e-01 1.618567720037523e-213 7.289632586888438e-61 4.128831315365625e-287 4.687414604735512e-287 8.696351622835711e-242 2.725383759152881e-227 9.431795075085074e-65 9.866897749872269e-230 5.287490857332924e-01 4.607520537662574e-224 1.182275792488570e-14 1.898674120470682e-216 5.401555923394510e-214 3.748467470546435e-94 8.864429395919082e-251 2.180899626688144e-11 1.107913637412586e-13 1.475145104325131e-211 1.928268058396676e-317 2.872344644570036e-253 1.379981410361201e-211 1.290405129970956e-255 5.225710680387293e-269 1.457454632942901e-276 1.721530552896554e-01 6.103283329200959e-241 7.209658320873580e-246 4.099864471439638e-12 6.213611459483690e-235 4.937440523777225e-266 1.394527409162787e-225 1.295384358827797e-24 3.327950352060041e-219 8.615700797417814e-220 1.865488202598820e-214 1.547705002672922e-272 3.195162044848416e-277 1.435568341728061e-243 1.837823051403320e-01 9.118889048254820e-220 1.992400705380597e-145 1.852349775499270e-287 6.175087205540772e-01 6.175087224221700e-01 2.848595764103281e-242 4.726721148464705e-01 2.160314303736822e-273 9.918618908398537e-13 1.113816905723194e-213 1.244896885090366e-15 1.976717606757312e-229 1.128724665082870e-260 9.285004495007006e-12 2.151760546460037e-241 6.076175394523967e-01 6.076175451314496e-01 3.671741355458673e-172 5.284694960508318e-01 5.184549599763548e-01 4.911090416032715e-01 6.837893868525629e-160 7.653788262036710e-253 5.471164116791229e-01 5.377144872392348e-01 4.089696747009929e-211 9.050004474751045e-252 4.319937110853887e-310 1.806107448274733e-256 1.280353867932106e-258 5.252074735938470e-01 1.006282049728690e-282 5.982372310354774e-01 5.983995956942264e-01 1.529129529546698e-222 1.319871237006385e-219 3.360293352344866e-01 3.495137104433247e-231 8.843500623783469e-245 7.418715364472530e-233 2.396129142648778e-211 4.346415592047919e-01 4.584519211310025e-01 2.653436780864388e-11 2.542355824781499e-11 1.051959297444869e-226 1.666173092851622e-223 1.055328700378031e-303 2.804873937535923e-229 4.729574625921882e-01 8.261274789782835e-250 1.241302352297032e-254 7.928374614163707e-02 1.354294193274420e-04 8.599173116672967e-281 1.405981168833530e-57 7.594096082688080e-247 1.824856836842847e-225 8.319623263114538e-220 4.632152820590780e-217 1.022067422333282e-286 3.094639691767329e-227 4.400999763526918e-01 3.788018025325505e-01 2.589467300770583e-240 2.608805522284295e-285 1.033449424423849e-247 4.121578798468849e-229 1.758873699194838e-321 3.429086723181851e-25 3.765649025643606e-255 5.199165627162938e-145 2.352234868178237e-311 4.229525298818861e-01 1.922756813855872e-285 5.554782363084388e-01 5.964230115796755e-231 4.575829685439649e-01 9.608882882765083e-269 1.234728497504476e-223 1.008645947765099e-133 5.861775207596742e-252 4.513228720024421e-01 2.017315367592383e-297 2.157979960825477e-302 3.933979591008381e-12 1.502718252159371e-58 1.044500185891298e-232 4.503768938660203e-302 5.678540705550109e-01 5.743668502658166e-01 1.576113529245517e-12 1.229634829418191e-219 6.075760519012283e-282 5.572425519883913e-01 3.902557518546216e-256 1.453541700615450e-31 3.960370164520317e-14 5.346343761885683e-01 5.443853184007020e-01 1.602754565129414e-225 5.769487855265519e-246 7.920211934427392e-264 3.564185958068754e-174 3.191694482372032e-302 5.332905658868378e-211 9.831570054578793e-228 1.890215509366150e-243 2.517257632632298e-241 1.115712107881831e-32 0.000000000000000e+00 5.465057539043698e-01 5.040066025285329e-280 0.000000000000000e+00 3.762475719598561e-12 5.743201041976658e-01 5.987952616396784e-01 6.078732897533856e-01 2.588831435825005e-33 1.937617636238594e-244 0.000000000000000e+00 4.248964554234720e-322 9.806347450812322e-256 4.165385061180575e-01 5.508782541875274e-232 3.522948541078545e-314 1.169461411030717e-11 1.277881615983948e-269 2.759535730073862e-274 3.330922228532325e-145 2.834000516783657e-216