<?xml version="1.0"?>
<VTKFile type="UnstructuredGrid" version="0.1" byte_order="LittleEndian">
<UnstructuredGrid>
<Piece NumberOfPoints="316" NumberOfCells="724">
<Points>
<DataArray type="Float64" NumberOfComponents="3" format="ascii">
0 0.69999999999999996 0 0 8 0 0 3.7000000000000002 0 1.243750000001385 0.69999999999999996 0 0.68142292217753131 2.106313194182027 0 0 1.6319639930219929 0 0 2.430303940964651 0 0.70993008501830757 2.9054181396964478 0 0 3.1141786369756268 0 0.45714634023723411 3.4614941897304652 0 1.013301616169622 3.6128741719811099 0 1.451787781083937 3.11022608666643 0 1.186467289461244 2.488259157846338 0 0.56249999999824107 3.9749999999991399 0 0.59999999999999998 0.69999999999999996 0 2.2687831884271348 2.397628317379688 0 2.4236693135559251 3.5256579194055688 0 2.9420158813362729 3.5139475164392531 0 2.8857059848027808 2.304389417342541 0 3.16379900756549 1.750659825629856 0 2.5341028426591712 1.9138806300960609 0 1.942890303101708 1.90249985684108 0 2.23284951060374 1.369095413116082 0 1.626949751997165 1.3978044304614949 0 1.887500000003292 0.69999999999999996 0 2.5312500000049418 0.69999999999999996 0 2.730231246675086 1.4599417336750831 0 3.047698899035677 1.175177397439602 0 3.1750000000065048 0.69999999999999996 0 0.94999999999923723 1.2749999999987469 0 1 6.2000000000000002 0 1.1249999999964171 4.2499999999982494 0 3.8187500000045098 0.69999999999999996 0 3.638214240926366 1.265285427893069 0 3.5028943452390711 2.1825773809523441 0 3.757799744899315 1.759341836734688 0 4.0559490150232032 2.028653202947901 0 4.7733688274428578 1.2511819424194319 0 4.2198317920941601 1.108273596938623 0 4.4625000000026009 0.69999999999999996 0 5.1062500000012143 0.69999999999999996 0 6.1230253171455891 1.2440604005832661 0 5.8758020027701336 1.829281458631685 0 5.4251604005540912 2.1458562917259631 0 1.299999999998378 1.8499999999973351 0 5.5486111111111649 3.4166666666664391 0 4.9131042795799686 3.1639526813742029 0 4.5652883261780408 3.549611461603364 0 4.3536256774790401 3.0337160882464551 0 3.2848100522576571 3.06994577157805 0 3.8190056356267248 3.2454749759848052 0 3.412636880282601 3.6134558579332841 0 1.75 5 0 1.6874999999994109 4.5249999999997117 0 1.599999999997112 6.1000000000004819 0 1.649999999999066 2.4249999999984651 0 3.625000000001803 4.4499999999997977 0 3.2187500000011142 4.5624999999995248 0 4.1250000000089333 4 0 5.2812499999974998 4.480555555557217 0 5.7901785714252867 4.1543650793672633 0 6.2822169506114909 4.9442489896720572 0 2 3 0 2.25 4.7999999999999998 0 4.8969907407407627 5.6240740740739659 0 2.08333333333292 3.599999999997022 0 2.1666666666662731 4.1999999999971616 0 2.1999999999956921 6.0000000000007194 0 5.3819444444444393 5.7444444444444036 0 6.0367063492063266 5.8849206349206353 0 5.1289108351881252 6.943051186131636 0 3.833430775055819 6.5641729053027689 0 3.3303561509924351 6.9830522680580502 0 2.6000000000000818 2.8399999999999781 0 2.580520851116443 6.6244224184663167 0 1.646932375870239 6.6136900344172886 0 2.6666666666680592 4.5333333333324424 0 2.75 4 0 2.227678571427079 5.4095242619018373 0 2.799999999997127 5.9000000000004791 0 2.8333333333331181 5.0999999999998904 0 1.042857142856084 4.9670058772507648 0 1.593428957229921 3.8897035774451321 0 0.54607142857014845 4.5325429890369104 0 0 4.3611884975573796 0 0 5.1095205703790167 0 3.0833333333345938 4.2666666666658593 0 3.1249999999889848 4 0 0 5.9564815289107864 0 0.59593253968210291 5.8008707178522592 0 1.532738095236533 5.6571455714099397 0 0 6.9150707591630427 0 3.2000000000001432 2.679999999999962 0 3.25 6.2999999999999998 0 1.1705225977355731 8 0 0.93837900218741932 7.1804089820132404 0 1.8128190395187029 7.3536930984991047 0 3.4166666666672652 5.4000000000003077 0 3.3999999999985642 5.8000000000002396 0 3.5 5 0 3.5 4 0 2.644109419022838 7.3867316522664499 0 2.2707825856939472 8 0 3.6250000000072249 5.9999999999942197 0 3.749999999999261 5.3499999999989658 0 3.8000000000002032 2.5199999999999458 0 3.874999999992375 3.7500000000050839 0 4 5.7000000000000002 0 4.25 3.5 0 4.25 4.7999999999999998 0 4.25 1.5 0 4.25 6.2000000000000011 0 4.4999999999995417 5.9999999999997264 0 4.4166666666668641 5.4666666666665567 0 4.6250000000004974 1.8500000000004651 0 4.4000000000001336 2.3599999999999639 0 4.75 7.2000000000000002 0 4.5 6.6999999999999993 0 4.75 4 0 4.75 4.7000000000000002 0 4.7500000000003384 4.3999999999997286 0 4.75 2.7999999999999998 0 5 6.2999999999999998 0 4.8333333333337283 5.2333333333331122 0 5 2.2000000000000002 0 5.0000000000002984 3.5999999999995218 0 5.25 5 0 5.5000000000008269 1.1999999999983459 0 5.25 4 0 5.5 6.3500000000000014 0 5.2500000000003251 3.1999999999994801 0 5.2500000000007052 1.6999999999985891 0 5.2499999999996163 2.499999999999539 0 5.5 2.7999999999999998 0 5.7499999999897531 4.6666666666734979 0 5.75 0.69999999999999996 0 5.75 5.25 0 5.6250000000000648 3.899999999999983 0 5.75 2.5 0 5.9166666666663046 3.1999999999996529 0 6.3749999999999796 2.350000000000005 0 6 3.7999999999999998 0 6 6.4000000000000004 0 4.2771317171003211 8 0 3.3049975410581078 8 0 4.045228499335253 7.2019851637643439 0 6.3749999999999352 3.899999999999983 0 6.249999999989754 4.333333333340164 0 6.3333333333330009 3.5999999999996799 0 6.25 5.5 0 5.1909118800994873 8 0 6.049840683362258 8 0 5.8367197674990106 7.1166649360427767 0 6.4684217593582272 7.3531189884776698 0 6.6249999999998499 6.2000000000000481 0 6.8572107462251504 8 0 6.5 5.2999999999999998 0 7.616117101574889 8 0 7.2585497534189534 7.2378318565328508 0 6.75 4 0 7.9700743397311431 7.5609350974516802 0 8.8779286709583509 7.1321289214782846 0 9.4363260705848777 7.4358468248574452 0 6.75 5.75 0 8.3294684777734691 8 0 6.8750000000007789 5.6500000000007269 0 7 2.2000000000000002 0 7.2499999999897531 4.3333333333265021 0 7.25 6 0 7.5 3.7000000000000002 0 7.4999999999999769 2.349999999999993 0 7.5 4.7999999999999998 0 7.5 2 0 7.6500000000000004 6.2000000000000002 0 7.75 2.25 0 7.749999999999754 3.1000000000005912 0 7.749999999989754 4.666666666659836 0 7.6875 6.5 0 7.75 5.5 0 7.8750000000136362 4.9000000000036366 0 8.125 7 0 8 2.5 0 8.1666666666661811 1.900000000001745 0 8.3333333333329112 1.3000000000015179 0 8 5.25 0 8.25 5 0 8.25 3.7000000000000002 0 8.4375000000000018 2.8750000000000009 0 8.4999999999999503 2.5999999999999899 0 8.5625 7.5 0 8.5 0.69999999999999996 0 8.7499999999999982 4.6666666666666679 0 8.7499999999999556 3.7999999999999909 0 8.625 5.25 0 8.75 5.166666666666667 0 9 8 0 8.8750000000000036 3.2500000000000022 0 9 5.5 0 9 2.7000000000000002 0 9.25 5.333333333333333 0 9.25 4.3333333333333339 0 10.58712006499414 8 0 9.3125000000000018 3.6250000000000022 0 9.2500000000000728 3.900000000000015 0 9.7322767000115658 8 0 10.11683562520899 7.1952376222900778 0 9.4666666666644659 2.5666666666672948 0 11.58504501385041 8 0 12.75 6.9437741439064196 0 9.75 5.5 0 9.9333333333295304 2.4333333333344198 0 9.75 4 0 12.186383928571081 5.6739548845775634 0 12.75 6.038988862336077 0 12.75 5.2639308761360883 0 12.096269132652781 5.0089836801012728 0 12.75 4.0003174080232462 0 10.680373124719701 5.0996881878923999 0 10.462566396889811 4.436821917062888 0 9.9378319844489287 4.5341095853144147 0 10.058566397584119 5.1088423539901608 0 10.249999999999989 4.0999999999999979 0 9.6816900032536655 6.1509933969218187 0 10.318895127649739 5.6829040483701769 0 10.917277223084589 5.4813827249950968 0 11.14723036767284 6.2469725545514123 0 10.75003341587618 5.9107455977173604 0 10.44528068387236 6.4182408893442124 0 11.09889622188336 7.0112522472967331 0 9.9618211858937151 6.6596055842737263 0 9.5164239722228405 6.8348750909827052 0 10.4 2.2999999999999998 0 10.5 4.7999999999999998 0 9.1030890763140047 6.5321818396608462 0 9.3303864350508938 5.6813923661908907 0 8.970242172000809 5.9226351006993019 0 8.4972876044463757 5.8311422148541041 0 8.0796282337786849 6.311844367667188 0 8.6126164010124153 6.4595270667143572 0 10.75000000000014 4.2000000000000286 0 10.612499999999949 2.7999999999998741 0 6.518953214484978 6.7704843776901313 0 7.0801824727701241 6.5807936507936633 0 7.3577684192630528 5.5086946576740887 0 7.9635986863599726 5.855288607768216 0 7.612180670462922 5.8137861955531047 0 10.875 4.5499999999999998 0 10.82499999999963 3.2999999999991241 0 11.03749999999963 3.7999999999991241 0 10.78333333333231 1.9000000000010699 0 7.6417937536871419 5.1654402589958011 0 7.2802004846459853 5.1175278771156387 0 7.0073846965074598 5.2778944676064459 0 6.936160960427304 4.89683078406033 0 6.6887757623921971 4.5124976540268094 0 7.9282200727472034 4.1620177469108377 0 8.6312122071040278 4.1551278659605089 0 8.2402653769809682 4.5238773148127134 0 8.180981048467725 5.4477384704370531 0 9.3812574935583886 4.9465914098774082 0 11.166666666666989 1.49999999999966 0 11.550000000000001 1.1000000000000001 0 11.412499999999749 4.9749999999989596 0 11.25 4.2999999999999998 0 9.4186530900934855 3.112704842739701 0 9.1699287288289124 2.374148078484497 0 8.412499999999941 3.345000000000117 0 6.7300925925924284 3.401388888888814 0 7.1682741769546334 2.9476245590829571 0 6.4676238242209063 2.8855733497101581 0 11.9 7 0 11.749999999999741 4.3999999999999488 0 11.625000000000339 3.9999999999997291 0 11.73749999999942 6.3249999999975941 0 11.574999999999131 5.6499999999963926 0 7.6816945906127989 1.5894745186858981 0 6.6325887022434813 1.7109098098422979 0 7.1647318986115511 1.809291393235446 0 7.1613611451472012 1.37684225124335 0 6.6841764304611262 1.174631096497762 0 6.4375000000000027 0.69999999999999996 0 7.1250000000000044 0.69999999999999996 0 7.6227778138185824 1.133263353986153 0 7.8125000000000018 0.69999999999999996 0 8.8002334655075174 1.6758279686386801 0 8.8279208556153161 2.2186179292874191 0 9.3851273930358641 2.0113077179832741 0 9.294553589509567 1.3214674021148729 0 8.816324129544423 1.139459074151014 0 9.1535002593721142 0.69999999999999996 0 12.24999999999979 4.4999999999999574 0 9.8931307966635327 0.69999999999999996 0 12.75 8 0 12 3.7000000000000002 0 9.75368232782
[...]
<CellData Scalars="region_id,pressure_p0," Vectors="velocity_p0," Tensors="">
<DataArray type="Float64" Name="region_id" format="ascii">
1 4 4 4 4 4 4 4 4 4 4 4 4 4 4 4 4 4 4 4 4 4 4 4 1 4 4 4 4 4 4 4 4 4 4 4 4 4 4 4 4 4 4 4 4 4 4 4 4 4 4 4 4 4 4 4 4 4 1 4 4 1 4 4 4 4 4 4 4 4 4 4 4 4 4 4 4 4 4 4 4 4 4 4 4 4 4 4 4 4 4 4 4 4 4 1 1 1 4 4 4 4 4 4 4 4 4 4 4 4 4 4 4 4 4 4 4 4 4 4 4 4 4 4 4 4 4 4 4 4 4 4 4 4 4 4 4 4 4 4 4 4 4 1 4 1 1 4 4 4 4 4 4 4 4 4 4 4 4 4 4 4 4 4 4 4 4 4 4 4 4 4 4 4 4 4 4 4 4 4 4 4 4 4 4 1 1 1 1 1 4 4 4 4 4 4 4 4 4 4 4 4 4 4 4 4 4 4 4 4 4 4 4 4 4 4 4 4 4 4 4 4 4 4 1 4 1 1 4 4 4 4 4 4 4 4 4 4 4 4 4 4 4 4 4 4 4 4 4 4 4 4 4 4 4 4 1 1 1 4 4 1 1 4 4 4 4 4 4 4 4 4 4 4 4 4 4 4 4 4 4 4 4 4 1 1 4 1 1 4 4 4 4 4 4 4 1 1 1 1 1 1 1 1 1 1 1 1 1 1 1 1 1 1 1 1 1 1 1 1 1 1 1 1 1 1 1 1 1 1 1 1 1 1 1 1 1 1 1 1 1 4 4 4 4 1 4 4 4 4 4 4 1 1 1 1 1 1 4 4 4 4 4 4 4 4 4 4 4 4 4 4 1 1 1 1 1 1 1 1 1 1 1 1 1 1 1 1 1 1 1 1 1 1 1 1 1 1 1 1 1 1 1 1 1 1 1 1 1 1 1 1 1 1 4 4 4 4 4 4 4 4 4 1 4 4 4 4 4 4 4 4 4 4 4 4 4 4 4 4 4 4 4 4 4 4 4 4 1 1 4 4 4 4 4 4 4 4 4 4 4 4 4 4 4 4 4 4 4 4 4 4 4 4 4 4 4 4 4 4 4 4 4 4 1 1 1 1 1 4 4 4 4 4 4 4 4 4 4 4 4 4 4 4 4 4 4 4 4 4 4 4 4 4 4 4 4 4 4 4 4 4 4 4 4 4 4 4 4 4 1 1 1 1 1 4 4 4 4 4 4 4 4 4 4 4 4 4 4 4 4 4 4 4 4 4 4 4 4 4 4 4 4 4 4 4 4 4 4 4 4 4 4 4 4 4 4 4 4 4 4 4 4 4 1 1 1 1 4 1 4 4 4 4 4 4 4 4 4 4 4 4 4 4 4 4 4 4 4 4 4 4 4 4 4 4 4 4 4 4 4 4 4 4 4 4 1 1 1 4 4 4 4 4 4 4 4 4 4 4 4 4 4 4 4 4 4 4 4 4 4 4 4 4 4 4 4 4 4 4 4 4 4 4 4 1 4 4 4 4 4 4 4 4 4 4 4 4 4 4 4 4 4 4 4 4 4 4 4 4 4 4 4 4 4 4 4 4 4 4 4 4 1 4 4 4 4 4 4 4 4 4 4 4 4 4 4 4 4 4 4 4 4 4 
</DataArray>
<DataArray type="Float64" Name="pressure_p0" format="ascii">
0.36699311265044643 0.34223993472355324 0.90849580226359061 3.535945727919831 3.7938139159086921 3.6630463112317306 1.4944783170555209 3.6551811142696229 1.928441734847254 1.5174797494523078 0.85303771414428653 0.34117659145833856 0.65841037933108537 0.33634618942218525 0.55489198927498629 0.24960034857159538 0.60202414581394237 1.0244155744540815 1.0260554440611829 1.4243470361634594 1.7739194624406331 1.507461128759614 1.2028225374361869 1.9163225084591171 3.1551550443680574 3.8568616436125174 3.9495035731334465 2.2092451748814637 2.2976860446263547 2.1365748489840346 3.486939973433981 3.7189840402253189 3.6175576852857025 3.7758894391202 3.6517808880387013 3.784497048313257 3.6713774105906047 3.9375599364294103 4.0790593298738358 4.1225010085682365 4.2591728191661025 4.4771132891715428 4.3204444438174701 4.3179549831476685 4.176097172971633 4.1530777479154928 4.0250361210434074 3.8844181283625958 3.7656254383647445 3.7824810770153574 3.9226038544841177 4.0460491913706553 3.9304735383790206 4.0696351298201972 4.3268274385428818 4.193651423162029 4.4180228533478783 4.4057813472853242 3.2158922599760813 4.5907961495527063 4.7292926814666627 1.1002247513660901 4.9184756236994041 4.5770522656782058 4.6950517237993807 4.6492446777177747 4.7939782343723785 4.8075223591577956 4.9021343111114 5.1303890677207464 4.9649532852698339 5.135258455790618 5.3029051003209835 5.4066886491173891 5.2450422086643087 5.0044691832493831 5.0671111998794629 5.3526985793123547 5.2441879916098397 5.4699671738512814 5.5141923581904715 5.542114332942452 6.5590433037288935 6.771436327839818 6.6091726332549552 6.8607663859345376 6.9209244274006103 6.715701498665144 6.520147735697007 6.2668759852924101 6.2655444030973264 6.4324895444000401 6.4284146418389874 5.4890654665115219 5.5628455091235374 3.3263505722526236 1.834152278671326 3.5973234024813192 5.6868112551982968 5.6240552396824608 5.469422124706373 5.7490938486972265 6.3731879476682547 6.3866620620680976 6.9908689749493682 6.8878301871549859 6.7405357497428335 6.2711000545524644 6.2744930514234349 6.9362864263643251 6.2947993294361186 6.3092297101018442 6.2593917619509316 6.2315321156918415 6.2383295942231296 6.2612420824348138 6.2418180523059847 5.5095653990378457 5.299949932464429 6.2096675547234241 5.2540268619319006 4.9755773967903583 4.4808015981833504 4.7667682236611117 4.5737155301195855 5.104367083298853 4.8650901117895389 5.0842919631950938 5.2028980626233512 5.2649521125560108 4.8732433646394986 4.9625739304562 4.6144712385635405 4.3687370310632447 4.6086385992177146 4.4489926428821231 4.3316062439569576 3.9431673452853273 4.1058408774658712 4.1971231301091914 4.05286298379146 3.8494063665903981 3.7590252488584412 3.6755419657441668 3.9893977988789007 2.5732792278510335 3.4772190966477705 3.2605697802032125 4.2796669437498487 4.2854726557747789 4.0895216987001053 3.9443624149587722 3.8702314982329291 3.9911286073972265 4.4199468296171744 4.5218768409846888 4.6752592585835338 4.9198421601436575 4.7892965470752697 5.1314341936259034 5.4504870162193928 4.5867841589332219 5.0011795972939286 5.1301763671727834 5.6181478842027133 5.8193284990917347 5.6782336938660389 5.8925859681797848 5.9635470810393816 6.0238268524406218 6.027098405211639 6.0859453215633934 5.9140621971038598 5.8489607640137011 5.9343499972738227 5.744871377574932 5.6023655261254195 5.7193790450051258 5.7699531018976815 5.0068742636032724 5.7120979467480257 5.6558101207119869 5.0963092530693146 4.928118703413368 4.9146597353218553 2.9400207037643042 3.0394176721623913 3.2338093212397219 3.7744549421836955 3.448463578456737 4.8421794308366692 4.7517276145737313 4.8613416575808905 5.0186604915826996 5.1235947143752441 5.083374776968137 5.0573978773889925 4.9813683032421876 4.9572491069247651 4.7619909757676986 4.8677593063510809 4.6561332588609865 4.5972851517090163 4.4992001551612111 4.459654060935228 4.0149877258033584 3.9289969190488576 3.9908881936995817 4.4506677739319844 4.402218056142984 4.7159574400093103 4.6023877945142102 4.5719230552635679 4.3584369157484835 3.9724224259249894 4.0527547525015342 3.8517534918026199 4.0603905897298276 4.0497117784681427 3.6423802788601605 3.9170622094391159 3.7248188092807948 3.8956970263848634 3.7703110387895711 3.8070927343469738 3.2608932404055011 3.0089415459263478 3.1674419442152169 3.489545769004569 2.654783546349027 2.9861056895840932 2.8526101861238056 2.68476496254317 2.7740905655935717 3.1541610107824667 3.3438494147451099 3.5102770444266165 3.7656869279570353 3.4766645560520182 3.0289640707674104 3.2248824994976619 3.4612468383135679 3.8713352566814541 3.6643350350591679 3.6996381246376089 3.2731783023779819 3.2700864711028697 3.3120370725869348 3.4761647295085978 3.2194827772544188 2.4858150472717258 2.3474720405096354 2.2707365897429681 2.2318189697671365 2.8076020009618095 2.5208692709881024 3.2782923395411045 3.604572355292234 4.1927742582950316 1.9326276012176515 1.5327858721445429 3.1242434192467998 3.9722301470337555 1.8261478983687076 1.5064124169972732 1.9795795927839539 1.704215752309729 1.3420595835176725 1.0522809574360208 0.79265344163496398 0.15983054851377293 0.38762776141077726 0.2152051950616973 0.75852114982823804 0.66218557758851393 0.28477579994634439 0.81170039168353147 2.2979095894677872 1.6619530940214307 1.8824700440322151 2.473962846159858 2.0207378426505036 0.98487202005697849 0.50821426863251196 4.6147050975769428 3.273442371146845 0.94874643600820918 4.2336416282174092 3.2244817908857399 0.44651966854141345 1.7345150362524553 2.1937825087745324 2.687833566989509 2.8608807384553527 3.3413893647475161 3.062404947663905 4.1582048687833817 4.2562788077863942 4.2560866535720141 4.0381944000126389 4.2464576024256724 3.2966325483465422 4.2507749552985832 4.3502754234366883 4.4255403763881924 5.044445460746239 4.2535077977199078 3.3318414567653027 5.484015282183023 4.7609742154428414 4.2501280249457087 6.0646950692458557 4.5346593283877183 5.6778861741613333 6.1202955633018128 5.0933006146949964 5.2620042839806187 5.6949002409130465 6.1649838993535271 6.1812289555198028 6.2127651947688252 5.7247767975127566 5.7023455149423201 5.8525186731486247 4.7024408102991808 5.7513749374401808 5.2716548164726635 6.2583931093874163 5.4511978125819462 6.1405964446511945 6.1855658284489401 5.7658531152202084 6.4349737497922579 4.8563367653614025 6.3091981378333069 6.2377749265182603 5.2936475948652406 6.8291981743350956 6.3489280426018393 5.8264687569869746 5.0335955098947656 3.7705110580151633 3.6208856472636421 4.0089024746174911 4.221039179982693 6.2925579109401539 4.4261743303104444 4.5625071452971548 4.8171849646024487 4.6633099779517231 4.8897923057552592 5.0281999445794821 6.3499875852714212 7.3197395784298118 6.3734401792371713 5.3117051205619727 5.3751336845597635 6.1955172924596802 5.0441991948290106 4.9178469819734998 5.2427364360413922 5.1459406028364896 5.2909751855657152 5.393294828575903 5.3273763485514607 5.4024496508381636 5.4761541274322649 6.9514899400568337 7.8508658290130615 7.9238153805478824 7.5652119758906284 7.167238470142248 5.3548264705895754 5.3286823854774061 6.6105863648914527 5.2355360407375517 5.4047837384555919 7.0626730987672053 5.3459267381595081 7.7685342995627256 8.3655344333177961 5.5273761251493472 8.3711089393606226 8.3396748572420201 7.6927742506051091 8.1776166565523596 8.3791484777322189 7.6969223681006476 8.5353730030858301 7.5025483198267633 7.7078126113836074 8.472532626608805 8.3922878136736241 8.3880548634351779 7.7094440129229476 5.6190181113748414 8.3948563856160856 8.9690276644407163 8.6444963375282846 7.9439439658905071 7.7163622244035786 7.7437736193612841 8.8317016622849103 5.6694937819762607 7.7859500147351106 8.3880284815014292 7.7139491444349639 8.9891391236837208 8.8107462952704232 7.8114330122836737 8.9688929275022584 9.0239786277814744 8.8264753838068533 9.1171272963922654 8.893407212242991 8.4162531287436195 8.3531159138567492 9.4544316678158129 10.099333700181592 10.636498368999195 11.650045196983925 12.344084354246998 12.388424893625317 9.3940842165691247 12.057427349249007 10.336519164618149 10.079574844008288 11.851705810852835 10.1549978354562 9.9110930572250453 12.219158678343256 12.556520643898189 12.333902319134047 12.285284765061938 12.504945064146781 12.576298444688078 11.882709114271663 12.269803036127879 11.923331709001737 11.626200834822132 10.95117954970959 11.387565215305981 10.304947500967774 11.390946261105809 11.69776632269636 11.96016807290485 11.710577029630162 10.103327424842812 9.3176005679985856 9.6720485619877685 9.9606530712857726 9.5864400340486746 9.5452345851866589 9.9711191838316964 10.099333718783178 10.1462903560192 10.171767546468992 9.9848000462189201 9.845602280175024 9.7081576621776353 9.913230502579637 9.8479025944613898 9.5196568957021217 9.4532683831488544 9.2549520392071365 9.0291553059425151 9.0087418284423304 9.3455218412203571 9.0305482725874864 9.3705257887013644 8.8473205539143152 8.7469783556993725 8.2947229562207685 8.9551569469569241 9.5358833366884372 9.8828059888127058 9.5770182844414595 9.3361644352553448 9.3573297664640958 9.6891062417845983 8.9407673918467339 8.8011643095824148 8.4412527055907915 8.5778357498128095 9.8490274477581998 10.153475127142393 9.8620023336655223 10.646676263783299 9.9283769478912873 7.7764242071597991 7.4706452152812215 7.584012760006642 8.1208634957331753 8.0513785716673638 7.9593335888855252 8.0709370651794359 7.9066021622128471 7.5889334030637094 7.8320771533094611 7.1363927708335906 7.4322513518603284 7.3699818008266416 7.5023102450283234 7.1671979710490161 7.012176799923667 6.8923218503981971 7.0806917737909281 5.2774575132550554 6.5732261060053441 6.4691873156106299 5.2197142659362532 5.1990658218140666 5.1001928808412149 5.0745530433325126 4.9834453347352756 5.1589312843424135 5.1991902074930465 5.1261337772010585 5.5338710454854105 5.4584843009317208 6.2822988451796915 5.3889364941680284 6.4484560525939116 5.9239185716690859 6.4020171783721924 6.692838219079233 6.6460813576993454 7.0672484018733002 6.8086611066121696 6.6754475303638854 10.581715446059693 10.369887637544036 10.669951726381068 10.410228142541552 9.9103324363922987 7.0154974288224441 6.7742239572817819 7.093777951466957 7.4249606429951136 7.2234703645912495 7.0000644728201511 6.787008165771562 6.5944328177560383 6.6753923655104419 6.4814402706319907 6.3163352901704446 6.423714141990664 6.2157106544287108 6.1324132251036918 6.0663118898781709 6.1818822244201463 6.4213085788277944 6.0938765979259344 6.2423744238550194 6.1410964378450563 7.3993613116596579 6.3958951716775569 7.7292106244529979 6.6195490511114823 6.9082162076888913 7.7075975854467043 8.2162251827827468 8.1122439580795991 8.1875141429205502 7.9022913228442597 7.8970376277686061 7.2630038105138457 7.4229505993724993 7.3758650559531489 7.2353923508725275 7.7549488949059704 8.0347181541223662 8.1691672170389396 8.3982734473744465 8.4301221533889859 7.7911266030208708 7.8351177400100678 8.5984386380470692 8.8721194452585905 8.586030117062629 8.3683533571921203 8.5274428928454853 8.5127358674861497 8.7045223555407016 10.70861668266722 10.769052062900693 10.717007343656833 11.036930211456479 8.9082024748057762 9.9457306345447609 8.828963829368039 8.7573761016082727 9.319857930789734 9.1552940728898733 9.2116707779475711 9.1752207353751576 9.1050867289075335 8.9432264159891446 9.0307488398644704 9.1021075537590086 8.9261962260824905 8.8376190146884746 8.6708455542056058 8.7297262935991924 8.4120975148521264 8.4321028939336706 8.4093373151702195 8.6547702764594625 8.564757962365606 8.6172718893470961 8.4007434782235055 8.065497024135432 8.2446641446557951 7.668451230511689 7.318041646032432 7.0656088993493888 6.3325722525441481 7.0769255444560919 7.4492701052535706 7.2722837240219986 7.2445279532537974 7.3647421005786464 7.5640571556463865 7.691455611198597 7.8618695069287039 8.0843550750445381 10.809270371910479 10.833052012949143 10.73684118371251 7.9478107122784483 8.0626353250138916 7.9432494176541075 7.733910204914455 7.6184813476174025 7.6244623950652928 7.7579421369621269 7.3852127618139658 7.1839877549482161 7.389763849545413 7.2672978495492 7.0349585189516297 6.9813301112618262 7.1950989662235738 7.3531141722669684 7.6471749093609347 7.5417717558607915 7.6733850311406471 7.8684036737621152 7.8576709457463023 7.9733336332880373 8.8757550300367445 8.9198172314496791 7.9955582673505479 8.1420004520433018 8.842827850856116 8.8917944464335541 8.8319256806220636 9.128995690236378 9.055006073211862 9.0955179432687547 9.2674597702737262 9.0550691034095525 8.9949287789181209 9.109933348810717 9.2702447780226365 11.727231364568308 9.3572292438386384 9.5233478035346302 9.6974258213184736 10.131926426559225 9.9089059715835859 9.6674841665761182 10.971586760055104 9.8241074380132574 10.97950192303264 10.693848004851787 9.6396565476470553 9.5320225549920838 9.530323884346533 9.3767070022243164 9.3883675822278114 9.2849570315606265 9.4459090285637686 9.6509601588346712 9.5865194856639704 9.6580560373986408 9.3570338337449144 9.4196686906029683 9.3682909304577286 9.5140510700846512 9.6629019163919772 9.6649449935932488 9.5639133017253268 9.8047171603863568 11.004289551164034 9.9455736188186563 11.057028076723132 10.88877692199358 10.853471943456364 9.7898869258179797 10.689278413886713 11.240398211003708 12.409832879045524 11.57878175078487 11.811751053562475 11.590256270255415 11.272533465583766 11.144050558927018 11.091474720399134 11.266846024844561 11.665828775860804 12.206725553536415 12.455023424105057 12.514608865842671 12.254164929114459 12.479929933769956 12.19330568303365 11.714758268131776 11.364365634366262 11.320260224366956 11.397501403152578 10.562292606694339 11.961341252313396 12.444870858321149 
</DataArray>
<DataArray type="Float64" Name="velocity_p0" NumberOfComponents="3" format="ascii">