<?xml version="1.0"?>
<VTKFile type="UnstructuredGrid" version="0.1" byte_order="LittleEndian">
<UnstructuredGrid>
<Piece NumberOfPoints="2028" NumberOfCells="724">
<Points>
<DataArray type="Float64" NumberOfComponents="3" format="ascii">
0 0.69999999999999996 0 0 1.6319639930219929 0 0.59999999999999998 0.69999999999999996 0 0.59999999999999998 0.69999999999999996 0 0 1.6319639930219929 0 0.94999999999923723 1.2749999999987469 0 0.59999999999999998 0.69999999999999996 0 0.94999999999923723 1.2749999999987469 0 0 1.6319639930219929 0 0.68142292217753131 2.106313194182027 0 0.94999999999923723 1.2749999999987469 0 0 2.430303940964651 0 0.68142292217753131 2.106313194182027 0 0 1.6319639930219929 0 0.94999999999923723 1.2749999999987469 0 1.299999999998378 1.8499999999973351 0 0.68142292217753131 2.106313194182027 0 1.299999999998378 1.8499999999973351 0 0.94999999999923723 1.2749999999987469 0 1.299999999998378 1.8499999999973351 0 0.68142292217753131 2.106313194182027 0 1.186467289461244 2.488259157846338 0 1.299999999998378 1.8499999999973351 0 1.649999999999066 2.4249999999984651 0 1.299999999998378 1.8499999999973351 0 1.186467289461244 2.488259157846338 0 1.649999999999066 2.4249999999984651 0 1.299999999998378 1.8499999999973351 0 1.626949751997165 1.3978044304614949 0 0.94999999999923723 1.2749999999987469 0 0.94999999999923723 1.2749999999987469 0 1.626949751997165 1.3978044304614949 0 1.243750000001385 0.69999999999999996 0 1.626949751997165 1.3978044304614949 0 1.887500000003292 0.69999999999999996 0 1.243750000001385 0.69999999999999996 0 1.243750000001385 0.69999999999999996 0 0.59999999999999998 0.69999999999999996 0 0.94999999999923723 1.2749999999987469 0 0.45714634023723411 3.4614941897304652 0 0.56249999999824107 3.9749999999991399 0 1.013301616169622 3.6128741719811099 0 0 3.7000000000000002 0 0.56249999999824107 3.9749999999991399 0 0.45714634023723411 3.4614941897304652 0 0 3.7000000000000002 0 0.56249999999824107 3.9749999999991399 0 0.45714634023723411 3.4614941897304652 0 0.70993008501830757 2.9054181396964478 0 0 3.1141786369756268 0 0 3.7000000000000002 0 0.45714634023723411 3.4614941897304652 0 0 3.1141786369756268 0 0.70993008501830757 2.9054181396964478 0 0.45714634023723411 3.4614941897304652 0 1.013301616169622 3.6128741719811099 0 0.68142292217753131 2.106313194182027 0 0 2.430303940964651 0 0.70993008501830757 2.9054181396964478 0 0 3.1141786369756268 0 0.70993008501830757 2.9054181396964478 0 0 2.430303940964651 0 0.70993008501830757 2.9054181396964478 0 1.186467289461244 2.488259157846338 0 0.68142292217753131 2.106313194182027 0 1.649999999999066 2.4249999999984651 0 1.186467289461244 2.488259157846338 0 1.451787781083937 3.11022608666643 0 1.186467289461244 2.488259157846338 0 0.70993008501830757 2.9054181396964478 0 1.451787781083937 3.11022608666643 0 1.013301616169622 3.6128741719811099 0 1.451787781083937 3.11022608666643 0 0.70993008501830757 2.9054181396964478 0 1.451787781083937 3.11022608666643 0 1.013301616169622 3.6128741719811099 0 1.593428957229921 3.8897035774451321 0 2.4236693135559251 3.5256579194055688 0 2.1666666666662731 4.1999999999971616 0 2.08333333333292 3.599999999997022 0 1.593428957229921 3.8897035774451321 0 2.08333333333292 3.599999999997022 0 1.451787781083937 3.11022608666643 0 1.451787781083937 3.11022608666643 0 2.08333333333292 3.599999999997022 0 2 3 0 2.4236693135559251 3.5256579194055688 0 2 3 0 2.6000000000000818 2.8399999999999781 0 2 3 0 2.08333333333292 3.599999999997022 0 2.08333333333292 3.599999999997022 0 2 3 0 2.4236693135559251 3.5256579194055688 0 2.6000000000000818 2.8399999999999781 0 2.2687831884271348 2.397628317379688 0 2 3 0 2.6000000000000818 2.8399999999999781 0 2 3 0 1.649999999999066 2.4249999999984651 0 2 3 0 1.649999999999066 2.4249999999984651 0 1.451787781083937 3.11022608666643 0 2 3 0 2.2687831884271348 2.397628317379688 0 1.649999999999066 2.4249999999984651 0 2 3 0 2.2687831884271348 2.397628317379688 0 2.6000000000000818 2.8399999999999781 0 2.8857059848027808 2.304389417342541 0 2.8857059848027808 2.304389417342541 0 2.6000000000000818 2.8399999999999781 0 3.2000000000001432 2.679999999999962 0 3.2848100522576571 3.06994577157805 0 2.6000000000000818 2.8399999999999781 0 3.2000000000001432 2.679999999999962 0 3.2000000000001432 2.679999999999962 0 2.6000000000000818 2.8399999999999781 0 2.6000000000000818 2.8399999999999781 0 2.9420158813362729 3.5139475164392531 0 2.4236693135559251 3.5256579194055688 0 2.6000000000000818 2.8399999999999781 0 3.2848100522576571 3.06994577157805 0 2.9420158813362729 3.5139475164392531 0 2.9420158813362729 3.5139475164392531 0 3.412636880282601 3.6134558579332841 0 3.1249999999889848 4 0 3.1249999999889848 4 0 2.75 4 0 2.9420158813362729 3.5139475164392531 0 2.4236693135559251 3.5256579194055688 0 2.9420158813362729 3.5139475164392531 0 2.75 4 0 1.887500000003292 0.69999999999999996 0 2.23284951060374 1.369095413116082 0 2.5312500000049418 0.69999999999999996 0 2.23284951060374 1.369095413116082 0 1.887500000003292 0.69999999999999996 0 1.626949751997165 1.3978044304614949 0 1.942890303101708 1.90249985684108 0 1.626949751997165 1.3978044304614949 0 1.299999999998378 1.8499999999973351 0 2.23284951060374 1.369095413116082 0 1.626949751997165 1.3978044304614949 0 1.942890303101708 1.90249985684108 0 1.942890303101708 1.90249985684108 0 1.649999999999066 2.4249999999984651 0 2.2687831884271348 2.397628317379688 0 1.649999999999066 2.4249999999984651 0 1.942890303101708 1.90249985684108 0 1.299999999998378 1.8499999999973351 0 2.5341028426591712 1.9138806300960609 0 1.942890303101708 1.90249985684108 0 2.2687831884271348 2.397628317379688 0 2.23284951060374 1.369095413116082 0 1.942890303101708 1.90249985684108 0 2.5341028426591712 1.9138806300960609 0 2.730231246675086 1.4599417336750831 0 2.23284951060374 1.369095413116082 0 2.5341028426591712 1.9138806300960609 0 2.5341028426591712 1.9138806300960609 0 2.2687831884271348 2.397628317379688 0 2.8857059848027808 2.304389417342541 0 3.5028943452390711 2.1825773809523441 0 3.16379900756549 1.750659825629856 0 2.8857059848027808 2.304389417342541 0 2.8857059848027808 2.304389417342541 0 3.16379900756549 1.750659825629856 0 2.5341028426591712 1.9138806300960609 0 2.5341028426591712 1.9138806300960609 0 3.16379900756549 1.750659825629856 0 2.730231246675086 1.4599417336750831 0 3.047698899035677 1.175177397439602 0 2.730231246675086 1.4599417336750831 0 3.16379900756549 1.750659825629856 0 2.5312500000049418 0.69999999999999996 0 2.730231246675086 1.4599417336750831 0 3.047698899035677 1.175177397439602 0 2.23284951060374 1.369095413116082 0 2.730231246675086 1.4599417336750831 0 2.5312500000049418 0.69999999999999996 0 2.5312500000049418 0.69999999999999996 0 3.047698899035677 1.175177397439602 0 3.1750000000065048 0.69999999999999996 0 3.047698899035677 1.175177397439602 0 3.638214240926366 1.265285427893069 0 3.1750000000065048 0.69999999999999996 0 3.1750000000065048 0.69999999999999996 0 3.638214240926366 1.265285427893069 0 3.8187500000045098 0.69999999999999996 0 3.638214240926366 1.265285427893069 0 3.047698899035677 1.175177397439602 0 3.16379900756549 1.750659825629856 0 3.8187500000045098 0.69999999999999996 0 3.638214240926366 1.265285427893069 0 4.2198317920941601 1.108273596938623 0 3.8187500000045098 0.69999999999999996 0 4.2198317920941601 1.108273596938623 0 4.4625000000026009 0.69999999999999996 0 4.25 1.5 0 4.2198317920941601 1.108273596938623 0 3.638214240926366 1.265285427893069 0 4.2198317920941601 1.108273596938623 0 4.25 1.5 0 4.7733688274428578 1.2511819424194319 0 4.4625000000026009 0.69999999999999996 0 4.2198317920941601 1.108273596938623 0 4.7733688274428578 1.2511819424194319 0 5.1062500000012143 0.69999999999999996 0 4.4625000000026009 0.69999999999999996 0 4.7733688274428578 1.2511819424194319 0 5 2.2000000000000002 0 4.4000000000001336 2.3599999999999639 0 4.6250000000004974 1.8500000000004651 0 4.4000000000001336 2.3599999999999639 0 5 2.2000000000000002 0 4.7733688274428578 1.2511819424194319 0 4.25 1.5 0 4.6250000000004974 1.8500000000004651 0 4.6250000000004974 1.8500000000004651 0 4.25 1.5 0 4.0559490150232032 2.028653202947901 0 4.6250000000004974 1.8500000000004651 0 4.25 1.5 0 3.757799744899315 1.759341836734688 0 4.0559490150232032 2.028653202947901 0 4.25 1.5 0 4.6250000000004974 1.8500000000004651 0 4.0559490150232032 2.028653202947901 0 4.4000000000001336 2.3599999999999639 0 3.757799744899315 1.759341836734688 0 3.5028943452390711 2.1825773809523441 0 4.0559490150232032 2.028653202947901 0 4.0559490150232032 2.028653202947901 0 3.5028943452390711 2.1825773809523441 0 3.8000000000002032 2.5199999999999458 0 3.757799744899315 1.759341836734688 0 4.25 1.5 0 3.638214240926366 1.265285427893069 0 3.638214240926366 1.265285427893069 0 3.16379900756549 1.750659825629856 0 3.757799744899315 1.759341836734688 0 3.757799744899315 1.759341836734688 0 3.16379900756549 1.750659825629856 0 3.5028943452390711 2.1825773809523441 0 2.8857059848027808 2.304389417342541 0 3.2000000000001432 2.679999999999962 0 3.5028943452390711 2.1825773809523441 0 3.8000000000002032 2.5199999999999458 0 3.2000000000001432 2.679999999999962 0 3.5028943452390711 2.1825773809523441 0 3.2000000000001432 2.679999999999962 0 3.8000000000002032 2.5199999999999458 0 3.2848100522576571 3.06994577157805 0 3.2000000000001432 2.679999999999962 0 3.8000000000002032 2.5199999999999458 0 3.8190056356267248 3.2454749759848052 0 3.2848100522576571 3.06994577157805 0 3.8000000000002032 2.5199999999999458 0 3.412636880282601 3.6134558579332841 0 3.5 4 0 3.1249999999889848 4 0 3.2848100522576571 3.06994577157805 0 3.8190056356267248 3.2454749759848052 0 3.412636880282601 3.6134558579332841 0 3.2848100522576571 3.06994577157805 0 3.412636880282601 3.6134558579332841 0 2.9420158813362729 3.5139475164392531 0 3.874999999992375 3.7500000000050839 0 3.5 4 0 3.412636880282601 3.6134558579332841 0 3.8190056356267248 3.2454749759848052 0 3.87499999999
[...]
<PointData Scalars="A_conc," Vectors="" Tensors="">
<DataArray type="Float64" Name="A_conc" format="ascii">
0.41814103893609328 0.84721120093998137 0.42854349038875195 0.42819003358669017 0.8478299913692634 0.79415033862881768 0.3865745834510278 0.80954723088700864 0.78083336675807624 0.8783556247353993 0.75460285567023888 0.88176785974011118 0.87431580963682776 0.79109403321930549 0.74793529488849364 0.8760537834652754 0.87792056671255092 0.87314558737433057 0.7547325052692917 0.86070307245678046 0.86176806079971691 0.90402903386964828 0.86130165426758665 0.91150353274277096 0.86090354099375854 0.9035730660065463 0.9117791081778317 0.49028710363720929 0.31627944592323665 0.15536146595788142 0.16585726986234745 0.29384484501275532 -0.069923468783581411 0.30114291982378411 -0.065765540994529012 -0.079081324882785686 -0.066052739484941947 -0.069738706061845859 0.15680116246564177 0.90153962969323465 0.86964835950956887 0.90962659406687185 0.88951925613562466 0.89123403556121383 0.90213385283564795 0.86376775482130086 0.86943891890940117 0.89621371890886581 0.91141447988505253 0.89470097335853815 0.87083498724487685 0.8994348755737368 0.89971340170369374 0.91106774851412875 0.8963662384513843 0.9049307076446067 0.86636664461411916 0.86982528458669817 0.9090574417369307 0.90298427186750108 0.91018206636571275 0.87229850241350448 0.90849924107188584 0.90171265707235326 0.8666147852746926 0.90690287071810116 0.89895790398464737 0.92439782674171656 0.89871591862878497 0.90513601419961809 0.92481633051403789 0.90491082607013384 0.92275847815820311 0.91086054987061282 0.92125253448832856 0.90363084347522526 0.91148896479878994 0.86332210850938051 0.78787203834829389 0.85566627129258233 0.91150867809017044 0.92591722453140934 0.92092527558172299 0.9197018486370131 0.92539926915230353 0.92965607355250612 0.86052521719438413 0.91406935420022095 0.94492186791777488 0.92946586865797931 0.92538177993237514 0.85712143001451457 0.91614264932790312 0.85976999885197503 0.87871164264209289 0.77505450594145719 0.78631794654785758 0.9319036606113813 0.92910851433728781 0.90687207391164382 0.93150627984684697 0.90689938927447322 0.92421018863344417 0.93168351347232614 0.77635851641705844 0.65234359818310261 0.78545036304478033 0.77786743053355878 0.87438843264758559 0.84129011949745203 0.83707385263793033 0.87510839540335239 0.91823092640507653 0.8842024707579812 0.93598730149219045 0.93753143514598791 0.9332021601502567 0.9317080936712212 0.94167376936888825 0.84463955868043528 0.86624393445078651 0.93835816355311108 0.88439976645971841 0.84686018851464884 0.852179001896335 0.82289939701206583 0.79062065617152233 0.78968844506968838 0.79098993225754421 0.85390636748961279 0.86485372752893175 0.84825401476890905 0.78975839962085626 -0.079989630379146984 0.3779874877037977 -0.060579809225775834 0.37255815639812068 -0.070449729857046395 0.31213427478318134 0.66362956531382167 0.32506873186586593 0.4953707008697823 0.40956728142015869 0.31958737260787151 0.6675148932584285 0.67190664128099886 0.66984522935242474 0.77407111026566222 0.68017184488317362 0.66932609874794025 0.51914478136098352 0.76214320275799841 0.67493227357810626 0.77067666461949114 0.40864316455391414 0.67137493407610982 0.82408207731829775 0.57278369576060317 0.40395651333791732 0.82634724017610761 0.74546151381622405 0.78220613300348263 0.86222380906539431 0.90021389383138128 0.804509387075518 0.8547321582059616 0.85852191280282475 0.80382791597033698 0.74846327288584069 0.81032502625381864 0.88104867172645129 0.58602569225113921 0.37246285268961643 0.55946406522721226 0.89393099686358457 -0.070794927719588605 0.53095785237936854 0.30889859365354816 0.38741749160546712 0.52673923185321092 -0.064370594643240214 -0.028726621027146296 0.27634612372813494 -0.0052568569341013274 0.2809800564443114 0.39925994841811469 -0.0066024063217205477 -0.0099768109338853033 0.4018786903160485 0.020666831905828138 0.62008673959946181 0.370775761508292 0.89540313237455271 0.019588642852076368 0.40592856245839587 0.23458861659165836 0.1019054943726367 0.20128565703281565 0.14058143364693543 1.0513163713267302 0.32242307413719373 0.53673386092099518 0.3231088251811986 1.0498844764300825 0.27637745438331607 0.14134332764121085 0.20195944172836078 0.19731725359845273 0.2471843502363123 0.16998195188847129 0.18675392460980905 0.93681294780536928 0.93564754063463318 0.91680104302574505 0.9315216653163616 0.9387716265537529 0.27726920960112583 1.0482481277677298 0.96614553871517539 0.95200664479546226 0.80522318484168431 0.93232121489110475 0.94801368839943245 0.81446288169305137 0.83765779016252229 0.93506676362712382 0.81269787450287068 0.91679687208620808 0.90156911961201636 0.93255868103226092 0.84780654614646989 0.9014907811296915 0.92974621331188856 0.89711758891850313 0.88029472593417446 0.92802127926684841 0.89585216124898515 0.95259212031243823 0.6786400105304603 0.6801072563343965 0.81230645900863563 0.89615541759269335 0.85633222185158719 0.80874945798952413 0.89637984120857417 0.8400101087036389 0.91513890317689028 0.8765654654948104 0.93444388226640485 0.93316677996618436 0.87629734878835619 0.91281345749053755 0.93019465942778945 0.88303021955047933 0.93805126240924841 0.93158810671283521 0.83957503367237418 0.8854320120027851 0.92679826442927093 0.81918336561402305 0.83757846085612808 0.77266008553006316 0.88703795074395264 0.83900947400045234 0.82445857283733259 0.88870429457284972 0.82293678522314495 0.8508150121893413 0.93165990529983489 0.84177600911659622 0.81770424865251601 0.87411074392381938 0.93027074431596979 0.81857972672206247 0.88551063919829776 0.97778403709949002 0.91872655067288467 0.89671790055146428 0.91563808913790368 0.85104431382383883 0.96421932296352542 0.96189154203110216 0.96479268605780344 0.85068714741025253 0.87549072866346123 0.92054966562356821 0.96082649089239125 0.93686040655005898 0.97688809414100175 0.88621271785381972 0.97305225714946886 0.95577818216006583 0.95305572914760195 0.95589179654457412 0.95136954416215802 0.95295514377885471 0.95528585420840495 0.91292323575294754 0.95054761503642893 0.85004351834911318 0.96205858281079137 0.8933662217485121 0.93565664140859117 0.93443468108506078 0.85185181726423398 0.92236019602448793 0.91745488941326481 0.934184050572202 0.89741136306883773 0.92637674678545878 0.92467862617405072 0.85081734883888105 0.84179521708886396 0.9125343756160379 0.81131485833945605 0.86065874749159077 0.93863593351042396 0.93306790141225937 0.97039962468962682 0.98661406277817942 0.76287201206249577 0.99238710735850388 1.0045153487534433 0.72431247207474359 1.0105785599573469 0.8315651179283573 0.98857913292666566 0.97295735707402653 0.97413539337064647 0.98159121754027878 0.93399104153650347 0.97917276027232569 0.96962288022586895 0.93350055717263714 0.98195670497348431 0.97480630432888193 0.96853301450222495 0.97472134080490613 0.96780254139446731 0.97273309041931799 0.93158694642480999 0.97995797046695232 1.0118615230347219 1.0106811746701498 0.9824647942465784 0.99122021107762504 0.97392500261227799 0.97429672322133298 0.0075049791453387351 -0.0062274629971025347 0.11995590897538304 0.9555889931224113 0.91209698050534915 0.94512002457879518 0.97412273062780508 0.94929163302192132 0.97377763995792443 0.97276452391711943 0.94933955509336232 0.97017050273557659 0.95094149073406553 0.21716557649927673 0.27145208006136434 0.0085005990272934082 0.24544143654359374 0.76649769700087689 0.29939830182408295 0.095298260512565833 0.23405623215586904 0.43922368541063733 0.1452163641809972 0.30131420904602235 0.00076640856872585786 0.46793694899649663 0.23412504525350664 0.4948528199580895 0.98762485836060354 0.98140423869155302 0.84666936503820356 0.7900685151402751 0.23697941092987304 0.47404922601735211 0.50260921443044848 0.8306663748896107 0.85213552804099246 0.85841674506868593 0.9027181262496673 0.94513623503980471 0.98986234962316344 0.50476299363047561 0.85013948210680501 0.82696363316699628 0.98726921369780773 0.99014877261423151 0.81759893312151166 0.59011968960775563 0.84099443557660825 0.98949832497639945 0.99036948083903054 0.96132341810655331 0.94168778943938269 0.93715550768930811 0.84520203713997921 0.8519226813838825 0.96016851330889808 0.97117528073446957 0.94229285676244134 0.98922711351091841 0.96198728670274392 0.96692835121765774 0.99031138072217462 0.99079022833100949 1.0080400991867693 0.91686550680015466 0.90617111579451892 1.0089951896920621 0.9043293481026089 1.0058666793651332 0.93430169255112638 1.0092904300997199 0.90169848317385404 0.80471040574919706 0.36148245461085443 0.90295930328124974 0.61910557706022362 0.54394686720845542 0.39576760216963913 0.44158617324401678 0.32304311844791855 0.54408938144618202 0.32983623075857321 0.39502654240090673 0.90694285754248438 0.35914672381796692 0.30945825724108483 0.27127928692744735 0.39707653340506688 0.25690954322685378 0.32249519226213014 0.43450493296838505 0.18497885139974324 0.29199754013402307 0.25095355168426836 0.26577723994958041 0.21640437061379691 0.39329785643863252 0.27557855029616446 0.10178171101612031 0.97096679970183442 0.40515183905660807 0.5354540150159639 0.93886113132585336 0.91950691626331904 0.26642817228358262 0.99217146504845466 0.70827228832026989 0.94984678238089804 0.80230154154703148 0.93028423935726323 0.98241825550414397 0.93088275281269883 0.91686359034694687 0.90895387729525312 0.30726787960008289 0.7654362678560771 0.80235186818160176 0.94961202901709041 0.90385571713431612 0.62594137279801976 0.4420071574540545 0.38624386568505992 0.63392744206256535 0.63447693998731325 0.39649667937122807 0.39707968866460791 0.42786674506683336 0.63240747314618517 0.5439351783142613 0.91004953124545584 0.60491478869661652 0.36354408544657429 0.54028241642297437 0.60068754728913987 0.49845274243383109 0.89642275879742328 0.56556707423099695 0.90579565018441344 0.92158974474456923 0.54892306942881275 0.90630006431193355 0.90263175732898071 0.9214041668515317 0.9326089659907858 0.88647282540111105 0.5072427858777413 0.87866556421122644 0.53722174206461282 0.72127134418584382 0.86293443323418273 0.93210507257197217 0.93931156215596112 0.66282360754296687 0.85041850425623078 0.63450185947171034 0.62726499026425764 0.67791484246565581 0.44275980139082438 0.66175408649088596 0.63475358480081068 0.45234020423510585 0.82599914645822892 0.68666853792413551 0.62276554906894432 0.88909241940812611 0.68898639994627875 0.82829102452739178 0.69021439232999882 0.81934174746222233 0.827659454249 0.96023233974563404 0.96822522173178827 0.95635628407188167 0.93961573998919312 0.96535125522570575 0.94799918555608342 0.81491782816746605 0.82450318588982741 0.95428264913060334 0.97650857981407369 0.97204825327370892 0.97887997714974395 0.95384542201620381 0.94362583880679107 0.98531112892405648 0.9786567385959174 0.9883615397668668 0.97247478737475257 0.97853287641748854 0.98621296001934233 0.97139405948016133 0.97570647739692218 0.989235361305419 0.98998639618225681 0.9908711941528302 0.97324218492237768 0.95205386860807262 0.9802916341626996 0.9760170289690685 0.95498054128279186 0.95109795286708854 0.98256722225856474 0.97316861473497629 0.98814926314918949 0.97543529511577798 0.98252889781512343 0.97178239491022289 0.97352175278478281 0.95367310897367719 0.97552286456543602 0.98182162752921764 0.96922016794145993 0.95281279025055299 0.95892166797725842 0.93767174202643444 0.9380690003225638 0.93351213924872145 0.95283299321056647 0.94408369894783206 0.95186100721714095 0.87517720505810392 0.84454929486791219 0.96038960157522779 0.93053376752932215 0.76882116169785064 0.79993550365751886 0.81456290789612074 0.82033790833145426 0.64599603622359036 0.81084582980264674 0.98794757467603378 0.99014943440922665 0.95662333185290227 0.9245903919853008 0.951440834671193 0.79075313344880904 0.81607737667742342 0.95608234215413224 0.93322569433016245 0.92110908019471982 0.82448907556285611 0.63386159366356754 0.79250413543911702 0.61746051967063809 0.81554262821674395 0.64350734956060229 0.56884955421520589 1.0287424441974482 0.88469731090159043 0.97226796839232432 0.97307236360182803 0.55253283280253218 0.97310829850920699 1.0387316867179357 0.9689530747860815 0.82480365508846687 0.82477044146844891 0.97014058896616018 0.97227696695112864 0.9272262501729005 0.96693376649343532 0.82572193290166085 0.85404154825458345 0.82308472152639167 0.97187007182692953 0.95640920825737175 0.91511871074493267 0.92992616910541215 0.91545237385060696 0.91362750672685733 0.92993807239863524 0.84366084905783922 0.87383174797419261 0.9618130727700509 0.91134226014227315 0.95237054746873662 0.94949920204773763 0.9169240688527468 0.9436140844634815 0.8510491923940996 0.88522330966267893 0.91399790367758638 0.91339828318950811 0.91587897297804122 0.90412222620699634 0.90632189884363001 0.89508160645531787 0.92619796481346284 0.89927242831849297 0.91055813644702921 0.9232800326188576 0.90436648885378046 0.89706052361213295 0.91359704233229377 0.3696852026423727 0.29786685290273235 0.38238825757152012 0.85636551369715275 0.85099473199086673 0.62010023645190282 0.65014011053632592 0.59402968590183269 0.63559866261092968 0.97526677632919512 0.85718970681153261 0.85262524843784615 0.89549569175887656 0.95125207268038559 0.92569291850835012 0.51047638921406957 0.56582935491879327 0.60672611855820935 0.60551618084960446 0.56666472571744653 0.64639428049338699 0.91035235737711784 0.92039501835426596 0.92383507630195916 0.95106981703574534 0.767013265131547 0.92347587834504707 0.9447276728920343 0.72540794893007343 0.50102681658955239 0.59633167679763144 1.0075027938043246 0.60184341001329256 0.95725879499329825 0.99394735623981878 0.93480736080921401 0.92183422926014102 0.89482802125398686 0.92752536553999276 0.9315708631113232 0.92854802767221989 0.93155358439336577 0.66893047118064208 0.52025807529835821 0.61789591166321822 0.91665258080927603 0.92000503866567618 0.93214443789386658 0.93506806885947513 0.89946187012281387 0.66735561045269709 0.61759395767778069 0.8601850612537878 0.87972082523829276 0.9146201433993838 0.34929543922454426 0.65443762785702242 0.96595331377335558 0.97060231056729396 0.79357613082195122 0.82348041519065807 0.85499931692456776 0.65188654187144512 0.68180393701680797 0.88279964312858628 0.52431048445386741 0.96826223812405965 0.88204039881620944 0.90546905699180236 0.35685002755888146 0.90816157638343009 0.58006364711203651 0.23907538206914114 0.22190841439975539 0.2364040258845333 0.16969078243057459 0.3220822249294889 0.87000718821394163 0.5864912653205806 0.91521592511933703 0.8741233418897788 0.68548128949462528 0.58327873047819812 0.33279033139945763 0.25889258462564879 0.47131468362723522 0.25154950773513496 0.47769891506103096 0.23967004073517756 0.27933396798775478 0.17754495892634231 0.27678169439150196 0.18808598226595707 0.17867490049805407 0.99249297214667331 0.31184285321461047 0.58200068573458419 0.89508319296274186 0.6513074272897672 0.98365743513130188 0.3092682278263858 0.93392295046902662 0.068382474423269654 0.97563550497999718 0.92510822200877418 0.34609774623889444 0.94556746627271804 0.95372295987858235 0.78314889796926523 0.7520299387095557 0.78091683194289763 0.95931975385947932 0.92295886395438265 0.92764899953778279 0.88285249447970093 0.92263952197425081 0.92079651675411067 0.78613665487981688 0.9467047014379939 0.95531458314516926 0.91726008310778273 0.92320676311564021 0.92360805233147836 0.8819504407160339 0.90124996020649495 0.90317388570040968 0.90862609729533983 0.9182402441004579 0.90599442926939877 0.90972540076444353 0.92904388942504001 0.90868180140004906 0.91794584520291012 0.88720567788779758 0.78238226674891265 0.95883473319220103 0.4882947185983324 0.84820992437717446 0.9546128613821846 0.78869532140411147 0.73901369059126309 0.8127262884938139 0.78809447934640664 0.81155310250654089 0.86747454066051266 0.62347289185928401 0.62238618138417534 0.79415692188956188 0.63166322172714573 0.73943935935992144 0.27230222535110976 0.56294710151568639 0.75507754002839145 0.89707891869568279 0.89498972643499997 0.91344937940750515 0.85020714648493823 0.84357713494934017 0.84447930262107973 0.83342118852596658 0.89411201146936259 0.91468168760262225 0.9130810385503767 0.89404581998062582 0.8807147898609009 0.9155693697473648 0.8970777561349923 0.82365113315560168 0.81680285451269541 0.91352981517959919 0.91822979742782662 0.93024564761328621 0.81832145630299291 0.88473055854098781 0.89601054192126084 0.81691660058147431 0.93179845222347113 0.91827580550634802 0.92870931560969427 0.88664256183234769 0.86996924293576905 0.89889596824002727 0.88010400676666567 0.84274901527049162 0.89905431551354331 0.9249022885209196 0.78640551520740454 0.91929977530225238 0.84817710970750604 0.87798267996013346 0.89347550618911309 0.93152362618774831 0.75811387071179925 0.81581694137078886 0.73855285901063028 0.69405342089929711 0.92079802889208806 0.88195601662345724 0.90823833680788357 0.91946204245333929 0.90982933359176776 0.89439642738014047 0.8957644806336772 0.91372550204375358 0.88458432015187427 0.92067299861232377 0.9262777684580481 0.90873300602637685 0.91877115002070564 0.92588808363918007 0.91871623749167375 0.89122378861760132 0.89290267554914204 0.90999743306757697 0.86850613480281091 0.87502810550551058 0.91412142418578612 0.90921661714156354 0.87530522961065693 0.91472089226855757 0.87229575399565029 0.88432991462669996 0.8928893208132328 0.894413685228863 0.88898940152771067 0.89195997704501617 0.79357384508641493 0.89318444076664527 0.82367412224893166 0.79260508898293935 0.90530812736599131 0.84576103849606055 0.90235535092437757 0.80455524422615254 0.88695070402989817 0.7967880671467753 0.89984132446691856 0.84242440306497757 0.83907531688439196 0.83897469068626651 0.90351023925160912 0.8452897248745157 0.79003020656412382 0.82895280108627989 0.81715526325802679 0.8181187462590237 0.79485206105580219 0.78463754980359146 0.89494970000106333 0.820207828391042 0.82268591887464426 0.88762646951855606 0.81891284481914939 0.89512296074546127 0.89371069087152988 0.89381024304559709 0.82322616903540347 0.92206580484837641 0.81562094248260564 0.92472647094333482 0.95628785258374582 0.67973219738564439 0.48710260479953443 0.88220807222502173 0.91254445014043606 0.91176789048219409 0.91041353553555826 0.88306275342524054 0.9132788291099373 0.87591824699832188 0.91600153831991626 0.9107427866336496 0.88665725624181291 0.88286514089186174 0.88294772867632132 0.88682966874691627 0.86949645846594525 0.90040663554408651 0.84619576988252232 0.88528892119834623 0.92388368286973677 0.82347220018125811 0.81459907847313695 0.91447040145545 0.88807394558473496 0.83898441387501099 -0.087654365878193322 0.68694469007699599 0.93412956245290224 0.63485535825270545 -0.086092678620465019 -0.064187054576780492 -0.067107931642242977 0.30469572718107413 0.64167595486056017 0.17176148568539326 0.14613121452317432 0.12455440795222621 0.17361668776510128 0.19257518383807892 0.14561636443716036 0.19532815668638928 0.060570829769017349 0.089046314665238616 0.071716685275458589 0.92980177207871495 0.32995289580307158 0.12284619814811151 0.19719192677102762 0.088946111646558315 0.20475111940052126 0.43986405960934177 0.33841784379801565 0.19937948271690187 0.29402255226639396 0.44446182905581388 0.19325450521013482 0.17434147078083601 0.27726589367237442 0.20554111650720847 0.32994171865050814 0.12165449678055619 0.2932729297381248 0.52298859192817815 0.45119601198163028 0.52516765962858014 0.29018245639046619 0.58544374383943965 0.42628965894804866 0.62763062337279674 0.26152709534745755 0.42705442582888287 0.72119253236069469 0.63480486571459638 0.71657286476306659 0.78237631025333509 0.58861796127624322 0.59611321636381287 0.725031522749504 0.39508475115926978 0.77980040593744426 0.71687467766326529 0.90154541547667111 0.72575599106748134 0.59782232632836574 0.9264115508666515 0.97035406134690372 1.0161783777061779 0.89256718924281742 0.91713192158623247 0.60411820405348471 0.81233090127760699 0.81165563129002116 0.97818853746319223 0.90574674806627897 0.9996437545230128 