<?xml version="1.0"?>
<VTKFile type="UnstructuredGrid" version="0.1" byte_order="LittleEndian">
<UnstructuredGrid>
<Piece NumberOfPoints="2028" NumberOfCells="724">
<Points>
<DataArray type="Float64" NumberOfComponents="3" format="ascii">
0 3.7000000000000002 0 0.56249999999824107 3.9749999999991399 0 0 0.69999999999999996 0 0 1.6319639930219929 0 0.59999999999999998 0.69999999999999996 0 0.59999999999999998 0.69999999999999996 0 0 1.6319639930219929 0 0.94999999999923723 1.2749999999987469 0 1.243750000001385 0.69999999999999996 0 0.59999999999999998 0.69999999999999996 0 0.94999999999923723 1.2749999999987469 0 1.626949751997165 1.3978044304614949 0 1.887500000003292 0.69999999999999996 0 1.243750000001385 0.69999999999999996 0 0.94999999999923723 1.2749999999987469 0 1.626949751997165 1.3978044304614949 0 1.243750000001385 0.69999999999999996 0 0.68142292217753131 2.106313194182027 0 1.299999999998378 1.8499999999973351 0 0.94999999999923723 1.2749999999987469 0 1.299999999998378 1.8499999999973351 0 1.626949751997165 1.3978044304614949 0 0.94999999999923723 1.2749999999987469 0 1.299999999998378 1.8499999999973351 0 1.186467289461244 2.488259157846338 0 1.649999999999066 2.4249999999984651 0 1.299999999998378 1.8499999999973351 0 0.68142292217753131 2.106313194182027 0 1.186467289461244 2.488259157846338 0 0 1.6319639930219929 0 0.68142292217753131 2.106313194182027 0 0.94999999999923723 1.2749999999987469 0 0 2.430303940964651 0 0.68142292217753131 2.106313194182027 0 0 1.6319639930219929 0 0.68142292217753131 2.106313194182027 0 0 2.430303940964651 0 0.70993008501830757 2.9054181396964478 0 0 3.1141786369756268 0 0.70993008501830757 2.9054181396964478 0 0 2.430303940964651 0 0.45714634023723411 3.4614941897304652 0 0.70993008501830757 2.9054181396964478 0 0 3.1141786369756268 0 0 3.7000000000000002 0 0.45714634023723411 3.4614941897304652 0 0 3.1141786369756268 0 0.45714634023723411 3.4614941897304652 0 0 3.7000000000000002 0 0.56249999999824107 3.9749999999991399 0 0.45714634023723411 3.4614941897304652 0 0.56249999999824107 3.9749999999991399 0 1.013301616169622 3.6128741719811099 0 0.70993008501830757 2.9054181396964478 0 0.45714634023723411 3.4614941897304652 0 1.013301616169622 3.6128741719811099 0 1.013301616169622 3.6128741719811099 0 1.451787781083937 3.11022608666643 0 0.70993008501830757 2.9054181396964478 0 1.451787781083937 3.11022608666643 0 1.013301616169622 3.6128741719811099 0 1.593428957229921 3.8897035774451321 0 1.186467289461244 2.488259157846338 0 0.70993008501830757 2.9054181396964478 0 1.451787781083937 3.11022608666643 0 0.70993008501830757 2.9054181396964478 0 1.186467289461244 2.488259157846338 0 0.68142292217753131 2.106313194182027 0 1.649999999999066 2.4249999999984651 0 1.186467289461244 2.488259157846338 0 1.451787781083937 3.11022608666643 0 0.59999999999999998 0.69999999999999996 0 0.94999999999923723 1.2749999999987469 0 2.2687831884271348 2.397628317379688 0 1.649999999999066 2.4249999999984651 0 2 3 0 2.6000000000000818 2.8399999999999781 0 2.2687831884271348 2.397628317379688 0 2 3 0 1.649999999999066 2.4249999999984651 0 1.451787781083937 3.11022608666643 0 2 3 0 1.451787781083937 3.11022608666643 0 2.08333333333292 3.599999999997022 0 2 3 0 1.593428957229921 3.8897035774451321 0 2.08333333333292 3.599999999997022 0 1.451787781083937 3.11022608666643 0 2.4236693135559251 3.5256579194055688 0 2.1666666666662731 4.1999999999971616 0 2.08333333333292 3.599999999997022 0 2.4236693135559251 3.5256579194055688 0 2 3 0 2.6000000000000818 2.8399999999999781 0 2.08333333333292 3.599999999997022 0 2 3 0 2.4236693135559251 3.5256579194055688 0 2.6000000000000818 2.8399999999999781 0 2.9420158813362729 3.5139475164392531 0 2.4236693135559251 3.5256579194055688 0 2.4236693135559251 3.5256579194055688 0 2.9420158813362729 3.5139475164392531 0 2.75 4 0 2.9420158813362729 3.5139475164392531 0 3.412636880282601 3.6134558579332841 0 3.1249999999889848 4 0 3.1249999999889848 4 0 2.75 4 0 2.9420158813362729 3.5139475164392531 0 2.6000000000000818 2.8399999999999781 0 3.2848100522576571 3.06994577157805 0 2.9420158813362729 3.5139475164392531 0 3.2848100522576571 3.06994577157805 0 2.6000000000000818 2.8399999999999781 0 3.2000000000001432 2.679999999999962 0 2.2687831884271348 2.397628317379688 0 2.6000000000000818 2.8399999999999781 0 2.8857059848027808 2.304389417342541 0 2.8857059848027808 2.304389417342541 0 2.6000000000000818 2.8399999999999781 0 3.2000000000001432 2.679999999999962 0 3.5028943452390711 2.1825773809523441 0 3.16379900756549 1.750659825629856 0 2.8857059848027808 2.304389417342541 0 2.8857059848027808 2.304389417342541 0 3.16379900756549 1.750659825629856 0 2.5341028426591712 1.9138806300960609 0 2.5341028426591712 1.9138806300960609 0 3.16379900756549 1.750659825629856 0 2.730231246675086 1.4599417336750831 0 2.730231246675086 1.4599417336750831 0 2.23284951060374 1.369095413116082 0 2.5341028426591712 1.9138806300960609 0 2.5341028426591712 1.9138806300960609 0 2.2687831884271348 2.397628317379688 0 2.8857059848027808 2.304389417342541 0 2.5341028426591712 1.9138806300960609 0 1.942890303101708 1.90249985684108 0 2.2687831884271348 2.397628317379688 0 1.942890303101708 1.90249985684108 0 1.649999999999066 2.4249999999984651 0 2.2687831884271348 2.397628317379688 0 1.649999999999066 2.4249999999984651 0 1.942890303101708 1.90249985684108 0 1.299999999998378 1.8499999999973351 0 1.942890303101708 1.90249985684108 0 1.626949751997165 1.3978044304614949 0 1.299999999998378 1.8499999999973351 0 2.23284951060374 1.369095413116082 0 1.626949751997165 1.3978044304614949 0 1.942890303101708 1.90249985684108 0 2.23284951060374 1.369095413116082 0 1.942890303101708 1.90249985684108 0 2.5341028426591712 1.9138806300960609 0 2.23284951060374 1.369095413116082 0 1.887500000003292 0.69999999999999996 0 1.626949751997165 1.3978044304614949 0 1.887500000003292 0.69999999999999996 0 2.23284951060374 1.369095413116082 0 2.5312500000049418 0.69999999999999996 0 2.5312500000049418 0.69999999999999996 0 2.730231246675086 1.4599417336750831 0 3.047698899035677 1.175177397439602 0 2.23284951060374 1.369095413116082 0 2.730231246675086 1.4599417336750831 0 2.5312500000049418 0.69999999999999996 0 3.047698899035677 1.175177397439602 0 2.730231246675086 1.4599417336750831 0 3.16379900756549 1.750659825629856 0 2.5312500000049418 0.69999999999999996 0 3.047698899035677 1.175177397439602 0 3.1750000000065048 0.69999999999999996 0 0.94999999999923723 1.2749999999987469 0 1.299999999998378 1.8499999999973351 0 3.047698899035677 1.175177397439602 0 3.638214240926366 1.265285427893069 0 3.1750000000065048 0.69999999999999996 0 3.1750000000065048 0.69999999999999996 0 3.638214240926366 1.265285427893069 0 3.8187500000045098 0.69999999999999996 0 0.56249999999824107 3.9749999999991399 0 1.1249999999964171 4.2499999999982494 0 3.8187500000045098 0.69999999999999996 0 3.638214240926366 1.265285427893069 0 4.2198317920941601 1.108273596938623 0 3.638214240926366 1.265285427893069 0 3.047698899035677 1.175177397439602 0 3.16379900756549 1.750659825629856 0 3.638214240926366 1.265285427893069 0 3.16379900756549 1.750659825629856 0 3.757799744899315 1.759341836734688 0 3.757799744899315 1.759341836734688 0 3.16379900756549 1.750659825629856 0 3.5028943452390711 2.1825773809523441 0 4.0559490150232032 2.028653202947901 0 3.5028943452390711 2.1825773809523441 0 3.8000000000002032 2.5199999999999458 0 3.757799744899315 1.759341836734688 0 3.5028943452390711 2.1825773809523441 0 4.0559490150232032 2.028653202947901 0 3.757799744899315 1.759341836734688 0 4.25 1.5 0 3.638214240926366 1.265285427893069 0 4.0559490150232032 2.028653202947901 0 4.6250000000004974 1.8500000000004651 0 4.25 1.5 0 3.757799744899315 1.759341836734688 0 4.0559490150232032 2.028653202947901 0 4.25 1.5 0 4.6250000000004974 1.8500000000004651 0 4.0559490150232032 2.028653202947901 0 4.4000000000001336 2.3599999999999639 0 4.6250000000004974 1.8500000000004651 0 4.4000000000001336 2.3599999999999639 0 5 2.2000000000000002 0 4.7733688274428578 1.2511819424194319 0 4.25 1.5 0 4.6250000000004974 1.8500000000004651 0 4.2198317920941601 1.108273596938623 0 4.25 1.5 0 4.7733688274428578 1.2511819424194319 0 4.25 1.5 0 4.2198317920941601 1.108273596938623 0 3.638214240926366 1.265285427893069 0 3.8187500000045098 0.69999999999999996 0 4.2198317920941601 1.108273596938623 0 4.4625000000026009 0.69999999999999996 0 5.1062500000012143 0.69999999999999996 0 4.4625000000026009 0.69999999999999996 0 4.7733688274428578 1.2511819424194319 0 4.4625000000026009 0.69999999999999996 0 4.2198317920941601 1.108273596938623 0 4.7733688274428578 1.2511819424194319 0 4.7733688274428578 1.2511819424194319 0 5.5000000000008269 1.1999999999983459 0 5.1062500000012143 0.69999999999999996 0 5.5000000000008269 1.1999999999983459 0 4.7733688274428578 1.2511819424194319 0 5.2500000000007052 1.6999999999985891 0 5.1062500000012143 0.69999999999999996 0 5.5000000000008269 1.1999999999983459 0 5.75 0.69999999999999996 0 5.75 0.69999999999999996 0 5.5000000000008269 1.1999999999983459 0 6.1230253171455891 1.2440604005832661 0 6.4375000000000027 0.69999999999999996 0 5.75 0.69999999999999996 0 6.1230253171455891 1.2440604005832661 0 5.8758020027701336 1.829281458631685 0 6.1230253171455891 1.2440604005832661 0 5.5000000000008269 1.1999999999983459 0 6.6325887022434813 1.7109098098422979 0 6.1230253171455891 1.2440604005832661 0 5.8758020027701336 1.829281458631685 0 6.3749999999999796 2.350000000000005 0 6.6325887022434813 1.7109098098422979 0 5.8758020027701336 1.829281458631685 0 6.3749999999999796 2.350000000000005 0 5.8758020027701336 1.829281458631685 0 5.75 2.5 0 5.4251604005540912 2.1458562917259631 0 5.75 2.5 0 5.8758020027701336 1.829281458631685 0 5.4251604005540912 2.1458562917259631 0 5.2500000000007052 1.6999999999985891 0 5 2.2000000000000002 0 5.2499999999996163 2.499999999999539 0 5.4251604005540912 2.1458562917259631 0 5 2.2000000000000002 0 5.875802002770
[...]
<PointData Scalars="A_conc," Vectors="" Tensors="">
<DataArray type="Float64" Name="A_conc" format="ascii">
0.92557960259521466 0.92673903276175706 0.46719358042044745 0.90590704817756063 0.47615264987646932 0.4759695901503232 0.90620990578413818 0.85061395987354338 -0.056165269101537796 -0.070785377770286331 0.21747626687012059 0.38473856803961082 -0.040771541488630873 -0.066416110720954782 0.22548424247038487 0.37874073873636538 -0.059001883306380447 0.91971758107964852 0.91506565084208868 0.80808680237947794 0.61245082340333756 0.40183346643525714 0.21902004288814797 0.90201960769141587 0.93289511054019436 0.93862432906369075 0.90179968895285922 0.90265446718313469 0.93332340271727998 0.83413153257891925 0.92025669030019586 0.8078201278330821 0.9208333437592906 0.91542993442168608 0.84505646034192128 0.90612344964131397 0.90890122148974029 0.9367065244138445 0.93295255204566319 0.93737645175051909 0.91067753698349563 0.92807978905384858 0.93793745310105936 0.92707859144671934 0.91144771520803181 0.93023332899878641 0.93042792992225787 0.93203315202387405 0.90673058684760144 0.91038294010372611 0.93161057140507741 0.91054115044094719 0.936808425327324 0.93772653540493889 0.9281707948297232 0.9337483734539761 0.93373437193918463 0.94549146040309195 0.93760301523163381 0.94443097004455645 0.93287351697466903 0.93804096946406612 0.9289750969719468 0.93365748502173296 0.94703368141773403 0.93621361601822384 0.93142023470107849 0.90639129400185137 0.93459145272644861 0.92918595105020163 0.94672437207746551 0.4316440475537473 0.86711665470141186 0.84996683586676902 0.75782930362275813 0.85650579033253371 0.91775262482064357 0.84861027446103654 0.85538609144483824 0.93460392465433506 0.94657260870349691 0.95159139143646987 0.94341629351183509 0.94726263339038586 0.95006831247863244 0.93805556224877285 0.94759204362375316 0.94422929508335163 0.9061396976068693 0.85520989939770597 0.90220403490505874 0.90407352424309084 0.94088639940754382 0.96043275245200477 0.90296650870605089 0.94240050725425828 0.90344937566496542 0.95833704310099133 0.89282016431448963 0.90787731668261018 0.90727916015121568 0.89542837374368145 0.85519492422142174 0.89791480707030757 0.87902311398693223 0.8563781090829754 0.8556149972418996 0.85583220928539572 0.89932606366236789 0.95611006670147258 0.91917203869201025 0.89432083182059396 0.9189876199423922 0.95457028543703115 0.95544501353091438 0.85064814663471233 0.91438031418218857 0.89277693900260469 0.88976289759568672 0.91466576013384382 0.9425762738587854 0.92859868279417135 0.87697350102146188 0.89970282937061441 0.90319386149491931 0.87635562632749098 0.83628035854672766 0.90517615325073797 0.95590832897386535 0.6674460680517359 0.65566559787334389 0.49071746016858825 0.92377299553156667 0.83325943811999992 0.85315827744032846 0.90669836731902365 0.85262504214616208 0.79318746699733522 0.84129813655222652 0.78968510865388053 0.77017448609372818 0.84543217996169751 0.78675615871148963 0.78760519665024054 0.65073813540452685 0.78042745626026422 0.41088822161845434 0.61303021351465925 0.49313059359182271 0.40739401100802358 0.7821026713264464 0.4928265293490689 0.78299697871094565 0.92361252092278046 0.45888098140795036 -0.043725162990312885 0.39300666983760363 -0.050183153371227932 0.46257415288818327 -0.017015250918591195 -0.021795619489580465 0.61781576802187066 0.38684108665838607 0.46821520260042654 0.61572986781800754 -0.018620616674144257 0.44941997674373119 0.64161545903392558 0.96791840598938794 0.02095529460957412 0.35440761005005639 0.059370932832020343 0.80095721555982424 0.91816025269445789 0.3566196361141849 0.48400393047438406 0.059450930794810786 0.058330356532797112 0.48510541007166635 0.10310547796161061 0.92673234061015408 0.92786936107012563 0.10376430770661545 0.48588097307797923 0.3237806477766535 0.68750645002755895 0.44935404995592443 0.96758844825698109 0.74335405126974696 0.88485611798593844 0.95252840036840503 0.90569794346961796 0.88049521193408642 0.92561367426602659 0.92862554601194225 0.91779846879435945 0.94884039942197917 0.89580650945120321 0.93323638309575707 0.95134809530859665 0.95153323661494993 0.99527304606405764 0.74324918128412731 0.95291059774118514 0.96290043602490094 0.87266720592447666 0.88880271612741257 0.95500018530400366 0.87128839470682706 0.94147110512080678 0.93151218051379336 0.95191033759743149 0.94147319090294246 0.95129277554095282 0.95614914867747269 0.37749977021122216 1.0733864588715987 0.98649700282528807 0.41557615266260894 1.0776958955830314 0.37504910407258529 1.0817260694201802 0.41266598933067244 0.61154372142825619 0.18750151395024214 0.28987850625858075 0.24109997655826024 0.37136132784405229 0.27263692451301669 0.2868924400374081 0.24243128329523739 0.28943575593187454 0.29742993677642315 0.28485840578530575 0.42766790175404007 0.37485113511608409 0.40112078943193868 0.31168374432856771 0.50888231475191414 0.37695199322937462 0.45725911986106577 0.57464270767086745 0.6798963870712792 0.47384079203234486 0.54000213793985774 0.74730898204242402 0.67829282152023085 0.54098867720784671 0.95390065047542294 0.50414282845749703 0.4532988651430318 0.86409567308800661 0.5081528713313429 0.94602070224839663 1.0055947244725973 0.95576580119658805 0.94981538268723997 1.0061252248261583 0.94880304726446973 1.0046880717389008 0.9653410238776472 1.0068253071864119 0.94716643539378231 0.97933596913379839 0.87852706295570648 0.96771386088048361 0.99322752356905719 0.96304915268066382 0.95544975577195079 0.95824541878271619 0.44735261245085678 0.83893060731128755 0.87823141308942976 0.97930557676987984 0.9504403714696773 0.40196400335663868 0.22766691722920684 0.99528959988532839 0.39611496293452375 1.0036123427726322 0.76879052730678121 0.90239335710760071 0.93838418084239061 0.92786044621981989 0.92888374737550172 0.9206494414579921 0.94736188664210541 1.0136833769264917 0.88657546323771641 0.99503490632884484 0.99041926176510298 0.95924447147662772 0.989213992000751 0.98282057861385885 0.95892473798606748 0.99065368025213874 0.98541009470475893 0.98110534416576756 0.98428870950773617 1.0072630985142763 0.99441682508663098 0.99817806105385054 0.96356545955540118 0.99152921634217317 1.0084289881799287 0.9951315543518422 0.98030379716250449 0.98414179175323202 0.97992101809272592 0.98623080511268968 0.97264223429907093 0.98056733507059035 0.97235524537979334 0.96870838498230227 0.93443434428818239 0.87877170899407353 0.37946399869012176 0.60143088821293678 0.62727558187389909 0.91704751811157026 0.94327877366344282 0.97309088254514486 0.9986611249440287 0.63450140776062791 0.91952941343810402 0.9009410769392997 0.89453299411559761 0.70035331105594112 0.90019404769349365 0.59887408026062983 0.35158276888431805 0.62509489787019101 0.22660270578959102 0.43699098816724835 0.035830279265669035 0.17402110297682563 0.34910166775245749 0.57948789530927203 0.37233236712415785 0.88166308820860073 0.41298569763415838 0.34215833124932094 0.38957869647512178 0.048511682857329555 0.98611353812768665 0.98465702074711114 0.96656718832335287 0.96456195429212299 0.98635527097275599 0.96651235221907472 0.040370541166321092 0.00015445998060066192 0.19631408055475549 0.97097369762389751 0.93571306853918035 0.96884744605219331 0.88680847014314512 0.97797905222132553 0.91979193415544092 0.98095178639866143 0.88756803402618156 0.90908935325127649 0.88780641813344896 0.98057280657716606 0.97772795159345505 0.9614503082070921 0.9885243171816831 0.92584267537289577 0.98541829237000389 0.97223280685045788 0.97311554105944853 0.97229804879811987 0.96989546967597151 0.97305640667240645 0.93715362961989557 0.86735871162978684 0.9065633722734936 0.96289417475389927 0.95863013715543044 0.98332709902752591 0.99208823518399925 0.83111121255102605 0.99621948945611249 0.90013783439064277 0.94399279971019878 0.94070789988916792 0.95295339034958926 0.92879711561441436 0.94783967443129191 0.94559149532604758 0.89943345390818152 0.8926960075924556 0.89112711323776839 0.9199114045630683 0.94706751445123938 0.91522955836890196 0.93895937872129764 0.950210748402598 0.8917301447797974 0.94051035277611583 0.91540637532773983 0.91799430965616768 0.95587116868832844 0.95081183791816881 0.92231534994468389 0.87905005252358515 0.89682860279968413 0.9210838601511111 0.8907209581354113 0.88020029414811785 0.92531132163868279 0.98918315817847036 0.94888978633383869 0.91680870275651882 0.95801313007972255 0.87710175566382143 0.95912361400186663 0.89487472700487658 0.87638301639106386 0.87726983935757974 0.89238844488671221 0.84389792949894071 0.94241712373112296 0.94841776867144645 0.9332271373514921 0.93174065144849416 0.94245896870228174 0.92887202106019862 0.92977850957142172 0.93460859518766659 0.95147077319565876 0.45877335488839449 0.41587635714245413 0.49366551978186068 0.94231731999653945 0.93846527504115917 0.93308539529230183 0.88944868390038312 0.91450690400962997 0.94013986958202334 0.93999935394937306 0.93278838957659949 0.95213427361997738 0.93371877491918065 0.94341755588508602 0.94982693583983069 0.61024437292386102 0.66480833418833774 0.69358433292401667 0.69183781445591652 0.66559901363394625 0.73145593690551658 0.93305042401214844 0.97014350093486323 0.95181067992004409 0.98704608731040144 0.90482854914375876 0.89908759413294015 0.90043324805704572 0.87654203675198716 0.98421303184364217 0.98163968557638226 0.87819156631879569 0.8777101009190007 0.6875251510715461 0.98877482129230976 1.035957258943035 0.94977674313537652 0.9798156804069289 0.87860695397307487 0.96394563387472576 0.94468780515181627 0.96076407981600898 0.938205974047991 0.94244561991480835 0.95507203047964118 0.96982164373337454 0.9380204941923096 0.95504339438546326 0.87932584126854552 0.9062264525993714 0.97536229673747832 0.90387761963905144 0.87988481492620063 0.97446037408087161 0.97152217159578091 0.9710792340454798 0.95529622492281108 0.95547864627015511 0.95622950814174057 0.97159356259294161 0.98271036076099516 0.97374796247104212 0.98889518071944116 0.98874254929324734 0.99059701963401847 0.981797179118996 0.99049384291282272 0.98701667711724483 0.99467539831331431 0.98645935962711429 0.98984592242724301 0.9936185640059193 0.99310845428040628 0.98990604334930865 0.99481134230978829 0.9857679639856689 0.98877657433608213 0.99563591285936714 0.9888883691421777 0.97534899970719258 0.97563723434817284 0.98690034688219586 0.97557928923419401 0.99088340875179226 0.97703018710497758 0.98927794541464487 0.98609824991270401 0.99069420251998508 0.97673751967431777 0.97190427758083098 0.96889898687273135 0.98275168990673389 0.97333386900002883 0.97993007914830932 0.9841273916175568 0.97785732779268963 0.89258131645054128 0.75905011980334991 0.88316823034645209 0.97633362164262472 0.95907124624411566 0.97590288169756179 0.97447234915653325 0.95541280568828979 0.9576738794522186 0.8806142970513674 0.74258253735556523 0.86379407750734483 0.73171946396094401 0.88960607274245918 0.75604276858608521 0.70228495080940101 1.0269893040357987 0.93250592960977252 0.95643794828228756 0.83173349052704337 0.94336267251601469 0.93680954656444848 0.94759976791242007 0.94281951949039977 0.9515809477893471 0.94971779747844631 0.94995424994131239 0.94725303592771826 0.74974491878391603 0.75348015262016066 0.53456624253738849 0.53306549963930672 0.55807374008837241 0.75159406552558561 0.74827758230783548 0.58324776581342597 0.52311074066034946 0.89829665617145693 0.79680159731327316 0.73981420570692114 0.94322080243750073 0.79984779867604339 0.89935472801583149 0.79992284765629773 0.88995984659919491 0.89922799138890019 0.77911994407918361 0.92149372248233696 0.75342278158357479 0.78156913869344069 0.75554443482143152 0.59306907973527812 0.74560597700888798 0.79472620617423073 0.58510778859728918 0.93742644561182165 0.67033367133201749 0.93740381682837937 0.69353021614056864 0.83957332231766013 0.92584199649990606 0.65997653757530372 0.95084288678010365 0.69421302215589897 0.68221162056032958 0.95773906248623719 0.95319369734236781 0.67444338784613034 0.96469337140143119 0.71952876339659 0.50617574949196442 0.67367978503075676 0.71720126525739936 0.34814830435200911 0.30364778260505371 0.35979655266151894 0.32884472260364372 0.38233533001111597 0.27636751463025677 0.45406740907666465 0.3556745111443293 0.5974502883443098 0.93010713101741549 0.71010947342082154 0.96688267716033471 0.93573104727649503 0.78760767162362677 0.70561372184584847 0.51486995312930084 0.95007727463930458 0.70989395885298312 0.95805435910540426 0.50590545484032068 0.74456533022899574 0.85615868095119319 0.87665956009724355 0.90144154438005986 0.76992541641033163 0.7829995905782654 0.94873987003668381 0.61700106453062653 0.69852068404022638 1.0279449517225219 0.70423812595271607 0.98515279722323024 1.0130274349895725 0.94746332686666579 0.94975348292087003 0.95750145264864661 0.75211930389763026 0.62498505460501819 0.70891050344926476 0.95936991711137876 0.95097079870564105 0.93336882448926728 0.94344121259714775 0.94999553302168094 0.95220052520202803 0.97385703917361743 0.84148742777608576 0.9552586490112599 1.0431490254333846 0.41282994916085397 0.67073091798823936 0.94387473042618142 0.73700634033252155 1.0068695780299384 0.38108302450881898 0.27927099197409316 0.27637321219575295 0.94796463295564803 0.95177895704550763 0.40370825707812447 1.0092520501929465 0.16301178682837228 0.89226838502420469 0.88523936130592584 0.94380852134033844 0.94696068059227712 1.0297338929195659 0.99413412668082557 0.4405993490369669 0.58719475772891483 0.92370919705218624 1.0029279515761178 0.92897938743160191 0.85259506064759594 0.97898709072627743 0.94005672244584337 0.94503291090518904 0.95672664979034538 0.93883409173894405 0.94237586363336479 0.94863550540538955 0.95230049428617602 0.92475062264989605 0.93763901820899709 0.92544252703188812 0.95156524259088304 0.95041359261928093 0.85587316654935797 0.97009157301289539 0.97599369036653039 0.83071888483065759 0.85187866281561342 0.9797409949742969 0.96938284303441269 0.97490439604481716 0.85378174938726747 0.9323480272055682 0.94652374279940354 0.94522216037064544 0.92634643944867012 0.91696335341602353 0.93533744849600897 0.93228274309025627 0.92383690821380671 0.94721516311597209 0.93928011877727402 0.88417974394254639 0.87266304745337464 0.96023923874983053 0.87428349872112654 0.92419308130126987 0.93824068386824655 0.87295518996857402 0.96152436803733532 0.93153311207118783 0.93624582854084559 0.94583223024255414 0.86009527573756195 0.73640418974622068 0.82027883655364298 0.38948197904453574 0.67911802656960363 0.84922520079084263 0.85411667038722661 0.81927686448134063 0.87273706155567665 0.85367518367532613 0.87153575054905541 0.9094448270433535 0.8759156941089451 0.81879464695467297 0.78647835134416322 0.94375285260294528 0.91936499058084897 0.93604988786123811 0.94784488207570905 0.93619621772256534 0.94284525064750813 0.9392453810580379 0.92076359585024448 0.9438245233204503 0.95135596287313939 0.85242586768290363 0.94741540718004424 0.89797546363378311 0.92331933749569617 0.93100720712261176 0.92412239300131349 0.89594953431655766 0.93721662581466703 0.71717151919611177 0.71664438980086742 0.94702179490869254 0.95518373498966602 0.95245918004517049 0.95144926906039551 0.93787672912553999 0.89567111403196065 0.89399567912027422 0.94104787305921012 0.89936708618122796 0.93900870407643233 0.89522970079363517 0.89154969354256963 0.95161564974832413 0.95460336098975862 0.86639968713103155 0.9231609313401129 0.86340758066250523 0.92476036307650877 0.92681667769328546 0.86078378345441742 0.93993328477680738 0.91248829403070919 0.92057617465436703 0.93962089745412214 0.93649320710712791 0.91432653632154492 0.93703787970330976 0.9098210841846408 0.91412308721107616 0.92782941346336467 0.88041792136799335 0.8599828038918319 0.92832327821121963 0.92864702912857255 0.87991877369387739 0.92480499830455432 0.87671813590748204 0.92976162025749809 0.92958937022029131 0.87765174625542697 0.87946840412241212 0.88054256778228379 0.85958796086456968 0.85150514396523724 0.89485436331664814 0.93995462706826893 0.89897886067083355 0.85615788867197029 0.88834674417744042 0.87817559588029104 0.93777393711730095 0.89993103437202249 0.92748869290575209 0.92532827411001317 0.92799782109957341 0.91627798109045389 0.94367703754839904 0.92541856104111331 0.94553352495600573 0.94393213580318436 0.92786120783760673 0.92526445665020307 0.95331545268180751 0.87971012294542905 0.96252476567664658 0.92442266191591016 0.94609968783880083 0.94427048251111656 1.0054872879004244 0.76147981800743991 0.58514645343172311 0.9549160613479033 0.8847704812532825 0.87879995885292439 0.94824469505084441 0.92987830208611311 0.89582073571375587 0.95330655948971166 0.95243654424659907 0.71545031649350321 0.74034930993299053 0.73209160757865199 -0.027679364580932647 0.0041597917998871005 0.97126869309033792 0.80973977774206463 0.89980487013672306 0.89590100795881566 -0.016419489784916728 0.77536223849582453 1.0122238835867057 0.0034474238246705478 0.39453775564573113 0.73463625995851367 0.27994564945263362 0.13318907347660794 0.17562577749614278 0.21250383652511584 0.28039434732159557 0.1763375940282457 0.16238827526204888 1.010055666012958 0.4173877161073753 0.28382483496738331 0.29162901557698845 0.23417506598767218 0.28155194937156441 0.23545161308888368 0.21549080796491496 0.95452181250537738 0.95708468165437044 0.74969391746487124 0.70842428240854927 0.6821516628887575 0.72125225403522897 0.95501531234290082 0.95708229365964026 0.95948607374771433 0.93637703734340394 0.93117128328359366 0.9446345024690318 0.35027960099862265 0.60087787953480132 0.90999182599703732 0.92449743908042581 0.97999550676489622 0.98327087651282563 0.95413559729581165 0.95330071418008888 0.63924855603068964 0.99869074985032558 0.94854977465053614 0.97927067081115238 0.95492828240320149 0.95412977438871238 0.98289562302933409 0.98433300185136141 0.26195258419615436 0.42569467822949253 0.94133331250396379 0.96612318726758495 0.92628659011320713 0.94399467743896837 0.96557404259941626 0.86652799351361953 0.96108163977920802 0.96571634901977177 0.9843270155179793 0.98480631013594988 0.86117526074544748 0.87264474958501537 0.95623930048747041 0.94327953466686776 0.94851982845062699 0.81813101830981816 0.97125448062966102 0.93501399052499667 0.98297167600734259 0.96747508932723936 0.51650205905397439 0.62737564552412073 1.0053100283232601 0.80273616576749329 0.9844278719821955 0.98504463741716719 0.94423142448368891 0.95573852235392021 0.40906301409114504 0.50895480164258311 0.87333571585624559 0.88577295324729111 0.98550307852567187 0.98145582301126488 0.99449252882435024 0.99564292487454409 0.98492318086834696 0.98509615714941789 0.99031562380159432 0.97985321995169483 0.57790170428102994 0.45845522848507986 0.99423836134211185 0.99466632080415862 0.95552354586920851 0.96303917816732088 0.90748733627946676 0.91158481578074302 0.99434551397859172 0.98985565814478349 0.88616639966158606 0.89562739334644625 0.99463776760574907 0.99486981692914289 0.91163889401118892 0.91591117368391839 0.9955459910683101 0.99597896568708455 0.96258936101374704 0.96670243136111556 0.3236574434948899 0.47585070572198629 0.21489434884517769 0.29159738165325422 0.28539906857605329 0.4079201722956905 0.32342276366774042 0.59601657095752669 0.48232586395170229 0.32007913631012558 0.43062748059331801 0.59866756549157329 0.99400439818406416 0.99568439705841894 0.43051008431813242 0.67486440924032598 0.60220613263954148 0.67546640307683958 0.42940693487403198 0.7371936131238116 0.57667388255990093 0.84340419257806842 0.76993870672170606 0.57529767228943152 0.77042544812160918 0.40297877094732393 0.83200476734538253 0.88190567452525148 0.72743239177134311 0.87672811173364296 0.83130301343753898 0.96099708398482087 0.99552945837232898 0.99621895077725442 0.99485433394062173 0.995024179463046 0.91983702746957041 0.96337566433148136 0.89663735915649256 0.93446475479151103 0.97620458761919715 0.97613145632255915 0.99594570367604018 0.99620321783870236 0.83996648888659464 0.73552775039555918 0.98797397496418282 0.7352556180