<?xml version="1.0"?>
<VTKFile type="UnstructuredGrid" version="0.1" byte_order="LittleEndian">
<UnstructuredGrid>
<Piece NumberOfPoints="2028" NumberOfCells="724">
<Points>
<DataArray type="Float64" NumberOfComponents="3" format="ascii">
0 0.69999999999999996 0 0 1.6319639930219929 0 0.59999999999999998 0.69999999999999996 0 0.59999999999999998 0.69999999999999996 0 0 1.6319639930219929 0 0.94999999999923723 1.2749999999987469 0 0.59999999999999998 0.69999999999999996 0 0.94999999999923723 1.2749999999987469 0 0 1.6319639930219929 0 0.68142292217753131 2.106313194182027 0 0.94999999999923723 1.2749999999987469 0 0 2.430303940964651 0 0.68142292217753131 2.106313194182027 0 0 1.6319639930219929 0 0.94999999999923723 1.2749999999987469 0 1.299999999998378 1.8499999999973351 0 0.68142292217753131 2.106313194182027 0 1.299999999998378 1.8499999999973351 0 0.94999999999923723 1.2749999999987469 0 1.299999999998378 1.8499999999973351 0 0.68142292217753131 2.106313194182027 0 1.186467289461244 2.488259157846338 0 1.299999999998378 1.8499999999973351 0 1.649999999999066 2.4249999999984651 0 1.299999999998378 1.8499999999973351 0 1.186467289461244 2.488259157846338 0 1.649999999999066 2.4249999999984651 0 1.299999999998378 1.8499999999973351 0 1.626949751997165 1.3978044304614949 0 0.94999999999923723 1.2749999999987469 0 0.94999999999923723 1.2749999999987469 0 1.626949751997165 1.3978044304614949 0 1.243750000001385 0.69999999999999996 0 1.626949751997165 1.3978044304614949 0 1.887500000003292 0.69999999999999996 0 1.243750000001385 0.69999999999999996 0 1.243750000001385 0.69999999999999996 0 0.59999999999999998 0.69999999999999996 0 0.94999999999923723 1.2749999999987469 0 0.45714634023723411 3.4614941897304652 0 0.56249999999824107 3.9749999999991399 0 1.013301616169622 3.6128741719811099 0 0 3.7000000000000002 0 0.56249999999824107 3.9749999999991399 0 0.45714634023723411 3.4614941897304652 0 0 3.7000000000000002 0 0.56249999999824107 3.9749999999991399 0 0.45714634023723411 3.4614941897304652 0 0.70993008501830757 2.9054181396964478 0 0 3.1141786369756268 0 0 3.7000000000000002 0 0.45714634023723411 3.4614941897304652 0 0 3.1141786369756268 0 0.70993008501830757 2.9054181396964478 0 0.45714634023723411 3.4614941897304652 0 1.013301616169622 3.6128741719811099 0 0.68142292217753131 2.106313194182027 0 0 2.430303940964651 0 0.70993008501830757 2.9054181396964478 0 0 3.1141786369756268 0 0.70993008501830757 2.9054181396964478 0 0 2.430303940964651 0 0.70993008501830757 2.9054181396964478 0 1.186467289461244 2.488259157846338 0 0.68142292217753131 2.106313194182027 0 1.649999999999066 2.4249999999984651 0 1.186467289461244 2.488259157846338 0 1.451787781083937 3.11022608666643 0 1.186467289461244 2.488259157846338 0 0.70993008501830757 2.9054181396964478 0 1.451787781083937 3.11022608666643 0 1.013301616169622 3.6128741719811099 0 1.451787781083937 3.11022608666643 0 0.70993008501830757 2.9054181396964478 0 1.451787781083937 3.11022608666643 0 1.013301616169622 3.6128741719811099 0 1.593428957229921 3.8897035774451321 0 2.4236693135559251 3.5256579194055688 0 2.1666666666662731 4.1999999999971616 0 2.08333333333292 3.599999999997022 0 1.593428957229921 3.8897035774451321 0 2.08333333333292 3.599999999997022 0 1.451787781083937 3.11022608666643 0 1.451787781083937 3.11022608666643 0 2.08333333333292 3.599999999997022 0 2 3 0 2.4236693135559251 3.5256579194055688 0 2 3 0 2.6000000000000818 2.8399999999999781 0 2 3 0 2.08333333333292 3.599999999997022 0 2.08333333333292 3.599999999997022 0 2 3 0 2.4236693135559251 3.5256579194055688 0 2.6000000000000818 2.8399999999999781 0 2.2687831884271348 2.397628317379688 0 2 3 0 2.6000000000000818 2.8399999999999781 0 2 3 0 1.649999999999066 2.4249999999984651 0 2 3 0 1.649999999999066 2.4249999999984651 0 1.451787781083937 3.11022608666643 0 2 3 0 2.2687831884271348 2.397628317379688 0 1.649999999999066 2.4249999999984651 0 2 3 0 2.2687831884271348 2.397628317379688 0 2.6000000000000818 2.8399999999999781 0 2.8857059848027808 2.304389417342541 0 2.8857059848027808 2.304389417342541 0 2.6000000000000818 2.8399999999999781 0 3.2000000000001432 2.679999999999962 0 3.2848100522576571 3.06994577157805 0 2.6000000000000818 2.8399999999999781 0 3.2000000000001432 2.679999999999962 0 3.2000000000001432 2.679999999999962 0 2.6000000000000818 2.8399999999999781 0 2.6000000000000818 2.8399999999999781 0 2.9420158813362729 3.5139475164392531 0 2.4236693135559251 3.5256579194055688 0 2.6000000000000818 2.8399999999999781 0 3.2848100522576571 3.06994577157805 0 2.9420158813362729 3.5139475164392531 0 2.9420158813362729 3.5139475164392531 0 3.412636880282601 3.6134558579332841 0 3.1249999999889848 4 0 3.1249999999889848 4 0 2.75 4 0 2.9420158813362729 3.5139475164392531 0 2.4236693135559251 3.5256579194055688 0 2.9420158813362729 3.5139475164392531 0 2.75 4 0 1.887500000003292 0.69999999999999996 0 2.23284951060374 1.369095413116082 0 2.5312500000049418 0.69999999999999996 0 2.23284951060374 1.369095413116082 0 1.887500000003292 0.69999999999999996 0 1.626949751997165 1.3978044304614949 0 1.942890303101708 1.90249985684108 0 1.626949751997165 1.3978044304614949 0 1.299999999998378 1.8499999999973351 0 2.23284951060374 1.369095413116082 0 1.626949751997165 1.3978044304614949 0 1.942890303101708 1.90249985684108 0 1.942890303101708 1.90249985684108 0 1.649999999999066 2.4249999999984651 0 2.2687831884271348 2.397628317379688 0 1.649999999999066 2.4249999999984651 0 1.942890303101708 1.90249985684108 0 1.299999999998378 1.8499999999973351 0 2.5341028426591712 1.9138806300960609 0 1.942890303101708 1.90249985684108 0 2.2687831884271348 2.397628317379688 0 2.23284951060374 1.369095413116082 0 1.942890303101708 1.90249985684108 0 2.5341028426591712 1.9138806300960609 0 2.730231246675086 1.4599417336750831 0 2.23284951060374 1.369095413116082 0 2.5341028426591712 1.9138806300960609 0 2.5341028426591712 1.9138806300960609 0 2.2687831884271348 2.397628317379688 0 2.8857059848027808 2.304389417342541 0 3.5028943452390711 2.1825773809523441 0 3.16379900756549 1.750659825629856 0 2.8857059848027808 2.304389417342541 0 2.8857059848027808 2.304389417342541 0 3.16379900756549 1.750659825629856 0 2.5341028426591712 1.9138806300960609 0 2.5341028426591712 1.9138806300960609 0 3.16379900756549 1.750659825629856 0 2.730231246675086 1.4599417336750831 0 3.047698899035677 1.175177397439602 0 2.730231246675086 1.4599417336750831 0 3.16379900756549 1.750659825629856 0 2.5312500000049418 0.69999999999999996 0 2.730231246675086 1.4599417336750831 0 3.047698899035677 1.175177397439602 0 2.23284951060374 1.369095413116082 0 2.730231246675086 1.4599417336750831 0 2.5312500000049418 0.69999999999999996 0 2.5312500000049418 0.69999999999999996 0 3.047698899035677 1.175177397439602 0 3.1750000000065048 0.69999999999999996 0 3.047698899035677 1.175177397439602 0 3.638214240926366 1.265285427893069 0 3.1750000000065048 0.69999999999999996 0 3.1750000000065048 0.69999999999999996 0 3.638214240926366 1.265285427893069 0 3.8187500000045098 0.69999999999999996 0 3.638214240926366 1.265285427893069 0 3.047698899035677 1.175177397439602 0 3.16379900756549 1.750659825629856 0 3.8187500000045098 0.69999999999999996 0 3.638214240926366 1.265285427893069 0 4.2198317920941601 1.108273596938623 0 3.8187500000045098 0.69999999999999996 0 4.2198317920941601 1.108273596938623 0 4.4625000000026009 0.69999999999999996 0 4.25 1.5 0 4.2198317920941601 1.108273596938623 0 3.638214240926366 1.265285427893069 0 4.2198317920941601 1.108273596938623 0 4.25 1.5 0 4.7733688274428578 1.2511819424194319 0 4.4625000000026009 0.69999999999999996 0 4.2198317920941601 1.108273596938623 0 4.7733688274428578 1.2511819424194319 0 5.1062500000012143 0.69999999999999996 0 4.4625000000026009 0.69999999999999996 0 4.7733688274428578 1.2511819424194319 0 5 2.2000000000000002 0 4.4000000000001336 2.3599999999999639 0 4.6250000000004974 1.8500000000004651 0 4.4000000000001336 2.3599999999999639 0 5 2.2000000000000002 0 4.7733688274428578 1.2511819424194319 0 4.25 1.5 0 4.6250000000004974 1.8500000000004651 0 4.6250000000004974 1.8500000000004651 0 4.25 1.5 0 4.0559490150232032 2.028653202947901 0 4.6250000000004974 1.8500000000004651 0 4.25 1.5 0 3.757799744899315 1.759341836734688 0 4.0559490150232032 2.028653202947901 0 4.25 1.5 0 4.6250000000004974 1.8500000000004651 0 4.0559490150232032 2.028653202947901 0 4.4000000000001336 2.3599999999999639 0 3.757799744899315 1.759341836734688 0 3.5028943452390711 2.1825773809523441 0 4.0559490150232032 2.028653202947901 0 4.0559490150232032 2.028653202947901 0 3.5028943452390711 2.1825773809523441 0 3.8000000000002032 2.5199999999999458 0 3.757799744899315 1.759341836734688 0 4.25 1.5 0 3.638214240926366 1.265285427893069 0 3.638214240926366 1.265285427893069 0 3.16379900756549 1.750659825629856 0 3.757799744899315 1.759341836734688 0 3.757799744899315 1.759341836734688 0 3.16379900756549 1.750659825629856 0 3.5028943452390711 2.1825773809523441 0 2.8857059848027808 2.304389417342541 0 3.2000000000001432 2.679999999999962 0 3.5028943452390711 2.1825773809523441 0 3.8000000000002032 2.5199999999999458 0 3.2000000000001432 2.679999999999962 0 3.5028943452390711 2.1825773809523441 0 3.2000000000001432 2.679999999999962 0 3.8000000000002032 2.5199999999999458 0 3.2848100522576571 3.06994577157805 0 3.2000000000001432 2.679999999999962 0 3.8000000000002032 2.5199999999999458 0 3.8190056356267248 3.2454749759848052 0 3.2848100522576571 3.06994577157805 0 3.8000000000002032 2.5199999999999458 0 3.412636880282601 3.6134558579332841 0 3.5 4 0 3.1249999999889848 4 0 3.2848100522576571 3.06994577157805 0 3.8190056356267248 3.2454749759848052 0 3.412636880282601 3.6134558579332841 0 3.2848100522576571 3.06994577157805 0 3.412636880282601 3.6134558579332841 0 2.9420158813362729 3.5139475164392531 0 3.874999999992375 3.7500000000050839 0 3.5 4 0 3.412636880282601 3.6134558579332841 0 3.8190056356267248 3.2454749759848052 0 3.87499999999
[...]
<PointData Scalars="A_conc," Vectors="" Tensors="">
<DataArray type="Float64" Name="A_conc" format="ascii">
0.5589236514064867 0.98233497784766466 0.56629023515987942 0.56647086548247505 0.98194706606947046 0.92884968588381678 0.52093274653403543 0.94598931215711091 0.9065695824914205 0.97037085932993816 0.88338021988873083 0.96607970729759463 0.96494476908643578 0.91743294899064765 0.87680446155534697 0.96924098647059065 0.96980937902860387 0.96623115357087175 0.88372938387428079 0.95327881432268358 0.95309783807244008 0.96719628377027533 0.95365879460982139 0.9695833706188991 0.9534271192914846 0.96692664305014131 0.96972500884558765 0.79581999338633491 0.55920277138198671 0.36438413731547253 0.35967341472500486 0.54158364955311133 0.040951512432837088 0.54315933651545578 0.096108916835365793 0.039664000562003809 0.040414363560664933 -0.0072634678507309458 0.35694135161731116 0.96567583827214742 0.95638605363262064 0.96807815275076292 0.9651945052867047 0.96572857985761051 0.96585460124788558 0.95459347874413547 0.95631595375559486 0.96421450131512809 0.96887136989972578 0.96377060321775909 0.956634800655766 0.96510720935941952 0.96524667411325293 0.9687923484891513 0.96424783842865813 0.96686817250800572 0.95465924618584574 0.95546854648337076 0.96826361986294429 0.96648228503993971 0.96859216083947974 0.95622024113738602 0.96798188713304922 0.96617335632431312 0.95482849345645493 0.96760797938791054 0.96495973564758408 0.97314647180989311 0.96485272317022142 0.966905175790017 0.97328985708186944 0.96686220482346419 0.97249162512305065 0.96874665168931862 0.97198377064042507 0.96647476231219553 0.9689729532236302 0.95363736877847327 0.93075253574025796 0.95276286744101379 0.96897869637883816 0.97361127842595618 0.97190608353629926 0.97151810459851573 0.97347352706444623 0.97483808472839073 0.95281869456306367 0.97047832420158608 0.9793456830513525 0.97479342854147699 0.97346898750588806 0.95296043408328057 0.97115186167852252 0.95249196415426285 0.96001863440090807 0.92801095365969333 0.93216970239022423 0.97558113230066446 0.97468445226443268 0.96761209832143691 0.97554502274455113 0.96761568542937959 0.97307612139726096 0.97559464116465366 0.92783694445389009 0.88448704928295352 0.93381800833652218 0.92879236048802738 0.95856564579726067 0.9475987290149942 0.94679607595214987 0.95828990060815089 0.97080698406518606 0.95883536491704668 0.97714892940361819 0.97742435441951003 0.97603814606249184 0.97552285905461589 0.97854482683905319 0.94684956134832599 0.95452416091147185 0.97761119094229409 0.95898164911180006 0.94749275498083918 0.94993936792847877 0.94317819832143335 0.93237836608443103 0.93200518298290735 0.93102350887864416 0.95064040300820241 0.9539078468604214 0.94831326063860244 0.93037123060221283 0.09868951324606802 0.61496231442890126 0.16127728178971051 0.61538100494119774 0.097469424469914218 0.54344765558248154 0.92625248953137818 0.56675164139657952 0.78671378816032822 0.63675305710865293 0.5675655805683758 0.9244481221448162 0.93511696915046716 0.89253158631776863 0.92055334855037585 0.91453683453107437 0.93392229610826472 0.84117803211710462 0.95319946007626644 0.93720606672684503 0.91781936999413027 0.63797855316524898 0.92026850090064738 1.0244790823773693 0.77808889968719386 0.64023233222145903 1.0219527788973755 0.9336363701681285 0.92995574739002829 0.9504846271040468 0.95902006049981026 0.95477906564084569 0.94704257039982898 0.9486821604107899 0.95460090500769557 0.93525399140021692 1.0024041481836936 1.0234365777583487 0.78622051853257557 0.6013003737789735 0.76583905376266803 1.0326161600668486 0.16702479445242047 0.75109767550462248 0.55134212149411888 0.6123021356899766 0.7531013492797225 0.16385857838910289 0.20534551441429608 0.52450140552467994 0.27099227270114362 0.52190889956104902 0.64558940411065924 0.27325539200106402 0.27614348939549049 0.64382148609770973 0.34214485927512528 0.79490388342124241 0.60345696464316056 1.0299800007072808 0.34507694716212445 0.63922499726064963 0.52526012788485077 0.41833876151161276 0.49651488297293467 0.489446522150081 1.08410349323776 0.59894861564069413 0.74142941308530164 0.60392849572527074 1.0777020096304395 0.58127555064667868 0.49082509001162611 0.49462862331916746 0.52686426982259826 0.62948480636418147 0.5163317445292307 0.51898263565933378 0.97732198344317678 0.97690575700750493 0.97050719969145549 0.97541183452952473 0.97785982870543886 0.58502622898020606 1.0710780920783807 1.0018593594546121 0.98159086044718136 0.93588467657443319 0.97564654822319685 0.98031381649479066 0.9387487047498122 0.94622950549586826 0.97661471491992402 0.93809261210560291 0.97050450648013864 0.96571010093094944 0.97564870457817476 0.94950465046447496 0.96675270353823362 0.97487056414955875 0.96434802861506608 0.95937918942329159 0.97402358115692478 1.000640788874519 1.0249030050996719 0.83841490851103229 0.83673868901385029 0.9606496810329469 1.0022464129543736 0.95865005538734627 0.95618725459815646 0.95784615549305263 0.94756239674584697 0.97000579829782541 0.95825588649679272 0.97647778341053615 0.97602809659905876 0.95825176078117236 0.96929403358003741 0.97458656975302238 0.95824429018547463 0.97765812901371452 0.97440150441099627 0.94935362390725864 0.95990484898758222 0.97182057483525341 0.94312242857733863 0.95251794755349073 0.92686835589564631 0.96040564186804545 0.94919707479614635 0.94368780564161192 0.96095489513439092 0.94317537559752673 0.94942531119534124 0.98522938122981563 0.9532659010727087 0.94289743733186937 0.96322019064207698 0.98463488268941457 0.94329902896030449 0.96781225447529962 0.9978523365156875 0.97929827596245067 0.96545352306025045 0.97265308421804952 0.92673600912543097 0.99643785653300077 0.99355450017899027 0.99661306045811748 0.92662076580351627 0.94396466993733386 0.9756130914840081 0.9954952585115534 0.98562325321578514 0.99753704352618244 0.96807487380364554 0.99639331631241734 0.98834844044583059 0.99160172871762886 0.98836296344718233 0.98778258613300252 0.9915943918250224 0.98737335435216356 0.95991489944190933 0.9874353572859268 0.92569224203028033 0.99392011655649726 0.94807856200097629 0.97690847902112654 0.97647508725596588 0.95395493284249289 0.97057261122314265 0.96911961761882359 0.97612555715524552 0.96441489883775655 0.97364541251697778 0.97120939944686202 0.95369150961680982 0.94999789239623733 0.96721976035078183 0.93443152769748783 0.95744021767537546 0.98623278265415582 0.98379398317286093 0.99496753014054029 0.9965946483158542 0.91482131903949093 0.99866152542703357 1.0034268190639328 0.90018906739545546 1.0113862962001692 0.94749924516284423 0.99941544245548464 0.99490417257391628 0.99506985413951166 0.99794425189934832 0.98405657087247578 0.9975912962747534 0.99475884665294168 0.98392340494194641 0.99803993346977815 0.99533223896068246 0.99363649340112803 0.99525600257392033 0.99359579517084995 0.99487865736821379 0.98986455404925078 0.99847549288664794 1.0030427200071896 1.002357703442593 0.99996825273079393 1.0004477930694233 0.9950334432527862 0.99507583482866158 0.17140590178794288 0.052568049818419629 0.40132658511396235 0.98761421179612408 0.95936124711947435 0.98415755717296394 0.99712483955561337 0.98434673617906809 0.9969873356015756 0.99567375751931664 0.98439783505524414 0.99499848952070502 0.98455240237185004 0.60310462372350548 0.62796271854978569 0.20200912639995794 0.62002122257988934 1.0093123629439353 0.63326436985384815 0.38678278442199038 0.58993605236416724 0.8103842271562598 0.43009854038087431 0.70736265397718068 0.17382234535966737 0.80523230590077 0.59439173251536515 0.82356997639823826 0.99897949290209853 0.99667749597232236 1.0164997751492562 0.97260213536259266 0.64383780552964076 0.80120674981007045 0.81707197620100991 0.99748151683343067 0.970427458404167 0.97227685089530158 0.98039764754822134 0.99303666870482843 1.001140382928553 0.82739118438604597 0.98401583880410082 0.97364486331253597 0.9987152549564593 0.99927111744110642 0.97148198881676284 0.86032164891204166 0.96714635202592913 0.99813824167320908 0.99824696584936568 0.99467076530821708 0.99362307112693626 0.99214854983678891 0.96909320497579299 0.97043815967423297 0.9945343055966861 0.99634145628101345 0.9936516151557615 0.99877711595999852 0.99424942577234132 0.99603318868905788 0.99824092955271027 0.99830474784112111 1.0021774020061682 0.98664570739553337 0.98541828385453867 1.0022347469501429 0.98530868551177819 1.0018993407218293 0.99044161108196582 1.0025539483872168 0.98480857500756025 0.93858822233317751 0.75454833895640983 0.98032356554620415 0.90925237390079194 0.86712760962257596 0.77650271068767696 0.79689108274745779 0.70588840152314536 0.87007686569283615 0.72697262841179766 0.77555765387384434 0.98877406184214767 0.75075882895209656 0.71075681405923274 0.67190826260336611 0.71605816502151476 0.6250058712876666 0.70468677697277737 0.80130067243915082 0.51788101178216295 0.68697845692448978 0.63022644858229382 0.66642841513481765 0.53091798953171521 0.72106759855127045 0.63916998163263694 0.48996616230629741 1.0100844349582492 0.71980330189005881 0.78210493479783671 0.97793051915874496 0.97141197907391974 0.63625492260741456 1.0045176534507485 0.86714603293194259 0.99926156787752451 0.95425354294603038 0.99604334906604453 0.9990666857128313 0.98967186992609879 0.98775295808629815 0.99379032956772351 0.70347364701847448 0.92488782336962239 0.95367824356981634 0.99946307094998244 0.98744637707437122 0.90484865653223134 0.80456624170735525 0.75644945101944472 0.89972867037345028 0.90581592308299175 0.76547413361740146 0.76228142473201999 0.77335409699314261 0.90478743148994178 0.86161612708914348 1.0013575354257855 0.87707266608539636 0.75276860011845437 0.86502608432442141 0.87618329973731468 0.87756467603038724 0.99097869698194463 0.87513543996776799 0.97949836183565109 0.98486113432635891 0.86867414700312096 0.99451269736140568 0.99061188981315829 0.98468145850479583 0.98768853906781018 0.98047094349444486 0.88427066985654357 0.98501098997327174 0.89532225936352428 0.96042235744038018 0.97972128307557982 0.98742381726812567 0.98866945692776131 0.91825489361538004 0.98196405224186878 0.90395286632732663 0.89875494713916493 0.93088857914885348 0.80656782933275206 0.92335300764173034 0.9071916216014545 0.8112393039422009 0.96978402967431787 0.92630054080101698 0.89372528592749201 0.98570306364949312 0.9280390285639295 0.96844676551267506 0.92753544289943446 0.96346935553246105 0.96891375484561337 0.99526614151491943 0.99634063097842862 0.99471338539345489 0.99233474043272707 0.99602562051455568 0.99349496824611849 0.96156941070849655 0.96653041547619811 0.99461587084524083 0.99807918835764464 0.99678728153126239 0.99851099363789253 0.99449771093738348 0.99364417896802637 0.99858731062572059 0.99801302039854711 0.99908350708024385 0.9970367304915968 0.99800650775266608 0.99872681205503144 0.99671934220950231 0.99790400996491979 0.99951827989186459 0.99919683319310548 0.99928707473820211 0.99716320990512397 0.99434723326492858 0.99833105113695098 0.99825553746805895 0.99238687979102214 0.99504684834808022 0.99684581853620902 0.99736986434553787 0.99908465155208925 0.99844970485226892 0.9970606266819233 0.99141241240387712 0.9915533156056473 0.99093991815426918 0.99865359564175815 0.99715583782148531 0.9902016239081386 0.98825527074211261 0.98346074309221643 0.97365207050875302 0.97364816923437014 0.97798828313475339 0.98834498889060685 0.97816384736281992 0.98001952332917053 0.93608080861838849 0.91834958883733087 0.9883968489434537 0.96580906422812862 0.87514707804223801 0.95476188362904602 0.96144249957605354 0.96649680679712824 0.9034629747454378 0.96039351849215027 0.99894498528604225 0.99923067511135388 0.99265874480413907 0.98855287188910312 0.99520569673350801 0.9409175680608749 0.93814896947559401 0.99028211497232665 0.97694418548922957 0.98894449058519429 0.94285609034361129 0.88240243834622456 0.94328384297958778 0.88532751651269204 0.96589852834395407 0.90127956504710338 0.87607288322942878 1.0155467174507073 0.9802632092400434 0.99509695069796522 0.99526060356963286 0.86716869908414351 0.99980395372523323 1.020960284208374 0.98853668415837603 0.94133395305023682 0.9411587963148772 0.99444971996405107 0.99509968573545693 0.97305400031019806 0.98745610493039349 0.94170706029324946 0.95183945843662021 0.94029681780276464 0.9900396923176672 0.98329198018665476 0.96182314796573254 0.97921586171248409 0.96184797141908029 0.97075140900146306 0.97925851798888641 0.91806607648172678 0.94024130079121016 0.98881533512568309 0.97066188365179018 0.98004333212186179 0.97868194939536191 0.97193276278572116 0.97783639075208473 0.92968716237967486 0.9452603886844424 0.96648052627589109 0.9707305443832801 0.96192004552246435 0.96230613363740969 0.97194248303513453 0.96842191841386371 0.97663571248529135 0.967491166464156 0.97419011386209897 0.97515172388188021 0.96233668748941059 0.96595566511982711 0.97079629552052304 0.62590114405796382 0.63404151630368433 0.69032271490147801 0.9484173722566559 0.9461013828459891 0.84765176597325964 0.86307336394022782 0.8107252861401838 0.84311528668915692 0.99159993259366153 0.95488746648927958 0.95098480191685275 0.96851173213703623 0.98514087254608407 0.97652270110938222 0.76388017616901427 0.81120614240164923 0.81855528143401057 0.81689709385423892 0.81158326069167708 0.85058810999739753 0.97760850648946518 0.98028463460797588 0.98115146509716067 0.99259360726553492 0.93100425817848398 0.98479656684278227 0.99279649618966848 0.91492173242353203 0.79689465482087496 0.84843261050062213 1.030954231928036 0.85264399760042953 1.0063639147255847 1.0187581025399735 0.98401791198541588 0.98068104227161579 0.97363735279762043 0.98204218987521807 0.9830480710800833 0.98208790005794355 0.98305675690067618 0.86516539996564878 0.78414815828386653 0.83858525223818625 0.9791643127755163 0.98019971115005655 0.98322790237640423 0.98404713782039022 0.97483351676209407 0.86264837125695526 0.83806412695984878 0.96271670087567096 0.96971002099038339 0.99721689152904902 0.75523789560367915 0.87733805830282674 0.99314931913332127 0.99465918114889884 0.93064972678964875 0.94023969344478409 0.95253656212125204 0.91647046941253596 0.90926007347874471 0.99948202223700733 0.81282542752324349 1.018753364452583 0.97060843955535903 0.97940658149749038 0.76279049420307421 0.99009518821366282 0.88115675950832006 0.56749450868344831 0.48063734106873024 0.60979569373875686 0.47102087861178138 0.61773555551910098 0.98291459583441154 0.87555452633507513 1.0017880957293381 0.98773023410920602 0.91389888662795205 0.87159776219263241 0.67589692033902227 0.5483618152306069 0.79792760213321534 0.54768201922778981 0.79605881545862223 0.51304398928320671 0.58131518712327745 0.4968994576525459 0.58237193400595311 0.48053175017593491 0.49554298315662093 1.0746884304781081 0.60659772173502691 0.8109589958781741 0.98816609059861582 0.86355877974430884 1.0170997234571142 0.59239885578535434 1.0710180906531976 0.39294934651679536 1.0671481745089049 1.0523502801573072 0.62257841843861639 0.99017701250053203 0.99252610568523458 0.93719812583803686 0.92606560277123795 0.93612043248866683 0.99531893902116653 0.98089955953181907 0.98207476789467085 0.97046647175599954 0.98093392720028982 0.98055441277688737 0.93821212734202319 0.99043295608404158 0.99293410880874045 0.97945923094465859 0.98096502356329851 0.98127079366806347 0.97014300050687008 0.9753871133948121 0.9758296696651847 0.97723903597757267 0.97973739223690015 0.97583578189330478 0.97980887008830031 0.98370700841546888 0.97725732600107329 0.97964196238080659 0.97248583749581285 0.93629182012122347 0.99461769065418448 0.74448156221072137 1.0014361286056692 1.0404611394320338 0.92965637585489147 0.91348254280445207 0.93868462912382011 0.92950393337371318 0.93792404648247485 0.9549869021528089 0.84751879224473514 0.84777439512790498 0.93360902285905223 0.87120531553660541 0.91452930945261679 0.61227574400881835 0.84258837523982888 0.95326021787529613 0.96585828917377636 0.97393978998968722 0.97565562613412238 0.94568550923265238 0.94482557606542206 0.94523668004788697 0.94259077965094673 0.97271608399855902 0.97910924631351492 0.97832667252953842 0.9726692302464981 0.9696551261304549 0.97944521609171931 0.97670256522531518 0.94686826405657076 0.93440851866327224 0.97591732849120716 0.97740942317813218 0.9848713897668081 0.93570957026654467 0.96300196433483065 0.97598327686806241 0.93479406277836086 0.98559293243484258 0.97747020789041605 0.98224244815397643 0.96923095711715657 0.96716346038815426 0.97373374466970464 0.97061944063049277 0.95547140896990379 0.97641916676082952 0.97771232716979306 0.93090525330554497 0.97589093795729442 0.95435710337744861 0.9710391504216912 0.97101137338315946 0.98032208512541441 0.92084298364455186 0.94065388339006573 0.91314590867108325 0.89788145649646534 0.97128502216249557 0.96125521380912071 0.96837558168984328 0.97160617572377928 0.96848948965020054 0.96670105570084863 0.96709804712250957 0.96918810957550472 0.96159484735671419 0.97146897212604899 0.97372790764926753 0.96808371339947896 0.97135653092193885 0.97362975362665527 0.97134817368405657 0.96572544783411363 0.96624983966275091 0.96816555154938799 0.95610014649929642 0.9581899744458785 0.96942555162765653 0.96794040612293519 0.95827585891084344 0.96946060158702974 0.95762866153346127 0.96152443513322272 0.96624553431918114 0.96670663410153335 0.96389161926081723 0.96470557838001625 0.9388878676273581 0.9652259975679911 0.94575176445607556 0.93848049367342878 0.97753958997577617 0.95859892856275053 0.97658064194540573 0.93879015491732154 0.96293438807538501 0.94057439951585486 0.97679480094644977 0.95530354406673856 0.9553847818745731 0.95692743994204332 0.97708491881573467 0.95838814493050939 0.9342882210529837 0.95484749407820313 0.9477854020437273 0.95125134504989417 0.93581639739700562 0.93105921058801466 0.96664897503755753 0.94375846232177041 0.9448301821909848 0.96481871296735466 0.94316886462737448 0.96683709831937292 0.96572179822835047 0.9661536404190364 0.94506836223477542 0.98292876029127885 0.95355198547061371 0.99718077276128614 1.0435093801982309 0.87257856667097211 0.74182894709407432 0.96958888104893237 0.97960078058172262 0.977832464082244 0.97782129231949855 0.97033584842808951 0.97855690695904041 0.96838015861525806 0.97931160325642952 0.97794277106686822 0.97135970184754794 0.97026150511558684 0.97029169743387722 0.97142765683739241 0.96654894583650663 0.97607192923949948 0.95925563591654028 0.9717099708577478 0.9838455035881627 0.95484487706783305 0.9530272565175939 0.98087219226266109 0.9726245384531359 0.95971312878062132 0.20675076862536632 0.89016041257299094 1.078730981180299 0.86130982970063208 0.18763878694116093 0.23565802922140189 0.23870274399229122 0.57227368802348122 0.85598935897707784 0.5478578883640598 0.45184608764246387 0.46008436321743817 0.54970802921659745 0.50594663298048725 0.44936398234227176 0.46944955026897561 0.3564857829118353 0.41958027040236084 0.38722557685461645 1.0782782918921132 0.59143496476584445 0.43177653373295483 0.46674231942916167 0.42148143719515946 0.58873174667213291 0.84047179621726031 0.74187614455776374 0.59071715419582727 0.69444546166197407 0.83841213418012506 0.50433528072184364 0.55231292643269914 0.66201428949777119 0.58800905328142461 0.74298938650415836 0.4632133279857743 0.69520022037639539 0.88644871087066279 0.83491421313907399 0.88449653346150114 0.69757284292787403 0.92791313175748735 0.81296441439545142 0.94261610552699282 0.68173404257673764 0.81399388222626601 0.96959123065044639 0.93228368100504999 0.95466842509251759 0.97535563299579464 0.9059313618073126 0.91055009228797434 0.97005848323621946 0.80085137821898822 0.97039965142301488 0.95339669164029195 0.99891764116216719 0.96017107997667206 0.90889533753696539 1.0167196082262071 1.0000533547451123 1.0031330732407782 0.99186374203728722 1.0045953445105065 0.91931866467775014 0.98029266386065739 0.9776771053402401 1.0045759661016851 0.99503274524929664 1.0000206444622521 1.000024179234706 0.999999449056025 1.0000210817736652 0.99999