<?xml version="1.0"?>
<VTKFile type="UnstructuredGrid" version="0.1" byte_order="LittleEndian">
<UnstructuredGrid>
<Piece NumberOfPoints="2028" NumberOfCells="724">
<Points>
<DataArray type="Float64" NumberOfComponents="3" format="ascii">
0 0.69999999999999996 0 0 1.6319639930219929 0 0.59999999999999998 0.69999999999999996 0 0.59999999999999998 0.69999999999999996 0 0 1.6319639930219929 0 0.94999999999923723 1.2749999999987469 0 0.59999999999999998 0.69999999999999996 0 0.94999999999923723 1.2749999999987469 0 0 1.6319639930219929 0 0.68142292217753131 2.106313194182027 0 0.94999999999923723 1.2749999999987469 0 0 2.430303940964651 0 0.68142292217753131 2.106313194182027 0 0 1.6319639930219929 0 0.94999999999923723 1.2749999999987469 0 1.299999999998378 1.8499999999973351 0 0.68142292217753131 2.106313194182027 0 1.299999999998378 1.8499999999973351 0 0.94999999999923723 1.2749999999987469 0 1.299999999998378 1.8499999999973351 0 0.68142292217753131 2.106313194182027 0 1.186467289461244 2.488259157846338 0 1.299999999998378 1.8499999999973351 0 1.649999999999066 2.4249999999984651 0 1.299999999998378 1.8499999999973351 0 1.186467289461244 2.488259157846338 0 1.649999999999066 2.4249999999984651 0 1.299999999998378 1.8499999999973351 0 1.626949751997165 1.3978044304614949 0 0.94999999999923723 1.2749999999987469 0 0.94999999999923723 1.2749999999987469 0 1.626949751997165 1.3978044304614949 0 1.243750000001385 0.69999999999999996 0 1.626949751997165 1.3978044304614949 0 1.887500000003292 0.69999999999999996 0 1.243750000001385 0.69999999999999996 0 1.243750000001385 0.69999999999999996 0 0.59999999999999998 0.69999999999999996 0 0.94999999999923723 1.2749999999987469 0 0.45714634023723411 3.4614941897304652 0 0.56249999999824107 3.9749999999991399 0 1.013301616169622 3.6128741719811099 0 0 3.7000000000000002 0 0.56249999999824107 3.9749999999991399 0 0.45714634023723411 3.4614941897304652 0 0 3.7000000000000002 0 0.56249999999824107 3.9749999999991399 0 0.45714634023723411 3.4614941897304652 0 0.70993008501830757 2.9054181396964478 0 0 3.1141786369756268 0 0 3.7000000000000002 0 0.45714634023723411 3.4614941897304652 0 0 3.1141786369756268 0 0.70993008501830757 2.9054181396964478 0 0.45714634023723411 3.4614941897304652 0 1.013301616169622 3.6128741719811099 0 0.68142292217753131 2.106313194182027 0 0 2.430303940964651 0 0.70993008501830757 2.9054181396964478 0 0 3.1141786369756268 0 0.70993008501830757 2.9054181396964478 0 0 2.430303940964651 0 0.70993008501830757 2.9054181396964478 0 1.186467289461244 2.488259157846338 0 0.68142292217753131 2.106313194182027 0 1.649999999999066 2.4249999999984651 0 1.186467289461244 2.488259157846338 0 1.451787781083937 3.11022608666643 0 1.186467289461244 2.488259157846338 0 0.70993008501830757 2.9054181396964478 0 1.451787781083937 3.11022608666643 0 1.013301616169622 3.6128741719811099 0 1.451787781083937 3.11022608666643 0 0.70993008501830757 2.9054181396964478 0 1.451787781083937 3.11022608666643 0 1.013301616169622 3.6128741719811099 0 1.593428957229921 3.8897035774451321 0 2.4236693135559251 3.5256579194055688 0 2.1666666666662731 4.1999999999971616 0 2.08333333333292 3.599999999997022 0 1.593428957229921 3.8897035774451321 0 2.08333333333292 3.599999999997022 0 1.451787781083937 3.11022608666643 0 1.451787781083937 3.11022608666643 0 2.08333333333292 3.599999999997022 0 2 3 0 2.4236693135559251 3.5256579194055688 0 2 3 0 2.6000000000000818 2.8399999999999781 0 2 3 0 2.08333333333292 3.599999999997022 0 2.08333333333292 3.599999999997022 0 2 3 0 2.4236693135559251 3.5256579194055688 0 2.6000000000000818 2.8399999999999781 0 2.2687831884271348 2.397628317379688 0 2 3 0 2.6000000000000818 2.8399999999999781 0 2 3 0 1.649999999999066 2.4249999999984651 0 2 3 0 1.649999999999066 2.4249999999984651 0 1.451787781083937 3.11022608666643 0 2 3 0 2.2687831884271348 2.397628317379688 0 1.649999999999066 2.4249999999984651 0 2 3 0 2.2687831884271348 2.397628317379688 0 2.6000000000000818 2.8399999999999781 0 2.8857059848027808 2.304389417342541 0 2.8857059848027808 2.304389417342541 0 2.6000000000000818 2.8399999999999781 0 3.2000000000001432 2.679999999999962 0 3.2848100522576571 3.06994577157805 0 2.6000000000000818 2.8399999999999781 0 3.2000000000001432 2.679999999999962 0 3.2000000000001432 2.679999999999962 0 2.6000000000000818 2.8399999999999781 0 2.6000000000000818 2.8399999999999781 0 2.9420158813362729 3.5139475164392531 0 2.4236693135559251 3.5256579194055688 0 2.6000000000000818 2.8399999999999781 0 3.2848100522576571 3.06994577157805 0 2.9420158813362729 3.5139475164392531 0 2.9420158813362729 3.5139475164392531 0 3.412636880282601 3.6134558579332841 0 3.1249999999889848 4 0 3.1249999999889848 4 0 2.75 4 0 2.9420158813362729 3.5139475164392531 0 2.4236693135559251 3.5256579194055688 0 2.9420158813362729 3.5139475164392531 0 2.75 4 0 1.887500000003292 0.69999999999999996 0 2.23284951060374 1.369095413116082 0 2.5312500000049418 0.69999999999999996 0 2.23284951060374 1.369095413116082 0 1.887500000003292 0.69999999999999996 0 1.626949751997165 1.3978044304614949 0 1.942890303101708 1.90249985684108 0 1.626949751997165 1.3978044304614949 0 1.299999999998378 1.8499999999973351 0 2.23284951060374 1.369095413116082 0 1.626949751997165 1.3978044304614949 0 1.942890303101708 1.90249985684108 0 1.942890303101708 1.90249985684108 0 1.649999999999066 2.4249999999984651 0 2.2687831884271348 2.397628317379688 0 1.649999999999066 2.4249999999984651 0 1.942890303101708 1.90249985684108 0 1.299999999998378 1.8499999999973351 0 2.5341028426591712 1.9138806300960609 0 1.942890303101708 1.90249985684108 0 2.2687831884271348 2.397628317379688 0 2.23284951060374 1.369095413116082 0 1.942890303101708 1.90249985684108 0 2.5341028426591712 1.9138806300960609 0 2.730231246675086 1.4599417336750831 0 2.23284951060374 1.369095413116082 0 2.5341028426591712 1.9138806300960609 0 2.5341028426591712 1.9138806300960609 0 2.2687831884271348 2.397628317379688 0 2.8857059848027808 2.304389417342541 0 3.5028943452390711 2.1825773809523441 0 3.16379900756549 1.750659825629856 0 2.8857059848027808 2.304389417342541 0 2.8857059848027808 2.304389417342541 0 3.16379900756549 1.750659825629856 0 2.5341028426591712 1.9138806300960609 0 2.5341028426591712 1.9138806300960609 0 3.16379900756549 1.750659825629856 0 2.730231246675086 1.4599417336750831 0 3.047698899035677 1.175177397439602 0 2.730231246675086 1.4599417336750831 0 3.16379900756549 1.750659825629856 0 2.5312500000049418 0.69999999999999996 0 2.730231246675086 1.4599417336750831 0 3.047698899035677 1.175177397439602 0 2.23284951060374 1.369095413116082 0 2.730231246675086 1.4599417336750831 0 2.5312500000049418 0.69999999999999996 0 2.5312500000049418 0.69999999999999996 0 3.047698899035677 1.175177397439602 0 3.1750000000065048 0.69999999999999996 0 3.047698899035677 1.175177397439602 0 3.638214240926366 1.265285427893069 0 3.1750000000065048 0.69999999999999996 0 3.1750000000065048 0.69999999999999996 0 3.638214240926366 1.265285427893069 0 3.8187500000045098 0.69999999999999996 0 3.638214240926366 1.265285427893069 0 3.047698899035677 1.175177397439602 0 3.16379900756549 1.750659825629856 0 3.8187500000045098 0.69999999999999996 0 3.638214240926366 1.265285427893069 0 4.2198317920941601 1.108273596938623 0 3.8187500000045098 0.69999999999999996 0 4.2198317920941601 1.108273596938623 0 4.4625000000026009 0.69999999999999996 0 4.25 1.5 0 4.2198317920941601 1.108273596938623 0 3.638214240926366 1.265285427893069 0 4.2198317920941601 1.108273596938623 0 4.25 1.5 0 4.7733688274428578 1.2511819424194319 0 4.4625000000026009 0.69999999999999996 0 4.2198317920941601 1.108273596938623 0 4.7733688274428578 1.2511819424194319 0 5.1062500000012143 0.69999999999999996 0 4.4625000000026009 0.69999999999999996 0 4.7733688274428578 1.2511819424194319 0 5 2.2000000000000002 0 4.4000000000001336 2.3599999999999639 0 4.6250000000004974 1.8500000000004651 0 4.4000000000001336 2.3599999999999639 0 5 2.2000000000000002 0 4.7733688274428578 1.2511819424194319 0 4.25 1.5 0 4.6250000000004974 1.8500000000004651 0 4.6250000000004974 1.8500000000004651 0 4.25 1.5 0 4.0559490150232032 2.028653202947901 0 4.6250000000004974 1.8500000000004651 0 4.25 1.5 0 3.757799744899315 1.759341836734688 0 4.0559490150232032 2.028653202947901 0 4.25 1.5 0 4.6250000000004974 1.8500000000004651 0 4.0559490150232032 2.028653202947901 0 4.4000000000001336 2.3599999999999639 0 3.757799744899315 1.759341836734688 0 3.5028943452390711 2.1825773809523441 0 4.0559490150232032 2.028653202947901 0 4.0559490150232032 2.028653202947901 0 3.5028943452390711 2.1825773809523441 0 3.8000000000002032 2.5199999999999458 0 3.757799744899315 1.759341836734688 0 4.25 1.5 0 3.638214240926366 1.265285427893069 0 3.638214240926366 1.265285427893069 0 3.16379900756549 1.750659825629856 0 3.757799744899315 1.759341836734688 0 3.757799744899315 1.759341836734688 0 3.16379900756549 1.750659825629856 0 3.5028943452390711 2.1825773809523441 0 2.8857059848027808 2.304389417342541 0 3.2000000000001432 2.679999999999962 0 3.5028943452390711 2.1825773809523441 0 3.8000000000002032 2.5199999999999458 0 3.2000000000001432 2.679999999999962 0 3.5028943452390711 2.1825773809523441 0 3.2000000000001432 2.679999999999962 0 3.8000000000002032 2.5199999999999458 0 3.2848100522576571 3.06994577157805 0 3.2000000000001432 2.679999999999962 0 3.8000000000002032 2.5199999999999458 0 3.8190056356267248 3.2454749759848052 0 3.2848100522576571 3.06994577157805 0 3.8000000000002032 2.5199999999999458 0 3.412636880282601 3.6134558579332841 0 3.5 4 0 3.1249999999889848 4 0 3.2848100522576571 3.06994577157805 0 3.8190056356267248 3.2454749759848052 0 3.412636880282601 3.6134558579332841 0 3.2848100522576571 3.06994577157805 0 3.412636880282601 3.6134558579332841 0 2.9420158813362729 3.5139475164392531 0 3.874999999992375 3.7500000000050839 0 3.5 4 0 3.412636880282601 3.6134558579332841 0 3.8190056356267248 3.2454749759848052 0 3.87499999999
[...]
<PointData Scalars="A_conc," Vectors="" Tensors="">
<DataArray type="Float64" Name="A_conc" format="ascii">
0.4671935804281685 0.90590704818388657 0.47615264988431122 0.4759695901581722 0.90620990579044902 0.85061395988054145 0.4316440475614749 0.86711665470841126 0.83413153258490069 0.92025669030462387 0.80782012784007173 0.92083334376310477 0.9154299344261615 0.84505646034767234 0.80095721556704147 0.91816025269904489 0.91971758108406831 0.91506565084681135 0.80808680238647512 0.90179968895812168 0.90265446718787712 0.93332340272026382 0.90239335711278812 0.9383841808454676 0.9020196076966186 0.93289511054328411 0.93862432906673343 0.61245082341364865 0.40183346644293111 0.21902004289388216 0.22548424247625501 0.37874073874577086 -0.059001883307010228 0.38473856804915407 -0.040771541488608141 -0.066416110721739946 -0.056165269102115854 -0.070785377771441838 0.21747626687581884 0.93161057140750991 0.91054115043770656 0.9368084253290353 0.9255796025954609 0.9267390327620354 0.93203315202628456 0.90673058684551611 0.91038294010052867 0.92807978905571387 0.93793745310356724 0.92707859144893856 0.91144771520704349 0.93023332900093259 0.9304279299253666 0.93772653540744644 0.92817079483158771 0.93374837345582784 0.90612344964605784 0.90890122149351427 0.93670652441599078 0.93295255204763627 0.9373764517528469 0.9106775369871829 0.9362136160204203 0.93142023470356405 0.90639129400657015 0.93459145272952326 0.92918595105307544 0.94672437207960103 0.92897509697494651 0.93365748502431656 0.94703368141974442 0.93373437194105136 0.94549146040524534 0.93760301523411749 0.94443097004655674 0.93287351697681664 0.93804096946615712 0.9061396976053907 0.85520989939302339 0.90220403490173529 0.93805556225094477 0.94759204362617522 0.94422929508530962 0.94341629351422363 0.94726263339195971 0.9500683124810958 0.90407352423784704 0.94088639940827179 0.96043275245215387 0.94995424994380429 0.94725303592927157 0.90296650870338779 0.9424005072549535 0.90344937565973082 0.91775262483473485 0.84861027446703297 0.85538609145605371 0.9515809477911441 0.94971779748067764 0.93460859519132911 0.9514707731979446 0.93460392465719122 0.94657260870579063 0.95159139143994842 0.84996683587470989 0.7578293036329824 0.85650579034148144 0.85064814664077382 0.91438031419617616 0.89277693901102551 0.8897628976052846 0.91466576014651058 0.94257627386896381 0.91898761993626854 0.95457028543680211 0.95544501353761213 0.95245918004738761 0.95144926906233229 0.95833704310078827 0.89282016430592115 0.90787731667780025 0.95611006670120957 0.91917203868667197 0.89432083181209943 0.89791480705976845 0.8790231139668313 0.85637810906409428 0.85561499722140699 0.85583220927036907 0.89932606365020318 0.90727916014464427 0.89542837373136042 0.85519492420470122 -0.050183153370341793 0.46257415289598824 -0.017015250918583896 0.45888098141768502 -0.043725162990205929 0.39300666984715887 0.78042745626346155 0.41088822162525751 0.61303021352592524 0.49313059359680278 0.40739401102057499 0.78210267132626499 0.78968510865448405 0.77017448610614037 0.84543217997628139 0.78675615872264071 0.78760519665636775 0.65073813541506154 0.85262504214684764 0.79318746699499654 0.84129813656272212 0.49282652935616317 0.78299697871005647 0.92361252091605273 0.65566559787510836 0.4907174601770497 0.92377299552229919 0.83325943812016834 0.85315827744551853 0.90669836732180564 0.92859868279403102 0.87697350102194305 0.89970282937050883 0.90319386149528336 0.87635562632725028 0.83628035854797711 0.90517615324040623 0.95590832896472411 0.66744606805423701 0.4494199767467128 0.64161545903535311 0.96791840598108181 -0.021795619486687581 0.61781576802255356 0.38684108665849359 0.46821520260615163 0.61572986782215522 -0.018620616672332328 0.020955294614109998 0.35440761004873894 0.059370932836573194 0.35661963611222253 0.48400393046994322 0.059450930799911109 0.058330356538089212 0.48510541006708974 0.10310547796726162 0.68750645002168165 0.44935404995859013 0.96758844824966994 0.10376430771244356 0.48588097307309164 0.32378064777356413 0.1875015139556897 0.28987850625774214 0.24109997656524648 1.0817260694231958 0.41266598932129978 0.61154372142718993 0.41557615265798736 1.0776958955830684 0.37504910406724196 0.24243128330179928 0.28943575593116899 0.29742993677864066 0.37136132785067422 0.27263692451815036 0.28689244004093595 0.95492828240496497 0.95412977439008362 0.94147319090347426 0.95129277554242897 0.95614914868013801 0.3774997702058222 1.0733864588716269 0.98649700282224617 0.96557404260010027 0.8665279935132012 0.95291059774196085 0.96290043602555542 0.87266720592411562 0.88880271612594952 0.95500018530282127 0.87128839470495889 0.94147110512134524 0.93151218051446083 0.95191033759893229 0.89580650945119578 0.93323638309621848 0.9513480953030039 0.92862554601102942 0.91779846879198335 0.94884039942439358 0.95153323660546518 0.99527304606172817 0.74324918128800199 0.74335405126960308 0.8848561179737382 0.95252840035619779 0.90569794346955779 0.8804952119345687 0.92561367426589991 0.89173014478867385 0.94051035278783557 0.915406375331973 0.95330655949224052 0.95243654424869528 0.91522955836669173 0.93895937872469803 0.95021074840445707 0.91799430965301687 0.95587116868902644 0.95081183792599244 0.89112711322446014 0.91991140456085085 0.94706751445457182 0.87726983932334845 0.89238844485425051 0.84389792946405728 0.92108386014412846 0.89072095813074792 0.88020029412949075 0.92231534993793274 0.87905005250345569 0.89682860278920429 0.95912361397992196 0.89487472698345571 0.87638301636960603 0.91680870273609194 0.95801313005954147 0.87710175564373449 0.92531132162638807 0.98918315817812608 0.94888978632666499 0.93117128327333343 0.94463450246423286 0.88780641812902716 0.98057280657491608 0.9777279515939088 0.98095178639638825 0.88756803402175388 0.90908935324752849 0.94854977464444745 0.9792706708086838 0.96145030819923305 0.9885243171813477 0.92584267536059417 0.98541829237730272 0.97223280685190294 0.97311554105124465 0.97229804879901716 0.96989546967505547 0.97305640666452664 0.97097369762240715 0.93571306853710978 0.96884744604977213 0.88680847013995523 0.9779790522194356 0.9197919341548797 0.95413559729610975 0.95330071418247586 0.90013783437657968 0.94399279971638261 0.94070789989451087 0.95295339035146065 0.92879711561422729 0.94783967443228301 0.94559149533147757 0.89943345389382334 0.89269600757986878 0.93715362962636539 0.86735871162530498 0.90656337225748695 0.96289417472666172 0.95863013715414036 0.98332709904254045 0.9920882351890854 0.83111121254463938 0.9962194894603722 1.0053100283286562 0.80273616575916285 1.0136833769299156 0.88657546323705239 0.99503490633159231 0.98442787198424109 0.98504463741992088 0.99041926176850026 0.95924447147924352 0.98921399200449456 0.98282057861534011 0.95892473798746458 0.99065368025702749 0.98550307852886543 0.9814558230125674 0.98541009470574137 0.98110534416860584 0.98428870951157221 0.9635654595519072 0.99152921635493307 1.0084289881879236 1.0072630985205098 0.99441682510176244 0.99817806105463014 0.98492318087068931 0.98509615715207532 0.040370541163714253 0.00015445997999009384 0.19631408055258501 0.9712544806285186 0.93501399052219003 0.96456195428651503 0.98635527097534392 0.96651235221478127 0.98611353812912306 0.98465702075438399 0.96656718832016209 0.98297167601055291 0.9674750893254439 0.34215833124273792 0.38957869646267812 0.048511682847769598 0.37233236712524131 0.88166308822382189 0.41298569762647902 0.17402110296816325 0.34910166776271034 0.57948789532521672 0.22660270578730393 0.43699098816971838 0.035830279262838625 0.59887408031728706 0.35158276889778567 0.62509489784410155 0.99434551397899085 0.98985565814367016 0.93443434432252626 0.8787717090108117 0.37946399869251257 0.60143088825685698 0.62727558187119492 0.91704751815654717 0.91163889403953269 0.91591117372010744 0.94327877367902735 0.97309088254686038 0.99866112494118908 0.63450140777309327 0.91952941347120087 0.90094107697277914 0.99400439818391473 0.99568439705786227 0.89453299414290421 0.70035331106400345 0.90019404767758371 0.99423836134145194 0.99466632080407569 0.98056733508236649 0.97235524538259144 0.96870838499119705 0.90748733630738421 0.91158481581468909 0.97992101810456533 0.98623080512154448 0.97264223430189467 0.99513155435915779 0.98030379717536287 0.98414179176066774 0.99463776760529032 0.99486981692675813 1.0055947244822434 0.95576580118283894 0.94981538267919807 1.0061252248341372 0.94880304725919162 1.0046880717452331 0.96534102387713971 1.0068253071922457 0.94716643538816492 0.86409567307762369 0.50815287134402531 0.94602070223509738 0.74730898205630791 0.67829282153274784 0.54098867721739829 0.5779017042922302 0.45845522849301229 0.67989638708363465 0.47384079204088175 0.54000213794945584 0.95390065046508932 0.50414282847138214 0.45329886515622059 0.40906301410090645 0.50895480164659446 0.37695199323599038 0.45725911986848317 0.57464270768312109 0.28485840578840627 0.4276679017616889 0.37485113512297963 0.4011207894400548 0.31168374432986906 0.5088823147582705 0.40196400335680121 0.22766691722661808 0.99528959987953147 0.51650205905354296 0.62737564552156877 0.95623930048955941 0.94327953466734649 0.39611496293118464 1.0036123427699999 0.76879052731124986 0.97933596914195076 0.87852706292656202 0.96771386088729272 0.99322752358788546 0.96304915267414948 0.95544975576050373 0.95824541877256963 0.44735261246368879 0.83893060730645785 0.87823141305629571 0.97930557677982433 0.95044037145816584 0.74827758228226859 0.58324776579170567 0.52311074064255292 0.74974491877836758 0.75348015260354539 0.53456624251664209 0.53306549961894645 0.55807374007953214 0.75159406551961017 0.67444338780141011 0.96469337138535471 0.71952876336547522 0.50617574944691202 0.67367978498348069 0.71720126522627459 0.65997653749944318 0.95084288678443074 0.69421302212019165 0.94423142449499431 0.95573852234066692 0.68221162052714368 0.95773906248574858 0.95319369734507242 0.95552354586867083 0.96303917816617435 0.93742644561875232 0.67033367125388987 0.93740381682964025 0.69353021605663812 0.83957332223271119 0.92584199650357724 0.96258936101280834 0.96670243136109957 0.77911994403214113 0.92149372251477324 0.75342278160276521 0.74560597698321429 0.79472620613274836 0.58510778857556245 0.78156913864846056 0.75554443483789535 0.59306907972682554 0.89829665615439624 0.79680159727334332 0.73981420568977774 0.9432208023747839 0.79984779863194655 0.89935472797321347 0.79992284761544996 0.88995984658325999 0.8992279913453709 0.9799300791621256 0.9841273916138924 0.97785732779868118 0.96889898686489007 0.98275168991319206 0.97333386901527541 0.88616639963965382 0.89562739331129881 0.97703018709249867 0.98927794540700076 0.98609824989903028 0.99069420251244589 0.9767375196619994 0.97190427757188347 0.99310845428424954 0.98990604335278831 0.99481134230089818 0.98645935963176312 0.9898459224305598 0.99361856401002313 0.98576796397199706 0.98877657432855759 0.99563591285255792 0.99554599106894948 0.99597896568810096 0.98690034689246176 0.97557928924783011 0.99088340874883074 0.98888836916976008 0.97534899975054645 0.97563723435573202 0.9904938429162522 0.98701667712877639 0.99467539830213958 0.98874254930511529 0.99059701963508406 0.98179717911457165 0.98271036078835305 0.97374796250355034 0.98889518076277516 0.9903156238000399 0.97985321995068042 0.97152217163272081 0.97107923405418917 0.95529622490470101 0.95547864625196399 0.95622950814870589 0.97159356262966623 0.96108163977600714 0.96571634901642611 0.90387761963715441 0.87988481492473647 0.97446037407728159 0.94851982844767924 0.81813101830985147 0.8733357158377687 0.88577295322814398 0.89258131643321581 0.75905011979231563 0.8831682303269216 0.99449252882251993 0.99564292487785977 0.97633362168688231 0.95907124627571549 0.97590288170616846 0.8611752607812323 0.87264474959831062 0.97447234920055315 0.95541280569700793 0.95767387950685656 0.8806142970650731 0.74258253738673774 0.8637940775433427 0.73171946395086174 0.8896060727252858 0.75604276857725139 0.70228495079544317 1.0269893040355766 0.93250592959693801 0.98432701552311797 0.98480631012609354 0.68752515105808043 0.98877482129296912 1.0359572589424921 0.98163968556896508 0.87819156632620654 0.87771010092712332 0.98289562303458466 0.98433300185645378 0.94977674313318694 0.97981568039899247 0.87860695398207411 0.90043324806041436 0.87654203675816589 0.98421303183690745 0.96982164372672619 0.93802049418497213 0.95504339438666308 0.93820597404059014 0.94244561991316134 0.95507203048090572 0.87932584127210267 0.90622645258971246 0.97536229673207786 0.94133331250255492 0.96612318726400426 0.96394563386808074 0.94468780515009632 0.96076407981135725 0.88944868389910925 0.91450690399816403 0.94013986956105855 0.94231731999640722 0.93846527503301824 0.93308539528461309 0.93999935394827117 0.93278838957505439 0.95213427361905079 0.93371877491805277 0.94341755588437681 0.94982693583920097 0.93322713734393958 0.93174065144693829 0.94245896870210566 0.45877335485663173 0.41587635715632271 0.49366551976807072 0.89980487012263233 0.89590100794491545 0.71545031646585044 0.74034930989993741 0.68215166288949736 0.72125225404752558 0.98704608730408205 0.90482854914504307 0.89908759413556749 0.93305042401059246 0.97014350093247959 0.95181067991912549 0.61024437292664224 0.66480833419872398 0.6935843329273953 0.69183781445917059 0.66559901364453855 0.73145593691596367 0.94344121260460467 0.9499955330322255 0.9522005252112975 0.97385703917984723 0.84148742779301033 0.95525864902124868 0.97126869310007413 0.80973977775996375 0.61700106442859814 0.69852068395201217 1.0279449517697492 0.70423812586692902 0.98515279723569349 1.013027435032628 0.95936991711759068 0.95097079871271994 0.93336882449954006 0.95452181251515755 0.95708468166111604 0.95501531235103565 0.95708229366795416 0.75211930390584913 0.62498505461343468 0.70891050346033557 0.94746332687428025 0.94975348292969231 0.95750145265599618 0.95948607375325656 0.93637703735629763 0.74969391747297476 0.70842428241966371 0.90999182600883211 0.92449743909058046 0.95805435911344361 0.50590545484561111 0.74456533023621596 0.97999550677142333 0.98327087651712386 0.85615868095725045 0.87665956010442192 0.90144154438454061 0.76992541641111045 0.7829995905734809 0.94873987004676419 0.63924855591581486 0.99869074987417428 0.92628659012432635 0.94399467744948884 0.51486995313000072 0.95007727463847325 0.70989395884384765 0.34814830428115034 0.30364778259423186 0.35979655260428256 0.26195258411856981 0.4256946782310343 0.93010713102708009 0.7101094733802078 0.96688267715204568 0.93573104728685141 0.78760767161466783 0.70561372180645909 0.45406740894275321 0.35567451109368231 0.59745028819826795 0.35027960094503025 0.60087787939169046 0.32884472257432962 0.38233532990992952 0.2763675146187986 0.3810830244085277 0.27927099190859883 0.27637321218338379 1.043149025480439 0.4128299490680209 0.6707309179168216 0.94387473047295467 0.73700634026837331 1.0068695780602479 0.40370825700271323 1.0092520502191598 0.16301178675965561 1.0297338929598445 0.99413412673105339 0.44059934895118924 0.9693828430331155 0.97490439605692181 0.85378174940589802 0.8307188848548317 0.8518786628313989 0.97974099498529077 0.95161564975846991 0.95460336099955967 0.92544252704715468 0.95156524259902497 0.95041359263066316 0.85587316657163393 0.9700915730225923 0.97599369037338468 0.94796463296534084 0.95177895705549176 0.95230049429434172 0.92475062266516905 0.93763901821697038 0.93883409174716981 0.94237586364172377 0.94863550541373109 0.94005672245399063 0.94503291091345509 0.95672664979785049 0.94241712373944841 0.94841776867980487 0.92897938744072017 0.85259506066876045 0.97898709072980672 0.58719475772539009 0.92370919707406252 1.0029279515973899 0.85411667034483663 0.81927686444238845 0.8727370615178246 0.8536751836329195 0.87153575051137699 0.9094448270751192 0.71717151918836519 0.71664438978055722 0.86009527569464184 0.7364041897125202 0.82027883651452871 0.38948197904470794 0.67911802656073783 0.8492252007693335 0.93153311207071099 0.93624582853896998 0.94583223024151941 0.89522970078232222 0.89154969352682578 0.89226838500838446 0.88523936129054337 0.93234802721294574 0.94652374280971185 0.94522216037816742 0.93228274310260795 0.92383690822916431 0.94721516313007215 0.93928011877482487 0.88417974394365928 0.87266304745783063 0.94380852134864102 0.94696068060081162 0.96023923874579964 0.87428349872572453 0.92419308130122957 0.93824068386582049 0.87295518997300148 0.96152436803372487 0.9470217949172125 0.95518373499743436 0.92634643945895656 0.91696335343429081 0.93533744850924028 0.92412239301948207 0.8959495343292897 0.93721662582682197 0.95135596287331681 0.85242586768401063 0.94741540718055117 0.89797546363874292 0.92331933751626805 0.93100720713032692 0.95643794828293405 0.83173349052806633 0.87591569407091063 0.81879464691597292 0.78647835130865384 0.94375285259975217 0.91936499057897048 0.93604988785814514 0.94336267251368822 0.93680954656080961 0.92887202106048938 0.92977850957173958 0.93924538105512723 0.92076359584790568 0.94382452331693456 0.94784488208074591 0.93619621772276496 0.94284525064517288 0.94759976791724765 0.94281951948807419 0.92673234061043452 0.92786936107043172 0.93703787970499075 0.90982108418131635 0.91412308720637869 0.9396208974521234 0.93649320710964845 0.91432653631766003 0.93993328477417004 0.91248829402863096 0.92057617465174169 0.9278604462201262 0.9288837473757654 0.92476036307356602 0.92681667768943532 0.86078378346741569 0.92782941346028314 0.88041792137356267 0.85998280390547166 0.94104787307221982 0.89936708619801298 0.93900870408232118 0.86639968713605275 0.92316093133614563 0.86340758067679269 0.93787672913854803 0.89567111404409949 0.89399567913391875 0.89485436333009338 0.93995462707419364 0.89897886068759347 0.85615788867922382 0.88834674419369186 0.8781755958951335 0.88054256779904772 0.85958796087140954 0.85150514396950938 0.92958937021808929 0.87765174625900022 0.87946840412679939 0.9248049983030503 0.87671813591010184 0.92976162025569131 0.92832327820858807 0.92864702912680908 0.87991877369804694 0.95331545268093765 0.87971012296326345 0.96252476569151357 1.0054872879225518 0.76147981801757225 0.58514645342804039 0.92442266191497913 0.94609968785107446 0.94427048252338497 0.94367703756145127 0.92541856103946041 0.94553352496853016 0.92064944145090477 0.94736188665713805 0.94393213581509372 0.92786120784179316 0.92526445664708645 0.92532827410669516 0.92799782110354123 0.91627798109142411 0.93777393712273682 0.8999310343859408 0.92748869290782243 0.95491606134708884 0.88477048126535263 0.87879995887072082 0.9482446950492609 0.92987830208262101 0.89582073572468535 -0.016419489806520166 0.77536223850027741 1.0122238836040316 0.73209160757732827 -0.027679364599711011 0.004159791779281218 0.0034474238036752221 0.39453775561654991 0.7346362599577646 0.28155194936851685 0.23545161305997347 0.21549080796447501 0.28382483496425748 0.29162901553230941 0.2341750659576958 0.27994564940733796 0.13318907347877659 0.1756257774961324 0.16238827519191654 1.0100556660374014 0.41738771608519692 0.21250383648397839 0.28039434727533863 0.17633759402883525 0.32342276366370726 0.59601657089304416 0.48232586390093019 0.32007913630729717 0.43062748058444955 0.59866756542670918 0.29159738160789117 0.28539906857380937 0.40792017225825056 0.32365744349107178 0.47585070567221027 0.21489434884506009 0.43051008431024973 0.67486440916802382 0.60220613257274869 0.67546640300477234 0.42940693486595233 0.73719361304396225 0.57529767231095563 0.7704254480327688 0.4029787709609377 0.57667388257635455 0.84340419252968224 0.76993870663358377 0.83200476725101724 0.88190567448249324 0.72743239169366514 0.73525561801879458 0.8456940473035357 0.55019241384852591 0.87672811167047837 0.8313030133548629 0.96099708391681959 0.83996648886842562 0.73552775040091978 0.98797397494645967 0.99110537962328149 1.0118851767692287 0.95002489090625519 0.97316634950962466 0.74698352174339067 0.90170384925561176 0.89929301240218695 1.0001080347878253 0.95879148580936302 1.0000319010000702 