<?xml version="1.0"?>
<VTKFile type="UnstructuredGrid" version="0.1" byte_order="LittleEndian">
<UnstructuredGrid>
<Piece NumberOfPoints="2028" NumberOfCells="724">
<Points>
<DataArray type="Float64" NumberOfComponents="3" format="ascii">
0 0.69999999999999996 0 0.59999999999999998 0.69999999999999996 0 0 1.6319639930219929 0 0.59999999999999998 0.69999999999999996 0 0 1.6319639930219929 0 0.94999999999923723 1.2749999999987469 0 0.59999999999999998 0.69999999999999996 0 0.94999999999923723 1.2749999999987469 0 0 1.6319639930219929 0 0.68142292217753131 2.106313194182027 0 0.94999999999923723 1.2749999999987469 0 0 1.6319639930219929 0 0.68142292217753131 2.106313194182027 0 0 2.430303940964651 0 1.299999999998378 1.8499999999973351 0 0.94999999999923723 1.2749999999987469 0 0.68142292217753131 2.106313194182027 0 1.299999999998378 1.8499999999973351 0 0.94999999999923723 1.2749999999987469 0 0.68142292217753131 2.106313194182027 0 1.299999999998378 1.8499999999973351 0 1.186467289461244 2.488259157846338 0 1.299999999998378 1.8499999999973351 0 1.649999999999066 2.4249999999984651 0 1.299999999998378 1.8499999999973351 0 1.186467289461244 2.488259157846338 0 1.649999999999066 2.4249999999984651 0 1.299999999998378 1.8499999999973351 0 0.94999999999923723 1.2749999999987469 0 1.626949751997165 1.3978044304614949 0 1.243750000001385 0.69999999999999996 0 0.94999999999923723 1.2749999999987469 0 1.626949751997165 1.3978044304614949 0 1.243750000001385 0.69999999999999996 0 1.887500000003292 0.69999999999999996 0 1.626949751997165 1.3978044304614949 0 0.59999999999999998 0.69999999999999996 0 1.243750000001385 0.69999999999999996 0 0.94999999999923723 1.2749999999987469 0 0.45714634023723411 3.4614941897304652 0 1.013301616169622 3.6128741719811099 0 0.56249999999824107 3.9749999999991399 0 0 3.7000000000000002 0 0.56249999999824107 3.9749999999991399 0 0 3.7000000000000002 0 0.45714634023723411 3.4614941897304652 0 0.56249999999824107 3.9749999999991399 0 0 3.1141786369756268 0 0.45714634023723411 3.4614941897304652 0 0.70993008501830757 2.9054181396964478 0 0 3.7000000000000002 0 0 3.1141786369756268 0 0.45714634023723411 3.4614941897304652 0 0.45714634023723411 3.4614941897304652 0 0.70993008501830757 2.9054181396964478 0 1.013301616169622 3.6128741719811099 0 0.68142292217753131 2.106313194182027 0 0.70993008501830757 2.9054181396964478 0 0 2.430303940964651 0 0 3.1141786369756268 0 0.70993008501830757 2.9054181396964478 0 0 2.430303940964651 0 0.68142292217753131 2.106313194182027 0 0.70993008501830757 2.9054181396964478 0 1.186467289461244 2.488259157846338 0 1.186467289461244 2.488259157846338 0 1.451787781083937 3.11022608666643 0 1.649999999999066 2.4249999999984651 0 0.70993008501830757 2.9054181396964478 0 1.186467289461244 2.488259157846338 0 1.451787781083937 3.11022608666643 0 0.70993008501830757 2.9054181396964478 0 1.451787781083937 3.11022608666643 0 1.013301616169622 3.6128741719811099 0 1.451787781083937 3.11022608666643 0 1.013301616169622 3.6128741719811099 0 1.593428957229921 3.8897035774451321 0 2.08333333333292 3.599999999997022 0 2.4236693135559251 3.5256579194055688 0 2.1666666666662731 4.1999999999971616 0 1.451787781083937 3.11022608666643 0 2.08333333333292 3.599999999997022 0 1.593428957229921 3.8897035774451321 0 1.451787781083937 3.11022608666643 0 2.08333333333292 3.599999999997022 0 2 3 0 2 3 0 2.6000000000000818 2.8399999999999781 0 2.4236693135559251 3.5256579194055688 0 2.08333333333292 3.599999999997022 0 2 3 0 2.08333333333292 3.599999999997022 0 2 3 0 2.4236693135559251 3.5256579194055688 0 2 3 0 2.2687831884271348 2.397628317379688 0 2.6000000000000818 2.8399999999999781 0 2 3 0 2.6000000000000818 2.8399999999999781 0 2 3 0 1.649999999999066 2.4249999999984651 0 1.451787781083937 3.11022608666643 0 2 3 0 1.649999999999066 2.4249999999984651 0 2 3 0 1.649999999999066 2.4249999999984651 0 2.2687831884271348 2.397628317379688 0 2.2687831884271348 2.397628317379688 0 2.8857059848027808 2.304389417342541 0 2.6000000000000818 2.8399999999999781 0 2.8857059848027808 2.304389417342541 0 2.6000000000000818 2.8399999999999781 0 3.2000000000001432 2.679999999999962 0 2.6000000000000818 2.8399999999999781 0 3.2000000000001432 2.679999999999962 0 3.2848100522576571 3.06994577157805 0 2.6000000000000818 2.8399999999999781 0 3.2000000000001432 2.679999999999962 0 2.6000000000000818 2.8399999999999781 0 2.9420158813362729 3.5139475164392531 0 2.4236693135559251 3.5256579194055688 0 2.6000000000000818 2.8399999999999781 0 2.9420158813362729 3.5139475164392531 0 3.2848100522576571 3.06994577157805 0 2.9420158813362729 3.5139475164392531 0 3.412636880282601 3.6134558579332841 0 3.1249999999889848 4 0 2.9420158813362729 3.5139475164392531 0 2.75 4 0 3.1249999999889848 4 0 2.9420158813362729 3.5139475164392531 0 2.4236693135559251 3.5256579194055688 0 2.75 4 0 2.23284951060374 1.369095413116082 0 1.887500000003292 0.69999999999999996 0 2.5312500000049418 0.69999999999999996 0 2.23284951060374 1.369095413116082 0 1.887500000003292 0.69999999999999996 0 1.626949751997165 1.3978044304614949 0 1.299999999998378 1.8499999999973351 0 1.626949751997165 1.3978044304614949 0 1.942890303101708 1.90249985684108 0 2.23284951060374 1.369095413116082 0 1.626949751997165 1.3978044304614949 0 1.942890303101708 1.90249985684108 0 1.649999999999066 2.4249999999984651 0 2.2687831884271348 2.397628317379688 0 1.942890303101708 1.90249985684108 0 1.299999999998378 1.8499999999973351 0 1.649999999999066 2.4249999999984651 0 1.942890303101708 1.90249985684108 0 2.2687831884271348 2.397628317379688 0 1.942890303101708 1.90249985684108 0 2.5341028426591712 1.9138806300960609 0 2.23284951060374 1.369095413116082 0 1.942890303101708 1.90249985684108 0 2.5341028426591712 1.9138806300960609 0 2.23284951060374 1.369095413116082 0 2.5341028426591712 1.9138806300960609 0 2.730231246675086 1.4599417336750831 0 2.2687831884271348 2.397628317379688 0 2.8857059848027808 2.304389417342541 0 2.5341028426591712 1.9138806300960609 0 2.8857059848027808 2.304389417342541 0 3.16379900756549 1.750659825629856 0 3.5028943452390711 2.1825773809523441 0 2.8857059848027808 2.304389417342541 0 2.5341028426591712 1.9138806300960609 0 3.16379900756549 1.750659825629856 0 2.5341028426591712 1.9138806300960609 0 3.16379900756549 1.750659825629856 0 2.730231246675086 1.4599417336750831 0 3.16379900756549 1.750659825629856 0 3.047698899035677 1.175177397439602 0 2.730231246675086 1.4599417336750831 0 3.047698899035677 1.175177397439602 0 2.730231246675086 1.4599417336750831 0 2.5312500000049418 0.69999999999999996 0 2.23284951060374 1.369095413116082 0 2.730231246675086 1.4599417336750831 0 2.5312500000049418 0.69999999999999996 0 3.047698899035677 1.175177397439602 0 2.5312500000049418 0.69999999999999996 0 3.1750000000065048 0.69999999999999996 0 3.047698899035677 1.175177397439602 0 3.1750000000065048 0.69999999999999996 0 3.638214240926366 1.265285427893069 0 3.1750000000065048 0.69999999999999996 0 3.638214240926366 1.265285427893069 0 3.8187500000045098 0.69999999999999996 0 3.16379900756549 1.750659825629856 0 3.047698899035677 1.175177397439602 0 3.638214240926366 1.265285427893069 0 3.638214240926366 1.265285427893069 0 3.8187500000045098 0.69999999999999996 0 4.2198317920941601 1.108273596938623 0 3.8187500000045098 0.69999999999999996 0 4.2198317920941601 1.108273596938623 0 4.4625000000026009 0.69999999999999996 0 3.638214240926366 1.265285427893069 0 4.2198317920941601 1.108273596938623 0 4.25 1.5 0 4.2198317920941601 1.108273596938623 0 4.7733688274428578 1.2511819424194319 0 4.25 1.5 0 4.2198317920941601 1.108273596938623 0 4.7733688274428578 1.2511819424194319 0 4.4625000000026009 0.69999999999999996 0 4.7733688274428578 1.2511819424194319 0 4.4625000000026009 0.69999999999999996 0 5.1062500000012143 0.69999999999999996 0 4.4000000000001336 2.3599999999999639 0 5 2.2000000000000002 0 4.6250000000004974 1.8500000000004651 0 4.4000000000001336 2.3599999999999639 0 5 2.2000000000000002 0 4.7733688274428578 1.2511819424194319 0 4.6250000000004974 1.8500000000004651 0 4.25 1.5 0 4.6250000000004974 1.8500000000004651 0 4.25 1.5 0 4.6250000000004974 1.8500000000004651 0 4.25 1.5 0 4.0559490150232032 2.028653202947901 0 4.25 1.5 0 4.0559490150232032 2.028653202947901 0 3.757799744899315 1.759341836734688 0 4.6250000000004974 1.8500000000004651 0 4.0559490150232032 2.028653202947901 0 4.4000000000001336 2.3599999999999639 0 4.0559490150232032 2.028653202947901 0 3.757799744899315 1.759341836734688 0 3.5028943452390711 2.1825773809523441 0 4.0559490150232032 2.028653202947901 0 3.5028943452390711 2.1825773809523441 0 3.8000000000002032 2.5199999999999458 0 3.638214240926366 1.265285427893069 0 4.25 1.5 0 3.757799744899315 1.759341836734688 0 3.16379900756549 1.750659825629856 0 3.638214240926366 1.265285427893069 0 3.757799744899315 1.759341836734688 0 3.16379900756549 1.750659825629856 0 3.757799744899315 1.759341836734688 0 3.5028943452390711 2.1825773809523441 0 2.8857059848027808 2.304389417342541 0 3.5028943452390711 2.1825773809523441 0 3.2000000000001432 2.679999999999962 0 3.2000000000001432 2.679999999999962 0 3.8000000000002032 2.5199999999999458 0 3.5028943452390711 2.1825773809523441 0 3.2000000000001432 2.679999999999962 0 3.8000000000002032 2.5199999999999458 0 3.2000000000001432 2.679999999999962 0 3.2848100522576571 3.06994577157805 0 3.8000000000002032 2.5199999999999458 0 3.2848100522576571 3.06994577157805 0 3.8000000000002032 2.5199999999999458 0 3.8190056356267248 3.2454749759848052 0 3.412636880282601 3.6134558579332841 0 3.5 4 0 3.1249999999889848 4 0 3.2848100522576571 3.06994577157805 0 3.412636880282601 3.6134558579332841 0 3.8190056356267248 3.2454749759848052 0 2.9420158813362729 3.5139475164392531 0 3.2848100522576571 3.06994577157805 0 3.412636880282601 3.6134558579332841 0 3.412636880282601 3.6134558579332841 0 3.874999999992375 3.7500000000050839 0 3.5 4 0 3.412636880282601 3.6134558579332841 0 3.819005635626
[...]
<PointData Scalars="A_conc," Vectors="" Tensors="">
<DataArray type="Float64" Name="A_conc" format="ascii">
0.41814103893589233 0.42854349038853073 0.84721120093983349 0.42819003358646657 0.84782999136912063 0.79415033862844242 0.38657458345099105 0.80954723088654401 0.78083336675819714 0.87835562473606577 0.75460285567008456 0.79109403321963379 0.87431580963739297 0.88176785974043992 0.87605378346598095 0.74793529488823096 0.87792056671323027 0.87314558737502057 0.75473250526912783 0.86176806080008483 0.86070307245740008 0.90402903386910838 0.8613016542681714 0.91150353274229512 0.86090354099433719 0.903573066006089 0.91177910817736096 0.49028710363409056 0.15536146595241901 0.31627944591659507 -0.06992346878257516 0.16585726985864874 0.29384484500665464 -0.079081324881600037 -0.065765540993721519 0.30114291981755292 -0.069738706060811714 -0.066052739484034839 0.15680116246216957 0.90153962969158741 0.90962659406586399 0.86964835951235442 0.88951925613548599 0.89123403556104919 0.86376775482310186 0.90213385283400493 0.86943891891218239 0.89470097335795418 0.89621371890769841 0.9114144798848357 0.87083498724558905 0.89971340170221459 0.89943487557232449 0.89636623845021524 0.91106774851391414 0.9049307076432771 0.86636664461450452 0.90905744173653313 0.86982528458683395 0.90298427186722274 0.91018206636555876 0.87229850241372342 0.86661478527505875 0.90849924107153335 0.9017126570714491 0.89895790398418141 0.92439782674102733 0.90690287071749365 0.90513601419921252 0.89871591862841893 0.92481633051320589 0.91086054987039999 0.92275847815749423 0.90491082606881201 0.92125253448767597 0.90363084347390032 0.91148896479716257 0.85566627129029937 0.86332210850882496 0.78787203834937025 0.92092527558106885 0.92591722452864689 0.91150867808855063 0.91970184863597937 0.9253992691512779 0.92965607355152224 0.91406935419767654 0.94492186791483546 0.86052521719349362 0.92538177993136084 0.92946586865697323 0.85712143001293528 0.91614264932536926 0.8597699988510954 0.78631794654889575 0.77505450594598946 0.87871164264082113 0.92910851433628616 0.93190366061022223 0.93150627984586309 0.90687207391118185 0.92421018863282389 0.93168351347142597 0.90689938927383196 0.78545036304572879 0.6523435981889576 0.77635851642217157 0.77786743053818408 0.84129011950033594 0.87438843264623911 0.83707385264071676 0.87510839540242058 0.91823092640415083 0.93598730148999498 0.93753143514417348 0.88420247076033387 0.93170809367012764 0.93320216014924751 0.94167376936570824 0.84463955868255902 0.86624393445036618 0.9383581635499465 0.84686018851674494 0.88439976646520524 0.85217900189986484 0.82289939701120862 0.7906206561712803 0.85390636749310156 0.79098993225951986 0.78968844506943292 0.84825401477342943 0.86485372753200451 0.78975839962454897 0.37798748769602714 -0.079989630377856669 -0.06057980922489134 0.37255815639073486 -0.070449729855994903 0.31213427477653499 0.49537070086784085 0.32506873185893764 0.66362956531399364 0.40956728141027071 0.31958737260077003 0.6675148932587659 0.66984522935711366 0.77407111027308362 0.67190664128231947 0.51914478136369402 0.68017184488950844 0.66932609875194249 0.77067666462746054 0.67493227357845875 0.76214320275513237 0.40864316454535565 0.67137493407586057 0.82408207731890681 0.4039565133295947 0.82634724017662742 0.57278369575284604 0.78220613301040531 0.86222380906913121 0.74546151381599679 0.85473215821092785 0.80450938706935282 0.90021389383668138 0.85852191280971812 0.74846327288365655 0.80382791596156578 0.81032502625263858 0.8810486717253746 0.58602569224584611 0.89393099686368493 0.37246285267813561 0.55946406522085024 0.30889859364549815 0.53095785236913573 -0.070794927718582201 0.3874174915975252 0.52673923184296267 -0.064370594642287518 0.27634612372200662 -0.028726621026090252 -0.0052568569335071222 0.28098005643814911 -0.0066024063211340168 0.39925994840951262 -0.0099768109332785664 0.40187869030743656 0.020666831905785318 0.89540313237470892 0.37077576149678809 0.62008673958898097 0.40592856244976566 0.019588642852026206 0.23458861658754732 0.10190549437050966 0.20128565702950524 0.14058143364543427 0.53673386090969577 0.32242307413146282 1.0513163713274289 0.32310882517655148 0.27637745438031125 1.0498844764278981 0.20195944172579802 0.19731725359744795 0.1413433276386849 0.18675392460947307 0.16998195188441517 0.2471843502336851 0.93564754063430067 0.93681294780504865 0.91680104302533993 0.93152166531605873 0.93877162655367108 0.27726920959806184 0.96614553871268749 1.0482481277656066 0.9520066447957185 0.80522318483849242 0.94801368839956524 0.81446288169012115 0.93232121489144903 0.81269787450082087 0.93506676362845886 0.83765779016158315 0.91679687208591787 0.90156911961185227 0.93255868103176809 0.92974621331464924 0.84780654614722806 0.90149078113223458 0.8971175889202363 0.88029472593685631 0.92802127926734435 0.67864001051903389 0.95259212031497942 0.89585216125666201 0.81230645901189336 0.68010725632196811 0.8961554175986296 0.80874945798324349 0.85633222185054636 0.89637984121394143 0.84001010870663839 0.87656546549616476 0.91513890317560442 0.93316677996512387 0.93444388226542097 0.87629734879004884 0.91281345748938281 0.93019465943061275 0.93805126240711023 0.88303021955359606 0.93158810671253323 0.88543201200629673 0.92679826442967883 0.83957503366786823 0.81918336561116811 0.83757846085278875 0.77266008552834031 0.88703795074761183 0.82445857283489554 0.83900947399613335 0.85081501219288969 0.88870429457570232 0.8229367852222732 0.81770424864921876 0.93165990529965514 0.8417760091139791 0.81857972671893819 0.87411074392021382 0.93027074431543755 0.88551063919470641 0.91872655067295239 0.9777840371042732 0.9156380891434821 0.89671790055533163 0.9642193229707694 0.96189154203905169 0.85104431383055013 0.8754907286702609 0.96479268606504454 0.85068714741695917 0.92054966562887686 0.96082649089842243 0.88621271785022604 0.97688809414577926 0.93686040654669589 0.95577818216545873 0.95305572914463632 0.97305225714820243 0.95136954416692365 0.95589179654967893 0.95295514377610691 0.95054761504384988 0.95528585421618795 0.91292323576042056 0.96205858281899814 0.89336622175684488 0.85004351835534553 0.93443468108406913 0.93565664140868621 0.92236019602533692 0.8518518172619135 0.91745488941430697 0.89741136307017366 0.9263767467867392 0.93418405056854048 0.92467862617299001 0.84179521708721572 0.85081734883492754 0.86065874748869087 0.81131485833507755 0.91253437561727735 0.93863593351037966 0.93306790141175522 0.97039962468646268 0.76287201205656563 0.99238710736236491 0.98661406277806873 0.72431247206524674 1.0045153487567726 0.83156511792572896 1.0105785599576993 0.98857913292683064 0.97413539336989374 0.97295735707343745 0.93399104153465007 0.97917276027046074 0.98159121753805501 0.93350055717125047 0.96962288022410426 0.98195670497178111 0.97480630432829352 0.96853301450172535 0.97472134080752948 0.97273309041710077 0.96780254139240074 0.97995797047109312 1.0118615230401402 0.93158694642501916 0.9912202110784335 0.98246479425234834 1.0106811746741697 0.97429672322080396 0.97392500261158554 0.0075049791493338371 0.11995590898072052 -0.0062274629964442834 0.95558899313027656 0.91209698051259747 0.94512002458481981 0.94929163302885544 0.97412273062771859 0.94933955510001633 0.97377763995806099 0.97276452390687451 0.95094149074187617 0.97017050272824257 0.0085005990364462949 0.2171655765166414 0.27145208007891936 0.76649769700847514 0.24544143655952896 0.29939830184038346 0.43922368540383683 0.23405623214703375 0.095298260518833125 0.0007664085734263484 0.30131420905556866 0.14521636418623965 0.46793694898716376 0.4948528199811244 0.23412504524369374 0.98762485835990432 0.98140423869127358 0.79006851514338916 0.23697941094754987 0.84666936504340196 0.47404922602016158 0.830666374889236 0.50260921443613171 0.85213552804837867 0.85841674508092081 0.94513623504234889 0.90271812625296799 0.98986234962559316 0.82696363318638266 0.8501394821149556 0.50476299361680244 0.98726921369706599 0.99014877261354894 0.8175989331243636 0.59011968958128769 0.8409944355862019 0.98949832497623125 0.99036948083896803 0.93715550769175959 0.94168778944323461 0.96132341810829536 0.84520203713581066 0.85192268138000826 0.9422928567663007 0.96016851331063013 0.9711752807330013 0.96692835121817711 0.98922711350935311 0.96198728670414657 0.99031138072204827 0.99079022833438002 1.0080400991913234 0.90617111578828224 0.91686550679072476 1.005866679369513 1.0089951896963536 0.90432934809730825 1.0092904301051646 0.90169848316955636 0.9343016925513089 0.90295930327687923 0.36148245461213058 0.80471040574648744 0.39576760217267831 0.5439468672097777 0.61910557706191771 0.44158617324468119 0.32304311844947831 0.3950265424038929 0.54408938144756391 0.32983623076117624 0.9069428575380164 0.35914672381920471 0.3094582572427525 0.27127928692949854 0.39707653340467158 0.43450493296898596 0.32249519226358847 0.25690954322609189 0.18497885139765438 0.29199754013651813 0.25095355168277866 0.21640437061106557 0.26577723995037178 0.39329785644017151 0.10178171101486368 0.97096679969753241 0.2755785502994858 0.53545401501785994 0.40515183905804053 0.91950691626275083 0.93886113132591742 0.99217146504596465 0.70827228832317357 0.26642817228505772 0.93028423935538673 0.94984678237699527 0.80230154155617028 0.98241825550296724 0.91686359035761666 0.93088275281552235 0.90895387729078225 0.30726787960172874 0.76543626785197749 0.90385571713399704 0.94961202901238229 0.80235186819298843 0.62594137279634865 0.3862438656850764 0.4420071574557301 0.63447693998697197 0.63392744206267804 0.39649667937066801 0.63240747314630352 0.39707968866407006 0.42786674506669031 0.91004953124503651 0.54393517831714444 0.60491478869741222 0.54028241642604979 0.60068754729011808 0.36354408544862121 0.56556707423395824 0.8964227587981225 0.49845274244047433 0.90579565018420483 0.92158974474425537 0.90263175732844092 0.5489230694318189 0.90630006431271082 0.92140416685121063 0.93260896599040777 0.88647282540155625 0.87866556421144704 0.50724278588463356 0.86293443323577468 0.5372217420710419 0.72127134418326022 0.93210507257150232 0.93931156215535949 0.63450185947336668 0.66282360754582836 0.85041850425875198 0.62726499026245497 0.44275980139264143 0.67791484246523426 0.45234020423751764 0.63475358480176713 0.66175408649427947 0.62276554906897308 0.68666853792184024 0.82599914645821781 0.68898639994360167 0.82829102452458414 0.88909241940495887 0.69021439232746706 0.82765945424467968 0.81934174746257582 0.95635628407371309 0.96023233974964306 0.96822522173099035 0.94799918555883567 0.96535125522886622 0.93961573999087322 0.82450318588742455 0.81491782816668623 0.97204825327481847 0.95428264913164496 0.97650857981385686 0.95384542201714317 0.97887997714943609 0.94362583880696094 0.9853111289228681 0.98836153976653751 0.97865673859541569 0.98621296001800385 0.97853287641675779 0.9724747873730496 0.97139405948122115 0.98923536130534429 0.9757064773968025 0.99087119415268821 0.98998639618208673 0.9802916341604192 0.95205386860505181 0.97324218491922121 0.95109795286772325 0.97601702895606013 0.95498054125783471 0.98814926314663842 0.97316861472797156 0.98256722226109516 0.97543529511372251 0.98252889781701824 0.97178239491185214 0.97552286454324211 0.97352175276581654 0.95367310895420665 0.98182162752883784 0.96922016794189492 0.95892166797729794 0.95281279023052967 0.93767174204598924 0.95283299319059389 0.93351213925007992 0.93806900034204399 0.95186100722647482 0.94408369895671851 0.87517720506815999 0.84454929487453412 0.96038960158537734 0.76882116170884263 0.93053376753322492 0.81456290789557884 0.79993550365774357 0.64599603622526403 0.82033790833173614 0.81084582980200082 0.99014943440909964 0.98794757467575667 0.95144083467180152 0.95662333182814951 0.92459039196960935 0.79075313342968523 0.81607737667921076 0.95608234213042764 0.92110908016157955 0.93322569433351077 0.79250413542024312 0.63386159364749139 0.82448907556394879 0.64350734956139932 0.61746051967014959 0.8155426282151943 0.56884955421316352 0.88469731089998882 1.0287424441971853 0.97307236360142857 0.97226796839194984 0.55253283280078913 1.0387316867181318 0.9731082985102425 0.82477044146775247 0.82480365508818865 0.9689530747887638 0.97227696695073706 0.97014058896573652 0.82572193290093376 0.92722625017974614 0.9669337664961698 0.82308472152618195 0.97187007182957419 0.85404154825546053 0.92992616910504489 0.95640920826083275 0.91511871075030715 0.92993807239826798 0.91545237385597322 0.91362750672831428 0.8436608490683325 0.96181307277861239 0.87383174797692942 0.91134226014320074 0.95237054746944128 0.94361408447120709 0.91692406885141431 0.9494992020522357 0.85104919240247656 0.88522330966810747 0.91399790367818889 0.91587897298217813 0.9133982831933688 0.90412222620742266 0.92619796481369543 0.9063218988445817 0.89508160645811308 0.92328003262019198 0.91055813644663097 0.89927242832204468 0.91359704233643979 0.90436648885359183 0.89706052361648514 0.36968520264231902 0.38238825757185924 0.29786685290061854 0.85636551370005409 0.85099473199374664 0.65014011053417098 0.62010023645059031 0.63559866261262321 0.59402968590317995 0.97526677633178771 0.85262524843875898 0.85718970681273954 0.95125207268166978 0.92569291850857904 0.89549569176167798 0.60672611855979819 0.56582935492007247 0.5104763892151728 0.64639428049516301 0.60551618085121384 0.56666472571870186 0.9103523573759873 0.92383507630105699 0.9203950183535381 0.95106981703281612 0.92347587834284806 0.76701326513639012 0.94472767288897053 0.72540794893769012 1.0075027938201371 0.5963316767441238 0.50102681653129733 0.99394735625440089 0.95725879499415301 0.60184340996065544 0.92183422925955605 0.89482802125281724 0.93480736080860061 0.927525365539138 0.93157086311041892 0.92854802767132416 0.93155358439246239 0.66893047118273252 0.52025807529878687 0.61789591166282076 0.91665258080828227 0.92000503866475536 0.9321444378929381 0.8994618701211865 0.93506806885908933 0.66735561045486314 0.6175939576772892 0.86018506125387728 0.87972082523825257 0.9146201434008101 0.65443762785811355 0.34929543922429346 0.97060231056569712 0.96595331377196614 0.82348041519055515 0.85499931692549969 0.79357613082225342 0.65188654185691763 0.68180393700530417 0.88279964311201953 0.96826223812617562 0.52431048438765171 0.90546905699130287 0.88204039881623708 0.5800636471105135 0.90816157638481365 0.35685002755867895 0.22190841440265216 0.23907538203209439 0.23640402586998566 0.3220822249551793 0.16969078237637464 0.91521592511899796 0.87000718821215173 0.58649126532035378 0.68548128948156051 0.87412334187319396 0.58327873046813383 0.47131468355894091 0.25889258461399933 0.33279033134075803 0.47769891499323497 0.25154950772346268 0.23967004073043199 0.27933396794476339 0.17754495893269029 0.27678169434910316 0.18808598224119849 0.17867490050331158 0.58200068569167573 0.99249297216280519 0.31184285316712146 0.98365743513772996 0.65130742724776369 0.89508319298329486 0.30926822778905866 0.93392295046934359 0.068382474396495474 0.97563550499687246 0.34609774619269196 0.92510822202530851 0.94556746627045951 0.78314889797235909 0.95372295987605438 0.78091683194738437 0.75202993871136825 0.95931975385954904 0.92764899953691293 0.92295886395379723 0.9207965167523251 0.92263952198426658 0.8828524944666073 0.78613665488051077 0.94670470144046848 0.9553145831498685 0.92320676312001226 0.91726008311272067 0.9236080523414314 0.88195044070301898 0.90124996021616954 0.91824024410775884 0.90862609730248434 0.90317388570769808 0.92904388943229055 0.90599442927717333 0.90972540077040864 0.91794584521014178 0.90868180140727961 0.78238226675037914 0.95883473319881984 0.88720567789269655 0.84820992437509635 0.95461286139419965 0.48829471857153345 0.78869532140960774 0.73901369059628097 0.81272628849884365 0.86747454066298513 0.78809447935189825 0.81155310251154988 0.62347289186189325 0.62238618138321589 0.79415692189507259 0.63166322173091638 0.73943935936489646 0.75507754002927552 0.27230222535128057 0.56294710151431682 0.91344937940722915 0.8970789186987197 0.89498972643506924 0.85020714648771178 0.84357713495200148 0.84447930262380255 0.83342118852868841 0.91308103854954537 0.91468168760189683 0.89411201146821029 0.91556936973557612 0.89404581996860044 0.8807147898495038 0.89707775613824037 0.81680285451456158 0.82365113315791871 0.91822979742508659 0.91352981517702447 0.93024564761429795 0.88473055854378757 0.81832145630566644 0.93179845222402102 0.89601054192450647 0.81691660058334259 0.92870931561050551 0.91827580550360932 0.89889596822463669 0.86996924291498712 0.88664256182339118 0.8801040067483894 0.84274901525106194 0.89905431551659132 0.78640551520285595 0.91929977530230378 0.9249022885220175 0.87798267993611845 0.84817710970085425 0.89347550618659932 0.75811387070633729 0.93152362618794715 0.73855285901579082 0.69405342090395628 0.81581694137603422 0.90823833681013022 0.88195601662466427 0.92079802889527429 0.90982933359440699 0.91946204245593455 0.89576448063349701 0.8943964273799605 0.88458432015399702 0.92067299861538421 0.91372550204556913 0.92627776845320875 0.91877115002357279 0.90873300602682228 0.92588808363491926 0.91871623749426412 0.89290267554900038 0.89122378861743468 0.90999743306662562 0.87502810550943966 0.8685061348056351 0.9092166171406072 0.87530522961458712 0.91412142418607345 0.88432991462817467 0.87229575399818815 0.91472089227073961 0.89441368522869558 0.89288932081309136 0.8889894015314409 0.89195997704998953 0.79357384507015438 0.89318444077155945 0.79260508896673676 0.82367412224299141 0.84576103847989781 0.90530812736850663 0.90235535093948771 0.80455524421718894 0.88695070403448495 0.79678806712853933 0.84242440304696831 0.83907531686779424 0.89984132446752951 0.84528972485843079 0.8389746906790152 0.903510239266618 0.81715526324186749 0.82895280107412173 0.79003020655395706 0.81811874624593195 0.79485206104634343 0.78463754979619116 0.82268591886915221 0.82020782838482809 0.89494970000487883 0.88762646952131752 0.81891284481439497 0.89512296074856257 0.89371069087698196 0.82322616903085266 0.89381024304753509 0.92472647094924354 0.92206580486857814 0.81562094247918882 0.95628785259424209 0.6797321973760625 0.48710260477282752 0.91176789048254392 0.91254445014453023 0.882208072244272 0.91327882911327751 0.9104135355378713 0.88306275344328966 0.91600153832098286 0.87591824702165688 0.91074278663853725 0.88286514091235679 0.8866572562541376 0.88294772869714211 0.88682966875960167 0.86949645848168133 0.84619576987666356 0.90040663555849298 0.88528892121608604 0.92388368288966616 0.82347220018432166 0.81459907846950397 0.91447040147615954 0.88807394560618735 0.83898441388068146 0.93412956244621004 0.68694469005899339 -0.087654365887044533 0.63485535822836647 -0.064187054575970223 -0.086092678618681445 0.64167595483570394 -0.067107931641123289 0.30469572715628246 0.14613121451771563 0.12455440795519845 0.1717614856886332 0.19257518382847777 0.145616364431288 0.17361668776855407 0.060570829777613605 0.19532815666244163 0.089046314674148475 0.92980177207014836 0.07171668526056986 0.32995289577586545 0.12284619813930106 0.19719192674666425 0.088946111655432675 0.20475111939880317 0.43986405961342934 0.33841784380105983 0.19937948271498362 0.44446182906002873 0.29402255226346335 0.19325450519981299 0.27726589367705734 0.17434147078501339 0.20554111650520401 0.32994171865369393 0.12165449677915892 0.52298859193249625 0.45119601198565645 0.29327292973572322 0.52516765963311596 0.29018245638783913 0.58544374384346787 0.42628965894512227 0.26152709534553925 0.62763062337497122 0.42705442582638742 0.63480486571664307 0.72119253235913405 0.58861796128184729 0.71657286476009074 0.7823763102608392 0.39508475115788366 0.7250315227487677 0.59611321636285042 0.71687467766171731 0.90154541547506184 0.7798004059441227 0.72575599106661004 0.92641155086666793 0.59782232632744425 0.89256718924199208 0.97035406134703106 1.0161783777054225 0.91713192158603252 0.81233090127687924 0.60411820405264349 0.9057467480663145 0.81165563128895246 0.9781885374639