<?xml version="1.0"?>
<VTKFile type="UnstructuredGrid" version="0.1" byte_order="LittleEndian">
<UnstructuredGrid>
<Piece NumberOfPoints="2028" NumberOfCells="724">
<Points>
<DataArray type="Float64" NumberOfComponents="3" format="ascii">
0 3.7000000000000002 0 0.56249999999824107 3.9749999999991399 0 0 0.69999999999999996 0 0 1.6319639930219929 0 0.59999999999999998 0.69999999999999996 0 0.59999999999999998 0.69999999999999996 0 0 1.6319639930219929 0 0.94999999999923723 1.2749999999987469 0 1.243750000001385 0.69999999999999996 0 0.59999999999999998 0.69999999999999996 0 0.94999999999923723 1.2749999999987469 0 1.626949751997165 1.3978044304614949 0 1.887500000003292 0.69999999999999996 0 1.243750000001385 0.69999999999999996 0 0.94999999999923723 1.2749999999987469 0 1.626949751997165 1.3978044304614949 0 1.243750000001385 0.69999999999999996 0 0.68142292217753131 2.106313194182027 0 1.299999999998378 1.8499999999973351 0 0.94999999999923723 1.2749999999987469 0 1.299999999998378 1.8499999999973351 0 1.626949751997165 1.3978044304614949 0 0.94999999999923723 1.2749999999987469 0 1.299999999998378 1.8499999999973351 0 1.186467289461244 2.488259157846338 0 1.649999999999066 2.4249999999984651 0 1.299999999998378 1.8499999999973351 0 0.68142292217753131 2.106313194182027 0 1.186467289461244 2.488259157846338 0 0 1.6319639930219929 0 0.68142292217753131 2.106313194182027 0 0.94999999999923723 1.2749999999987469 0 0 2.430303940964651 0 0.68142292217753131 2.106313194182027 0 0 1.6319639930219929 0 0.68142292217753131 2.106313194182027 0 0 2.430303940964651 0 0.70993008501830757 2.9054181396964478 0 0 3.1141786369756268 0 0.70993008501830757 2.9054181396964478 0 0 2.430303940964651 0 0.45714634023723411 3.4614941897304652 0 0.70993008501830757 2.9054181396964478 0 0 3.1141786369756268 0 0 3.7000000000000002 0 0.45714634023723411 3.4614941897304652 0 0 3.1141786369756268 0 0.45714634023723411 3.4614941897304652 0 0 3.7000000000000002 0 0.56249999999824107 3.9749999999991399 0 0.45714634023723411 3.4614941897304652 0 0.56249999999824107 3.9749999999991399 0 1.013301616169622 3.6128741719811099 0 0.70993008501830757 2.9054181396964478 0 0.45714634023723411 3.4614941897304652 0 1.013301616169622 3.6128741719811099 0 1.013301616169622 3.6128741719811099 0 1.451787781083937 3.11022608666643 0 0.70993008501830757 2.9054181396964478 0 1.451787781083937 3.11022608666643 0 1.013301616169622 3.6128741719811099 0 1.593428957229921 3.8897035774451321 0 1.186467289461244 2.488259157846338 0 0.70993008501830757 2.9054181396964478 0 1.451787781083937 3.11022608666643 0 0.70993008501830757 2.9054181396964478 0 1.186467289461244 2.488259157846338 0 0.68142292217753131 2.106313194182027 0 1.649999999999066 2.4249999999984651 0 1.186467289461244 2.488259157846338 0 1.451787781083937 3.11022608666643 0 0.59999999999999998 0.69999999999999996 0 0.94999999999923723 1.2749999999987469 0 2.2687831884271348 2.397628317379688 0 1.649999999999066 2.4249999999984651 0 2 3 0 2.6000000000000818 2.8399999999999781 0 2.2687831884271348 2.397628317379688 0 2 3 0 1.649999999999066 2.4249999999984651 0 1.451787781083937 3.11022608666643 0 2 3 0 1.451787781083937 3.11022608666643 0 2.08333333333292 3.599999999997022 0 2 3 0 1.593428957229921 3.8897035774451321 0 2.08333333333292 3.599999999997022 0 1.451787781083937 3.11022608666643 0 2.4236693135559251 3.5256579194055688 0 2.1666666666662731 4.1999999999971616 0 2.08333333333292 3.599999999997022 0 2.4236693135559251 3.5256579194055688 0 2 3 0 2.6000000000000818 2.8399999999999781 0 2.08333333333292 3.599999999997022 0 2 3 0 2.4236693135559251 3.5256579194055688 0 2.6000000000000818 2.8399999999999781 0 2.9420158813362729 3.5139475164392531 0 2.4236693135559251 3.5256579194055688 0 2.4236693135559251 3.5256579194055688 0 2.9420158813362729 3.5139475164392531 0 2.75 4 0 2.9420158813362729 3.5139475164392531 0 3.412636880282601 3.6134558579332841 0 3.1249999999889848 4 0 3.1249999999889848 4 0 2.75 4 0 2.9420158813362729 3.5139475164392531 0 2.6000000000000818 2.8399999999999781 0 3.2848100522576571 3.06994577157805 0 2.9420158813362729 3.5139475164392531 0 3.2848100522576571 3.06994577157805 0 2.6000000000000818 2.8399999999999781 0 3.2000000000001432 2.679999999999962 0 2.2687831884271348 2.397628317379688 0 2.6000000000000818 2.8399999999999781 0 2.8857059848027808 2.304389417342541 0 2.8857059848027808 2.304389417342541 0 2.6000000000000818 2.8399999999999781 0 3.2000000000001432 2.679999999999962 0 3.5028943452390711 2.1825773809523441 0 3.16379900756549 1.750659825629856 0 2.8857059848027808 2.304389417342541 0 2.8857059848027808 2.304389417342541 0 3.16379900756549 1.750659825629856 0 2.5341028426591712 1.9138806300960609 0 2.5341028426591712 1.9138806300960609 0 3.16379900756549 1.750659825629856 0 2.730231246675086 1.4599417336750831 0 2.730231246675086 1.4599417336750831 0 2.23284951060374 1.369095413116082 0 2.5341028426591712 1.9138806300960609 0 2.5341028426591712 1.9138806300960609 0 2.2687831884271348 2.397628317379688 0 2.8857059848027808 2.304389417342541 0 2.5341028426591712 1.9138806300960609 0 1.942890303101708 1.90249985684108 0 2.2687831884271348 2.397628317379688 0 1.942890303101708 1.90249985684108 0 1.649999999999066 2.4249999999984651 0 2.2687831884271348 2.397628317379688 0 1.649999999999066 2.4249999999984651 0 1.942890303101708 1.90249985684108 0 1.299999999998378 1.8499999999973351 0 1.942890303101708 1.90249985684108 0 1.626949751997165 1.3978044304614949 0 1.299999999998378 1.8499999999973351 0 2.23284951060374 1.369095413116082 0 1.626949751997165 1.3978044304614949 0 1.942890303101708 1.90249985684108 0 2.23284951060374 1.369095413116082 0 1.942890303101708 1.90249985684108 0 2.5341028426591712 1.9138806300960609 0 2.23284951060374 1.369095413116082 0 1.887500000003292 0.69999999999999996 0 1.626949751997165 1.3978044304614949 0 1.887500000003292 0.69999999999999996 0 2.23284951060374 1.369095413116082 0 2.5312500000049418 0.69999999999999996 0 2.5312500000049418 0.69999999999999996 0 2.730231246675086 1.4599417336750831 0 3.047698899035677 1.175177397439602 0 2.23284951060374 1.369095413116082 0 2.730231246675086 1.4599417336750831 0 2.5312500000049418 0.69999999999999996 0 3.047698899035677 1.175177397439602 0 2.730231246675086 1.4599417336750831 0 3.16379900756549 1.750659825629856 0 2.5312500000049418 0.69999999999999996 0 3.047698899035677 1.175177397439602 0 3.1750000000065048 0.69999999999999996 0 0.94999999999923723 1.2749999999987469 0 1.299999999998378 1.8499999999973351 0 3.047698899035677 1.175177397439602 0 3.638214240926366 1.265285427893069 0 3.1750000000065048 0.69999999999999996 0 3.1750000000065048 0.69999999999999996 0 3.638214240926366 1.265285427893069 0 3.8187500000045098 0.69999999999999996 0 0.56249999999824107 3.9749999999991399 0 1.1249999999964171 4.2499999999982494 0 3.8187500000045098 0.69999999999999996 0 3.638214240926366 1.265285427893069 0 4.2198317920941601 1.108273596938623 0 3.638214240926366 1.265285427893069 0 3.047698899035677 1.175177397439602 0 3.16379900756549 1.750659825629856 0 3.638214240926366 1.265285427893069 0 3.16379900756549 1.750659825629856 0 3.757799744899315 1.759341836734688 0 3.757799744899315 1.759341836734688 0 3.16379900756549 1.750659825629856 0 3.5028943452390711 2.1825773809523441 0 4.0559490150232032 2.028653202947901 0 3.5028943452390711 2.1825773809523441 0 3.8000000000002032 2.5199999999999458 0 3.757799744899315 1.759341836734688 0 3.5028943452390711 2.1825773809523441 0 4.0559490150232032 2.028653202947901 0 3.757799744899315 1.759341836734688 0 4.25 1.5 0 3.638214240926366 1.265285427893069 0 4.0559490150232032 2.028653202947901 0 4.6250000000004974 1.8500000000004651 0 4.25 1.5 0 3.757799744899315 1.759341836734688 0 4.0559490150232032 2.028653202947901 0 4.25 1.5 0 4.6250000000004974 1.8500000000004651 0 4.0559490150232032 2.028653202947901 0 4.4000000000001336 2.3599999999999639 0 4.6250000000004974 1.8500000000004651 0 4.4000000000001336 2.3599999999999639 0 5 2.2000000000000002 0 4.7733688274428578 1.2511819424194319 0 4.25 1.5 0 4.6250000000004974 1.8500000000004651 0 4.2198317920941601 1.108273596938623 0 4.25 1.5 0 4.7733688274428578 1.2511819424194319 0 4.25 1.5 0 4.2198317920941601 1.108273596938623 0 3.638214240926366 1.265285427893069 0 3.8187500000045098 0.69999999999999996 0 4.2198317920941601 1.108273596938623 0 4.4625000000026009 0.69999999999999996 0 5.1062500000012143 0.69999999999999996 0 4.4625000000026009 0.69999999999999996 0 4.7733688274428578 1.2511819424194319 0 4.4625000000026009 0.69999999999999996 0 4.2198317920941601 1.108273596938623 0 4.7733688274428578 1.2511819424194319 0 4.7733688274428578 1.2511819424194319 0 5.5000000000008269 1.1999999999983459 0 5.1062500000012143 0.69999999999999996 0 5.5000000000008269 1.1999999999983459 0 4.7733688274428578 1.2511819424194319 0 5.2500000000007052 1.6999999999985891 0 5.1062500000012143 0.69999999999999996 0 5.5000000000008269 1.1999999999983459 0 5.75 0.69999999999999996 0 5.75 0.69999999999999996 0 5.5000000000008269 1.1999999999983459 0 6.1230253171455891 1.2440604005832661 0 6.4375000000000027 0.69999999999999996 0 5.75 0.69999999999999996 0 6.1230253171455891 1.2440604005832661 0 5.8758020027701336 1.829281458631685 0 6.1230253171455891 1.2440604005832661 0 5.5000000000008269 1.1999999999983459 0 6.6325887022434813 1.7109098098422979 0 6.1230253171455891 1.2440604005832661 0 5.8758020027701336 1.829281458631685 0 6.3749999999999796 2.350000000000005 0 6.6325887022434813 1.7109098098422979 0 5.8758020027701336 1.829281458631685 0 6.3749999999999796 2.350000000000005 0 5.8758020027701336 1.829281458631685 0 5.75 2.5 0 5.4251604005540912 2.1458562917259631 0 5.75 2.5 0 5.8758020027701336 1.829281458631685 0 5.4251604005540912 2.1458562917259631 0 5.2500000000007052 1.6999999999985891 0 5 2.2000000000000002 0 5.2499999999996163 2.499999999999539 0 5.4251604005540912 2.1458562917259631 0 5 2.2000000000000002 0 5.875802002770
[...]
<PointData Scalars="A_conc," Vectors="" Tensors="">
<DataArray type="Float64" Name="A_conc" format="ascii">
0.49958643805215569 0.50554290442244598 0.14307342892688876 0.40388047113870112 0.16095500814154073 0.15962415085583226 0.40672475572790534 0.39492271362135511 -0.010501160072525767 -0.0082665277013323143 0.011959236914059696 0.034266625308750812 -0.016010607622996307 -0.014678396076969736 0.014142376084178395 0.031712019074231219 -0.011742635411947984 0.48377176346144635 0.50049848939301711 0.37810721833370159 0.052753607042454159 0.035773225520830801 0.010293454552784565 0.49619906192657698 0.55646546154260179 0.59037289053674535 0.4966886476260064 0.47263068200373076 0.55589000477567596 0.36891539777776339 0.48226873898493594 0.37919562939252449 0.46327036927098808 0.48119773755256917 0.3762064715789169 0.48028755305373544 0.45405168805181811 0.53971494665454589 0.49269034650773802 0.54253652552418608 0.45942378525422778 0.48013965833598732 0.55002731053906107 0.47529166051078214 0.39671986656087693 0.48445062050660981 0.48604800529737507 0.48891636103188574 0.38171961696362394 0.40469584913487289 0.48972726639651798 0.40439045648066363 0.52529574329726791 0.55022520299393296 0.48006417552358183 0.51890822465382336 0.51893193890254785 0.60412925924365457 0.5502966067713172 0.60120424452175936 0.51520368468312516 0.55653958325762964 0.55051254319740306 0.53622333770936959 0.61027862937262289 0.54048074448399153 0.55336928613668657 0.47971612579559547 0.58899812992182832 0.55006428368944849 0.61049408288687401 0.13488029917512659 0.40261236719282933 0.18572833859114268 0.092376839992315135 0.21476582128544774 0.38820605110783624 0.18736803293235796 0.23071687041623326 0.58865650516164092 0.61095068246123829 0.65692530866108267 0.59564008638100419 0.63226746798743438 0.65557192755940663 0.55650354145347214 0.63296063324801299 0.60117647055088097 0.37700491337258474 0.23052791894279592 0.34787082201489039 0.3816909274795186 0.51510461525608009 0.64892548894570423 0.35399583095875964 0.51246758099474832 0.38265336839573566 0.65091386943268537 0.3311259665959882 0.39831547995868682 0.37502168210534431 0.34312073551419237 0.24566686422498077 0.37489114779626392 0.31164090055191812 0.25256068638874796 0.25400255482011197 0.25928653088949133 0.37213391716649147 0.65381025586290298 0.45277364851898383 0.32918838512637894 0.4502435970210063 0.66463490180493034 0.67806600067743794 0.18291849371445532 0.39514291815161212 0.29487386765201334 0.29338750403343111 0.40759765624994176 0.54374023904727431 0.42700626768574834 0.23087471278256072 0.32123773432460978 0.31576656154278865 0.23140338233857782 0.16501093130667593 0.17699006070119849 0.24556411452751142 0.13209098117761256 0.12501002050736135 0.062006584457325903 0.17807652376820801 0.1694600925039963 0.20677445539812489 0.30992006349789281 0.16907845637064539 0.098688383140759325 0.19853835658400742 0.10198630001982206 0.11855847276815576 0.19347303289140605 0.1130757628535996 0.10042952040690115 0.050638720696204079 0.10124623663491035 0.037995620356418361 0.056186092634466153 0.06649906226890151 0.034945237659397214 0.10515842817196883 0.066684373684009784 0.10905142517270432 0.17299218801158209 0.054511604072634653 -0.018253159467699807 0.038620287129072187 -0.023182516286156096 0.057811313174083931 -0.024471465257832316 -0.033378943921463886 0.1072701479513241 0.054823384718155538 0.064094881504505319 0.10299626986396378 -0.027656871125925572 0.078124447202241529 0.12194428877027526 0.2539051956246548 -0.020377306240816562 0.04346422365590643 -0.02209062947867789 0.3731227805211158 0.50189978639925081 0.047760360845631435 0.081929946850628113 -0.024289760923556804 -0.028573197136287091 0.085231936441630393 -0.028249151621734407 0.50551121438182001 0.51139310017492023 -0.031522585034888757 0.091861641027080665 0.028324333810767155 0.19926362563478642 0.074266250933097563 0.25909442442075881 0.23320871159217924 0.22753600287569609 0.31352550273646523 0.34493335683386528 0.22492628175181351 0.43272284740975642 0.47434910366007627 0.40774374154940102 0.62877822024246621 0.35171731358913955 0.43237320701512366 0.53064459599601999 0.31716993674756228 0.39805904400924585 0.2307616798431639 0.55155263830375256 0.63043456439429102 0.2872788617231089 0.32842774069481001 0.54737902848463604 0.29003678253378551 0.57451238874342703 0.49521634399483327 0.66468802000673544 0.57495827976467206 0.66358940308250436 0.70901499051372097 0.023864787700344951 0.50973360057320538 0.58407041723482722 0.047291508829668739 0.49630690329024268 0.031167335432505962 0.48284937411476164 0.057056124715393765 0.15253784642704132 -0.0026456599358233635 0.017044663340145792 -0.0013008308954606668 0.0087479197657860195 0.0042054486156060918 0.0076224565700717204 -0.0018243048896016759 0.018261326768360141 0.010453207357684787 0.0076965538292590539 0.0091747264728732295 0.0091140335860857794 0.0051769349886817209 0.015943883763159125 0.048810224801494453 0.012894332788537423 0.012846476917713311 0.033888704435162037 0.057725778176466937 -0.00021785558045104984 0.0070522400569444669 0.079012132531854129 0.06030437435443961 0.0060359324386768535 0.28847961918826653 0.01808350116859158 0.00014780353524185982 0.29658634021711944 0.011412183562550105 0.30280631539803454 0.82503931561459765 0.32483498689342732 0.31689847115033737 0.82653340878613024 0.31102511412536515 0.79682256179372757 0.45957963961067116 0.79452140340792032 0.31284564172857154 0.44782704252684791 0.16140402977717488 0.40582470854394853 0.61270216010314271 0.46329657917323003 0.40049596981790103 0.28001300190279821 0.011141247017873335 0.1888063878198353 0.15681076873177099 0.44972836084861934 0.30326366274881156 -0.071700861640526845 -0.14256902352144885 0.55389198415519592 -0.10997898126280874 0.64795403011960173 0.37077046902154398 0.49570878887785813 0.59053151814943028 0.51134583009139001 0.51657372670743829 0.43232217508780613 0.55334269677671055 0.77688512531401643 0.27078968333983239 0.75575866736876984 0.76405062239573618 0.55645611675625628 0.75436911098737436 0.69756935400846976 0.55647971394547568 0.76416949999897654 0.77139257600294775 0.7171117211512591 0.74935162803424438 0.80287303706630597 0.55821355460083255 0.68339272040443344 0.46217940309814742 0.6156941836437716 0.79284094293797269 0.70522128073280499 0.5448674192707067 0.54098563666748023 0.52245450180979769 0.54922268226700077 0.39185985273121737 0.5210638562408122 0.39246389917384106 0.40956201345719229 0.2124132579888374 0.19036278481139826 -0.042218177541386404 0.048489335382327227 0.050944406943821359 0.20610107730598995 0.37493284791472908 0.42025273192815027 0.57019374654051758 0.035077796877514549 0.26769794770557032 0.241017803433167 0.24040745272800532 0.1027551371728725 0.3738457844518247 0.04405870017041455 0.0039038058724720271 0.044857555007696698 0.0063552724651142279 0.012252401168946129 -0.0048832334012045269 -0.0012545709191621986 0.0067538572162328834 0.033988471180189918 -0.010715752831805344 0.14218272986280123 0.020317247559250025 -0.0068716066127064504 0.012566500615547357 -0.0015096386998446204 0.71025177567201481 0.73768174846454593 0.65370170440749176 0.60768835841514945 0.71020710001184828 0.65400687419502168 -0.0030177986787900874 -0.00051187614528277017 0.0040279110298273154 0.66809899092484315 0.53708387290841708 0.62392575334558009 0.37889872515044115 0.63880167992013448 0.49205019396037281 0.62667850037433104 0.38235797758420603 0.42358208914247752 0.38176859275066438 0.62756198236277727 0.63846586796780147 0.56270762646706962 0.66034622880518301 0.424806014760432 0.70540943580785431 0.64021475985610987 0.60168240479187485 0.64020523248913375 0.60595183385576379 0.60177012855080858 0.59764306545046941 0.32238286789476767 0.38168771297746801 0.5572582994846107 0.55681294337328857 0.69737250820409835 0.75597260811510281 0.22435971233135724 0.76737125692786101 0.35417508195090092 0.62807516377550299 0.61380281289308081 0.67092201242437888 0.47489912933393286 0.62882502602469481 0.626863809978218 0.35448924936720921 0.33695532398881289 0.33880826226154603 0.48110756830058321 0.62538252880273293 0.39702780961568312 0.55138218221470514 0.63153342494763309 0.28967569298389689 0.54754383852316513 0.39698782065716193 0.45137049462958684 0.67801570681953749 0.65562456919195788 0.47714635307264164 0.3116890437494696 0.37692670743596157 0.47927749984070317 0.33930910045947044 0.30969296062401835 0.42567373558016713 0.65933403036623461 0.49276355574229791 0.40431266636398044 0.50378556445582856 0.28805141626408792 0.50154979160005719 0.32371200006281298 0.28949459374373676 0.29297427901623546 0.31037550565430616 0.22401239021525976 0.53318031169923863 0.56606442415509994 0.50305310772944145 0.4392486220194598 0.49902930536573503 0.51651399940704457 0.5211183274193224 0.58735505532640742 0.65687062502166538 0.061389927571795115 0.0085010555084063764 0.043221775642509057 0.49933391801616556 0.58243669579402724 0.50306393358462453 0.36646678911735625 0.48784692108778044 0.54533964204720831 0.4418180080947065 0.40104428236138745 0.51669340176419132 0.43890327809474289 0.44657010058027091 0.51110993123502324 0.086191490030842116 0.11008574142955321 0.14510551503451632 0.14845184604815148 0.10974224009105317 0.17094017210835358 0.40051837565163373 0.56522029646384242 0.51730922835359416 0.59727547904704792 0.34575656090897022 0.38041342805040074 0.37806075066618378 0.37118487496864727 0.60229028126837625 0.60671990400768216 0.36819986170339986 0.39313231543008514 -0.051295952191682953 0.66438543316954268 0.82893465954869394 0.59507295974452423 0.60993829701008029 0.39139712434253066 0.68875378913352037 0.51444493500189681 0.64277507297425263 0.58230931718340762 0.49953559882086318 0.54183371431593985 0.70724387587754844 0.58182628342977805 0.54226732665936117 0.37737175774219633 0.45096420885763799 0.72625312936307751 0.5309105381282887 0.37701011302356924 0.72670529462527389 0.60275643559731751 0.73560663108343782 0.65883716085500954 0.65997641201562263 0.56131520731093565 0.6019019520043869 0.77281188264878353 0.57364387238840819 0.6785925344795829 0.67980666478702956 0.79946233525452004 0.76874648154700009 0.80122120090994575 0.66922775331882423 0.82202015760726277 0.67002743167881174 0.71617489010485058 0.79984203714247004 0.79585003559304102 0.71745471399001104 0.82138303818848946 0.63630812961385441 0.63168622618293957 0.75954445594381059 0.67432493609023869 0.56982939865729421 0.51485387602436228 0.67014656437936071 0.52254520003073412 0.7172419505038411 0.50980530043335026 0.6306904081272432 0.6364937889905502 0.62822346526056472 0.51028791999274314 0.44674054931962398 0.45081282141351092 0.56987523399669071 0.48183874375415137 0.54874570961417357 0.6089675281491973 0.52800703877659794 0.24596701670868176 0.10011612185232348 0.24441028867355213 0.56812021903911558 0.41654427195239163 0.51427687733213645 0.5880897483129075 0.5587093113210323 0.39280106226472333 0.30963771285026281 0.086788041216626227 0.23508681254283867 0.097611860829678126 0.23336124929149876 0.1050257344250877 -0.070268184680006437 0.83713687971417805 0.46594016870793875 0.56992987749802682 0.23475596131127852 0.60318515220185098 0.57018693287881661 0.63313481698681917 0.60241511237199086 0.66764348131260653 0.65405947524650232 0.65518379169620555 0.63213163053511645 0.096551183419699121 0.093058346264819056 0.022674241724885635 0.025955520727220946 0.037176282408242098 0.09140988020529825 0.08579902891233647 0.028280636616661168 0.024041044557952761 0.2371971893575078 0.11236329690187888 0.094760119068167767 0.28039831020299993 0.1030845764435773 0.23649281622800494 0.10726440721097751 0.2509365014071035 0.23933925611181034 0.092405823709940507 0.22501300710497676 0.093065208095367294 0.088010755670262675 0.089133088768574273 0.031428731534286353 0.091953197702937833 0.099222719217103419 0.025650247780237698 0.31439544504405109 -0.02918338299924415 0.28277892319910497 -0.00052392853266213814 0.076679654570710853 0.26174703727691162 -0.014289160944109244 0.29428548574228963 0.073672182366398511 0.04550935288927762 0.31196854856655604 0.31224290298981006 0.05756320858049583 0.29325186014128857 0.09485672005741598 0.011305412881742988 0.054712055603158324 0.088201245643983558 0.0079827117789947801 0.019985846791749272 0.0029398171271327214 0.020411200622503886 0.013134847118867794 0.00640026655893097 0.0094743942412638428 0.022341270838776069 0.032323363954490786 0.28195045471218239 0.057027529393784235 0.3092300949019009 0.27227381200935741 0.13485890069557377 0.064818942088031503 -0.10915154906316636 0.48617524608533719 0.0091732260408467006 0.47173718124107805 -0.092891365408407534 0.21866711312961695 0.28647153119887125 0.3709636622924985 0.3761017633222144 0.095806322918806003 0.13604202136065635 0.25177649780277311 0.035906055205786207 0.12609577238705055 0.5854641682852938 0.11929158548801327 0.5855685688275758 0.60586512864109243 0.56340570806017087 0.57370394984311635 0.61927695389970405 0.18016466203348944 0.080506929710057254 0.14493160998704996 0.62469462552818955 0.57869579024081419 0.48621028104257447 0.53998846224128538 0.57524974612207458 0.58796131456366352 0.600252971488626 0.23363082503923974 0.52112309615784458 0.41693741042933774 0.027327102014375305 0.17592721444681092 0.38925401123925774 0.21041009980486527 0.56559450611370543 0.012294586749856527 0.0056381495503320675 0.0068788150469052938 0.56386359080562054 0.5859149329856288 0.053477766435929365 0.29368778733366324 -0.037198109372688387 0.35270408482458993 0.32684695634585204 0.57416435168845159 0.59023378329434695 0.394800614635269 0.30795012854122911 0.064222754222555689 0.054431141293413463 0.2712121062609017 0.43611748665940614 0.45463148318200736 0.26700936008855614 0.62304215992103096 0.53512892400901713 0.5003726772534427 0.58099374744408383 0.5140164053155053 0.5331249610569091 0.56637765123384587 0.57987185882900671 0.44952344888158785 0.50557743713351955 0.44958415390206036 0.57954633543912126 0.57310608955438003 0.26290716416302495 0.60461128431545952 0.62606571754065421 0.2065809277075667 0.25398665152729083 0.618516025658567 0.59986233657799959 0.6236649161686002 0.2523677843781808 0.49250598799806805 0.5512300811089379 0.54925591583566402 0.48576791925120122 0.41031506247951993 0.50941114096879503 0.49264142988031201 0.44633642613231284 0.55126216954035412 0.36449665352901545 0.26380495558024508 0.29011350529351543 0.4561159999996901 0.28633178979782981 0.39110270780221301 0.36682450661045612 0.28932983352327357 0.45331293592096727 0.43849824950872135 0.37213293311693557 0.4467155560427794 0.2368702372496973 0.10153188606137935 0.1792276279012314 0.0046261816040617625 0.077387475259538027 0.16258214713359254 0.2476514251439263 0.18075740367316814 0.26506772900151249 0.24861852568644935 0.26729023207896013 0.37057107597767858 0.25924929282172327 0.18169382013099142 0.13848694151626437 0.59946134664447015 0.45928349381137329 0.56368998811677506 0.63342293502525626 0.54396755430541355 0.6026280017283745 0.55800048276350822 0.46775336719166821 0.60036980418741803 0.56339661220719672 0.28225404717908886 0.5511629366410965 0.40174644447848379 0.42431947217253457 0.49717346265136569 0.43722203729237158 0.36889929299755309 0.48637348381268847 0.13679319907904913 0.13467255276493917 0.59021499872394423 0.60881641015407761 0.67694381996617181 0.66734123180423599 0.48546018875783442 0.3693347482771836 0.35627451570632829 0.50761724131483643 0.36401593200787496 0.49834045043088587 0.37422780219437318 0.3522623568659039 0.58509813658560939 0.60296437156971949 0.31163491733294352 0.49322905730366162 0.27588725363904276 0.49672143552641879 0.5017640732432298 0.27115884074719576 0.55685002234525416 0.41987790363688365 0.46821945414572674 0.55632044792308322 0.52807497941249226 0.42761959228730206 0.52712824296438454 0.4003348230173075 0.42799557876030064 0.50072312084121895 0.34524049143179075 0.27195503112808395 0.50286961199100955 0.50012351771769548 0.34200446737467632 0.47824884494390574 0.33139998872679716 0.49955587193297235 0.49909099324914785 0.33587127365544012 0.34250130479790608 0.30680852926722429 0.29296269362048372 0.28026292323189372 0.34792436538925886 0.4971833158813771 0.36449323270280054 0.28429407882606544 0.32551850462084314 0.31460823339495736 0.48944657098435002 0.36495364745992837 0.44874199855790398 0.45370859787578438 0.46301270887779372 0.41563043426430141 0.53533169050502549 0.4536637111364456 0.54552515556387104 0.53528138533282388 0.46312919790700025 0.45372317463401629 0.5281331951213698 0.31921727276872897 0.49728373404947329 0.45870790344554413 0.52343049151034116 0.54540262356107261 0.42893761016063331 0.19711470082218993 0.060585747784688788 0.52587565993441809 0.33075047653450029 0.32059286277685367 0.5064400710635355 0.44052214382120303 0.35929654579605108 0.68530685395354518 0.67682084925077368 0.1289895229588307 0.15244126723308588 0.1338094973924962 -0.044177089008256301 -0.043579470374898635 0.55110740412216042 0.18441536954566318 0.3874243796070076 0.37455648797580465 -0.09048527025825806 0.18758737895661554 0.3234857649774881 -0.047639980557470145 0.032085638567655381 0.14202104661992945 0.014535000618702131 -0.0042565166759573718 -0.0038873063477489036 -0.0057173724089810375 0.015671075523729809 -0.0044270332515924347 -0.027090319009583762 0.28011231502976919 0.053487659082738594 0.0041209080485505164 0.0056267241723645329 0.0032894354812582987 0.0040153728237627738 0.0032634136238795788 0.0023157928186024516 0.60255495240687595 0.61826921503130516 0.18562785561579556 0.14617315225128669 0.13972890364163937 0.16873833290936738 0.60882675173315959 0.61809035193658646 0.62703493244922914 0.50246063403206376 0.43206708935094507 0.46897397150005604 0.020253475932804809 0.036469081529372907 0.33199279751580402 0.35710717559716548 0.7518865240646031 0.76588640488670545 0.69340784470050632 0.6852530772540405 0.045546055927616694 0.56003881369648945 0.48390145167935983 0.57512139590487799 0.70114807550672487 0.6933516259699638 0.76539483610723758 0.77429829636325698 0.0031905197975325094 0.029898445612003749 0.48274301989464097 0.69685778085813499 0.35977908999939867 0.38940593525798467 0.64721732989165515 0.25417336088102127 0.66085318604665411 0.71804349531446987 0.7742369292865644 0.77935216418169007 0.24019879069450298 0.3238461365535536 0.71105724101513457 0.59157366484857776 0.54671283975998397 0.26829082557970435 0.66955565458025301 0.53367859888782021 0.73026336459676722 0.65741870620172727 0.047842210023227076 0.12194691141731182 0.78410648766898172 0.15881341686125888 0.75325354427521851 0.76362467602503259 0.38994134247110568 0.41395454546453919 0.00029939974034956133 0.055533210128229586 0.24655991239430058 0.25736303409572503 0.77145460140198496 0.72606291865727124 0.82474294095043965 0.84346596687618158 0.76297839890754071 0.76958450718157745 0.79429974638350165 0.758122639405159 0.037581314245280883 0.011226508901793325 0.82791251585674952 0.83802066944098841 0.41416595143173368 0.43684485291662883 0.2726208201922703 0.29101629556881359 0.8217887686099985 0.79367068628784454 0.25458212983354767 0.24624931499035529 0.83778015061271793 0.84708726676298451 0.29434806419482012 0.32207493915319885 0.84286202468766969 0.85267472878365225 0.43685176110212648 0.46154419266758268 0.0066373275751060922 0.011083882593529595 0.002335230116705337 0.005793333401100856 0.0040734570531318114 0.0093405748043254438 0.0065346299862461118 0.020144119551881393 0.012092289185952435 0.0055732801522775247 0.012935427635017874 0.021159191987869679 0.82115158861270821 0.84315917262466911 0.012732839021046357 0.031713642810844669 0.022721360683578544 0.032666850018631739 0.011664204036630137 0.037151078233004328 0.023263881665538763 0.094044410648160534 0.067779692676638109 0.024307249518791842 0.061081937894222955 0.0032276325447801527 0.09981213423380024 0.13770838855795603 0.056847918181694622 0.14446186601769467 0.10047483127522511 0.22923192774312576 0.842425232893610