<?xml version="1.0"?>
<VTKFile type="UnstructuredGrid" version="0.1" byte_order="LittleEndian">
<UnstructuredGrid>
<Piece NumberOfPoints="2028" NumberOfCells="724">
<Points>
<DataArray type="Float64" NumberOfComponents="3" format="ascii">
0 0.69999999999999996 0 0.59999999999999998 0.69999999999999996 0 0 1.6319639930219929 0 0.59999999999999998 0.69999999999999996 0 0 1.6319639930219929 0 0.94999999999923723 1.2749999999987469 0 0.59999999999999998 0.69999999999999996 0 0.94999999999923723 1.2749999999987469 0 0 1.6319639930219929 0 0.68142292217753131 2.106313194182027 0 0.94999999999923723 1.2749999999987469 0 0 1.6319639930219929 0 0.68142292217753131 2.106313194182027 0 0 2.430303940964651 0 1.299999999998378 1.8499999999973351 0 0.94999999999923723 1.2749999999987469 0 0.68142292217753131 2.106313194182027 0 1.299999999998378 1.8499999999973351 0 0.94999999999923723 1.2749999999987469 0 0.68142292217753131 2.106313194182027 0 1.299999999998378 1.8499999999973351 0 1.186467289461244 2.488259157846338 0 1.299999999998378 1.8499999999973351 0 1.649999999999066 2.4249999999984651 0 1.299999999998378 1.8499999999973351 0 1.186467289461244 2.488259157846338 0 1.649999999999066 2.4249999999984651 0 1.299999999998378 1.8499999999973351 0 0.94999999999923723 1.2749999999987469 0 1.626949751997165 1.3978044304614949 0 1.243750000001385 0.69999999999999996 0 0.94999999999923723 1.2749999999987469 0 1.626949751997165 1.3978044304614949 0 1.243750000001385 0.69999999999999996 0 1.887500000003292 0.69999999999999996 0 1.626949751997165 1.3978044304614949 0 0.59999999999999998 0.69999999999999996 0 1.243750000001385 0.69999999999999996 0 0.94999999999923723 1.2749999999987469 0 0.45714634023723411 3.4614941897304652 0 1.013301616169622 3.6128741719811099 0 0.56249999999824107 3.9749999999991399 0 0 3.7000000000000002 0 0.56249999999824107 3.9749999999991399 0 0 3.7000000000000002 0 0.45714634023723411 3.4614941897304652 0 0.56249999999824107 3.9749999999991399 0 0 3.1141786369756268 0 0.45714634023723411 3.4614941897304652 0 0.70993008501830757 2.9054181396964478 0 0 3.7000000000000002 0 0 3.1141786369756268 0 0.45714634023723411 3.4614941897304652 0 0.45714634023723411 3.4614941897304652 0 0.70993008501830757 2.9054181396964478 0 1.013301616169622 3.6128741719811099 0 0.68142292217753131 2.106313194182027 0 0.70993008501830757 2.9054181396964478 0 0 2.430303940964651 0 0 3.1141786369756268 0 0.70993008501830757 2.9054181396964478 0 0 2.430303940964651 0 0.68142292217753131 2.106313194182027 0 0.70993008501830757 2.9054181396964478 0 1.186467289461244 2.488259157846338 0 1.186467289461244 2.488259157846338 0 1.451787781083937 3.11022608666643 0 1.649999999999066 2.4249999999984651 0 0.70993008501830757 2.9054181396964478 0 1.186467289461244 2.488259157846338 0 1.451787781083937 3.11022608666643 0 0.70993008501830757 2.9054181396964478 0 1.451787781083937 3.11022608666643 0 1.013301616169622 3.6128741719811099 0 1.451787781083937 3.11022608666643 0 1.013301616169622 3.6128741719811099 0 1.593428957229921 3.8897035774451321 0 2.08333333333292 3.599999999997022 0 2.4236693135559251 3.5256579194055688 0 2.1666666666662731 4.1999999999971616 0 1.451787781083937 3.11022608666643 0 2.08333333333292 3.599999999997022 0 1.593428957229921 3.8897035774451321 0 1.451787781083937 3.11022608666643 0 2.08333333333292 3.599999999997022 0 2 3 0 2 3 0 2.6000000000000818 2.8399999999999781 0 2.4236693135559251 3.5256579194055688 0 2.08333333333292 3.599999999997022 0 2 3 0 2.08333333333292 3.599999999997022 0 2 3 0 2.4236693135559251 3.5256579194055688 0 2 3 0 2.2687831884271348 2.397628317379688 0 2.6000000000000818 2.8399999999999781 0 2 3 0 2.6000000000000818 2.8399999999999781 0 2 3 0 1.649999999999066 2.4249999999984651 0 1.451787781083937 3.11022608666643 0 2 3 0 1.649999999999066 2.4249999999984651 0 2 3 0 1.649999999999066 2.4249999999984651 0 2.2687831884271348 2.397628317379688 0 2.2687831884271348 2.397628317379688 0 2.8857059848027808 2.304389417342541 0 2.6000000000000818 2.8399999999999781 0 2.8857059848027808 2.304389417342541 0 2.6000000000000818 2.8399999999999781 0 3.2000000000001432 2.679999999999962 0 2.6000000000000818 2.8399999999999781 0 3.2000000000001432 2.679999999999962 0 3.2848100522576571 3.06994577157805 0 2.6000000000000818 2.8399999999999781 0 3.2000000000001432 2.679999999999962 0 2.6000000000000818 2.8399999999999781 0 2.9420158813362729 3.5139475164392531 0 2.4236693135559251 3.5256579194055688 0 2.6000000000000818 2.8399999999999781 0 2.9420158813362729 3.5139475164392531 0 3.2848100522576571 3.06994577157805 0 2.9420158813362729 3.5139475164392531 0 3.412636880282601 3.6134558579332841 0 3.1249999999889848 4 0 2.9420158813362729 3.5139475164392531 0 2.75 4 0 3.1249999999889848 4 0 2.9420158813362729 3.5139475164392531 0 2.4236693135559251 3.5256579194055688 0 2.75 4 0 2.23284951060374 1.369095413116082 0 1.887500000003292 0.69999999999999996 0 2.5312500000049418 0.69999999999999996 0 2.23284951060374 1.369095413116082 0 1.887500000003292 0.69999999999999996 0 1.626949751997165 1.3978044304614949 0 1.299999999998378 1.8499999999973351 0 1.626949751997165 1.3978044304614949 0 1.942890303101708 1.90249985684108 0 2.23284951060374 1.369095413116082 0 1.626949751997165 1.3978044304614949 0 1.942890303101708 1.90249985684108 0 1.649999999999066 2.4249999999984651 0 2.2687831884271348 2.397628317379688 0 1.942890303101708 1.90249985684108 0 1.299999999998378 1.8499999999973351 0 1.649999999999066 2.4249999999984651 0 1.942890303101708 1.90249985684108 0 2.2687831884271348 2.397628317379688 0 1.942890303101708 1.90249985684108 0 2.5341028426591712 1.9138806300960609 0 2.23284951060374 1.369095413116082 0 1.942890303101708 1.90249985684108 0 2.5341028426591712 1.9138806300960609 0 2.23284951060374 1.369095413116082 0 2.5341028426591712 1.9138806300960609 0 2.730231246675086 1.4599417336750831 0 2.2687831884271348 2.397628317379688 0 2.8857059848027808 2.304389417342541 0 2.5341028426591712 1.9138806300960609 0 2.8857059848027808 2.304389417342541 0 3.16379900756549 1.750659825629856 0 3.5028943452390711 2.1825773809523441 0 2.8857059848027808 2.304389417342541 0 2.5341028426591712 1.9138806300960609 0 3.16379900756549 1.750659825629856 0 2.5341028426591712 1.9138806300960609 0 3.16379900756549 1.750659825629856 0 2.730231246675086 1.4599417336750831 0 3.16379900756549 1.750659825629856 0 3.047698899035677 1.175177397439602 0 2.730231246675086 1.4599417336750831 0 3.047698899035677 1.175177397439602 0 2.730231246675086 1.4599417336750831 0 2.5312500000049418 0.69999999999999996 0 2.23284951060374 1.369095413116082 0 2.730231246675086 1.4599417336750831 0 2.5312500000049418 0.69999999999999996 0 3.047698899035677 1.175177397439602 0 2.5312500000049418 0.69999999999999996 0 3.1750000000065048 0.69999999999999996 0 3.047698899035677 1.175177397439602 0 3.1750000000065048 0.69999999999999996 0 3.638214240926366 1.265285427893069 0 3.1750000000065048 0.69999999999999996 0 3.638214240926366 1.265285427893069 0 3.8187500000045098 0.69999999999999996 0 3.16379900756549 1.750659825629856 0 3.047698899035677 1.175177397439602 0 3.638214240926366 1.265285427893069 0 3.638214240926366 1.265285427893069 0 3.8187500000045098 0.69999999999999996 0 4.2198317920941601 1.108273596938623 0 3.8187500000045098 0.69999999999999996 0 4.2198317920941601 1.108273596938623 0 4.4625000000026009 0.69999999999999996 0 3.638214240926366 1.265285427893069 0 4.2198317920941601 1.108273596938623 0 4.25 1.5 0 4.2198317920941601 1.108273596938623 0 4.7733688274428578 1.2511819424194319 0 4.25 1.5 0 4.2198317920941601 1.108273596938623 0 4.7733688274428578 1.2511819424194319 0 4.4625000000026009 0.69999999999999996 0 4.7733688274428578 1.2511819424194319 0 4.4625000000026009 0.69999999999999996 0 5.1062500000012143 0.69999999999999996 0 4.4000000000001336 2.3599999999999639 0 5 2.2000000000000002 0 4.6250000000004974 1.8500000000004651 0 4.4000000000001336 2.3599999999999639 0 5 2.2000000000000002 0 4.7733688274428578 1.2511819424194319 0 4.6250000000004974 1.8500000000004651 0 4.25 1.5 0 4.6250000000004974 1.8500000000004651 0 4.25 1.5 0 4.6250000000004974 1.8500000000004651 0 4.25 1.5 0 4.0559490150232032 2.028653202947901 0 4.25 1.5 0 4.0559490150232032 2.028653202947901 0 3.757799744899315 1.759341836734688 0 4.6250000000004974 1.8500000000004651 0 4.0559490150232032 2.028653202947901 0 4.4000000000001336 2.3599999999999639 0 4.0559490150232032 2.028653202947901 0 3.757799744899315 1.759341836734688 0 3.5028943452390711 2.1825773809523441 0 4.0559490150232032 2.028653202947901 0 3.5028943452390711 2.1825773809523441 0 3.8000000000002032 2.5199999999999458 0 3.638214240926366 1.265285427893069 0 4.25 1.5 0 3.757799744899315 1.759341836734688 0 3.16379900756549 1.750659825629856 0 3.638214240926366 1.265285427893069 0 3.757799744899315 1.759341836734688 0 3.16379900756549 1.750659825629856 0 3.757799744899315 1.759341836734688 0 3.5028943452390711 2.1825773809523441 0 2.8857059848027808 2.304389417342541 0 3.5028943452390711 2.1825773809523441 0 3.2000000000001432 2.679999999999962 0 3.2000000000001432 2.679999999999962 0 3.8000000000002032 2.5199999999999458 0 3.5028943452390711 2.1825773809523441 0 3.2000000000001432 2.679999999999962 0 3.8000000000002032 2.5199999999999458 0 3.2000000000001432 2.679999999999962 0 3.2848100522576571 3.06994577157805 0 3.8000000000002032 2.5199999999999458 0 3.2848100522576571 3.06994577157805 0 3.8000000000002032 2.5199999999999458 0 3.8190056356267248 3.2454749759848052 0 3.412636880282601 3.6134558579332841 0 3.5 4 0 3.1249999999889848 4 0 3.2848100522576571 3.06994577157805 0 3.412636880282601 3.6134558579332841 0 3.8190056356267248 3.2454749759848052 0 2.9420158813362729 3.5139475164392531 0 3.2848100522576571 3.06994577157805 0 3.412636880282601 3.6134558579332841 0 3.412636880282601 3.6134558579332841 0 3.874999999992375 3.7500000000050839 0 3.5 4 0 3.412636880282601 3.6134558579332841 0 3.819005635626
[...]
<PointData Scalars="A_conc," Vectors="" Tensors="">
<DataArray type="Float64" Name="A_conc" format="ascii">
0.46719358042775383 0.47615264988387007 0.9059070481837278 0.47596959015772788 0.90620990579029737 0.85061395988006339 0.43164404756124702 0.86711665470782862 0.83413153258505457 0.9202566903054783 0.80782012783985868 0.84505646034809467 0.91542993442688458 0.92083334376354142 0.91816025269992674 0.80095721556669541 0.91971758108493507 0.915065650847672 0.80808680238625241 0.90265446718835518 0.90179968895888496 0.93332340271971903 0.90239335711351276 0.93838418084498754 0.90201960769733747 0.9328951105428267 0.93862432906625792 0.61245082341000134 0.21902004288695659 0.40183346643500512 -0.05900188330621866 0.22548424247153886 0.37874073873839442 -0.066416110720813756 -0.040771541488299784 0.38473856804168521 -0.070785377770457195 -0.056165269101397096 0.21747626687131827 0.93161057140581371 0.93680842532798991 0.91054115044061934 0.92557960259532845 0.92673903276187608 0.90673058684742591 0.93203315202459225 0.91038294010343568 0.92707859144833293 0.92807978905450805 0.93793745310335064 0.91144771520783097 0.93042792992381651 0.93023332899947897 0.92817079483038067 0.93772653540723094 0.9337483734544616 0.90612344964654346 0.93670652441556823 0.90890122149370423 0.93295255204733163 0.93737645175268025 0.91067753698744902 0.90639129400703355 0.93621361602004627 0.93142023470264501 0.92918595105261625 0.94672437207889604 0.93459145272891997 0.93365748502390344 0.9289750969745918 0.94703368141889166 0.93760301523390344 0.94549146040452947 0.93373437193969311 0.94443097004590237 0.9328735169754514 0.93804096946448601 0.9022040348992435 0.90613969760476287 0.85520989939409475 0.94422929508465125 0.94759204362334992 0.93805556224928277 0.94341629351317524 0.94726263339092043 0.95006831248010326 0.94088639940561136 0.96043275244914961 0.90407352423687071 0.94725303592824328 0.94995424994278932 0.90296650870166428 0.94240050725230096 0.90344937565876959 0.85538609145691469 0.84861027447192194 0.91775262483309328 0.94971779747966634 0.95158094778997793 0.95147077319694029 0.93460859519087458 0.94657260870515691 0.95159139143903038 0.93460392465655306 0.856505790342173 0.75782930363956291 0.84996683588027078 0.85064814664572841 0.89277693901408195 0.91438031419448507 0.88976289760820992 0.91466576014533463 0.94257627386787757 0.95457028543456179 0.95544501353576305 0.91898761993867717 0.95144926906123284 0.95245918004637631 0.95833704309753165 0.89282016430808309 0.90787731667731297 0.95611006669797127 0.89432083181422883 0.91917203869233943 0.89791480706343074 0.8790231139658804 0.85637810906381329 0.89932606365382528 0.85583220927244363 0.85561499722110557 0.89542837373605955 0.90727916014782073 0.85519492420860888 0.46257415288708964 -0.050183153369636781 -0.017015250918508251 0.45888098140918948 -0.043725162989629279 0.39300666983929183 0.61303021352364628 0.41088822161706723 0.78042745626385612 0.49313059358546674 0.40739401101223366 0.78210267132681621 0.77017448611127903 0.84543217998441222 0.78968510865621255 0.65073813541868608 0.78675615872975091 0.78760519666124817 0.84129813657142427 0.79318746699567499 0.85262504214376467 0.49282652934648813 0.78299697870984952 0.9236125209169872 0.49071746016770135 0.92377299552310488 0.6556655978665783 0.85315827745301143 0.90669836732575382 0.83325943812010039 0.89970282937585178 0.87697350101552785 0.92859868279973246 0.90319386150270486 0.83628035854577121 0.87635562631796882 0.90517615323930767 0.95590832896386457 0.66744606804847106 0.96791840598150636 0.44941997673423373 0.64161545902843775 0.38684108664957984 0.61781576801150317 -0.021795619486645761 0.4682152025971914 0.61572986781101791 -0.018620616672248652 0.35440761004187388 0.020955294614106806 0.059370932835823946 0.35661963610541814 0.059450930799100306 0.48400393046091256 0.058330356537216854 0.48510541005810448 0.10310547796545709 0.96758844825013146 0.44935404994610673 0.68750645001080757 0.48588097306419964 0.10376430771057708 0.32378064776904508 0.18750151395143366 0.28987850625406486 0.24109997656220822 0.61154372141514901 0.41266598931510962 1.0817260694247108 0.41557615265318965 0.37504910406390624 1.0776958955811062 0.2894357559285996 0.29742993677732371 0.2424312832971415 0.28689244004030839 0.27263692451184823 0.37136132784698961 0.95412977438976221 0.95492828240465577 0.94147319090309678 0.95129277554213787 0.9561491486800715 0.37749977020241748 0.9864970028200436 1.0733864588697266 0.96557404260042767 0.866527993509975 0.96290043602575948 0.87266720592115044 0.9529105977423733 0.87128839470293262 0.95500018530425024 0.88880271612511907 0.94147110512108556 0.93151218051433204 0.95191033759844457 0.95134809530589015 0.89580650945215567 0.93323638309889423 0.92862554601287195 0.91779846879479687 0.94884039942482545 0.74324918127619899 0.99527304606478928 0.95153323661384215 0.88485611797742347 0.7433540512566319 0.95252840036276576 0.88049521192808011 0.90569794346863952 0.92561367427164354 0.89173014479180923 0.91540637533340552 0.9405103527863744 0.95243654424763147 0.95330655949125487 0.91522955836846653 0.93895937872340451 0.95021074840731068 0.95587116868684052 0.91799430965621653 0.95081183792570045 0.91991140456447185 0.94706751445500825 0.89112711321969895 0.87726983932030111 0.8923884448506465 0.84389792946217679 0.92108386014791288 0.88020029412687373 0.89072095812617724 0.89682860279287901 0.92231534994085285 0.87905005250249468 0.87638301636608784 0.95912361397977663 0.89487472698064652 0.87710175564040382 0.91680870273232551 0.95801313005901678 0.92531132162266194 0.94888978632674936 0.98918315818313118 0.94463450247007097 0.93117128327739151 0.98057280658244017 0.97772795160215409 0.88780641813603989 0.90908935325463525 0.98095178640390956 0.88756803402876117 0.94854977465000034 0.97927067081498209 0.92584267535686793 0.98852431718634415 0.9614503081958099 0.97223280685749047 0.97311554104826181 0.98541829237605016 0.96989546967999951 0.97229804880431125 0.97305640666176529 0.96884744605745221 0.97097369763044516 0.93571306854488767 0.97797905222794768 0.91979193416354865 0.88680847014646924 0.95330071418148232 0.95413559729622532 0.94399279971728578 0.90013783437410211 0.94070789989560877 0.92879711561565492 0.94783967443353823 0.95295339034770632 0.9455914953304102 0.89269600757806156 0.89943345388962292 0.90656337225441286 0.86735871162058331 0.9371536296276668 0.96289417472666317 0.9586301371536412 0.98332709903938709 0.83111121253819531 0.99621948946457517 0.99208823518923894 0.80273616574880469 1.0053100283324814 0.88657546323426684 1.0136833769303712 0.99503490633189695 0.98504463741920134 0.9844278719836842 0.95924447147736025 0.98921399200265214 0.99041926176631989 0.95892473798606015 0.98282057861362282 0.99065368025537337 0.98550307852830876 0.98145582301213297 0.98541009470844088 0.98428870950936298 0.98110534416657624 0.99152921635910374 1.0084289881935764 0.96356545955189776 0.99817806105559403 0.99441682510764973 1.0072630985247562 0.98509615715158216 0.98492318087003128 0.04037054117125452 0.19631408055988211 0.0001544599819736818 0.97125448063664233 0.93501399052973677 0.96456195429277347 0.96651235222195808 0.98635527097527487 0.9665671883270528 0.98611353812928393 0.98465702074402406 0.96747508933350623 0.98297167600315616 0.048511682863243824 0.34215833126231704 0.38957869648301235 0.8816630882272477 0.37233236714209117 0.41298569764490234 0.57948789531346623 0.34910166774989831 0.17402110297492446 0.03583027927147503 0.43699098818112264 0.2266027057939545 0.59887408030316913 0.62509489787730665 0.35158276888410678 0.99434551397833171 0.98985565814346832 0.87877170901114976 0.37946399871008063 0.93443434432659034 0.60143088825862956 0.91704751815389662 0.62727558187992716 0.91163889404792309 0.91591117373364617 0.97309088254948051 0.94327877368249269 0.99866112494363346 0.90094107699375847 0.91952941348008832 0.63450140775881314 0.99400439818319919 0.99568439705717038 0.89453299414617526 0.70035331103655973 0.90019404769126898 0.99423836134131083 0.99466632080404116 0.96870838499374756 0.97235524538656548 0.98056733508414329 0.90748733630324219 0.91158481581101958 0.9726422343058716 0.97992101810633692 0.98623080512002714 0.9841417917611982 0.99513155435758216 0.9803037971768177 0.99463776760519207 0.99486981693017151 1.00559472448705 0.94981538267250076 0.95576580117296017 1.0046880717498288 1.0061252248386761 0.94880304725344278 1.0068253071979179 0.94716643538345702 0.96534102387711107 0.94602070222946666 0.50815287134357334 0.86409567307295276 0.54098867722142674 0.6782928215343712 0.74730898205825913 0.57790170429318621 0.45845522849511938 0.54000213795338092 0.67989638708541211 0.47384079204430457 0.95390065045933448 0.50414282847087655 0.45329886515631423 0.40906301410319829 0.50895480164573725 0.57464270768405945 0.45725911987049261 0.37695199323530532 0.28485840578500893 0.42766790176512626 0.37485113512103291 0.31168374432609525 0.40112078944047641 0.50888231476037515 0.2276669172245841 0.99528959987565491 0.4019640033600691 0.62737564552338421 0.5165020590548034 0.94327953466680281 0.95623930048964156 1.0036123427676413 0.76879052731435427 0.39611496293235465 0.96771386088496714 0.97933596913756538 0.87852706293585159 0.99322752358651778 0.95544975577128843 0.96304915267684121 0.95824541876679314 0.44735261246378777 0.83893060730126234 0.95044037145740301 0.97930557677462993 0.87823141306786956 0.74827758228015362 0.52311074064273833 0.58324776579415538 0.75348015260303114 0.74974491877835547 0.53456624251599816 0.75159406551961494 0.53306549961831717 0.55807374007926613 0.96469337138481215 0.67444338780498148 0.71952876336653393 0.67367978498727976 0.71720126522754801 0.50617574944963351 0.69421302212391467 0.95084288678486162 0.65997653750766327 0.94423142449474429 0.95573852234029999 0.95319369734437998 0.68221162053085371 0.95773906248632867 0.95552354586829502 0.96303917816572959 0.93742644561891797 0.93740381682936014 0.67033367126234622 0.92584199650481391 0.69353021606457299 0.83957332222955816 0.96258936101227055 0.9667024313604291 0.75342278160476417 0.77911994403578044 0.92149372251737838 0.74560597698095832 0.58510778857815704 0.79472620613249045 0.59306907973016565 0.75554443483899547 0.781569138652771 0.7398142056897824 0.79680159727084821 0.89829665615439835 0.79984779862899047 0.8993547279703713 0.94322080237162576 0.79992284761270938 0.89922799134078035 0.88995984658367833 0.97785732780054646 0.97993007916620922 0.98412739161306662 0.97333386901808372 0.98275168991641493 0.96889898686664033 0.89562739330885055 0.88616639963880905 0.98609824990015982 0.97703018709356126 0.98927794540676184 0.97673751966296052 0.99069420251211227 0.97190427757203945 0.993108454282988 0.99481134230049573 0.98990604335244603 0.99361856400859383 0.98984592243000757 0.98645935963002396 0.98576796397307453 0.99563591285246811 0.98877657432842081 0.99597896568795474 0.99554599106877628 0.99088340874672354 0.97557928924499748 0.98690034688921935 0.97563723435652927 0.98888836915659528 0.97534899972503986 0.99467539829958396 0.98701667712171282 0.99049384291893161 0.98874254930310779 0.99059701963709446 0.98179717911636266 0.98889518074035532 0.98271036076936025 0.97374796248371587 0.99031562379973259 0.97985321995124053 0.97107923405441066 0.97152217161241583 0.95529622492481658 0.97159356260938545 0.95622950815022978 0.95547864627202972 0.96571634902604842 0.96108163978522898 0.9038776196476086 0.8798848149316274 0.97446037408780029 0.81813101832140711 0.94851982845164851 0.88577295322754712 0.87333571583798708 0.75905011979419912 0.89258131643351579 0.88316823032614478 0.99564292487773243 0.99449252882223871 0.97590288170700601 0.9763336216615417 0.95907124625952145 0.86117526076070339 0.8726447496003763 0.97447234917639636 0.9576738794725228 0.95541280570067044 0.86379407752297133 0.74258253736852464 0.88061429706661676 0.75604276857812369 0.73171946395021492 0.88960607272351289 0.70228495079296005 0.93250592959511669 1.0269893040352591 0.98480631012565545 0.98432701552270541 0.68752515105595502 1.0359572589426356 0.98877482129367367 0.87771010092600021 0.87819156632559303 0.98163968557215908 0.98433300185602368 0.9828956230341177 0.87860695398092681 0.9497767431403813 0.97981568040222844 0.876542036757614 0.98421303184007425 0.90043324806125402 0.95504339438647623 0.96982164373044066 0.93802049419059619 0.95507203048071687 0.93820597404620787 0.94244561991482256 0.87932584128295765 0.97536229674100783 0.90622645259257928 0.94133331250367169 0.96612318726489776 0.96076407981941581 0.9446878051489096 0.96394563387284826 0.88944868390782994 0.91450690400384005 0.94013986956178153 0.93846527503737631 0.94231732000054302 0.93308539528517287 0.95213427361947434 0.9399993539494621 0.93278838957819321 0.94982693584075306 0.94341755588417886 0.93371877492188204 0.94245896870653745 0.93322713734385787 0.93174065145159191 0.45877335485607412 0.49366551976833484 0.41587635715445531 0.89980487012565424 0.8959010079479347 0.74034930989751946 0.71545031646434887 0.72125225404938997 0.68215166289107854 0.98704608730720489 0.89908759413643713 0.90482854914636257 0.97014350093410961 0.95181067991954604 0.93305042401373561 0.69358433292928079 0.6648083342000517 0.61024437292802636 0.73145593691791511 0.69183781446107862 0.66559901364583374 0.94344121260343516 0.95220052521033016 0.94999553303142892 0.97385703917661615 0.9552586490187629 0.8414874277982054 0.97126869309660657 0.8097397777682267 1.0279449517853094 0.69852068390333932 0.61700106437353708 1.0130274350463007 0.98515279723841953 0.704238125819309 0.95097079871207424 0.93336882449824776 0.95936991711693331 0.9545218125142283 0.95708468166014971 0.95501531235007553 0.95708229366698816 0.75211930390814741 0.62498505461372589 0.70891050345953188 0.94746332687323509 0.94975348292870865 0.95750145265500419 0.93637703735453404 0.95948607375283834 0.74969391747535141 0.70842428241876865 0.90999182600889017 0.92449743909050763 0.95805435911445969 0.74456533023704219 0.50590545484537941 0.98327087651546774 0.97999550676996994 0.87665956010397639 0.90144154438544388 0.85615868095727865 0.76992541639587797 0.78299959055985213 0.94873987002956561 0.99869074987932827 0.63924855585445117 0.94399467744893417 0.92628659012432235 0.70989395884198647 0.95007727463945191 0.5148699531298141 0.30364778259830788 0.3481483042242795 0.35979655258071613 0.42569467826989293 0.26195258403623195 0.9668826771516732 0.93010713102561648 0.71010947338029007 0.78760767160014988 0.9357310472695477 0.70561372179465054 0.59745028812954493 0.35567451107293846 0.45406740887916008 0.6008778793242936 0.35027960092296406 0.3288447225658524 0.38233532985997848 0.27636751462097292 0.38108302435864022 0.27927099187715942 0.2763732121849567 0.67073091787438621 1.0431490254988229 0.41282994901661513 1.0068695780663088 0.73700634022876144 0.94387473049300719 0.40370825696129381 1.0092520502212625 0.16301178672760172 1.0297338929790005 0.4405993489011838 0.9941341267497944 0.9693828430306084 0.85378174940927298 0.97490439605418933 0.85187866283630154 0.83071888485732281 0.97974099498523315 0.95460336099861609 0.95161564975780111 0.95041359262877689 0.95156524260935205 0.92544252703352425 0.85587316657301105 0.97009157302500348 0.97599369037800532 0.95177895705993432 0.94796463297036615 0.95230049430462005 0.92475062265158403 0.93763901822706963 0.94863550542118646 0.94237586364904347 0.93883409175464572 0.95672664980516675 0.94005672246188976 0.94503291091969099 0.94841776868720196 0.94241712374685138 0.85259506067101432 0.97898709073637757 0.92897938744615582 0.92370919707296251 1.0029279516116643 0.58719475769563789 0.85411667035070882 0.81927686444791459 0.87273706152316122 0.90944482707759589 0.85367518363878692 0.87153575051669829 0.71717151919143063 0.71664438977946132 0.86009527570053168 0.73640418971710353 0.82027883652001043 0.84922520077080199 0.38948197904488202 0.67911802655998554 0.94583223024143681 0.93153311207401923 0.93624582853924299 0.89522970078523101 0.89154969352964464 0.89226838501126648 0.88523936129345282 0.94522216037729756 0.94652374280893936 0.93234802721177334 0.94721516311785547 0.93228274309009773 0.92383690821717734 0.93928011877840045 0.87266304746014045 0.88417974394639165 0.94696068059795147 0.94380852134595528 0.96023923874700035 0.92419308130439981 0.87428349872886979 0.96152436803442376 0.93824068386939019 0.87295518997531663 0.95518373499823461 0.94702179491435312 0.93533744849326039 0.91696335341237167 0.92634643944968675 0.92412239300028587 0.89594953430879665 0.93721662583003829 0.85242586767904793 0.9474154071807025 0.95135596287457136 0.92331933749095907 0.89797546363173575 0.93100720712787055 0.83173349052206058 0.95643794828328221 0.81879464692166437 0.78647835131392219 0.87591569407646908 0.93604988786048382 0.91936499058024457 0.9437528526030341 0.9368095465635482 0.94336267251635564 0.92977850957156583 0.92887202106031574 0.92076359585012302 0.94382452332008759 0.93924538105699984 0.94784488207578399 0.94284525064812652 0.93619621772322947 0.94759976791288603 0.94281951949073894 0.92786936107029661 0.92673234061027332 0.93703787970400376 0.91412308721046798 0.90982108418426921 0.93649320710865658 0.91432653632175098 0.93962089745241584 0.92057617465328623 0.91248829403128429 0.93993328477642013 0.92888374737560464 0.92786044621999175 0.92476036307756049 0.92681667769475973 0.86078378345004525 0.92782941346556491 0.85998280388814308 0.88041792136715391 0.89936708618096628 0.9410478730748113 0.93900870409805759 0.86639968712646853 0.92316093134103883 0.86340758065734902 0.89567111402507948 0.89399567911629352 0.93787672913924836 0.89897886067060051 0.89485436332234713 0.93995462708986188 0.87817559587795035 0.88834674418075088 0.85615788866822473 0.88054256778508755 0.85958796086116862 0.85150514396138366 0.87946840412085514 0.87765174625228592 0.92958937022224819 0.9248049983060922 0.87671813590495395 0.92976162025908293 0.92832327821442362 0.87991877369311688 0.9286470291289447 0.96252476569812562 0.95331545270163676 0.87971012296053663 1.0054872879353256 0.76147981800743636 0.58514645339822424 0.94427048252354184 0.94609968785524634 0.92442266193493716 0.94553352497183651 0.94367703756371213 0.92541856105818932 0.9473618866580451 0.9206494414751919 0.94393213582001378 0.92526445666838819 0.92786120785456916 0.92532827412834484 0.92799782111668783 0.91627798110786296 0.89993103437965905 0.93777393713776258 0.92748869292639813 0.95491606136752771 0.88477048126908053 0.87879995886774376 0.94824469507058562 0.92987830210486977 0.89582073573100618 1.0122238835970978 0.77536223847996455 -0.016419489817846234 0.73209160754940683 0.0041597917791214916 -0.027679364598715148 0.73463625992942561 0.0034474238038037308 0.39453775558659809 0.23545161305148821 0.2154908079688686 0.28155194937320116 0.29162901551809084 0.23417506594869306 0.2838248349692043 0.13318907348934758 0.27994564937685401 0.17562577750721375 1.0100556660298625 0.16238827517338142 0.41738771605329983 0.21250383647153245 0.28039434724461376 0.17633759403961777 0.32342276366142181 0.59601657089868787 0.48232586390528348 0.32007913630480717 0.59866756543247657 0.43062748058053929 0.29159738159264781 0.40792017226334626 0.28539906857974962 0.32365744348828157 0.47585070567687016 0.21489434884317224 0.67486440917370605 0.60220613257815936 0.43051008430716731 0.67546640301071592 0.42940693486262399 0.73719361304920195 0.57529767230723672 0.40297877095848256 0.77042544803565571 0.5766738825732729 0.76993870663622466 0.84340419252791077 0.72743239170050911 0.83200476724742012 0.88190567449101576 0.55019241384669482 0.84569404730285014 0.73525561801761574 0.83130301335308787 0.96099708391486793 0.87672811167798226 0.83996648886754077 0.98797397494656081 0.73552775039978457 0.95002489090538078 0.99110537962341072 1.011885176768474 0.9731663495094417 0.90170384925480507 0.74698352174236704 0.95879148580942575 0.89929301240100012 1.0001080347886433 0.9999581110514