<?xml version="1.0"?>
<VTKFile type="UnstructuredGrid" version="0.1" byte_order="LittleEndian">
<UnstructuredGrid>
<Piece NumberOfPoints="84" NumberOfCells="28">
<Points>
<DataArray type="Float64" NumberOfComponents="3" format="ascii">
0 0 0 0.29166666666652658 0.2916666666668038 0 0 0.33333333333472032 0 0 0 0 0.33333333333250248 0 0 0.29166666666652658 0.2916666666668038 0 0.33333333333250248 0 0 0.66666666666578889 0 0 0.49999999999981742 0.1726190476194705 0 0.33333333333250248 0 0 0.49999999999981742 0.1726190476194705 0 0.29166666666652658 0.2916666666668038 0 0.50000000000004996 0.49999999999997519 0 0.17261904761971569 0.50000000000021494 0 0.29166666666652658 0.2916666666668038 0 0.50000000000004996 0.49999999999997519 0 0.29166666666652658 0.2916666666668038 0 0.49999999999981742 0.1726190476194705 0 0 0.33333333333472032 0 0.29166666666652658 0.2916666666668038 0 0.17261904761971569 0.50000000000021494 0 0 0.66666666666759111 0 0 0.33333333333472032 0 0.17261904761971569 0.50000000000021494 0 0 0.66666666666759111 0 0.17261904761971569 0.50000000000021494 0 0.29166666666684449 0.7083333333334445 0 0 1 0 0.29166666666684449 0.7083333333334445 0 0.33333333333472032 1 0 0 1 0 0 0.66666666666759111 0 0.29166666666684449 0.7083333333334445 0 0.33333333333472032 1 0 0.29166666666684449 0.7083333333334445 0 0.50000000000021227 0.82738095238030207 0 0.50000000000004996 0.49999999999997519 0 0.29166666666684449 0.7083333333334445 0 0.17261904761971569 0.50000000000021494 0 0.50000000000004996 0.49999999999997519 0 0.50000000000021227 0.82738095238030207 0 0.29166666666684449 0.7083333333334445 0 0.50000000000004996 0.49999999999997519 0 0.82738095238054699 0.49999999999982031 0 0.70833333333346027 0.70833333333323512 0 0.50000000000004996 0.49999999999997519 0 0.70833333333346027 0.70833333333323512 0 0.50000000000021227 0.82738095238030207 0 0.66666666666759111 1 0 0.50000000000021227 0.82738095238030207 0 0.70833333333346027 0.70833333333323512 0 0.66666666666759111 1 0 0.33333333333472032 1 0 0.50000000000021227 0.82738095238030207 0 1 1 0 0.70833333333346027 0.70833333333323512 0 1 0.66666666666578889 0 1 1 0 0.66666666666759111 1 0 0.70833333333346027 0.70833333333323512 0 1 0.66666666666578889 0 0.70833333333346027 0.70833333333323512 0 0.82738095238054699 0.49999999999982031 0 1 0.33333333333250248 0 1 0.66666666666578889 0 0.82738095238054699 0.49999999999982031 0 1 0.33333333333250248 0 0.82738095238054699 0.49999999999982031 0 0.70833333333327586 0.2916666666665107 0 1 0 0 0.70833333333327586 0.2916666666665107 0 0.66666666666578889 0 0 1 0 0 1 0.33333333333250248 0 0.70833333333327586 0.2916666666665107 0 0.66666666666578889 0 0 0.70833333333327586 0.2916666666665107 0 0.49999999999981742 0.1726190476194705 0 0.50000000000004996 0.49999999999997519 0 0.70833333333327586 0.2916666666665107 0 0.82738095238054699 0.49999999999982031 0 0.50000000000004996 0.49999999999997519 0 0.49999999999981742 0.1726190476194705 0 0.70833333333327586 0.2916666666665107 0 
</DataArray>
</Points>
<Cells>
<DataArray type="UInt32" Name="connectivity" format="ascii">
0 1 2 3 4 5 6 7 8 9 10 11 12 13 14 15 16 17 18 19 20 21 22 23 24 25 26 27 28 29 30 31 32 33 34 35 36 37 38 39 40 41 42 43 44 45 46 47 48 49 50 51 52 53 54 55 56 57 58 59 60 61 62 63 64 65 66 67 68 69 70 71 72 73 74 75 76 77 78 79 80 81 82 83 
</DataArray>
<DataArray type="UInt32" Name="offsets" format="ascii">
3 6 9 12 15 18 21 24 27 30 33 36 39 42 45 48 51 54 57 60 63 66 69 72 75 78 81 84 
</DataArray>
<DataArray type="UInt32" Name="types" format="ascii">
5 5 5 5 5 5 5 5 5 5 5 5 5 5 5 5 5 5 5 5 5 5 5 5 5 5 5 5 
</DataArray>
</Cells>
<CellData Scalars="porosity,1_init_conc,2_init_conc," Vectors="" Tensors="1_diff_m,2_diff_m,">
<DataArray type="Float64" Name="porosity" format="ascii">
0.0020254629629669293 0.0020254629629607684 0.002876984126987548 0.0058035714285724774 0.013839285714297515 0.013839285714290477 0.0058035714285870005 0.0028769841270001074 0.0096726190476431242 0.018807870370418235 0.0076967592592673082 0.031696428571471896 0.018303571428591663 0.029216269841271698 0.038640873015861832 0.038640873015867147 0.052827380952400957 0.04712301587308431 0.071469907407381392 0.071469907407436487 0.052827380952342587 0.0471230158729498 0.03169642857138992 0.0076967592592521129 0.018807870370340277 0.0096726190476188415 0.029216269841255769 0.018303571428573993 
</DataArray>
<DataArray type="Float64" Name="1_init_conc" format="ascii">
0.31 0.31 0.31 0.31 0.31 0.31 0.31 0.31 0.31 0.31 0.31 0.31 0.31 0.31 0.31 0.31 0.31 0.31 0.31 0.31 0.31 0.31 0.31 0.31 0.31 0.31 0.31 0.31 
</DataArray>
<DataArray type="Float64" Name="2_init_conc" format="ascii">
0.97974537037033071 0.97974537037039233 0.97123015873012453 0.94196428571427526 0.86160714285702489 0.86160714285709528 0.94196428571413005 0.97123015872999896 0.90327380952356873 0.81192129629581766 0.92303240740732695 0.68303571428528098 0.81696428571408342 0.70783730158728297 0.61359126984138168 0.61359126984132861 0.4717261904759904 0.52876984126915683 0.28530092592618617 0.28530092592563527 0.47172619047657416 0.52876984127050208 0.68303571428610077 0.92303240740747883 0.81192129629659726 0.90327380952381153 0.7078373015874424 0.81696428571426005 
</DataArray>
<DataArray type="Float64" Name="1_diff_m" NumberOfComponents="9" format="ascii">
0.040000000000000001 0.02 0 0.02 0.01 0 0 0 0 0.040000000000000001 0.02 0 0.02 0.01 0 0 0 0 0.040000000000000001 0.02 0 0.02 0.01 0 0 0 0 0.040000000000000001 0.02 0 0.02 0.01 0 0 0 0 0.040000000000000001 0.02 0 0.02 0.01 0 0 0 0 0.040000000000000001 0.02 0 0.02 0.01 0 0 0 0 0.040000000000000001 0.02 0 0.02 0.01 0 0 0 0 0.040000000000000001 0.02 0 0.02 0.01 0 0 0 0 0.040000000000000001 0.02 0 0.02 0.01 0 0 0 0 0.040000000000000001 0.02 0 0.02 0.01 0 0 0 0 0.040000000000000001 0.02 0 0.02 0.01 0 0 0 0 0.040000000000000001 0.02 0 0.02 0.01 0 0 0 0 0.040000000000000001 0.02 0 0.02 0.01 0 0 0 0 0.040000000000000001 0.02 0 0.02 0.01 0 0 0 0 0.040000000000000001 0.02 0 0.02 0.01 0 0 0 0 0.040000000000000001 0.02 0 0.02 0.01 0 0 0 0 0.040000000000000001 0.02 0 0.02 0.01 0 0 0 0 0.040000000000000001 0.02 0 0.02 0.01 0 0 0 0 0.040000000000000001 0.02 0 0.02 0.01 0 0 0 0 0.040000000000000001 0.02 0 0.02 0.01 0 0 0 0 0.040000000000000001 0.02 0 0.02 0.01 0 0 0 0 0.040000000000000001 0.02 0 0.02 0.01 0 0 0 0 0.040000000000000001 0.02 0 0.02 0.01 0 0 0 0 0.040000000000000001 0.02 0 0.02 0.01 0 0 0 0 0.040000000000000001 0.02 0 0.02 0.01 0 0 0 0 0.040000000000000001 0.02 0 0.02 0.01 0 0 0 0 0.040000000000000001 0.02 0 0.02 0.01 0 0 0 0 0.040000000000000001 0.02 0 0.02 0.01 0 0 0 0 
</DataArray>
<DataArray type="Float64" Name="2_diff_m" NumberOfComponents="9" format="ascii">
3 0 0 0 3 0 0 0 3 3 0 0 0 3 0 0 0 3 3 0 0 0 3 0 0 0 3 3 0 0 0 3 0 0 0 3 3 0 0 0 3 0 0 0 3 3 0 0 0 3 0 0 0 3 3 0 0 0 3 0 0 0 3 3 0 0 0 3 0 0 0 3 3 0 0 0 3 0 0 0 3 3 0 0 0 3 0 0 0 3 3 0 0 0 3 0 0 0 3 3 0 0 0 3 0 0 0 3 3 0 0 0 3 0 0 0 3 3 0 0 0 3 0 0 0 3 3 0 0 0 3 0 0 0 3 3 0 0 0 3 0 0 0 3 3 0 0 0 3 0 0 0 3 3 0 0 0 3 0 0 0 3 3 0 0 0 3 0 0 0 3 3 0 0 0 3 0 0 0 3 3 0 0 0 3 0 0 0 3 3 0 0 0 3 0 0 0 3 3 0 0 0 3 0 0 0 3 3 0 0 0 3 0 0 0 3 3 0 0 0 3 0 0 0 3 3 0 0 0 3 0 0 0 3 3 0 0 0 3 0 0 0 3 3 0 0 0 3 0 0 0 3 
</DataArray>
</CellData>
</Piece>
</UnstructuredGrid>
</VTKFile>
