<?xml version="1.0"?>
<VTKFile type="UnstructuredGrid" version="0.1" byte_order="LittleEndian">
<UnstructuredGrid>
<Piece NumberOfPoints="669" NumberOfCells="1271">
<Points>
<DataArray type="Float64" NumberOfComponents="3" format="ascii">
0 0 0 0.01142230349469592 0.01018508895725519 0 0 0.02040816326539097 0 0.0211689540835866 0.020294207212749191 0 0.024999999999941638 0 0 0.038487747360091522 0.016387646381637401 0 0.057137757658075793 0.024268715362519691 0 0.049999999999868497 0 0 0.050584644170265841 0.049990004250751632 0 0.035194166143748373 0.036267990104473 0 0.034597865044751562 0.059538283100065183 0 0.01831348993664601 0.050179875844019929 0 0.01479277905737322 0.034115505761851322 0 0 0.040816326530782043 0 0 0.061224489796173009 0 0 0.081632653061564198 0 0.017559835652970961 0.090791477478020521 0 0.019904986126699369 0.070829013869890683 0 0 0.1224489795923462 0 0 0.1020408163269553 0 0.01752448428357762 0.1117329240166892 0 0.034087126905203192 0.1209861277781773 0 0.033420380235769848 0.1007185673550383 0 0.049315670342561173 0.11135059134879691 0 0.034559277816410987 0.081557337373673669 0 0.049933671108161173 0.09180167525965921 0 0.049796226955297958 0.071615432852654121 0 0.065437769419401298 0.08280988356141343 0 0.082207783798225631 0.091809159878798771 0 0.08048382778577895 0.07165939129726534 0 0.064954619147309406 0.1186102718044463 0 0.065519376542323787 0.1020060103813805 0 0.081723953713685502 0.11220798238239139 0 0.10000000000000001 0.1224489795916153 0 0.10000000000000001 0.1020408163263421 0 0.1193707164044376 0.1125679358902586 0 0.10000000000000001 0.081632653061067179 0 0.11606503917892 0.092831191981644676 0 0.11690923237079839 0.075771674886482066 0 0.1224113123827702 0.061448209743527132 0 0.10000000000000001 0.061224489795794243 0 0.10000000000000001 0.040816326530532299 0 0.1184025638397351 0.044620515969080433 0 0.1186263405973806 0.02146853907924717 0 0.1249999999999323 0 0 0.10000000000000001 0 0 0.10000000000000001 0.020408163265267731 0 0.080950281899397181 0.026970278689124379 0 0.088491713649877388 0.01129776753660997 0 0.07499999999993355 0 0 0.06741623899727188 0.043431041269210921 0 0.06509133171351128 0.061536721924481862 0 0.083041428864014916 0.050921892867974709 0 0.050681115828930867 0.2338229575691996 0 0.03448062345771255 0.2244549899732417 0 0.035044952342158563 0.24106236961369701 0 0.018276046286366789 0.2346569619749424 0 0 0.24489795918469251 0 0 0.22448979591930149 0 0.01813385366505697 0.21423242064792419 0 0 0.20408163265391041 0 0.022590909383721831 0.193876901480074 0 0.034240177428924802 0.20791141743876301 0 0.04969390113859834 0.21423550516797571 0 0.046884061550076732 0.193694199006016 0 0.048721457694656217 0.17257507427118859 0 0.033420380235796229 0.16194305715095261 0 0.033713404616886128 0.17948881606389691 0 0.017862939923022101 0.17299945827242441 0 0 0.18367346938851939 0 0 0.16326530612312831 0 0.017557422113159259 0.15204513975638309 0 0 0.14285714285773729 0 0.019544808628996119 0.13227401154704449 0 0.034701880267502531 0.1427098376949861 0 0.050138286194651653 0.15298503633874441 0 0.052231975381521037 0.1324697710711607 0 0.077414369161380808 0.1326877944589693 0 0.065624975193025958 0.14668813426213809 0 0.081901288188702154 0.15300751489505149 0 0.1174898008840846 0.1331867759582076 0 0.1175420552789147 0.15407926242860459 0 0.10000000000000001 0.14285714285686729 0 0.10000000000000001 0.1632653061221139 0 0.11978664759106671 0.17378679195518171 0 0.10000000000000001 0.18367346938736059 0 0.08203495185231767 0.1733933457964697 0 0.065519376542343369 0.1632305001771566 0 0.064573308855414555 0.1827183821049243 0 0.064922507376808658 0.2042262839077679 0 0.082462982647801664 0.21331178501156911 0 0.080213352408965294 0.1935601468195437 0 0.1179650481476958 0.19395359297824899 0 0.118251282515941 0.21434328312796541 0 0.10000000000000001 0.2040816326526072 0 0.10000000000000001 0.2244897959178539 0 0.1196411169347522 0.23417893462189651 0 0.10000000000000001 0.24489795918310051 0 0.082434440530604086 0.2344395919219435 0 0.066550695307560026 0.22337802660622719 0 0.065887406526959957 0.243520122977081 0 0.1803923621874117 0.2350721694306753 0 0.16544345018314929 0.22441455716010009 0 0.1656326879234451 0.24591570613172009 0 0.14999999999999999 0.23469387755047719 0 0.13456235237746339 0.24500521531303579 0 0.13442516408404931 0.22348406776255161 0 0.15007329751724069 0.21439056432255349 0 0.13448062345767151 0.20411643859755699 0 0.15099965224697401 0.19488707739494221 0 0.16624314873554441 0.1879510426105753 0 0.1665307878479344 0.20572991586433159 0 0.182437651689622 0.21535300588337669 0 0.18220438540200179 0.1944830658403745 0 0.17740909061637691 0.17347003729559951 0 0.1657513197372206 0.1594396142326181 0 0.15305048524190379 0.17377280654293539 0 0.13538843078167409 0.18465469885487151 0 0.1350581294499858 0.1631715257908827 0 0.15026643183466451 0.15315303556232479 0 0.1334133788043316 0.14419483090347149 0 0.1490618000340336 0.13354315300635719 0 0.1655208365342892 0.1429012090911895 0 0.18190603532279709 0.15297428583016251 0 0.18204629479690579 0.13259155109353479 0 0.20000000000000001 0.14285714285686729 0 0.20000000000000001 0.1632653061221139 0 0.20000000000000001 0.18367346938736059 0 0.20000000000000001 0.2040816326526072 0 0.20000000000000001 0.2244897959178539 0 0.20000000000000001 0.24489795918310051 0 0.16603426526419821 0.034551784510876177 0 0.1649190643229608 0.051610769795356559 0 0.17758868761723479 0.061448209743529061 0 0.18159743616027119 0.044620515969083022 0 0.18137365940259939 0.021468539079240921 0 0.17499999999992691 0 0 0.1499999999999812 0.019347194163136659 0 0.14999999999986449 0 0 0.133965734735811 0.0345517845108698 0 0.15000000000000541 0.04202556158248167 0 0.15000000000000291 0.061592918139992209 0 0.13508093567705259 0.051610769795354013 0 0.1353873695908793 0.070572908111639798 0 0.13083011011621179 0.085621994819866154 0 0.1500000000000003 0.082754298738459714 0 0.1339798845637783 0.12436412822187751 0 0.13729388873166179 0.1023778823952045 0 0.1495659357065581 0.1160212363504303 0 0.16474528825785331 0.1240149099611676 0 0.1624163899197259 0.1023444395693307 0 0.18038190319399611 0.11250011162707339 0 0.16461229106700889 0.070572815074242262 0 0.16916988988378831 0.085621994819866112 0 0.18390747410979491 0.092823655952401884 0 0.18308771355017059 0.075770837549899717 0 0.20000000000000001 0.081632653061067179 0 0.20000000000000001 0.1224489795916153 0 0.20000000000000001 0.1020408163263421 0 0.20000000000000001 0.040816326530532299 0 0.20000000000000001 0.061224489795794243 0 0.20000000000000001 0 0 0.20000000000000001 0.020408163265267731 0 0.20000000000000001 0.46938775510081349 0 0.20000000000000001 0.48979591836606012 0 0.20000000000000001 0.4489795918355669 0 0.20000000000000001 0.38775510203982688 0 0.20000000000000001 0.40816326530507357 0 0.20000000000000001 0.42857142857032021 0 0.18325836764088671 0.41877131765403758 0 0.1678993374574537 0.41227558106332313 0 0.16486839158780961 0.42911655550541788 0 0.1835035605267652 0.37684606379730801 0 0.18145636609235621 0.39760889035922969 0 0.1590796445681312 0.39752009998763538 0 0.16808183473658339 0.38284534431619488 0 0.14758268242986849 0.37795623736288009 0 0.14222792399878409 0.39786457081023952 0 0.12958588012362521 0.38854957275118918 0 0.1471972919610888 0.41765852570269962 0 0.12956561463945701 0.40722370094525001 0 0.12770390311156399 0.4225752329701174 0 0.13557920586909039 0.43627706363300761 0 0.1513116812867096 0.43834917559890008 0 0.1480872361161138 0.45684491272621808 0 0.13344928296369571 0.4694938915139954 0 0.13520505698604041 0.48912783299912532 0 0.153167719632606 0.48149840314876807 0 0.17526869699737879 0.48832510014509162 0 0.18441816018797569 0.47481647337470573 0 0.18265548092094361 0.45774261505345848 0 0.1804455752204428 0.43863917739846398 0 0.16543207253167019 0.44894184505373702 0 0.1675960231703342 0.46795178119869291 0 0.20000000000000001 0.26530612244834711 0 0.20000000000000001 0.28571428571359381 0 0.20000000000000001 0.30612244897884039 0 0.20000000000000001 0.32653061224408708 0 0.20000000000000001 0.34693877550933372 0 0.20000000000000001 0.36734693877458041 0 0.1806517168785205 0.35670628066642129 0 0.1653573453988362 0.34665182533099642 0 0.165032361241818 0.36633409457349941 0 0.13557525325812969 0.35967857126755332 0 0.12775528850740131 0.37330265380420902 0 0.15147740158127609 0.35745698072931648 0 0.14774379768972931 0.3396134091277907 0 0.13328474866367479 0.32660840823796738 0 0.15086677726986339 0.31734083365852572 0 0.16669509242703981 0.32780279965744202 0 0.18301081578853559 0.33665564153755512 0 0.18236084804227889 0.31661915023493248 0 0.17725565366339521 0.29597120632687002 0 0.16460316600993899 0.28192650159382471 0 0.1658410114085293 0.31027529637917589 0 0.13519545391580401 0.30988030404201328 0 0.13419775652828331 0.2815490638819142 0 0.15000000000000011 0.2959183673462174 0 0.1490676730779342 0.27463626304325772 0 0.13342038023573891 0.26398387347687902 0 0.149928757305935 0.25504848184256779 0 0.1655193765423284 0.26527131650339753 0 0.1817267433275371 0.27563345453832899 0 0.18223385160616901 0.25523800109706041 0 0.065222566198049781 0.26521800492335401 0 0.081999413804559135 0.27457154194069627 0 0.080374759265124107 0.25493738936805932 0 0.10000000000000001 0.26530612244834711 0 0.1175700173193866 0.25407021251785272 0 0.117879988473238 0.2750344757711819 0 0.10000000000000001 0.28571428571359381 0 0.1227443463366049 0.29586552836556462 0 0.10000000000000001 0.30612244897884039 0 0.082377209809221474 0.29566843568477108 0 0.066499187658319206 0.28460643497235039 0 0.06587473727167388 0.30474581490988861 0 0.065223004343181387 0.32644460601838809 0 0.08199941380456674 0.33579603173644101 0 0.080374759265136583 0.31616187916380162 0 0.10000000000000001 0.32653061224408708 0 0.11802433056173341 0.31579546017135279 0 0.11567812018548709 0.33294587955556099 0 0.1000
[...]
<CellData Scalars="pressure_p0," Vectors="velocity_p0," Tensors="">
<DataArray type="Float64" Name="pressure_p0" format="ascii">
0.9966049703463975 0.98980224925328253 0.98303751351311652 0.97506070790725863 0.96977409896926137 0.98984023460778481 0.98777271546838041 0.99453745120582271 0.9756833854385395 0.97435854939464239 0.98644787942205192 0.99191042821380959 0.94834741087486241 0.93895261366244487 0.963157763442821 0.96077007972777939 0.93961875991827548 0.95140124084487032 0.93981760902830125 0.95133795030123569 0.95981220942108836 0.96822000145593623 0.95829609726631904 0.94925976924747868 0.9392555401306284 0.92877128106511142 0.91891561851971137 0.90851168438546903 0.91894072373667213 0.9089775392470929 0.92935845517843141 0.87784802834729969 0.88792576006680979 0.89847826074574533 0.89891901038527877 0.88885412696893762 0.8783356456090281 0.88898157118707943 0.87839783664732041 0.89870972200086685 0.89828057433093322 0.87918978863422415 0.88934437550319878 0.92909631551646576 0.90864080664146385 0.91834185146890401 0.90779414359071775 0.91792433609906987 0.92801265389486143 0.92799800109055963 0.90779164873119655 0.91790718843276609 0.91829959859364418 0.92849448861795192 0.88905857849648506 0.87883131715499097 0.8979922824619937 0.89798068047689183 0.87755174787674528 0.88776740723668668 0.88775510203578722 0.88764742273055186 0.89740766325185017 0.89752001860246455 0.8772654361938661 0.87662705331570878 0.9271237274163755 0.92857142856637298 0.90817245691390713 0.90816326530245184 0.90783177954167371 0.91525837944529675 0.91658816002237198 0.930735735774739 0.93385187519545165 0.9442355948269725 0.94901243026011417 0.95111288922457582 0.94897959183149849 0.96436487279626082 0.96645305347760946 0.99284382030645368 0.98943135639741953 0.98979591836843261 0.98604109921185978 0.96938775510317587 0.972435657033067 0.97060174382441333 0.98044126349112926 0.99623407748743753 0.98724398458537621 0.98292033531973766 0.96844332157345103 0.95955892906589024 0.93862733132431364 0.94803678135187419 0.93873140867663718 0.96043050061700819 0.75591272305243851 0.77618783701628946 0.76642629772703896 0.77582884925933748 0.76688656111674958 0.75673197420077964 0.75638129829949907 0.75510276843964563 0.76531842782342729 0.77554027400895786 0.77555187599686337 0.7666085596685569 0.78446705750716605 0.79465975366028152 0.78573205044856975 0.79593634858803597 0.80612266566437718 0.80150582752466604 0.81098002797364888 0.79471962629281134 0.78446602932317577 0.79594800410727651 0.78605339489202974 0.80645371178004122 0.82715868125961167 0.81700411499844983 0.837069796518085 0.83749894420928439 0.8286643509787972 0.81808063702784883 0.8178782748873149 0.82668725556935307 0.81648339045091056 0.8372300321131676 0.83767078176282794 0.82852288965764731 0.84776732193775828 0.85765700379006948 0.85760790207281135 0.84727747058609415 0.8674732887641744 0.86801000774976833 0.8679447545703689 0.85727845174456252 0.84745402307184414 0.84569877650882597 0.85595235287417881 0.86271810014472328 0.87207738761548259 0.84569128363118229 0.85587218551856759 0.85714918262295692 0.86733536104273912 0.86716903386320865 0.86734693876805646 0.85662560624234385 0.85617971021408334 0.84693877549958274 0.84659942951534406 0.84695667871514746 0.83628954646179676 0.83632080655181995 0.81586830533079024 0.81619538184520413 0.82642481081509223 0.82655595957213523 0.82653061223163449 0.81645767936557712 0.83677794442244413 0.83678954644482517 0.82688592406561212 0.81677604183831531 0.80649839581722749 0.79630059482997284 0.78636130158173501 0.79634881187235829 0.80622825039131563 0.80609710162909942 0.80612244896703222 0.79587383036676873 0.79586222835984921 0.78569509607189647 0.78603892881806647 0.78571428570550561 0.77599790475804853 0.77566266206674239 0.75558187911886032 0.75561763119305347 0.76530612244552199 0.76547777006913731 0.76539088434040714 0.75524168654372692 0.77591960908319391 0.77629019888963602 0.76622075291463076 0.75570096531230035 0.75459137427161838 0.77505342232570773 0.76499195288848498 0.76486585558546816 0.75508414163163162 0.75478064466216643 0.76560561300797336 0.76577726068166485 0.7755003334992121 0.77581049666109458 0.79553530644312342 0.79499748066017928 0.78600297633680682 0.78601873675744138 0.80575842310450818 0.80544726160845759 0.80381065455343048 0.80394532505153182 0.78515498738764389 0.78483417351367679 0.79481133727884601 0.81612447563422164 0.81469861790912024 0.8367634567653679 0.83803868741544485 0.83110584717996017 0.83787818110583379 0.81446302434255169 0.82160203770252649 0.8261336561628585 0.81556180561292213 0.8261289943846557 0.8366342105982747 0.85680086736620287 0.85636966011299154 0.84618479357457344 0.84649353584025167 0.86608475495854997 0.86596596259064285 0.86651357591685285 0.86683077654079854 0.84816871359898949 0.84822829683273171 0.85717765122005596 0.86736744206362015 0.84696775492978693 0.85719233995804156 0.82653039553558005 0.80592061050096153 0.78535852164548303 0.79536076500228658 0.77502834273007259 0.75493062324877647 0.76518002496641979 0.95727062808464392 0.95640564327045696 0.93874116571371902 0.93878940182232551 0.94744016818773991 0.94423559484119179 0.96645305349598742 0.97487749409872704 0.98639475558819401 0.99284382030917628 0.99355093528232685 0.98639475559259426 0.97487749409542679 0.99355093528432858 0.95640564324950117 0.95727062807842311 0.96802515328253502 0.96802515328234962 0.94825691690049574 0.948256916902114 0.9387893708063848 0.93874113469888298 0.9474401681644975 0.92267780741645522 0.92035026613794346 0.90638964361083207 0.90974860803501789 0.92835998939083231 0.92835995837451968 0.8857455843490738 0.88689668450692216 0.89308548057161841 0.90417445979086186 0.87547356685707745 0.87535716078633863 0.88704684624810526 0.88587313801799172 0.89744393094055175 0.87748645250206558 0.87696447571142833 0.90640330321377927 0.92035029714006622 0.90975975564330314 0.91526117054656875 0.93073604587852876 0.92267811750529249 0.93385215431163937 0.92712400653414972 0.91659095113474098 0.90783429154918904 0.88767003079811779 0.89754513869790231 0.96436487281208927 0.95111288926012583 0.98604109922597805 0.97243565703533918 0.5219999509302593 0.56126993398426095 0.55154620513834873 0.54129667922557234 0.53268438536874141 0.60215758076675496 0.62268396515687718 0.61259664794872326 0.58149799612288944 0.5918188422159919 0.57133935873037356 0.57115764974771366 0.57994551521819337 0.59044807029146318 0.59084859774409659 0.58031644588083608 0.6246581658064132 0.6142332338579517 0.60734188845850734 0.5975318095283616 0.62428810795770562 0.6138927728121456 0.60888636398583218 0.59565226785062186 0.60212071851824989 0.62006384539351 0.61187653973148581 0.57162524768944878 0.56923841165233302 0.58418084678553783 0.59241773419014387 0.57449639254165108 0.56910536468917516 0.55997705849597712 0.55230595731621102 0.5561762826205251 0.55195468879200482 0.54123368134504068 0.52041790500274454 0.51995995737028045 0.50026664897458817 0.50044500465543795 0.50527858963325079 0.50967325600025348 0.53072093078688598 0.53123496754132571 0.52074157172314772 0.50928822144001196 0.50576688818856586 0.50159491696560088 0.51568750258111795 0.52296888163954425 0.54178791944686011 0.53316304333367281 0.55155878739204844 0.56119747453922209 0.56110080725930311 0.54208715357085824 0.74485263892532227 0.73460747382964964 0.72444871231799723 0.70406401959829146 0.68357592949888679 0.6733981986668508 0.66329165692324188 0.64300266839072728 0.65323310079622265 0.63303357229562263 0.63337118703480066 0.65332875086084297 0.64318569982681972 0.64343593319020875 0.63275089582440525 0.63496940358219867 0.62968751255174982 0.63497029665835891 0.64400823514916017 0.65150639376380848 0.64775034630407369 0.65209259495151628 0.67174765249403756 0.66252978141788277 0.6825719424686828 0.6820568179760369 0.67214578296025851 0.68176758455743736 0.68152702339671922 0.66296324451028554 0.66197732195885473 0.67297413620045798 0.69376239811773011 0.69237811565063889 0.71548961241638509 0.71422701771809005 0.70872797482375405 0.69927837658608383 0.69215516748309525 0.69228683159707227 0.69944526668768892 0.69281956909214748 0.70888901340184629 0.7159654351475313 0.71583962256274547 0.7266102664530032 0.72647752891687956 0.7456468994970773 0.74532080968520009 0.73544379377474256 0.73501464606743316 0.74458816500598757 0.74452499191759047 0.725722908994616 0.72605530615763048 0.7346190758046105 0.74544149432164064 0.73509102131222459 0.72520133944303011 0.73506164877942304 0.74495284301879339 0.74524190194196782 0.74489795918435842 0.7351963964166095 0.73563714605082531 0.72464837201872623 0.72448979591883933 0.72480268331356856 0.70409924563564796 0.70408163265212309 0.70416494321414791 0.71585031063278304 0.71446190337335524 0.69407218746649635 0.69401574540090905 0.71468191224077282 0.70499310484040056 0.71505119583300913 0.69447462343452748 0.67386582770219605 0.6842158999891057 0.66397614582743714 0.68372835320707903 0.67383715895520691 0.6836734693853026 0.68385049285111288 0.67488341729404322 0.67490934931060864 0.66475229125789592 0.65797550218599798 0.66357819349884273 0.66452824421512635 0.66326530611858614 0.64120213356959466 0.64294045340497719 0.64285714285301032 0.64825483372271675 0.62857416890051787 0.63055940723669979 0.63279125558671767 0.65345742241552562 0.64376816428753514 0.65382670599466675 0.63324968289059158 0.63345704626753241 0.64396931476104258 0.65372520802161782 0.65331622186477734 0.6443652104549753 0.63426192811972681 0.62716316827106766 0.63386009276390798 0.63259678361737604 0.65298392625079815 0.6428124430030786 0.64403604955516702 0.65294422365725391 0.66189454956487526 0.6632327077821174 0.68361791636713676 0.67338123633089642 0.6720827807070584 0.67224226781846019 0.67897919690758224 0.66193738687294568 0.66367349737762615 0.68422211289774615 0.67356939216309319 0.69468768733571828 0.7149617322885462 0.70519995583254191 0.71460405070917832 0.70565539188838222 0.6955008049749859 0.68835236926884846 0.69510141269473835 0.69382941705377166 0.70408905179608694 0.71430904461555089 0.71432064659550687 0.70537264941645217 0.72323887002605791 0.73341977195276398 0.72450570722691543 0.74488638160682152 0.7346982111280087 0.74026767859321518 0.74962736871913593 0.72323953166849053 0.73349310804736412 0.72490502490657294 0.73480091970495165 0.74544770724981968 0.53225069222413424 0.55140640872244129 0.56130093655228941 0.55196308926467741 0.56246245243344917 0.53368997164376353 0.54312184029447119 0.52584330433233561 0.51756922080802459 0.50190747655647827 0.50964212724087732 0.5149022526867435 0.50510431605637485 0.52173705679001248 0.52040816326489603 0.52023058872803263 0.50006035711826691 0.49999999999978573 0.51008686421420257 0.51030955931448185 0.52912994156526394 0.52909456273844269 0.53914936566066574 0.5459874655761342 0.54112588033248576 0.54081632653006073 0.53951159773459456 0.56122448979496597 0.55574288243966419 0.57351589990874152 0.57551463176823525 0.59258928432085156 0.58438393454348914 0.59227609619955657 0.58207201456459234 0.58163265305971046 0.58171835949834727 0.56287245677235087 0.61154142969474601 0.61180625325681293 0.61976027298772041 0.60208918088873498 0.60235370370520047 0.60204081632538764 0.60204081632426087 0.62201033488466684 0.62244897958836809 0.61261266915132828 0.62250386340272978 0.60275330010080674 0.61264298196222744 0.62299260351571184 0.57159072462181038 0.59223532851212046 0.59260461209658266 0.58269247842273519 0.57219555996131666 0.57314631021113072 0.56313258306612435 0.5829730980387744 0.59259737988444416 0.58327990023887422 0.59223969829261314 0.56588264661375254 0.57381079400303436 0.62299881642065391 0.61236134303511514 0.60246544827105009 0.60079898496811013 0.61105256132577102 0.61781866912467553 0.61096207672685576 0.60078117482563709 0.60204804175906224 0.6224374018701726 0.6122405456389779 0.57186803746306147 0.58284282133358534 0.59178480924529386 0.58156190024411547 0.5917732072683356 0.5705987183529686 0.55012369107493231 0.56046538960124059 0.54067870972082588 0.53179628217095165 0.53361757728572701 0.54514226510786457 0.55587702364050817 0.53633318286099652 0.54674765977192852 0.53595116713130919 0.54428006428593134 0.55379144388501722 0.50933792318930671 0.51836798825000852 0.52694627582723741 0.51840963006970553 0.52736993337963223 0.50937956502147719 0.50190747661662383 0.50968376909662128 0.52625972247169406 0.51760362323889098 0.52172981745886715 0.50510431614483609 0.51489501333921517 0.49833367808150614 0.48718155243944727 0.47864379282394298 0.47686646444231906 0.48561990241413999 0.49357518853356835 0.43857748205837099 0.44849277508655455 0.46815092255503865 0.45889488490617075 0.46793524420167587 0.4580091861024444 0.44782275463541532 0.44667058913964941 0.45708991820391631 0.4643518907325031 0.45721124979655026 0.44678701140117705 0.43777629752135683 0.49944438862383123 0.49141630460970986 0.4807920235849904 0.48079693290235193 0.47534018349095142 0.49141630458242958 0.49944438861171736 0.4935751884819447 0.48562241436376863 0.48718406436990508 0.47687388574876283 0.46796527359445511 0.45815312576754863 0.44816033886147011 0.43820774900888992 0.44871393704115325 0.45891749294576789 0.46817604259235152 0.45906690902640707 0.45918367347556105 0.43877551021510736 0.4387760359405643 0.4385704996491856 0.44865781682948502 0.44702459184966448 0.46941740326032871 0.47078817515979415 0.49000268809067621 0.49016464052724434 0.4983336779836679 0.47959183673691252 0.4786463047535906 0.479738249340942 0.3979591836969012 0.39886574545178144 0.37755102043850852 0.37753871524099381 0.37921245517939395 0.39032309856193426 0.39196709048403677 0.40958023889598616 0.40920225267125893 0.42827661955767615 0.42849884360764867 0.41849977254546289 0.4183976369776875 0.41836734695550615 0.40820513308910678 0.42860224433176392 0.4285875555798947 0.41966386985376453 0.40948605471714616 0.39322979365572958 0.40259194688381161 0.39797076143737181 0.38775437461169371 0.38647586409896229 0.37624860273842814 0.38612533329119858 0.37597074639709782 0.39737580536072847 0.37642128311050188 0.38693355161236903 0.42808474530175827 0.40934202146378906 0.41959251106603973 0.40800911041567534 0.41782839275034223 0.43722866798825755 0.42765353803293626 0.43746156558666954 0.42758363933077498 0.4076410609349187 0.4175255964486258 0.40769305034656828 0.41802348187710359 0.42802953534930321 0.37662019340105429 0.38706720872591571 0.39731055218152678 0.39783283377179618 0.37745976915014973 0.38753750090256822 0.36694280012536978 0.36657351655260639 0.3565192962964836 0.34665016289284534 0.35682996970112552 0.34659155272405717 0.33670035843959029 0.32647887013265964 0.31630912378547776 0.32616933323158004 0.3159879849108912 0.33644943170577557 0.33642267032096296 0.32586187630378477 0.31570728936882292 0.32477566980753392 0.31419193522243688 0.3481368633782832 0.35839043977379126 0.36702860244127283 0.36667092083826913 0.34691971607541328 0.35681561086990576 0.25379962288000901 0.26402688423241816 0.26530539472685738 0.25508973534183949 0.27552178154685208 0.28698595710817321 0.28570884228365234 0.29590134619230457 0.30608802121437473 0.30607641924330037 0.29716685904942486 0.30578734883143388 0.29715848417855367 0.30535820118071955 0.28557868334621145 0.29540311207392428 0.28690490779955108 0.28013916021317337 0.27078081380287766 0.27493002530369359 0.25397262333701748 0.26448489179580331 0.26367635346046703 0.25352176655904068 0.26508852129297328 0.26461854901722298 0.25417153368212175 0.27486477216948585 0.27538385418796013 0.28524916904016717 0.28520005929706677 0.29508974115535658 0.30518564281468963 0.30562639252931356 0.30551409138345603 0.3070908486602828 0.28564781058032995 0.28543325763354377 0.29406058198544993 0.29585189221046737 0.29591836738809552 0.29557960060859462 0.27551020412451166 0.27551020411893384 0.26602453720547059 0.2755833563733443 0.26573683201221088 0.25780999126904319 0.25553275037252943 0.25501078959103379 0.25510204085152244 0.34691432919882476 0.36731622253173646 0.36730462053906154 0.35838860153502095 0.34819008662679207 0.34134467986254619 0.33187045788511049 0.32497154384148735 0.31433274776798237 0.32636728730522607 0.33672865864873158 0.33699169240297305 0.33673469391832156 0.31616924094414534 0.31632653065625271 0.31736140547387115 0.32782248559293131 0.33230648307672267 0.34354409041958073 0.34586281402225688 0.3571428571794652 0.35580989716829092 0.35712444609730787 0.36261505984280001 0.37241217568051899 0.36681274636471228 0.36735700986475894 0.35980085968012926 0.34907666935267223 0.34452489769560246 0.34996806238405631 0.35909194865806815 0.3282567055536762 0.3340511482086671 0.31884481934827125 0.32677053293593961 0.32637346119899757 0.31801761555082364 0.33591468698703209 0.31673236371950581 0.31684485935473194 0.32641988124099047 0.33567653092060024 0.35380210958608882 0.34427229749432092 0.36145708726347903 0.3713407975487199 0.3624381416605405 0.37073809491675547 0.35423645893038813 0.34494480289560508 0.25756221605415097 0.27561489399474426 0.26580829961228958 0.26904232073453316 0.28225833522028909 0.28532477704634818 0.29392056377551673 0.31085675947798752 0.30281267018162134 0.30799845902392775 0.30642863109303115 0.29763663685767622 0.30674349256434819 0.29806399396076322 0.28761175353072133 0.28724791656296317 0.27088283072504182 0.28070853449716582 0.26377705900433102 0.25325280248393822 0.26420619829995784 0.2536184216496209 0.25491935596422799 0.26518028325527387 0.27556704974139112 0.28599199510396844 0.29613923111090601 0.30643848814059538 0.34512455411018811 0.35554019544036236 0.33652313434943393 0.3164217060959244 0.32641422804455555 0.39794672245012014 0.38922096819211333 0.37902934786303866 0.42771303806952476 0.40721313157730665 0.41742967448416468 0.47919932587935044 0.46899524426318451 0.49847389435980416 0.48787730197969598 0.45918367342085586 0.43885479217573198 0.44905887378024212 0.44063640308119223 0.44924566869459659 0.459068063124902 0.46869283905138981 0.45903652549799889 0.44930666572724676 0.44072893773881699 0.48592720483592661 0.49235182599812 0.47694682352434525 0.46881909926438081 0.47710462136162574 0.48684049750555047 0.49207395666506015 0.48960515928044157 0.47038208235971973 0.4812709736775066 0.480889848112526 0.44737645179734031 0.45237949968020397 0.46557841227124436 0.46369730978022528 0.45389059181355756 0.43709187780526726 0.43671505061989824 0.42835960553388508 0.42676255928801859 0.40912374800970541 0.40923362929596896 0.41836169351001051 0.41865553472154343 0.40088772359788155 0.40072507392308332 0.38459456300260747 0.37539865283215545 0.38384292425495803 0.37669455508263539 0.37743835815992138 0.39255607955594574 0.39309658036267203 0.40137545601189595 0.38494412076986917 0.38587886688039202 0.3750710777481584 0.40259490319633934 0.39140546089551664 0.42930785406437799 0.42400794126069824 0.43192015144780715 0.40649659252275927 0.41609827168691715 0.41687452855101992 0.030612244900491976 0.030331761021348769 0.011558329966260283 0.010204081633454466 0.011332461558455045 0.0047556088774631392 0.022459292290894262 0.020674683798899609 0.042642862231266856 0.051020408167900794 0.052150063171677113 0.049480773420029725 0.031309125590992554 0.038996207907461104 0.05561980868959053 0.04771117492943884 0.049776965613469393 0.061799276091835706 0.037890295234070601 0.020100638054983921 0.02807042709323173 0.021256059310474772 0.0045297404696243741 0.0056472998351398129 0.010177040303238441 0.013739152112966989 0.026238681619492638 0.0080918522775030501 0.012756300866213068 0.017082189853980467 0.029398500817108739 0.019559021946117288 0.010568684368513416 0.0037659632891840766 0.050970377509857549 0.061093970411922841 0.039552551843349645 0.040424412187430078 0.061214153261232973 0.051962420704008513 0.062022807509531958 0.052538607254709886 0.040102113437949144 0.031559492358749802 0.038124340441818685 0.066016301404629774 0.07925448475895347 0.090121751855730195 0.081689407604488506 0.0714