<?xml version="1.0"?>
<VTKFile type="UnstructuredGrid" version="0.1" byte_order="LittleEndian">
<UnstructuredGrid>
<Piece NumberOfPoints="8154" NumberOfCells="2718">
<Points>
<DataArray type="Float64" NumberOfComponents="3" format="ascii">
0 0 0 0.05842534974831818 0.058425349748568167 0 0 0.10000000000041601 0 0 0 0 0.099999999999814668 0 0 0.05842534974831818 0.058425349748568167 0 0.099999999999814668 0 0 0.11736878855947019 0.099262147589397345 0 0.05842534974831818 0.058425349748568167 0 0.11736878855947019 0.099262147589397345 0 0.072340659132099805 0.15787534671757081 0 0.05842534974831818 0.058425349748568167 0 0 0.10000000000041601 0 0.05842534974831818 0.058425349748568167 0 0.072340659132099805 0.15787534671757081 0 0 0.20000000000083221 0 0 0.10000000000041601 0 0.072340659132099805 0.15787534671757081 0 0 0.20000000000083221 0 0.072340659132099805 0.15787534671757081 0 0.076754417114036966 0.24517625929728579 0 0 0.30000000000124832 0 0 0.20000000000083221 0 0.076754417114036966 0.24517625929728579 0 0.15713224427556369 0.19462055031758391 0 0.076754417114036966 0.24517625929728579 0 0.072340659132099805 0.15787534671757081 0 0.15713224427556369 0.19462055031758391 0 0.13575432176650609 0.26177349842400482 0 0.076754417114036966 0.24517625929728579 0 0.15713224427556369 0.19462055031758391 0 0.072340659132099805 0.15787534671757081 0 0.11736878855947019 0.099262147589397345 0 0.15713224427556369 0.19462055031758391 0 0.11736878855947019 0.099262147589397345 0 0.2049592257883151 0.1136587120754589 0 0.15713224427556369 0.19462055031758391 0 0.1941589268096966 0.28301425698743637 0 0.13575432176650609 0.26177349842400482 0 0.15713224427556369 0.19462055031758391 0 0.2299760630703524 0.2225257972182236 0 0.1941589268096966 0.28301425698743637 0 0.15713224427556369 0.19462055031758391 0 0.23632615701395029 0.16695287371417161 0 0.2299760630703524 0.2225257972182236 0 0.15713224427556369 0.19462055031758391 0 0.2049592257883151 0.1136587120754589 0 0.23632615701395029 0.16695287371417161 0 0.2049592257883151 0.1136587120754589 0 0.28999131001604278 0.1096412864478291 0 0.23632615701395029 0.16695287371417161 0 0.2049592257883151 0.1136587120754589 0 0.17145071998201811 0.060258457788043909 0 0.23947795756627041 0.055127514674138137 0 0.2049592257883151 0.1136587120754589 0 0.23947795756627041 0.055127514674138137 0 0.28999131001604278 0.1096412864478291 0 0.2049592257883151 0.1136587120754589 0 0.11736878855947019 0.099262147589397345 0 0.17145071998201811 0.060258457788043909 0 0.099999999999814668 0 0 0.19999999999955789 0 0 0.17145071998201811 0.060258457788043909 0 0.099999999999814668 0 0 0.17145071998201811 0.060258457788043909 0 0.11736878855947019 0.099262147589397345 0 0.19999999999955789 0 0 0.23947795756627041 0.055127514674138137 0 0.17145071998201811 0.060258457788043909 0 0.19999999999955789 0 0 0.29999999999926641 0 0 0.23947795756627041 0.055127514674138137 0 0.29999999999926641 0 0 0.28999131001604278 0.1096412864478291 0 0.23947795756627041 0.055127514674138137 0 0.35406483083248758 0.078537905902684224 0 0.37053906278907522 0.16071991210652001 0 0.28999131001604278 0.1096412864478291 0 0.29999999999926641 0 0 0.35406483083248758 0.078537905902684224 0 0.28999131001604278 0.1096412864478291 0 0.29999999999926641 0 0 0.3999999999989749 0 0 0.35406483083248758 0.078537905902684224 0 0.45872229326691988 0.068538152543207831 0 0.41114656741565858 0.1169976912362575 0 0.3999999999989749 0 0 0.49999999999869432 0 0 0.51867624734975648 0.088315711926529455 0 0.45872229326691988 0.068538152543207831 0 0.3999999999989749 0 0 0.49999999999869432 0 0 0.45872229326691988 0.068538152543207831 0 0.45872229326691988 0.068538152543207831 0 0.51867624734975648 0.088315711926529455 0 0.4677358305654189 0.12029665150275309 0 0.50425007665466071 0.1543133975765052 0 0.4677358305654189 0.12029665150275309 0 0.51867624734975648 0.088315711926529455 0 0.45872229326691988 0.068538152543207831 0 0.4677358305654189 0.12029665150275309 0 0.41114656741565858 0.1169976912362575 0 0.41114656741565858 0.1169976912362575 0 0.35406483083248758 0.078537905902684224 0 0.3999999999989749 0 0 0.35406483083248758 0.078537905902684224 0 0.41114656741565858 0.1169976912362575 0 0.37053906278907522 0.16071991210652001 0 0.44588396814009912 0.17331830423126529 0 0.41260066262683931 0.20084244419234801 0 0.37053906278907522 0.16071991210652001 0 0.44588396814009912 0.17331830423126529 0 0.37053906278907522 0.16071991210652001 0 0.41114656741565858 0.1169976912362575 0 0.44588396814009912 0.17331830423126529 0 0.41114656741565858 0.1169976912362575 0 0.4677358305654189 0.12029665150275309 0 0.44588396814009912 0.17331830423126529 0 0.4677358305654189 0.12029665150275309 0 0.50425007665466071 0.1543133975765052 0 0.50086900227669984 0.19286909959646639 0 0.44588396814009912 0.17331830423126529 0 0.50425007665466071 0.1543133975765052 0 0.44588396814009912 0.17331830423126529 0 0.47076431841780703 0.21005427819658859 0 0.44102434814492297 0.21276705521226619 0 0.47076431841780703 0.21005427819658859 0 0.44588396814009912 0.17331830423126529 0 0.50086900227669984 0.19286909959646639 0 0.50493807540744373 0.22547032939714651 0 0.47076431841780703 0.21005427819658859 0 0.50086900227669984 0.19286909959646639 0 0.50493807540744373 0.22547032939714651 0 0.4815757853575543 0.24579687230515479 0 0.47076431841780703 0.21005427819658859 0 0.50493807540744373 0.22547032939714651 0 0.5053074179542888 0.25558383997991369 0 0.4815757853575543 0.24579687230515479 0 0.45279136658191632 0.2454645808094798 0 0.4815757853575543 0.24579687230515479 0 0.46983414298779852 0.25850080530540981 0 0.45279136658191632 0.2454645808094798 0 0.44102434814492297 0.21276705521226619 0 0.47076431841780703 0.21005427819658859 0 0.45279136658191632 0.2454645808094798 0 0.47076431841780703 0.21005427819658859 0 0.4815757853575543 0.24579687230515479 0 0.45279136658191632 0.2454645808094798 0 0.42308142495795342 0.2341556686316493 0 0.44102434814492297 0.21276705521226619 0 0.45279136658191632 0.2454645808094798 0 0.43237610775568341 0.25442832268994081 0 0.42308142495795342 0.2341556686316493 0 0.3848394463845129 0.2263717102278168 0 0.42308142495795342 0.2341556686316493 0 0.41326197172237811 0.26477705272558139 0 0.3848394463845129 0.2263717102278168 0 0.41260066262683931 0.20084244419234801 0 0.42308142495795342 0.2341556686316493 0 0.42308142495795342 0.2341556686316493 0 0.41260066262683931 0.20084244419234801 0 0.44102434814492297 0.21276705521226619 0 0.44588396814009912 0.17331830423126529 0 0.44102434814492297 0.21276705521226619 0 0.41260066262683931 0.20084244419234801 0 0.3848394463845129 0.2263717102278168 0 0.37053906278907522 0.16071991210652001 0 0.41260066262683931 0.20084244419234801 0 0.3848394463845129 0.2263717102278168 0 0.38383376806569858 0.26564947200433758 0 0.35426299167392977 0.25566377588317091 0 0.3848394463845129 0.2263717102278168 0 0.35426299167392977 0.25566377588317091 0 0.34214461957799158 0.21523300106526999 0 0.31214747383698288 0.25112655154953339 0 0.34214461957799158 0.21523300106526999 0 0.35426299167392977 0.25566377588317091 0 0.29454411933247859 0.1942182557279433 0 0.34214461957799158 0.21523300106526999 0 0.31214747383698288 0.25112655154953339 0 0.29454411933247859 0.1942182557279433 0 0.37053906278907522 0.16071991210652001 0 0.34214461957799158 0.21523300106526999 0 0.3848394463845129 0.2263717102278168 0 0.34214461957799158 0.21523300106526999 0 0.37053906278907522 0.16071991210652001 0 0.29454411933247859 0.1942182557279433 0 0.28999131001604278 0.1096412864478291 0 0.37053906278907522 0.16071991210652001 0 0.29454411933247859 0.1942182557279433 0 0.23632615701395029 0.16695287371417161 0 0.28999131001604278 0.1096412864478291 0 0.29454411933247859 0.1942182557279433 0 0.2299760630703524 0.2225257972182236 0 0.23632615701395029 0.16695287371417161 0 0.29454411933247859 0.1942182557279433 0 0.31214747383698288 0.25112655154953339 0 0.26096379286661558 0.26049523993944562 0 0.2299760630703524 0.2225257972182236 0 0.29454411933247859 0.1942182557279433 0 0.26096379286661558 0.26049523993944562 0 0.31214747383698288 0.25112655154953339 0 0.33311531983516163 0.2900242391831786 0 0.29133531002072288 0.29497461088982602 0 0.31214747383698288 0.25112655154953339 0 0.29133531002072288 0.29497461088982602 0 0.26096379286661558 0.26049523993944562 0 0.24927312991543321 0.30440455294938212 0 0.26096379286661558 0.26049523993944562 0 0.29133531002072288 0.29497461088982602 0 0.24927312991543321 0.30440455294938212 0 0.29133531002072288 0.29497461088982602 0 0.2758036611798465 0.33390647906391752 0 0.24927312991543321 0.30440455294938212 0 0.2758036611798465 0.33390647906391752 0 0.22923034702400041 0.35053314200320362 0 0.26753744944632751 0.37054224588696222 0 0.22923034702400041 0.35053314200320362 0 0.2758036611798465 0.33390647906391752 0 0.26753744944632751 0.37054224588696222 0 0.2758036611798465 0.33390647906391752 0 0.29802987609523812 0.36401212783612041 0 0.31707099091965479 0.32634615672318712 0 0.29802987609523812 0.36401212783612041 0 0.2758036611798465 0.33390647906391752 0 0.31707099091965479 0.32634615672318712 0 0.2758036611798465 0.33390647906391752 0 0.29133531002072288 0.29497461088982602 0 0.31707099091965479 0.32634615672318712 0 0.3526372068749562 0.31622021338183232 0 0.35416638226653291 0.35362079862294732 0 0.32485893223225848 0.3964700485667062 0 0.29802987609523812 0.36401212783612041 0 0.35416638226653291 0.35362079862294732 0 0.31707099091965479 0.32634615672318712 0 0.35416638226653291 0.35362079862294732 0 0.29802987609523812 0.36401212783612041 0 0.39881017495814691 0.37981101166726439 0 0.36154998589044901 0.38764479892760112 0 0.35416638226653291 0.35362079862294732 0 0.38219790646865398 0.31801123808619858 0 0.35416638226653291 0.35362079862294732 0 0.3526372068749562 0.31622021338183232 0 0.37230232040674199 0.29154528135320651 0 0.38219790646865398 0.31801123808619858 0 0.352637206874956
[...]
<PointData Scalars="tracer_conc,region_id," Vectors="" Tensors="">
<DataArray type="Float64" Name="tracer_conc" format="ascii">
0.027959741134110906 0.039738654499290822 0.028831970338519398 0.027822138577037636 0.048911353538200968 0.03911214845828908 0.050303330977321578 0.054598860264048241 0.039181331981842746 0.057693127672363391 0.036538679919289205 0.042554214057941374 0.027068657007167818 0.042047836284933519 0.036323817379987001 0.0067008471162400881 0.024738702903320701 -0.00094386855125869825 0.060844943189204213 -0.052948760798702275 0.23873716384148033 0.57200677147663603 0.036740062784107769 0.40445784622505798 -0.0085571252312777544 0.24829672869105285 -0.061031986389081201 -0.049886483132401349 0.59883986413051915 0.37199926083001233 0.04164905479816803 0.031189656331991666 0.061127265044669997 0.042007574729437523 0.061989097247215214 0.090838298963908423 -0.062141920150334352 0.90765608664482889 0.60812548806486011 -0.074085822792561207 0.2435198858405139 0.91579453455995252 0.055344537965767868 0.051807725008365557 0.12654742344764316 0.0385640388445527 0.093967093552411757 0.080202420796186474 0.089418621368775292 0.13611050812484107 0.096393200479038404 0.089100957223452473 0.074503462617475244 0.10613210294712032 0.089027810161221146 0.10738693143667724 0.13597800228845958 0.087619147376048478 0.054598744663880372 0.074271829602319137 0.049761831076842747 0.085913180218227969 0.074154915932933108 0.050466744677151197 0.07315024429847837 0.055038002837733052 0.087907751079623744 0.10630722313399057 0.074681915414703967 0.087747573980152635 0.14398311902977773 0.10773913291190927 0.14748499574651217 0.13850642496389426 0.10713394688175373 0.19229840318226812 0.19743703082200723 0.13677495376778251 0.14850257202063996 0.18905684685746538 0.13894518913091244 0.1480777897397795 0.23675395258563622 0.19039719933999433 0.31071276123151315 0.24908809670924728 0.2419530819616604 0.37645334208361142 0.40336806375069495 0.31186510562371839 0.23952776870733558 0.3713967620959796 0.31147892390207671 0.31508345097917739 0.40003694270314072 0.318499811863583 0.3673429186717575 0.31702482499616225 0.40171269192580328 0.31408613247090478 0.31733162466242609 0.2449592878252638 0.24805783361086545 0.19029634456274624 0.24118186386158677 0.19348375511108346 0.24664879503069259 0.19900048073938686 0.29541138674770717 0.20167961702891024 0.21789645567847904 0.27506164021729412 0.19645024953147294 0.24827369847577291 0.27721351427980501 0.24883673745021564 0.31764012396646074 0.27701401989410046 0.31929828735042665 0.3640531287218513 0.34779858452769669 0.27473297892086962 0.36355222105780444 0.30483672366084397 0.26865973555604261 0.19425915328094875 0.29292767374689815 0.27971341484105833 0.34554728588221123 0.33252033719498431 0.29056450853322602 0.34630793700220486 0.24297761902783568 0.43577458866657032 0.21081552509757109 0.21300517314278111 0.56068940554655577 0.49348814553040776 0.78228607489094792 0.72998357475129561 0.97324309574402135 0.57480741283854919 0.18658113688899433 0.14561872076248919 0.57430716683734928 0.14624141534100943 0.471136393847567 0.5748121950065247 0.4412957866857205 0.18645554125573849 0.73706887872796145 1.0281950513929605 0.40837719587298837 0.31681747103324226 0.48673779128236117 1.1253968891945272 0.32067264393304085 0.12086205092015047 0.40966072432985318 0.41033591627774191 0.12042496327053608 0.18847679369221482 0.30411472293373371 0.19426745485391142 0.18931811026776729 0.21897417348379719 0.17836902180441369 0.16735054975080454 0.31913833376607215 1.1284526740356153 0.90680932289246718 0.29344290053216077 0.90081200583410137 0.08253911729034917 0.77119189076424244 0.083617178242931786 0.90074876574561358 -0.021444344764665044 0.11735034375445419 0.64676850993483614 0.13354899916449289 0.17646612488763352 0.17745552284492497 0.2184739895483237 0.17765236565132903 0.17806930858235701 0.12559558951738392 0.13966467626857967 0.18564451233505305 0.12509756640570519 0.095565028853277972 0.13865880540879011 0.030604266036617308 0.12996658576657077 0.050555074926693699 -0.063228324315115825 0.68139257791081587 0.80395029627842618 0.26434273108043976 -0.057751819138695197 0.79763017378325496 0.90805549945775366 1.01507739001622 0.99007379153101882 0.9066740649250955 0.99497458041802367 0.87572681706928313 0.95318760617947251 0.88550416150568423 0.99047735108793722 0.92949693393267951 0.95756212009212571 0.97268930470043591 0.9504869083711508 0.98877283646954639 0.88973082051719121 0.70656990623654403 0.82755828226465278 1.0151761919399593 0.70816055054988913 1.0121579984166813 0.84129792741089349 1.0335099217345634 0.86254053551176735 0.97000726199828913 0.98949638027325493 0.9730051520549684 0.95580824161335498 0.9794087930204739 0.98749307002997289 1.0215355528393792 0.15743343754590572 0.75158889113997995 0.96231632265945011 1.0297475840340129 1.0099172900007898 0.8661967732713971 0.46005963402475603 0.30189441782665477 0.97202113334156903 0.99419891820008766 1.0234625596323959 0.98499537884068999 0.9926399634624572 0.99764510933099426 0.99186431124162211 0.99364465574491767 0.99195109740615317 0.98252637591449454 0.97871757453376962 0.96381281379415751 0.98474558738219942 0.97846771066069493 0.98351240325706735 0.99175968614167831 0.90667525182687725 0.99201280230211197 1.0147114447314927 0.99482733433472958 0.9814098779633178 1.0038724064183469 0.99207294268654445 1.0070801905230264 1.0461712161226036 0.32179837979450127 1.1234763609623557 1.1260414294600396 1.0238869950582559 0.98649764282234242 1.0161915560438866 0.98309335972077927 1.0154030381221653 0.98728349917765046 0.99265512822785962 0.99755479733535235 0.99720626231851428 0.99755211402086108 0.9988047032727172 0.99651884956998804 1.0238604324594693 0.98819566595169162 0.98581448250447468 0.99778529621673639 0.99921332040374189 0.99833556995935391 0.99948638986462801 0.99822928780233311 0.99915521488976755 1.0001723163211533 0.99855601924802717 0.9994647434159647 1.0266482036194247 1.0156817592949454 0.98672270287301511 1.0037661921758794 0.92637336577874674 1.0647702489626156 1.1063338651017998 0.50337947015216578 0.99104506645006618 0.92784049921360467 0.85842019379870826 1.0631891667516884 0.85961482491928831 1.0642558302659149 1.0616149095839411 0.99387932801130929 0.99481507717438711 0.99966138623893952 0.85655449179412024 1.010160240511323 1.0657191145021094 0.97096992379433833 0.73139462580196235 1.1056298125071939 0.86509817260330624 1.1177116281132948 0.66655398167033908 0.73269597972760048 1.0880701970298912 1.1045187729378598 0.99787223324476848 1.0019922579660967 0.99332527224082201 0.99638745287867736 0.9932230746630516 1.00204359539975 0.99552388726676044 0.99477595418267029 0.99634590345732155 1.0459776316035825 0.99659673318495323 1.0322322246500653 0.99541538212928937 0.99647886731350654 0.99505571848720553 1.0002241465102502 0.99501465147385959 0.99740483413186243 0.99969364266889105 0.9978253447885731 0.99972203270712356 0.9997144209661939 0.99783880599355557 0.99743014534509633 0.99849471692233349 0.99730188223359961 0.99679055728384902 0.99854493224458418 0.99956314685281722 0.99747125152717853 0.99857502283139876 0.99988262386217186 0.99939923093470073 0.99979380518328376 1.0001009099918576 0.99948560372770223 0.99966642295956021 0.99746068320346115 0.99956995432538931 0.99953516629254635 0.99948197085465795 1.0001077848071702 1.000514833978903 0.99951926335476682 1.0001814615222229 1.0004013588065395 1.0000967315478304 0.99973172052274872 1.0005473641571969 1.0002892906068861 1.0005146162730043 1.0005498207553056 1.0003971578830599 1.0002879627597592 0.99955452554306146 1.0006078765153243 1.0008041728827584 0.9995240154190399 0.99950726140170321 1.0005435365991333 0.99960017697672143 1.0007961810765993 0.99939529100617674 1.0003329876188742 0.99947421275709369 0.9948618984875407 0.99367825123325748 0.99985689774104836 0.99802506094546573 1.0000911684200477 0.99935642819227111 1.0008609686008685 0.99686110481593915 0.9985303635416436 1.0105206696946289 1.0149013931626953 1.0129299001163128 0.99742461597934828 1.0006885957389842 1.0000374654629463 1.000490108264342 1.0147364205698923 0.99734266863443033 1.011977259951885 1.0007106483873474 0.9988584888126979 0.99968731031640312 1.0006291324895051 1.0000735699806778 1.000649961153377 0.99856531982975538 1.0335437241613632 0.92408548733711349 1.1345474965533304 0.81166124568529474 0.46455183263528155 1.1305612699259828 0.47354917477328656 1.1371946567273894 0.47413281576023464 1.1473099577708248 0.46854548329507312 0.48629559391223764 1.1425880395445012 1.1417954349031842 1.0066941808977541 0.9989154895916349 1.0106302580902811 0.99702261503387246 1.0104216545468716 0.99859587449849763 1.0063366676776035 0.99697764343548434 0.99949273259464388 1.0477419586258276 1.0271784001678239 0.99197537355982024 0.48090535429843628 0.94710021375273301 1.1478213086288465 0.33977502925355368 0.18981868240922792 0.2860066010198124 0.34074588612003642 0.18468350418397245 0.18878812736735356 0.34204927328254536 0.37413355920175795 0.18497415352414912 0.21368804826467455 0.43431923145441265 0.58007656083210957 0.25072236354870314 0.19834082617892018 0.36938830740318995 0.37883720944499744 0.28889626277721397 0.27087175737097235 0.3621057062486206 0.38111564170490914 0.26979790953989213 0.21936370871470864 0.27043006767406147 0.28762847902171201 0.22794327324744829 0.15322432354288323 0.23251502339896557 0.22089083114650648 0.18971412381218991 0.15150725870146806 0.15234901095246309 0.15206313948190048 0.18860071928783445 0.22574524229561718 0.14331245108470417 0.15340609546013237 0.15683873671374313 0.96170589680649243 0.29843205519859056 0.23036417852916977 0.28515602847145177 0.19032001754462224 0.20917439783855638 0.17039688011795262 0.10838886146368905 0.10218235129224341 0.16618634871974239 0.10954348005864284 0.20793281192803822 0.10948092933315148 0.16708460035861905 0.16495937910912217 0.067433387618935831 0.72499549501659977 0.60030634783017467 0.7236658932450426 0.069760181503985816 0.57602028549633777 0.079948692617640732 0.027049855400822456 0.10294881909254923 0.13512662713765999 0.16529074379686395 0.089693708739182948 0.1275818929535891 0.077746896228172838 0.089623251834479972 0.13471409796778741 0.1285030088080768 0.15186358251599455 0.12105080567484067 0.15157956114953655 0.10478035151963098 0.084382733210359787 0.12484542783819887 0.076705161333656458 0.085474625999610171 0.063992174098445931 0.10378691270826425 0.06474091893985319 0.084237677448373169 0.10162573259782924 0.077879877394422065 0.067798864068451745 0.052051081603415136 0.067595959072468029 0.077174097233216735 0.050684742155192058 0.04629647308241859 0.064950963034229536 0.075378193596982793 0.064466150246517848 0.048358831523319608 0.095698922999580285 0.060220393928858883 0.80428824405094057 0.078162392103399189 0.11679560924514532 0.085695072468067887 0.099791498845768378 0.068201567346426448 0.13412516055298851 0.62149550010785881 0.016289223331461569 0.88030613043005779 0.020679496337488126 0.078768378218038226 0.87216935474361301 0.088578686717733876 0.81956769687065245 0.86896513080725069 0.81978346070898478 0.87828382879087319 0.90227462219334087 0.95589719931038597 0.90107898876016335 0.87651164810813131 0.95805213194204542 0.84559322704744355 0.88446157161288774 0.29469318755255486 0.82856473721351476 0.94024592794684281 0.79508151976003594 0.69276350893409955 0.89291538534066806 0.75443637051138512 0.88173967994169744 0.8187862791033006 0.89810678845317427 0.80621313095992764 0.14673546527578871 0.88663835587430773 0.15846685372152275 0.45616809014425114 0.85115326975874162 0.65928591137610526 0.54425489365639856 0.83693957866724789 0.45483408772104572 0.67151441310928228 0.48132571911563526 0.54644413836292982 0.65605514265247733 0.17643783239298888 0.61163483386296191 0.53927420511437529 0.12940109741360686 0.3783188106493231 -0.062782409861778507 0.10540097613456659 -0.073628442220672635 0.39001174454981086 0.052534059595490533 0.048780167443192586 0.032936497141475916 0.050877284653102997 0.032126425068664144 0.045132846193313925 0.0058035287282759383 0.047807440378321429 -0.0091083285338354712 0.026531368744013139 0.033177951697252711 0.047560600127332819 0.027573007060963352 0.028279139187155689 0.044589483116587877 0.027246872678595685 0.044897380301721065 0.047128355856316063 0.066816927480147573 0.048005491107666151 0.045511656019816056 0.054383504030312564 0.074427287526906458 0.047591573737673198 0.068566807102275001 0.045190500237583878 0.072875359806816378 0.069227659744308459 0.073964528898974535 0.10138053816006695 0.1033429824708656 0.073113607089615368 0.099173259199327055 0.098594044883646662 0.12280562809996756 0.12742485393425459 0.10412624811926507 0.099665542975629573 0.12648023929290875 0.068288569324251508 0.10183024941505538 0.088019899814380728 0.10325856247211866 0.13186413364373517 0.11057712355227128 0.10314139391374083 0.11017489597456692 0.088189973420120124 0.067733419012288659 0.076780677491483748 0.048057783600929382 0.068121813593423092 0.087349656856013203 0.078129904790651752 0.058810199831889315 0.049474757962596101 0.077843424912633186 0.058343390868694688 0.079618709209671831 0.086255504202009808 0.1137352337446033 0.087849175907317792 0.079594144255933794 0.10947154544631446 0.078837191412753652 0.087568551565244082 0.11681987763796503 0.087338067762619986 0.11528088077134589 0.10784384448648902 0.076988398498512411 0.086320584845412246 0.10403697778080775 0.12655875579067952 0.081792208070281786 0.054339143962284356 0.080397075424517142 0.08077180929731391 0.058113382192394029 0.085403210168903981 0.076791293485501164 0.055211424377472187 0.055688968875474684 0.037325456881827 0.057321134345488238 0.036550105767535403 0.049461450921940722 0.027590265321532789 0.028542821928356134 0.046260232538790969 0.025751503121922294 0.048262583806837525 0.03662204043688691 0.030777518494799008 0.024474637520003607 0.037303697146578829 0.031081187402411056 0.038394815801638303 0.053568520980787675 0.029047610412330914 0.0518506958654745 0.041075051873339166 0.076265985694449062 0.041132914013841039 0.053273589247824028 0.049680426974021627 0.041486183643794777 0.07635085418867707 0.028984947237344679 0.029152374026030856 0.040540693431115854 0.028748203743975537 0.041281593613022978 0.048644443257334982 0.028062728694061879 0.048891164845419985 0.052512706743950942 0.028838594713236021 0.029277036886047977 0.047343719609040318 0.05385096449754638 0.049699691696139511 0.076007258640845662 0.079480969252710906 0.077858668174732137 0.048747251720026523 0.094420880637906407 0.053307987336706449 0.077603019249874311 0.096959227360909492 0.077943575110211757 0.11805810284529218 0.16296053078893433 0.096924108560619004 0.11984524702988086 0.080602381260718822 0.11707328801386116 0.078802535996029627 0.079378830015430876 0.14426858728886269 0.11961861252980056 0.079674206559151806 0.11783160538071562 0.14415352109586915 0.079131960197732401 0.052766643037212353 0.077947835915609817 0.055655216662228273 0.079218651846657953 0.056340882038966998 0.12399271829538502 0.081862626251373138 0.083127171973740949 0.079915387933578413 0.078644882712305492 0.11599062839920896 0.18300007012670261 0.11797479726674798 0.15044613866705911 0.18330929400968859 0.14817440857158326 0.11839099407930946 0.1859459484138406 0.15049623415903385 0.19366266825942766 0.18639497911350214 0.19450899584836748 0.21995161227644783 0.26688603711647774 0.24487832937992751 0.22109036560042078 0.18621604560750674 0.22090910185711146 0.24371505061623858 0.18709165721367912 0.2428930571793346 0.20211857849999321 0.24485805814277556 0.2585750734443773 0.20145587231675935 0.18773133229540134 0.20197986963495992 0.25615134072454349 0.1871906263735553 0.14788411670362558 0.20059866195614764 0.18658131326041461 0.20071522601359315 0.14801327074650583 0.18398378075006808 0.12034107979542445 0.14818181975617059 0.16725402932921563 0.11907573675078485 0.18485689422482393 0.27303805846637208 0.16676954345203734 0.23669426772643434 0.16822907514543653 0.18732070179370985 0.23492521189460419 0.18645397035525893 0.25847639947992285 0.2376898279357566 0.32771109911284246 0.23830100671075574 0.26022144632081057 0.33102662368100105 0.2593087269965017 0.36333383800876834 0.27765552052171905 0.23789033915904911 0.32871162288819811 0.42438838842477139 0.277488721637417 0.33140313052711456 0.43018765953969218 0.33064927442714648 0.46183355952115257 0.33180937487022727 0.36608397311690855 0.45937452203223539 0.41438300921317922 0.47805965865735822 0.36534608588329204 0.31318214590355514 0.39336070914071469 0.4131621071682115 0.36518788579088979 0.31384037778920143 0.41224922763001881 0.31365705248887271 0.36227665243205931 0.25886953501576848 0.31174747621809057 0.25958535501419133 0.2452783238359669 0.31401227936547149 0.29269155048757556 0.34385124905172881 0.26765706133514533 0.29189157915076025 0.24491225448121784 0.31293396098473275 0.24421545593099864 0.29234767385964638 0.26755694137941571 0.31734737916979155 0.29264078462896098 0.34396068062098728 0.29265480827863583 0.31808509645973432 0.34489204282064995 0.31805296085047552 0.35721165444337272 0.34499040076813103 0.35752452192694645 0.39444261209718984 0.31395846960609791 0.34448827966314949 0.39237625229464046 0.39424594603275204 0.4626803823166335 0.41484246148318982 0.34446959472299948 0.39510424608604927 0.39382036014505256 0.43684967546580256 0.39415314726808343 0.39545697525193174 0.43760304703344893 0.39533487353952945 0.43768615144827222 0.4347780287019693 0.40533599729856112 0.4500481425168904 0.43641520775083448 0.39447299657607982 0.40120756792443391 0.45153652190611515 0.39662504693280959 0.36713130573366215 0.45021222793684768 0.41209527096846793 0.41428922559897041 0.41424943225904604 0.41200185734549954 0.39206561342180674 0.411794125309554 0.37788927672518635 0.39212194277708784 0.39431870810498809 0.35739592388326957 0.40094478048150184 0.40410719149530233 0.35493705275322351 0.37919216234426573 0.37916180765426183 0.35461162331281421 0.34852774503689304 0.3148597988891978 0.34736169319885352 0.35472041579268349 0.40522998323571502 0.37116309859158408 0.29050380210797977 0.4063090041797317 0.28884630699820685 0.39739169076953557 0.1524188201209957 0.25348778303313196 0.39288853815232755 0.1824618079236931 0.37263881656607811 0.1498153078212085 0.37336650753000555 0.14722611664854188 0.37657073400151475 0.37442262661690201 0.41087298289136792 0.40615030827502668 0.43247588442170981 0.35594264729822062 0.10522858872609857 0.37507576121758829 0.12762722596972481 0.12974319499442158 0.20097913181781785 0.40403587019242571 0.24949632433362653 0.19924854138289716 0.42660817162236875 0.40634484260115855 0.43028225072292337 0.19303095142301507 0.36922264389800796 0.19661509315427542 0.19424443387606735 0.42799656360065735 0.13131763209391337 0.37138706990283743 0.16327943801804665 0.1304381912610067 0.34954614914902821 0.37280305541908143 0.18566907051321074 0.14228485513295777 0.18128388670246806 0.15977975029217667 0.13660942636508022 0.18604610755975742 0.18511300567748429 0.16784506955473599 0.18537025194677234 0.446172636040707 0.13252235682034458 0.10946509955254846 0.35089311318629257 0.14564725421050928 0.08439245029462529 0.094435482366550472 0.32659868968204853 0.096349101348204041 0.42786680226761759 0.40626329687054513 0.41104267947155937 0.31084469921747904 0.12614560281792109 0.45970526979440107 0.37583045335067017 0.36925465832593496 0.40814018309545103 0.42461754369462279 0.40720995004010629 0.3696349526958071 0.42300558949277201 0.36853269241573705 0.35331248584313762 0.36797138608046648 0.3134460479995998 0.35308516315201266 0.28829152233978633 0.35191612208021689 0.31359312875994749 0.36803536233076389 0.33514675799308913 0.31335122926353226 0.37556313364318561 0.33504602052417803 0.3690884238143109 0.31324749919873501 0.33444622272009744 0.28179638222705955 0.31210657507073769 0.28169014204686493 0.25373951225561497 0.28