<?xml version="1.0"?>
<VTKFile type="UnstructuredGrid" version="0.1" byte_order="LittleEndian">
<UnstructuredGrid>
<Piece NumberOfPoints="8154" NumberOfCells="2718">
<Points>
<DataArray type="Float64" NumberOfComponents="3" format="ascii">
0 0 0 0.05842534974831818 0.058425349748568167 0 0 0.10000000000041601 0 0 0 0 0.099999999999814668 0 0 0.05842534974831818 0.058425349748568167 0 0 0.10000000000041601 0 0.05842534974831818 0.058425349748568167 0 0.072340659132099805 0.15787534671757081 0 0.11736878855947019 0.099262147589397345 0 0.072340659132099805 0.15787534671757081 0 0.05842534974831818 0.058425349748568167 0 0.099999999999814668 0 0 0.11736878855947019 0.099262147589397345 0 0.05842534974831818 0.058425349748568167 0 0 0.30000000000124832 0 0 0.20000000000083221 0 0.076754417114036966 0.24517625929728579 0 0 0.20000000000083221 0 0.072340659132099805 0.15787534671757081 0 0.076754417114036966 0.24517625929728579 0 0 0.20000000000083221 0 0 0.10000000000041601 0 0.072340659132099805 0.15787534671757081 0 0.15713224427556369 0.19462055031758391 0 0.072340659132099805 0.15787534671757081 0 0.11736878855947019 0.099262147589397345 0 0.15713224427556369 0.19462055031758391 0 0.076754417114036966 0.24517625929728579 0 0.072340659132099805 0.15787534671757081 0 0.15713224427556369 0.19462055031758391 0 0.13575432176650609 0.26177349842400482 0 0.076754417114036966 0.24517625929728579 0 0.15713224427556369 0.19462055031758391 0 0.1941589268096966 0.28301425698743637 0 0.13575432176650609 0.26177349842400482 0 0.15713224427556369 0.19462055031758391 0 0.11736878855947019 0.099262147589397345 0 0.2049592257883151 0.1136587120754589 0 0.15713224427556369 0.19462055031758391 0 0.2049592257883151 0.1136587120754589 0 0.23632615701395029 0.16695287371417161 0 0.2049592257883151 0.1136587120754589 0 0.28999131001604278 0.1096412864478291 0 0.23632615701395029 0.16695287371417161 0 0.15713224427556369 0.19462055031758391 0 0.23632615701395029 0.16695287371417161 0 0.2299760630703524 0.2225257972182236 0 0.15713224427556369 0.19462055031758391 0 0.2299760630703524 0.2225257972182236 0 0.1941589268096966 0.28301425698743637 0 0.099999999999814668 0 0 0.19999999999955789 0 0 0.17145071998201811 0.060258457788043909 0 0.099999999999814668 0 0 0.17145071998201811 0.060258457788043909 0 0.11736878855947019 0.099262147589397345 0 0.2049592257883151 0.1136587120754589 0 0.11736878855947019 0.099262147589397345 0 0.17145071998201811 0.060258457788043909 0 0.2049592257883151 0.1136587120754589 0 0.17145071998201811 0.060258457788043909 0 0.23947795756627041 0.055127514674138137 0 0.2049592257883151 0.1136587120754589 0 0.23947795756627041 0.055127514674138137 0 0.28999131001604278 0.1096412864478291 0 0.19999999999955789 0 0 0.29999999999926641 0 0 0.23947795756627041 0.055127514674138137 0 0.19999999999955789 0 0 0.23947795756627041 0.055127514674138137 0 0.17145071998201811 0.060258457788043909 0 0.29999999999926641 0 0 0.28999131001604278 0.1096412864478291 0 0.23947795756627041 0.055127514674138137 0 0.29999999999926641 0 0 0.3999999999989749 0 0 0.35406483083248758 0.078537905902684224 0 0.35406483083248758 0.078537905902684224 0 0.37053906278907522 0.16071991210652001 0 0.28999131001604278 0.1096412864478291 0 0.29999999999926641 0 0 0.35406483083248758 0.078537905902684224 0 0.28999131001604278 0.1096412864478291 0 0.29454411933247859 0.1942182557279433 0 0.23632615701395029 0.16695287371417161 0 0.28999131001604278 0.1096412864478291 0 0.29454411933247859 0.1942182557279433 0 0.31214747383698288 0.25112655154953339 0 0.26096379286661558 0.26049523993944562 0 0.29454411933247859 0.1942182557279433 0 0.2299760630703524 0.2225257972182236 0 0.23632615701395029 0.16695287371417161 0 0.2299760630703524 0.2225257972182236 0 0.29454411933247859 0.1942182557279433 0 0.26096379286661558 0.26049523993944562 0 0.3848394463845129 0.2263717102278168 0 0.34214461957799158 0.21523300106526999 0 0.37053906278907522 0.16071991210652001 0 0.29454411933247859 0.1942182557279433 0 0.37053906278907522 0.16071991210652001 0 0.34214461957799158 0.21523300106526999 0 0.29454411933247859 0.1942182557279433 0 0.34214461957799158 0.21523300106526999 0 0.31214747383698288 0.25112655154953339 0 0.31214747383698288 0.25112655154953339 0 0.34214461957799158 0.21523300106526999 0 0.35426299167392977 0.25566377588317091 0 0.3848394463845129 0.2263717102278168 0 0.35426299167392977 0.25566377588317091 0 0.34214461957799158 0.21523300106526999 0 0.3848394463845129 0.2263717102278168 0 0.38383376806569858 0.26564947200433758 0 0.35426299167392977 0.25566377588317091 0 0.29454411933247859 0.1942182557279433 0 0.28999131001604278 0.1096412864478291 0 0.37053906278907522 0.16071991210652001 0 0.44588396814009912 0.17331830423126529 0 0.41260066262683931 0.20084244419234801 0 0.37053906278907522 0.16071991210652001 0 0.44588396814009912 0.17331830423126529 0 0.37053906278907522 0.16071991210652001 0 0.41114656741565858 0.1169976912362575 0 0.3848394463845129 0.2263717102278168 0 0.37053906278907522 0.16071991210652001 0 0.41260066262683931 0.20084244419234801 0 0.44588396814009912 0.17331830423126529 0 0.44102434814492297 0.21276705521226619 0 0.41260066262683931 0.20084244419234801 0 0.42308142495795342 0.2341556686316493 0 0.41260066262683931 0.20084244419234801 0 0.44102434814492297 0.21276705521226619 0 0.3848394463845129 0.2263717102278168 0 0.41260066262683931 0.20084244419234801 0 0.42308142495795342 0.2341556686316493 0 0.3848394463845129 0.2263717102278168 0 0.42308142495795342 0.2341556686316493 0 0.41326197172237811 0.26477705272558139 0 0.45279136658191632 0.2454645808094798 0 0.43237610775568341 0.25442832268994081 0 0.42308142495795342 0.2341556686316493 0 0.45279136658191632 0.2454645808094798 0 0.44102434814492297 0.21276705521226619 0 0.47076431841780703 0.21005427819658859 0 0.45279136658191632 0.2454645808094798 0 0.42308142495795342 0.2341556686316493 0 0.44102434814492297 0.21276705521226619 0 0.45279136658191632 0.2454645808094798 0 0.47076431841780703 0.21005427819658859 0 0.4815757853575543 0.24579687230515479 0 0.45279136658191632 0.2454645808094798 0 0.4815757853575543 0.24579687230515479 0 0.46983414298779852 0.25850080530540981 0 0.44588396814009912 0.17331830423126529 0 0.47076431841780703 0.21005427819658859 0 0.44102434814492297 0.21276705521226619 0 0.47076431841780703 0.21005427819658859 0 0.44588396814009912 0.17331830423126529 0 0.50086900227669984 0.19286909959646639 0 0.50493807540744373 0.22547032939714651 0 0.47076431841780703 0.21005427819658859 0 0.50086900227669984 0.19286909959646639 0 0.50493807540744373 0.22547032939714651 0 0.4815757853575543 0.24579687230515479 0 0.47076431841780703 0.21005427819658859 0 0.50493807540744373 0.22547032939714651 0 0.5053074179542888 0.25558383997991369 0 0.4815757853575543 0.24579687230515479 0 0.44588396814009912 0.17331830423126529 0 0.41114656741565858 0.1169976912362575 0 0.4677358305654189 0.12029665150275309 0 0.50086900227669984 0.19286909959646639 0 0.44588396814009912 0.17331830423126529 0 0.50425007665466071 0.1543133975765052 0 0.44588396814009912 0.17331830423126529 0 0.4677358305654189 0.12029665150275309 0 0.50425007665466071 0.1543133975765052 0 0.50425007665466071 0.1543133975765052 0 0.4677358305654189 0.12029665150275309 0 0.51867624734975648 0.088315711926529455 0 0.45872229326691988 0.068538152543207831 0 0.4677358305654189 0.12029665150275309 0 0.41114656741565858 0.1169976912362575 0 0.45872229326691988 0.068538152543207831 0 0.51867624734975648 0.088315711926529455 0 0.4677358305654189 0.12029665150275309 0 0.49999999999869432 0 0 0.51867624734975648 0.088315711926529455 0 0.45872229326691988 0.068538152543207831 0 0.3999999999989749 0 0 0.49999999999869432 0 0 0.45872229326691988 0.068538152543207831 0 0.45872229326691988 0.068538152543207831 0 0.41114656741565858 0.1169976912362575 0 0.3999999999989749 0 0 0.41114656741565858 0.1169976912362575 0 0.35406483083248758 0.078537905902684224 0 0.3999999999989749 0 0 0.35406483083248758 0.078537905902684224 0 0.41114656741565858 0.1169976912362575 0 0.37053906278907522 0.16071991210652001 0 0.39881017495814691 0.37981101166726439 0 0.43249173470276692 0.43605546750222562 0 0.36836445410485769 0.42067733685348679 0 0.39881017495814691 0.37981101166726439 0 0.45522499340423078 0.37613645989242978 0 0.43249173470276692 0.43605546750222562 0 0.39881017495814691 0.37981101166726439 0 0.36836445410485769 0.42067733685348679 0 0.36154998589044901 0.38764479892760112 0 0.38189419247384238 0.4721560634170604 0 0.36836445410485769 0.42067733685348679 0 0.43249173470276692 0.43605546750222562 0 0.38189419247384238 0.4721560634170604 0 0.43249173470276692 0.43605546750222562 0 0.42909338950739018 0.52467798151510692 0 0.5 0.49999999999978328 0 0.42909338950739018 0.52467798151510692 0 0.43249173470276692 0.43605546750222562 0 0.5 0.40999999999999998 0 0.5 0.49999999999978328 0 0.43249173470276692 0.43605546750222562 0 0.5 0.40999999999999998 0 0.43249173470276692 0.43605546750222562 0 0.45522499340423078 0.37613645989242978 0 0.5 0.40999999999999998 0 0.45522499340423078 0.37613645989242978 0 0.50132877827535338 0.35252027608574538 0 0.46667455788352991 0.33788550640099418 0 0.50132877827535338 0.35252027608574538 0 0.45522499340423078 0.37613645989242978 0 0.46667455788352991 0.33788550640099418 0 0.48720285358562221 0.3239045130877074 0 0.50132877827535338 0.35252027608574538 0 0.5 0.31 0 0.48720285358562221 0.3239045130877074 0 0.48192289753786849 0.30643335198073812 0 0.5 0.31 0 0.51253325434506491 0.32271926641898069 0 0.48720285358562221 0.3239045130877074 0 0.48192289753786849 0.30643335198073812 0 0.48720285358562221 0.3239045130877074 0 0.46075763347191678 0.31386867763978632 0 0.46667455788352991 0.33788550640099418 0 0.46075763347191678 0.31386867763978632 0 0.48720285358562221 0.3239045130877074 0 0.43666021677150701 0.30666666666668119 0 0.46075763347191678 0.31386867763978632 0 0.43204471460558852 0.34054649
[...]
<PointData Scalars="tracer_conc,region_id," Vectors="" Tensors="">
<DataArray type="Float64" Name="tracer_conc" format="ascii">
0.0025229323808175627 0.0042200155949254159 0.002922347686970301 0.0025373336296716188 0.0052151837184838306 0.0039685823833446252 0.0025048267896296025 0.0048258456773024412 0.0029787415337066687 0.007469746175812397 0.0029428021383460473 0.0049735170130011533 0.0054547911014282231 0.0061523048922763474 0.0039795707054824884 0.18281387470460708 -0.0027180056155909557 0.13941264842624587 0.010268225267238132 -0.027963390974605037 0.066705856203913796 -0.0058367396571541537 0.0029932065035213865 -0.0094879604045627185 -0.0012938272274326831 0.0010190341843961549 0.008734961909473149 -0.030824194645636946 0.072388153054870008 -0.032944829115964393 -0.058681782404273131 0.25316439862614398 0.13322599903488433 -0.072723134341905193 0.45084603300597326 0.26497588924271803 -0.0016520312596353293 0.0093290270724994545 0.013469364032642444 -0.0037345771071964624 0.01476244937837244 0.0058640340528664002 0.012117353851292314 0.021097129216995709 0.012094991673686587 0.00061450882143548316 -0.0058845702579440138 0.014078581461889034 -0.09015045655365439 0.079338846220618001 0.46472320946087509 0.0053267925650487963 0.010986982102098161 0.0091509128813985381 0.0054801657264489274 0.0089354556587910808 0.006240985746044053 0.011529772711959072 0.0061558009538523716 0.0091706249936145314 0.011884666071827022 0.0092050875849495721 0.014757261310976912 0.011873929584343405 0.015077250130491137 0.020878589981740327 0.011373709439641515 0.022190439805066357 0.015176764820231408 0.011431997592804223 0.014800721920426644 0.0092682921989469692 0.023217340264384757 0.021616204476866113 0.014991824544687707 0.023303747030785419 0.045515653844041472 0.033781020235836748 0.034354087218679774 0.035504169041521524 0.020994194822956457 0.023532073672563217 0.033227630023675736 0.021771020861895224 0.016311512462472783 0.011723255622979966 0.02190079007943365 -0.11704537547174158 0.38539928862308642 0.45079639641645353 -0.043482665906195872 0.015822556665072682 -0.0071175964023499818 0.094222657635157622 -0.10354321961946274 0.43489850578284733 0.050595055110212631 0.036672767216685102 0.022989822822726332 0.021137200974781618 0.023061751419637119 0.036024772051383845 -0.093561026610195622 -0.023798884062284909 0.36041551025600549 0.47530285587300503 -0.063064621630543244 0.60853566725633812 0.069515225043894957 0.61706854601411198 -0.076909184527374427 0.071380512026821913 0.92883867804604647 0.66419094156806791 0.016335922283363228 0.022350647388783274 0.02937094436191335 0.072448190373257768 0.025724906873034671 0.048112552768481469 0.058078688814930925 0.035305622225694749 0.049914701248104751 0.051290131682596184 0.022390249965757916 0.0023644317786299094 0.078970277638280212 0.0051087327490934855 0.016096999602316576 0.18145607615798415 -0.03614165273262164 0.0015566213380667714 0.12128803597990452 -0.03166408516468102 0.17817188470699408 0.052065488192855107 0.22146896564393939 0.96557051287042972 0.49986582606554963 0.84245849056499733 0.14390187073467686 0.32105941929888115 -0.0057297736480797449 -0.0574688234419964 0.31768468391007365 0.20902383623934209 -0.0014385454292262711 0.32653630534138289 -0.060736178856388844 0.22415220712676534 0.53683611235073869 0.4666538578053841 0.85496507778693243 0.080435924278384335 0.044822216980424552 0.0043130387224132056 0.064780998594069494 0.059965405316267956 0.082910600211777291 0.078891959395276406 0.063764421746070166 0.083711395174553296 0.0021487936651878505 0.19271185863390131 -0.0048051813980151481 -0.026384295773197584 0.30510119081665804 0.24766420900920069 0.059237369361844053 0.05016405515144931 0.072400428940146117 0.0840984242376598 0.057918314815725201 0.090001751587608883 0.059109436567988019 0.073451889949550153 0.089858348653075626 0.091915587054153342 0.072506158748025795 0.10585316122508466 0.071747952101096149 0.07260126077506697 0.048724614758976312 0.072416937686258384 0.1043390688027524 0.073359230227429822 0.094615972121900122 0.10692310755438636 0.070781802501649976 0.046497525946446926 0.091093359955599404 0.070599400794185377 0.06993467551384272 0.050601251882562301 0.047744894711775232 0.050052666134076995 0.033709510392756346 0.047406250800363162 0.034829371078509114 0.049241027778374032 0.03611723617367156 0.1089937712944303 0.0081359151843815383 0.028900790686990311 0.11329024807307425 0.12792107138326628 0.0053536518116062528 0.10737917540917002 0.030935292106765457 0.081625672514368572 0.047378501244715002 0.011803927114914533 0.036177888690547298 0.041492743568775012 0.057380393471818739 0.061567534268587049 0.09339362879211402 0.062242990738387093 0.057672356751156902 0.091594001138467745 0.095163253559800515 0.057086112632059087 0.0073715316363060345 0.0056178062931274905 0.12840205959767947 -0.025390784258188637 0.18385035860877441 0.29736077296937058 1.0632897060018081 0.57697806271681762 0.15051745940024788 0.94730119776109567 1.0780896245888714 0.71430528762455148 1.0009447891984264 0.99161371133880372 1.0016552757943515 1.0007965131623127 0.98529639477657793 0.98881321685042045 1.0023664236059335 0.9913217883880121 0.994384628767085 0.99618743855034364 0.9925677753022506 1.022813427977993 0.98707646462724985 0.99953696169851192 0.96289527448648171 0.99565698987354212 0.96553943190481073 0.99679360767875691 1.0581272057809632 0.16381252407766891 1.0428646201367979 0.85408994252183723 0.46707931910323691 1.0851847424139238 0.46777475890591907 1.0325495998325742 1.0844820889900773 0.64491908177892854 1.061225260482336 0.39236724594789241 0.9503539527098176 0.95170351781683848 0.9753392413135995 0.95577214047973558 0.97403453347059699 0.95248187806174089 0.94789722175001789 0.9828230581813473 0.95851476996461149 1.0108751524843689 0.96921051436052563 0.93847811002679171 0.9486737971621827 0.97693543300421271 0.98171946719341097 0.99272718104239044 0.98031580436694044 0.9954422272627037 0.9948028083917102 0.96310946912934148 0.98130848248170954 0.99525114770833611 0.98028876530314457 0.97829316693765578 0.98710074919549495 0.99472632341671341 0.97842397624181709 0.98660001804003306 0.97705456068798713 0.97331685925046896 0.98736561731669747 0.99721138124402886 0.99339779671193462 0.99648428454803006 0.99811661995154533 0.99410277285424187 0.99494042851100495 0.97840382006590021 0.99478656693903356 0.99388629073327728 0.99410298939933639 0.99815888868489477 1.000522796540108 0.99918100232918172 0.99978479467676784 0.99996513352114047 0.99366954614892755 0.99886866044713507 1.0004842291919802 0.99975596515333776 1.0014723824074931 1.0004806137162543 0.99811836788557917 0.99595686184565091 0.99181111160574698 1.0012816925968762 0.99707400250579936 0.99151242732152944 0.9937418823159927 1.0001707817646763 0.99240393178448016 0.99708649735205945 0.98499738119556868 0.98326118892166303 0.98490281379452671 0.99785582509713855 0.94872772003148909 0.9868952760829689 0.96488158369161714 0.99567918153162094 0.98477771252807811 0.9623880581781602 0.94945092129669895 0.96257655591656099 0.98559030870955666 0.63765855133546645 1.0596572133757436 1.0397609620993389 0.76117128731373773 0.6365902236144626 1.0413858408744803 0.63297971283166199 0.90665478798697496 1.0615829335614404 0.97884295555213829 0.22723200367273227 0.81109890572309518 0.89319382300203087 0.76008454434469674 1.0433076247658624 0.93641244012060876 0.97854072454202057 0.95791855849076057 0.93238690230167931 0.96084607355328999 0.93674361703166664 0.98374474371579701 0.96793795404058558 0.98597906623566889 0.98600219964511659 0.96791129431649126 0.96790599452926773 0.94461458621005701 0.96865825548667739 0.96826917308675542 0.9461471823752734 0.97005441468446274 0.92770436576719695 0.90179650913830589 0.94755557490464526 0.92791768187185142 0.89398018083564901 0.88270037234118992 0.94208602507085182 0.063575250048974616 0.96083587251016511 0.93417190176403742 0.93211650199179086 0.93947814444655386 0.88513499428203901 0.18454358595655121 0.99783905931554562 1.0270840695549706 0.16783620594817289 1.0340789160999799 0.16837432504909841 0.98914229356339833 0.96114457319373869 0.96370504569556481 0.91660392105169064 0.9661579122975219 0.96151443451491658 0.93716027087379972 0.78607330834554545 0.93530634707876414 0.9146043012279671 0.91858207975279815 0.9689534555187681 0.19352793635128254 0.70279707715406736 0.99206974799754322 0.18432139178239379 0.048171321248417769 0.69826794496607503 0.9374768070696905 0.78380660986912853 0.88522126573767856 0.78201814718984319 0.8876891779458207 0.78188246777279691 0.82741387996042648 0.75248644659196895 0.50997599999468346 -0.028810417777368699 0.44015228638024745 0.64988888947280832 0.91913376717331097 0.75753280215368846 0.89487004231528922 0.92219897857407152 0.83403729004971872 0.75471065946081062 0.90528931445199168 0.8749291282696825 0.82972980062218693 0.90194972977727905 0.9291009212311131 0.87667397586672469 0.79722722367346788 0.83196327692172767 0.8793436377535836 0.79718660529952445 0.73726929856958134 0.83301647333120765 0.57698775408250991 0.7377351834435385 0.8637952436614732 0.58508874972352798 0.86100725227653852 0.77595930968261839 0.58575462956824287 0.77409773034544493 0.51749471834131322 0.67470167840272954 0.53677039005844385 0.76578659929220949 0.63478679511079428 0.73765966555496698 0.69842509401333919 0.82596557663609138 0.51216517292864172 0.67877606210714414 0.80243570453304036 0.69908303450220621 0.73719703206669851 0.66186596078383308 0.696144819205326 0.51241620522984399 0.3522064009314842 0.70111558390049178 0.49499835158035588 0.3569970789949316 0.45902852702859792 0.69550853398908841 0.27527583187851057 -0.042005311030303638 -0.059722064484570167 0.010834955253627151 0.023697320562900016 0.031657857611579653 0.045573620205964109 0.006202596993165538 0.0332039033934785 0.01016695847696189 0.032233576493292698 0.0067690472844157291 0.30126614988259642 0.39601622030939376 -0.053881629375188193 -0.013839155749819185 -0.061839008815266432 0.40126567824870862 0.046682400152251141 0.022320438707048532 0.0047943858950968386 -0.045444121490977853 0.66181285581661664 0.057038659212270963 0.056687710396202566 0.080297675564449861 0.032280139752328851 0.045678274640054764 0.020442411018144053 0.012858251063609518 0.042744093107563073 0.033659907790675299 0.024509331004428078 0.02466908974120709 0.024736656960197979 0.033222983381390542 0.024496877145048293 0.017902065164359944 0.024578799641453365 0.0060980298355978709 0.017639568415982045 0.021269431966189013 0.0063788998943002115 0.020685049878745108 0.0066418060050697581 0.015476438124954731 0.009299106124568907 0.019433216291130671 0.015074576468029146 0.0066886002347722575 0.0093753070255136652 0.014399439554056781 0.010150309314520883 0.0076341310245793175 -0.0077400158354713434 0.016027763209128222 0.013233575311708858 -0.010423170670585824 0.010436998091757211 0.017526232193581341 0.0099444222580302791 0.0034093081482626064 0.022947785949602114 0.30190314995044182 -0.070778425789844029 0.4633783997855595 -0.061269047719700168 -0.02430990652749877 0.4462395410877702 -0.00095053205573149854 -0.019965888212427917 0.35874485665853217 -0.0073869565270676622 0.012574891935301128 -0.0095906164748945383 0.0097252138388836291 -0.006277550815605301 0.010965253731911598 0.0055787039175990288 0.0076385510644984061 0.0099409470528469476 0.10224082003827514 0.4669746996675429 0.50963044493612508 0.67130934633981076 0.46563920398291264 0.53765948251759521 0.66316210053285241 0.53611147266525538 0.52109181514319214 0.4124408651767637 0.52008745720330773 0.53438576345689692 -0.010699301995809459 0.37985382546192314 0.43947583372440863 0.34397247033147943 0.51617300085747475 0.41267874692270451 0.40758902662554131 0.37199716293347135 0.014954962865369735 0.38525741682520265 0.29930134763946464 0.48638623730310948 0.39277693631055788 0.15303390649663887 0.2883985003172313 0.38495036784519637 0.25090189805098034 0.20598448304050254 0.39079145422843209 0.029134532851249242 0.15598150443349929 0.039404284636214149 0.19994327962024441 0.18799758486178958 0.14938658567781612 0.20587015523306545 0.24665857144679856 0.0072239263109562723 0.0054857937847094685 0.0034559493670321484 0.0091954033639321843 0.00092444238840962405 -0.0058623841350950627 0.013977064865020476 -0.039764006278456748 0.11988763806698484 0.028920208964040163 0.11259478140171131 -0.03313254772325936 -0.001215463119704477 0.0035474510900070817 -0.012177670358913602 0.0025801774051862356 0.0035165665649923108 0.0052619103129551374 0.002464474078857064 0.0028021536201170536 0.0046975289150999362 0.0061093240317702012 0.0092991469543845396 0.005171020434511996 0.0078709498805932358 0.0051588035283893661 0.0048130689091225665 0.0024593119815390302 0.0047078742091450753 0.0050060083958312403 0.0026319667711977132 0.0026170437205412767 0.0048325181658379207 0.0024255324061895197 0.0051313167803661878 0.0039815479741168351 0.0028867279351687388 0.0023852403913682983 0.0039602778798330969 0.0069473562154470474 0.0039966962647942925 0.0053101704844319211 0.0067782298836903589 0.0061554930076402354 0.004010050087448873 0.0071908222497296071 0.0099357631645915646 0.01159664281358011 0.0072207253360424889 0.0052673115789457978 0.0095893877997312669 0.0067645199887029529 0.01090703980560383 0.010084671634996994 0.0070876667278981318 0.011602336550779245 0.010587393231214017 0.016584144375627732 0.010670607358210652 0.01180192143255933 0.01639735436669915 0.018306282464445604 0.011054281346641553 0.017843233981466037 0.011791896586674342 0.016333374397426978 0.015956184926173934 0.011876979797953669 0.0099401518921227415 0.015312237569985756 0.0098620583881924243 0.011458798082163144 0.0081340364814663085 0.013863744103610074 0.011467727207786695 0.014193003296120953 0.015591963591522867 0.011506128952216694 0.014220723729312315 0.019797809867680972 0.015706530864509349 0.014403892031404929 0.013639107625018226 0.018717271522924343 0.013441170646034161 0.01831940483902408 0.018929654645042617 0.014204439601722655 0.0089207752192147442 0.013509176546590297 0.0083249246884202766 0.0091184688958666979 0.013728953655646834 0.00819071033998881 0.0047192481376378626 0.0088844982692088785 0.0081505137619153276 0.011359752245315109 0.0097852181564194434 0.0080726830886823416 0.0094933007586295269 0.0051318098747260071 0.005969076462870794 0.0054537464962610216 0.0093872400717318824 0.0025246085368787392 0.005303124770918613 0.0057328386875848516 0.0026661314976768095 0.0027754135290106704 0.0050375107751142716 0.0026745193882335544 0.004261866471168255 0.0052521886283076703 0.0094163594419530011 0.0042527075679450535 0.0059258957492793205 0.0054364781542197487 0.004293301747017907 0.0093823009579008573 0.0027222220854511759 0.0027387913276384125 0.0041475336091410762 0.0028833876253947909 0.0041028418401828099 0.0058248175610085655 0.0027021386313287768 0.0056727162059363179 0.0042455450210507331 0.010014752423832924 0.0058020249847944528 0.00976774633516337 0.0069115689339281309 0.0098057458709529931 0.006224988443724982 0.010197203269233405 0.0099205765327215478 0.016642724117976741 0.017686366501252188 0.010211835215985697 0.011300493440405669 0.0099286631162911546 0.022495145072502904 0.017560247045806492 0.0099978310578967781 0.017223427542202671 0.022465977184553062 0.010023688478370171 0.0098089160677561453 0.005238115414506736 0.010269482718678568 0.016874707113419936 0.010021921221232598 0.013066185850705746 0.0097952251965563314 0.017092334564768469 0.026437084331855588 0.01303691753528642 0.017585688095193234 0.012474392604443661 0.0058441638012848712 0.009724173380262784 0.056646592140676098 0.027472694162011303 0.046162163896577707 0.02809825777586002 0.03314017890380698 0.045449981055800795 0.027794976285352522 0.017323224930971676 0.032215654244253211 0.031911511081904015 0.017743333816844415 0.023658482604770537 0.032691621773941519 0.052965568269583582 0.046782338120458115 0.049083309738987065 0.052950709554656708 0.036637327805603331 0.033294358162308767 0.036894461181139378 0.051813913647532586 0.033160528329412811 0.048153868543153538 0.03695340484627703 0.033075505728865563 0.023513836420398768 0.036336033665088141 0.03295384766708382 0.036385895445136901 0.023560884385048407 0.031744533397824223 0.017245389775265713 0.02417040068518083 0.031775987528666796 0.023657739469718921 0.017359636448190094 0.032816227079271704 0.024144387973327627 0.034589830682497276 0.033004481898052475 0.03492504860246471 0.041876590888392275 0.032781144288110471 0.042193056641055188 0.048552975813517266 0.055852427767115215 0.049120193041082297 0.042272490577838891 0.056281651489787282 0.063987987903634982 0.04912468417680653 0.071078243493226695 0.048708137262137269 0.064247769888034115 0.071774047552438491 0.06445673500693673 0.082714303833489697 0.082669254875286188 0.064449780397151338 0.073395209246157611 0.056214117202567027 0.072893247110157128 0.064452304361347149 0.083311644489400219 0.073411811498008739 0.088168447439208403 0.083382083953612199 0.088435730755469677 0.10325732286810664 0.12240483155679478 0.10344666125205779 0.10408851812108906 0.083019837313842493 0.10373717421726195 0.10312437753224658 0.12298566621403892 0.10391754658232587 0.12332972488927478 0.10344649019691228 0.13460248461581106 0.11248141284147656 0.071716102278119101 0.083202964785818054 0.10182217789188074 0.1118839820979475 0.14081817332416954 0.090961735563217752 0.070999387608060766 0.10266220424625287 0.11088815224859118 0.090889455731248209 0.071508338104720875 0.1099378974703159 0.070301352059209885 0.05347136751642613 0.049303032044025343 0.071455840554542877 0.08878115614638793 0.053048376069605531 0.07557251227335525 0.047056932697218605 0.053861968787979775 0.077668840372504863 0.053220906452745999 0.089664345525573105 0.07814093806495509 0.091722567726866683 0.13081016226924824 0.11338973833326071 0.058781767707121423 0.077546202465891917 0.11826673800095533 0.076654329548690323 0.13277201511689929 0.058941801376923592 0.046647983218723474 0.075826638044440273 0.026034000849641876 0.026755392152652969 0.034532466382418615 0.036774228117856765 0.03487269435458857 0.02669394367551407 0.02615715918623426 0.03519725373143797 0.031148153294611295 0.035092855600849092 0.048711068182583014 0.047022724703048482 0.039632261274763152 0.03548845101561969 0.046726975522938211 0.037075694002208663 0.048442553795227626 0.035033653138407179 0.041895122617050556 0.044083357525513463 0.032833753825270998 0.037114455090680627 0.033220847064186244 0.043795167821774131 0.024006629158804398 0.032787372914236855 0.027025999152339501 0.036775153912124423 0.026956143290031098 0.033162880711705145 0.023952032815382052 0.026776084176468245 0.018855899496427811 0.026339366068075257 0.02017177283302728 0.019055593237092775 0.024029339393241863 0.019089296106246774 0.018424921181823661 0.01424029666329104 0.018963587324602148 0.020001869477899704 0.025927019070200032 0.020132430787560624 0.026606540788358887 0.025955585465559462 0.02273566038302946 0.020125801559428776 0.015737476987034614 0.020071704883191942 0.022494790463749068 0.018070809932597184 0.016438721244084836 0.023057423101434483 0.017627694387375551 0.02357718373856767 0.028998296491286112 0.029919491200058206 0.022321469421390239 0.030554606418562457 0.026240287516702404 0.030795225968634106 0.02269869422102402 0.016494359531265154 0.024590095073570056 0.018642554518139249 0.014741597028306077 0.022465694650040099 0.025451288660804396 0.016053367524335654 0.028834495716427783 0.020486856129338718 0.034610829699698656 0.025662829010217478 0.023248179506800318 0.035401429271874174 0.021939774650968 0.027544261870408194 0.029466536433811991 0.029376883278785536 0.020342437834708575 0.035025295515437205 0.043152845530418836 0.02719902893342491 0.046061126648910107 0.029956657934387846 0.041673844945246383 0.055412605106958612 0.042168410516456645 0.046366132981645568 0.034847355149584494 0.046053056781430908 0.0