<?xml version="1.0"?>
<VTKFile type="UnstructuredGrid" version="0.1" byte_order="LittleEndian">
<UnstructuredGrid>
<Piece NumberOfPoints="8154" NumberOfCells="2718">
<Points>
<DataArray type="Float64" NumberOfComponents="3" format="ascii">
0 0 0 0.05842534974831818 0.058425349748568167 0 0 0.10000000000041601 0 0 0 0 0.05842534974831818 0.058425349748568167 0 0.099999999999814668 0 0 0.05842534974831818 0.058425349748568167 0 0 0.10000000000041601 0 0.072340659132099805 0.15787534671757081 0 0.05842534974831818 0.058425349748568167 0 0.11736878855947019 0.099262147589397345 0 0.072340659132099805 0.15787534671757081 0 0.05842534974831818 0.058425349748568167 0 0.11736878855947019 0.099262147589397345 0 0.099999999999814668 0 0 0 0.20000000000083221 0 0.076754417114036966 0.24517625929728579 0 0 0.30000000000124832 0 0 0.20000000000083221 0 0.072340659132099805 0.15787534671757081 0 0.076754417114036966 0.24517625929728579 0 0 0.10000000000041601 0 0 0.20000000000083221 0 0.072340659132099805 0.15787534671757081 0 0.11736878855947019 0.099262147589397345 0 0.072340659132099805 0.15787534671757081 0 0.15713224427556369 0.19462055031758391 0 0.072340659132099805 0.15787534671757081 0 0.076754417114036966 0.24517625929728579 0 0.15713224427556369 0.19462055031758391 0 0.076754417114036966 0.24517625929728579 0 0.15713224427556369 0.19462055031758391 0 0.13575432176650609 0.26177349842400482 0 0.15713224427556369 0.19462055031758391 0 0.1941589268096966 0.28301425698743637 0 0.13575432176650609 0.26177349842400482 0 0.11736878855947019 0.099262147589397345 0 0.15713224427556369 0.19462055031758391 0 0.2049592257883151 0.1136587120754589 0 0.15713224427556369 0.19462055031758391 0 0.23632615701395029 0.16695287371417161 0 0.2049592257883151 0.1136587120754589 0 0.23632615701395029 0.16695287371417161 0 0.2049592257883151 0.1136587120754589 0 0.28999131001604278 0.1096412864478291 0 0.15713224427556369 0.19462055031758391 0 0.23632615701395029 0.16695287371417161 0 0.2299760630703524 0.2225257972182236 0 0.15713224427556369 0.19462055031758391 0 0.2299760630703524 0.2225257972182236 0 0.1941589268096966 0.28301425698743637 0 0.099999999999814668 0 0 0.17145071998201811 0.060258457788043909 0 0.19999999999955789 0 0 0.11736878855947019 0.099262147589397345 0 0.099999999999814668 0 0 0.17145071998201811 0.060258457788043909 0 0.11736878855947019 0.099262147589397345 0 0.17145071998201811 0.060258457788043909 0 0.2049592257883151 0.1136587120754589 0 0.17145071998201811 0.060258457788043909 0 0.2049592257883151 0.1136587120754589 0 0.23947795756627041 0.055127514674138137 0 0.2049592257883151 0.1136587120754589 0 0.23947795756627041 0.055127514674138137 0 0.28999131001604278 0.1096412864478291 0 0.23947795756627041 0.055127514674138137 0 0.19999999999955789 0 0 0.29999999999926641 0 0 0.17145071998201811 0.060258457788043909 0 0.23947795756627041 0.055127514674138137 0 0.19999999999955789 0 0 0.23947795756627041 0.055127514674138137 0 0.29999999999926641 0 0 0.28999131001604278 0.1096412864478291 0 0.29999999999926641 0 0 0.35406483083248758 0.078537905902684224 0 0.3999999999989749 0 0 0.35406483083248758 0.078537905902684224 0 0.28999131001604278 0.1096412864478291 0 0.37053906278907522 0.16071991210652001 0 0.29999999999926641 0 0 0.35406483083248758 0.078537905902684224 0 0.28999131001604278 0.1096412864478291 0 0.23632615701395029 0.16695287371417161 0 0.28999131001604278 0.1096412864478291 0 0.29454411933247859 0.1942182557279433 0 0.29454411933247859 0.1942182557279433 0 0.31214747383698288 0.25112655154953339 0 0.26096379286661558 0.26049523993944562 0 0.23632615701395029 0.16695287371417161 0 0.2299760630703524 0.2225257972182236 0 0.29454411933247859 0.1942182557279433 0 0.2299760630703524 0.2225257972182236 0 0.29454411933247859 0.1942182557279433 0 0.26096379286661558 0.26049523993944562 0 0.34214461957799158 0.21523300106526999 0 0.37053906278907522 0.16071991210652001 0 0.3848394463845129 0.2263717102278168 0 0.29454411933247859 0.1942182557279433 0 0.34214461957799158 0.21523300106526999 0 0.37053906278907522 0.16071991210652001 0 0.29454411933247859 0.1942182557279433 0 0.34214461957799158 0.21523300106526999 0 0.31214747383698288 0.25112655154953339 0 0.34214461957799158 0.21523300106526999 0 0.35426299167392977 0.25566377588317091 0 0.31214747383698288 0.25112655154953339 0 0.34214461957799158 0.21523300106526999 0 0.3848394463845129 0.2263717102278168 0 0.35426299167392977 0.25566377588317091 0 0.3848394463845129 0.2263717102278168 0 0.38383376806569858 0.26564947200433758 0 0.35426299167392977 0.25566377588317091 0 0.28999131001604278 0.1096412864478291 0 0.29454411933247859 0.1942182557279433 0 0.37053906278907522 0.16071991210652001 0 0.37053906278907522 0.16071991210652001 0 0.41260066262683931 0.20084244419234801 0 0.44588396814009912 0.17331830423126529 0 0.37053906278907522 0.16071991210652001 0 0.44588396814009912 0.17331830423126529 0 0.41114656741565858 0.1169976912362575 0 0.37053906278907522 0.16071991210652001 0 0.3848394463845129 0.2263717102278168 0 0.41260066262683931 0.20084244419234801 0 0.41260066262683931 0.20084244419234801 0 0.44102434814492297 0.21276705521226619 0 0.44588396814009912 0.17331830423126529 0 0.41260066262683931 0.20084244419234801 0 0.42308142495795342 0.2341556686316493 0 0.44102434814492297 0.21276705521226619 0 0.3848394463845129 0.2263717102278168 0 0.41260066262683931 0.20084244419234801 0 0.42308142495795342 0.2341556686316493 0 0.3848394463845129 0.2263717102278168 0 0.42308142495795342 0.2341556686316493 0 0.41326197172237811 0.26477705272558139 0 0.42308142495795342 0.2341556686316493 0 0.45279136658191632 0.2454645808094798 0 0.43237610775568341 0.25442832268994081 0 0.45279136658191632 0.2454645808094798 0 0.44102434814492297 0.21276705521226619 0 0.47076431841780703 0.21005427819658859 0 0.42308142495795342 0.2341556686316493 0 0.45279136658191632 0.2454645808094798 0 0.44102434814492297 0.21276705521226619 0 0.45279136658191632 0.2454645808094798 0 0.47076431841780703 0.21005427819658859 0 0.4815757853575543 0.24579687230515479 0 0.45279136658191632 0.2454645808094798 0 0.4815757853575543 0.24579687230515479 0 0.46983414298779852 0.25850080530540981 0 0.44102434814492297 0.21276705521226619 0 0.47076431841780703 0.21005427819658859 0 0.44588396814009912 0.17331830423126529 0 0.47076431841780703 0.21005427819658859 0 0.44588396814009912 0.17331830423126529 0 0.50086900227669984 0.19286909959646639 0 0.47076431841780703 0.21005427819658859 0 0.50086900227669984 0.19286909959646639 0 0.50493807540744373 0.22547032939714651 0 0.47076431841780703 0.21005427819658859 0 0.4815757853575543 0.24579687230515479 0 0.50493807540744373 0.22547032939714651 0 0.4815757853575543 0.24579687230515479 0 0.50493807540744373 0.22547032939714651 0 0.5053074179542888 0.25558383997991369 0 0.44588396814009912 0.17331830423126529 0 0.4677358305654189 0.12029665150275309 0 0.41114656741565858 0.1169976912362575 0 0.44588396814009912 0.17331830423126529 0 0.50425007665466071 0.1543133975765052 0 0.50086900227669984 0.19286909959646639 0 0.44588396814009912 0.17331830423126529 0 0.4677358305654189 0.12029665150275309 0 0.50425007665466071 0.1543133975765052 0 0.4677358305654189 0.12029665150275309 0 0.51867624734975648 0.088315711926529455 0 0.50425007665466071 0.1543133975765052 0 0.4677358305654189 0.12029665150275309 0 0.45872229326691988 0.068538152543207831 0 0.41114656741565858 0.1169976912362575 0 0.4677358305654189 0.12029665150275309 0 0.45872229326691988 0.068538152543207831 0 0.51867624734975648 0.088315711926529455 0 0.45872229326691988 0.068538152543207831 0 0.49999999999869432 0 0 0.51867624734975648 0.088315711926529455 0 0.45872229326691988 0.068538152543207831 0 0.49999999999869432 0 0 0.3999999999989749 0 0 0.45872229326691988 0.068538152543207831 0 0.3999999999989749 0 0 0.41114656741565858 0.1169976912362575 0 0.35406483083248758 0.078537905902684224 0 0.3999999999989749 0 0 0.41114656741565858 0.1169976912362575 0 0.35406483083248758 0.078537905902684224 0 0.37053906278907522 0.16071991210652001 0 0.41114656741565858 0.1169976912362575 0 0.43249173470276692 0.43605546750222562 0 0.39881017495814691 0.37981101166726439 0 0.36836445410485769 0.42067733685348679 0 0.43249173470276692 0.43605546750222562 0 0.39881017495814691 0.37981101166726439 0 0.45522499340423078 0.37613645989242978 0 0.39881017495814691 0.37981101166726439 0 0.36836445410485769 0.42067733685348679 0 0.36154998589044901 0.38764479892760112 0 0.43249173470276692 0.43605546750222562 0 0.38189419247384238 0.4721560634170604 0 0.36836445410485769 0.42067733685348679 0 0.43249173470276692 0.43605546750222562 0 0.38189419247384238 0.4721560634170604 0 0.42909338950739018 0.52467798151510692 0 0.43249173470276692 0.43605546750222562 0 0.42909338950739018 0.52467798151510692 0 0.5 0.49999999999978328 0 0.43249173470276692 0.43605546750222562 0 0.5 0.40999999999999998 0 0.5 0.49999999999978328 0 0.43249173470276692 0.43605546750222562 0 0.45522499340423078 0.37613645989242978 0 0.5 0.40999999999999998 0 0.45522499340423078 0.37613645989242978 0 0.50132877827535338 0.35252027608574538 0 0.5 0.40999999999999998 0 0.45522499340423078 0.37613645989242978 0 0.46667455788352991 0.33788550640099418 0 0.50132877827535338 0.35252027608574538 0 0.48720285358562221 0.3239045130877074 0 0.46667455788352991 0.33788550640099418 0 0.50132877827535338 0.35252027608574538 0 0.48720285358562221 0.3239045130877074 0 0.48192289753786849 0.30643335198073812 0 0.5 0.31 0 0.48720285358562221 0.3239045130877074 0 0.5 0.31 0 0.51253325434506491 0.32271926641898069 0 0.48720285358562221 0.3239045130877074 0 0.46075763347191678 0.31386867763978632 0 0.48192289753786849 0.30643335198073812 0 0.48720285358562221 0.3239045130877074 0 0.46667455788352991 0.33788550640099418 0 0.46075763347191678 0.31386867763978632 0 0.46075763347191678 0.31386867763978632 0 0.43666021677150701 0.30666666666668119 0 0.43204471460558852 0.34054649
[...]
<PointData Scalars="tracer_conc,region_id," Vectors="" Tensors="">
<DataArray type="Float64" Name="tracer_conc" format="ascii">
0.1269216014506141 0.16291884757051084 0.12681432308970111 0.1264526494716193 0.16219527622160318 0.19231901781249963 0.1669483609667099 0.12351430306787892 0.15989064422486532 0.16772827311759494 0.2099975094398199 0.16066024142652957 0.16238567394739506 0.20633695688818862 0.19510180297852486 0.16295002871104056 0.63923611340904718 0.90950775417175067 0.18282329955451043 0.03538715621031574 0.45288995655389908 0.11537402301899849 0.098899451216751075 0.10617933722274026 0.21458723809813354 0.15338163609627048 0.20372227941625734 0.032555313114838814 0.45740518758445003 0.15365176036863445 0.5867130737468611 0.12021960513536704 0.82000297611254003 0.1212985178524186 1.0957205152048233 0.81883702423853577 0.21506830947092814 0.20525713443553173 0.29105214681156966 0.20252703050788565 0.29202204438345819 0.29460380090636751 0.31126403765469346 0.29065992659477519 0.38838389896766562 0.22624643536501007 0.25942559517137803 0.34904116083791004 0.12427143581296508 0.45826152267051273 1.0928568844283841 0.19439771356593818 0.25666166793679684 0.28605298642545518 0.20709691224835622 0.19542351806107167 0.25512489614061001 0.20646471642007741 0.25692286403596998 0.28826096222697389 0.25733869866764991 0.29030545639852823 0.3291131183761295 0.29022795941787272 0.33061292786257063 0.3880433762251892 0.33101537905206962 0.28881858120845716 0.40491564353220433 0.25747595030412856 0.32932988980922279 0.28893534517061414 0.33049630049907641 0.40835574644454137 0.39053625763298666 0.40926585610973193 0.4783851019154009 0.55015584921159055 0.48140609631357734 0.38885883518790404 0.49027453372139551 0.40922055661479706 0.47804959323516349 0.39091029047796977 0.31064021896315958 0.39089128645022408 0.37294704528558625 0.21315346819268949 0.83959497098640301 0.94343717008750261 0.26068727718046603 0.35025662056878942 0.28545420478676536 0.47669394596758458 0.20762460286187742 0.94937468792610624 0.44231788987567955 0.47569514384419437 0.50028861918741119 0.37925784330086743 0.4427055502398633 0.47404624940464529 0.2550382121736996 0.39929475558325395 0.81061062356742875 0.37878542357392198 0.98762141467535958 0.89582443644003995 0.38606661146163218 0.56287954169364696 0.98307029806651403 0.58645659977863351 1.1100384993165804 0.97155210951211157 0.39165742379159696 0.37352820142738574 0.48125697056412342 0.50694316530815198 0.51358329588823115 0.61305084240697705 0.48804139305061389 0.59673626720640438 0.56151847377414821 0.47647132973236894 0.50014980824674771 0.48789697480210142 0.50479465394836176 0.5264875081714413 0.61776326259347392 0.45698194909255402 0.65669457371886664 0.52192494017952495 0.57586912621177644 0.45427432570941445 0.65836086407567218 0.59178598938084892 0.71029647183091194 1.0995232112480842 0.66147687231022778 0.86794956030227066 1.0396601588432994 0.77067215616848839 0.52388244224666769 0.51924448543835222 0.675480008316234 0.77266401879380764 0.52120927751858093 0.76717125474336789 0.52148979510968463 0.71705799198190556 0.89728355108641566 0.86997615257947891 0.99480171985829113 0.52696316123359377 0.59968621262751565 0.61723772013057143 0.61533725983685672 0.60042231553874847 0.67616260929733873 0.61333268732544977 0.67525045005762185 0.66023302546616636 0.5640129244795884 0.69516730399101678 0.60345446887329812 0.72870488442307835 0.58539264318202822 0.77834346526423859 0.59722876666596136 0.64682528462089584 0.56175313417173622 0.59576986450383829 0.69424331972660736 0.67742173824034035 0.59719831349639962 0.64691593005731662 0.69587762090326355 0.64451124142418625 0.73028637417946252 0.696866464240952 0.64505537480800468 0.64093931303135876 0.55726618641015457 0.64508072354314405 0.64095625717412352 0.7312938532343638 0.63855172622252665 0.70597419080076529 0.73177669245441945 0.63831850253728217 0.70625197781263016 0.55081424763343989 0.63925382643335049 0.5525231657065065 0.56100303655360362 0.47850001983693108 0.5522594822812027 0.5607043220579071 0.48209214938054951 0.49119740255263539 0.56061357850174698 0.52216541915096926 0.61091914691502636 0.4818390614544838 0.52457251294968354 0.60847636335996846 0.65925741971129492 0.61143551413529229 0.48086033514655457 0.55237263792444391 0.55954103941001987 0.52722697227890891 0.45038643486296936 0.58815294985078326 0.52168391021042992 0.61237288141170276 0.58819112381013505 0.61261361336990516 0.71526590284414981 0.58882557834757898 0.68964941052353812 0.71392456291701545 0.53880161989842557 0.65407434832762779 0.61607999848323769 0.69371160892206196 0.80117195825498355 0.59251358337181714 0.72333870983776161 1.08190811170086 0.91958597729038749 1.0118660914099273 1.0011520831511451 0.97640697131199283 1.0000707678732357 1.0000771888578455 1.0001149088371537 0.99997729878667729 1.0001764644154931 0.99974850729033338 1.0000683668323413 1.0000939703065874 1.0000787055963956 1.0042457315157731 1.0063837084756957 0.99863041510873296 0.99886801530444635 0.99828022134175842 1.0053983560688091 1.0064827474248546 0.99845349226032576 1.0064132043821912 0.72638091915697434 1.0805389924310462 1.0864601483004626 0.87110253291748752 0.99317393276941845 1.0606598158458123 0.87204580055284109 1.0541516504276496 1.0598779920881589 0.83532844765653769 1.0711380477375168 0.94537553886959935 1.0039672255422567 1.0016200103865973 0.99754480704911375 1.0039421683391294 0.99757047193746817 1.0004124778827628 1.0003562628914939 0.99884365901517091 0.99936410170218226 1.0258735031388828 1.0280386893941735 0.99913734409731336 1.0003580838902035 0.99883792060070509 0.9982995615584781 0.99979487879588813 0.99998252078092453 0.99998190072842741 0.99949466279791166 1.0001651938350433 0.99906636659757686 0.99979801920370515 0.9997625881801594 0.99998142138130275 0.99976816634922738 0.99996618388122105 0.99987209955810985 0.99975098810732699 0.99986887789093759 0.99970828061978378 0.99995014601468635 0.99999502057110812 0.99987399607272831 0.99995756480373355 1.0000190767828281 0.99998717478436494 0.99976638268546913 0.99996705171965961 0.99997555038619734 0.99995704042941569 0.99996337524260637 1.0000199899442304 1.0000347225147306 1.0000526736420354 1.0000688381557661 0.999961767545818 1.0000260498151767 1.0000636249641235 1.0000351969378902 1.0000683406420201 1.0000567418845601 1.0000185482692263 1.0000472892853398 0.99998172793246276 1.0001183131863385 1.0000723123742832 0.99996500616440975 0.99995977004532599 1.0000673869699015 0.99996645239843696 1.0001064038262466 0.99998804042210243 0.99997645725409179 1.0001123590290177 0.99998140028879801 1.0000726353512241 1.000110211384845 0.99889967002734048 0.99986623573933719 1.0000526836907981 1.0001812901031411 0.99904036668781571 1.0000841295021534 0.99902844369285604 0.99893528684536459 0.93960113202811735 1.0355804151840269 1.0354269555853211 0.93895664048741401 1.0362270366628372 0.97314488601191318 0.93791619589205011 1.0143525700818219 1.0364085652857808 0.72282404511505027 1.078766044816672 1.0156011211230744 1.0369496251120429 1.0108076653023208 0.97237008137902836 1.0106230563078922 1.0215101706218861 0.99264380562621912 1.0202537115034456 0.99325672075568516 0.99258440461180608 0.9999975901664 0.99995145219933446 1.0000777715971432 1.0002840366023202 0.99961957439048765 0.99916091890424408 1.0002895991287148 1.0001237783599075 0.99915991318427833 0.99994767817842756 0.99920283638864316 0.99930525068517573 0.99972705146802943 0.99976091160515401 0.99889086272906047 0.9922533637349662 1.0195169016996035 0.99271789011236899 0.59210966721102343 1.0995235292694148 1.1058598140800446 1.020434076084068 0.99233445138453524 1.0193021116320893 0.72282873864460251 1.0949218988911991 1.0996971688407478 0.71718413139866466 0.72053198791631856 1.0975616452877206 0.99822109986369356 1.0054931203340129 0.99956073249067745 1.0055734923065591 0.99944701908659705 1.0055234834944751 1.0346258331136351 0.99045908221394086 1.0442850128250767 0.99941107959087294 1.0056146136319097 1.0002586412323358 0.71535776467179368 1.1054626126864655 0.99671788048519305 0.69870000013825806 1.0232735276236355 0.58262469888742652 0.99118934517955881 1.0428228636808696 0.98927593036444594 1.0429966229675598 0.9893380336792762 1.0016564446373495 1.0422670134981187 1.0313553884787434 0.98251618790177819 1.0351472384762661 0.89088701581946972 0.44961078983106978 1.0442692542981207 1.0382799587384142 0.9929525828547241 1.0381062750731798 0.99319052907935002 0.99488821942602257 1.0001007832236282 0.9985042606918676 0.99686866286945586 0.99980518770554816 0.99946363666382532 0.99886787773956043 0.99748715469998606 0.9968171261513753 0.99794427452184398 0.99690903231869687 0.99811418784637806 0.99609025604103318 1.0327000225379255 1.0148660489237857 0.99776193672351632 1.0142972198226832 0.99909077016632186 1.0087676594399639 0.9984117415574334 1.0110109263540998 0.9905126206167566 1.0077721312148267 0.99484817182436736 0.996755455011338 0.98862390757623164 1.012941730194941 0.99000455445606639 1.0331818250260574 0.98038922927525063 1.0196099222019039 1.0033750459207389 0.98839397825661413 1.0126747414517183 1.0292000185802184 0.99695852915711203 1.0072905181081517 0.96584555635557845 1.0541945038958145 0.88627300228123462 1.0577508646150866 0.88344770515995785 0.96711626436084419 0.77507109959057774 0.35018233775934354 0.28184754209754492 0.4110277473882476 0.33721181310157677 0.36062011614100181 0.41079042737719534 0.47151519299744693 0.37488177890020213 0.41126368482579684 0.37400072987139982 0.33743322938745918 0.88527598717667666 0.78627943628336805 0.34570924737534442 0.88306449609645354 0.34909027121591107 0.45033310588243247 0.47144198954497174 0.46324622900030066 0.37568165422140926 1.0287833612640656 0.45830220879856465 0.57546477614024993 0.49011549651565128 0.47982817027096836 0.55287415867155887 0.5268468917475353 0.44963114759461104 0.40878224331090285 0.5232779209276277 0.41565486667306367 0.47654275658097184 0.41592289165645691 0.47589824899084138 0.41448660259683967 0.4154982585635163 0.3581902655781431 0.41416375507854475 0.39885139428904831 0.32221452622404434 0.364943686341275 0.32183271629565158 0.36462385096909389 0.28565194426287355 0.36235863433804477 0.29237111801889593 0.31966830306199723 0.29187139393125783 0.24266782843375515 0.3189242113406931 0.24644740852024627 0.31642922918549271 0.26188022038292091 0.28502904384236055 0.29125523926601044 0.23145538131148308 0.28444766194480708 0.34761528764949695 0.29518962461543563 0.33320740594127168 0.27461162658458232 0.36083244696338823 0.81458847484586816 0.2762740233289005 1.0369512826980469 0.27287488106105062 0.31497536168137452 1.0425084858016809 0.31156847301794349 0.2691898152843793 1.0331178511619867 0.28990905712750353 0.2264787441340807 0.23052794724527911 0.21718539961563102 0.2336717878830756 0.18919224958579464 0.24591519414487645 0.20224321016742425 0.2610985667563071 0.51218349958377207 0.96785082351695451 1.0813578276244096 0.99400841250342808 0.97897673264378493 0.99963352305497222 0.97999250747618805 0.99934909446614761 1.0065548637390782 0.98103142326919845 1.0076132128193369 0.98478379488410328 0.31365231481810057 1.0444055885391708 1.0293955715604919 0.98404018620176525 0.984342987429768 0.95397103625584012 0.37281408754601425 1.0172347234064234 1.1179711253306452 1.0287433791474749 0.91883239578060338 0.9739096289124779 0.70976760929382487 0.89685178083618955 1.0346237736149506 0.79101768507187675 1.0666230333418498 0.93211341607699549 0.37116010605001998 1.1214018936376491 0.71219167211689438 0.81874309353351382 0.95113987333269845 0.38162650881052979 0.79302827216991045 0.93292147478648402 0.78329158368574014 0.14765474143452423 0.19862197664728232 0.18753000452249999 0.21524675268698568 0.15381147460084132 0.18947059800988747 0.29565165501679369 0.65760123340721621 0.021658056245421376 0.6527182127075436 0.025988979029116167 0.29823109028654782 0.09218283511706675 0.1759452511661192 0.078876983192396471 0.14766846708792433 0.12107377432885513 0.18537298610074401 0.12529121658932019 0.1792358902238734 0.12599323459611522 0.20620541133074236 0.1859917904238669 0.25682918639396013 0.18119299409076142 0.18869751539877216 0.24020166042285968 0.17996865465107462 0.12509433471279388 0.18693092405665779 0.12963225726159222 0.12235562849598584 0.18613381883395586 0.11560616804537396 0.14571232552584806 0.1914339951880808 0.10802245175782045 0.15053706356661672 0.13709462309649253 0.14512454563553295 0.19437079411518893 0.2047644330871897 0.1498017975900566 0.19615224444748894 0.21280375847016125 0.27270717801026101 0.20638114036163091 0.27885198563289137 0.19500895887416625 0.26950299603262168 0.20801242857663138 0.1922972549493466 0.25960606434521094 0.27621375383117097 0.20671716631210849 0.24673602059448491 0.27454990675790275 0.24669551655362512 0.27603292066717888 0.31242884099373225 0.26472362688631335 0.37838948893936442 0.29751575427480853 0.2815853844721391 0.35172936558914086 0.33817763047221883 0.27210211046147598 0.28266024072237089 0.34963633493221696 0.26943489569931539 0.3373566312311651 0.28724844375326958 0.2894747280305166 0.32094650583255346 0.24311094391303745 0.33670273772913839 0.28971913633784319 0.32256427589158237 0.33711973240102489 0.32271270876027086 0.38078837478069838 0.3243454850517441 0.31402489819435619 0.36998492997912691 0.36071301070125794 0.31212631133363994 0.37125596736920485 0.3233958782984227 0.31345389446536731 0.25470236859096862 0.32079920201216899 0.25596475110257544 0.24489792238377281 0.18122990706859546 0.25429786609974775 0.24381040142467256 0.26692074716630976 0.2877160483427092 0.24191212424824349 0.18958362126374756 0.26484113028397194 0.24131863441400553 0.20472936833376837 0.19249067612372689 0.26252276567545424 0.20214876479582303 0.12814237698958569 0.19093538983600059 0.12964783566986404 0.13013949662545177 0.18775872001859101 0.12920603720150001 0.19056110342286089 0.16863564097442443 0.16779293230752071 0.20344506954183664 0.26351853763159994 0.19259062335604735 0.16909655204694923 0.26469952009700803 0.12945368351293818 0.16682042423720417 0.1302201840256651 0.15398664317878274 0.13907330146792166 0.20768312672987868 0.16767835567584943 0.1305703627132046 0.2006326403691383 0.20287635501431611 0.2668707108080372 0.26810072706813676 0.19634653398997962 0.21474243715682673 0.27299098537852662 0.26795350658793349 0.35067003820131504 0.26913251845080005 0.26734081433197582 0.27961087767083376 0.37480952526954947 0.27017340850952254 0.35523351141455134 0.40459025481780897 0.35155690776014753 0.27069087898696109 0.40453283944601937 0.1911155687664142 0.26986504954032248 0.26531809726626682 0.27154209007218971 0.26669935842963927 0.35230119887792011 0.26561898183358978 0.35357970394411942 0.3087537329332159 0.35555507120422808 0.30878315443527399 0.43835819627957406 0.20394487904910263 0.26502841730040338 0.30528463061165878 0.54669549457148003 0.44212330932091731 0.59659398654640305 0.54582318395484297 0.44287307315367797 0.47295973820602566 0.35503367780558309 0.44210629462224615 0.47130226956974491 0.3561109529211603 0.47068071023491859 0.40845717757026961 0.54690001752649775 0.47264993251812132 0.57520224116156116 0.49554242796515385 0.55618026336417847 0.57530997965128494 0.47323384936498175 0.49575948237930467 0.57442047804431307 0.49590979221175946 0.47227327456818008 0.55542338773397237 0.47293474534696434 0.49499176948412166 0.4083671597902036 0.49513169703398568 0.40850449112334941 0.47198456943148248 0.35155084737614833 0.41289750245371593 0.46853661285788623 0.35226579253632229 0.40852816088028426 0.4696127398957603 0.41313596028667754 0.47057420677061529 0.48468568413972912 0.47077077264924821 0.52178037425853274 0.48520185153543161 0.47170656694472218 0.52287675486813656 0.55566490638648258 0.52295640768029228 0.58477181212877682 0.55605888918511837 0.58491689779750755 0.55609647667578976 0.61554869256737399 0.55591037646766173 0.61561214032091005 0.64032279865270048 0.61564760595429091 0.67304526021021771 0.64035743815419333 0.61563865595351497 0.64434118128477069 0.67342503259380004 0.58487203445037872 0.61561327266045984 0.6443595586537515 0.64417503057641445 0.68573338226055103 0.67349225632600029 0.68565064233514916 0.72256633483640742 0.67349037583793703 0.72261582757382881 0.721669607843623 0.76014760117460545 0.72276333049227226 0.7217949244791152 0.67328316069857608 0.7226432105688555 0.75944833417991875 0.76032759674526995 0.72180653712593235 0.74060898592877744 0.78196559998582693 0.72228338051799368 0.67295657316844726 0.64038450924087909 0.74090380021022817 0.69490745992253811 0.79683116978758772 0.72206291285263369 0.74120616373005388 0.64067941768405445 0.74158641505783041 0.64076622482258794 0.69489876528813255 0.55629537247585581 0.64040727676479381 0.5755768825739993 0.64066301163487038 0.57530945856777604 0.69513840402002935 0.54713995903202461 0.57570293529654426 0.65955725802136855 0.57573785287771095 0.69496033208549901 0.65978084763639655 0.69467265883898544 0.65980986613680059 0.78407338658063364 0.6600349630419623 0.59810358530437058 0.75644162116625135 0.66052138650373116 0.75512766773497209 0.78324452297859193 0.54733234969025923 0.65991577849231331 0.59803907225484287 0.48812301322750667 0.4339057045093585 0.42875587167930246 0.48843479349490571 0.49874975521838205 0.4340688439098172 0.49011333443694854 0.42933356096836561 0.46116734386480857 0.48951914756805087 0.56072800097440012 0.54937654667669811 0.49047827621842743 0.51073000684860526 0.5488598635373525 0.48866189354227935 0.49908783089624698 0.56127276634678391 0.52189178804984171 0.4741945277421058 0.53771296161894244 0.49959694521233905 0.47613494738870232 0.53634136838996793 0.4755825373720019 0.43569670614854411 0.41259312677720172 0.49916684790550769 0.47613858254486774 0.43563991376019806 0.43517418989756362 0.41247499457863585 0.36986180458565138 0.4335494496820716 0.37050951256948189 0.3815265372451101 0.36099602255802138 0.41287170547243429 0.37182521575976485 0.32314659900367693 0.37024067567106761 0.3810091383717249 0.43361786641350319 0.38185797585160153 0.42854132007992951 0.38223270835263823 0.4292386517122927 0.39958502899723808 0.33713688889850912 0.38196260703162066 0.39902980817886519 0.3530729740838025 0.41536739958518842 0.33823876408295811 0.4211507645660823 0.45854587459482915 0.32849768835842819 0.39452389269336624 0.46424734936517548 0.45329305428595196 0.43031883228692269 0.39867187428601342 0.45998695996967809 0.38159498543308451 0.42545271871403451 0.29607599536292795 0.4370998587843008 0.26108458578103905 0.33877507804586587 0.45433241307095168 0.29504055612375735 0.29908224643410014 0.43892622032256651 0.35132699841859888 0.49040550267489375 0.33227291146504562 0.49544260210748142 0.33588641869380542 0.45809726456958783 0.2967939443414333 0.37436159221007903 0.33819540106450896 0.49895715510773997 0.3550406864169024 0.38394700142823246 0.55217944891749804 0.51927856818322549 0.5210318497478259 0.583731732735014 0.54909557818590549 0.52111808371310353 0.48720715993675745 0.54877710040831595 0.49866288051904401 0.33387796606438286 0.50889075121434135 0.46005742789818971 0.50728475120564176 0.50984000237936744 0.49050674914374631 0.46116681089398115 0.51048977457285583 0.46498375017308519 0.4533929177941376 0.51499544168406897 0.46086353008735181 0.38650242889753506 0.55010474114411478 0.50660994640906731 0.56874046302745496 0.5574899207410734 0.50743616477173903 0.50999263345226375 0.56721701375602218 0.56702834356379339 0.61112208511547028 0.54876808866569948 0.51010913561469606 0.56691765868420396 0.54871487495614679 0.56889420889810383 0.61996753723625997 0.55758684159795302 0.63923140186402783 0.60275583025456281 0.66317210472918331 0.56743979210908613 0.63926931932267894 0.60256635216299448 0.56779484333436825 0.6396288011629635 0.61070584043715548 0.58367654001999569 0.54985562937969312 0.60011736058630072 0.58356888634622939 0.60026940497941517 0.6605827966163621 0.5017013