<?xml version="1.0"?>
<VTKFile type="UnstructuredGrid" version="0.1" byte_order="LittleEndian">
<UnstructuredGrid>
<Piece NumberOfPoints="8154" NumberOfCells="2718">
<Points>
<DataArray type="Float64" NumberOfComponents="3" format="ascii">
0.5787652689 0.3254091753 0.0000000000 0.5873015873 0.3100000000 0.0000000000 0.5952380952 0.3100000000 0.0000000000 0.6753742723 0.6696911584 0.0000000000 0.6825396825 0.6900000000 0.0000000000 0.6746031746 0.6900000000 0.0000000000 0.5000000000 0.6900000000 0.0000000000 0.5000000000 0.6966666667 0.0000000000 0.4883470854 0.6948265107 0.0000000000 0.9365079365 0.3100000000 0.0000000000 0.9372303145 0.3210087551 0.0000000000 0.9285714286 0.3100000000 0.0000000000 0.9365079365 0.6900000000 0.0000000000 0.9285714286 0.6900000000 0.0000000000 0.9399834623 0.6782768144 0.0000000000 0.4883470854 0.6948265107 0.0000000000 0.5000000000 0.6966666667 0.0000000000 0.4938952939 0.7000971716 0.0000000000 0.8968253968 0.3100000000 0.0000000000 0.9047619048 0.3100000000 0.0000000000 0.8998390692 0.3291223722 0.0000000000 0.8968253968 0.6900000000 0.0000000000 0.8998390692 0.6708776278 0.0000000000 0.9047619048 0.6900000000 0.0000000000 0.4707643184 0.2100542782 0.0000000000 0.4458839681 0.1733183042 0.0000000000 0.5008690023 0.1928690996 0.0000000000 0.6058549608 0.3213323554 0.0000000000 0.5787652689 0.3254091753 0.0000000000 0.5952380952 0.3100000000 0.0000000000 0.2945441193 0.1942182557 0.0000000000 0.3121474738 0.2511265515 0.0000000000 0.2609637929 0.2604952399 0.0000000000 0.6622036067 0.6829322315 0.0000000000 0.6753742723 0.6696911584 0.0000000000 0.6746031746 0.6900000000 0.0000000000 0.4587222933 0.0685381525 0.0000000000 0.4111465674 0.1169976912 0.0000000000 0.4000000000 0.0000000000 0.0000000000 0.8785333177 0.7282266810 0.0000000000 0.8849371662 0.7177589937 0.0000000000 0.8915023598 0.7236450509 0.0000000000 0.8785333177 0.2717733190 0.0000000000 0.8915023598 0.2763549491 0.0000000000 0.8849371662 0.2822410063 0.0000000000 0.4111465674 0.1169976912 0.0000000000 0.3540648308 0.0785379059 0.0000000000 0.4000000000 0.0000000000 0.0000000000 0.2299760631 0.2225257972 0.0000000000 0.2945441193 0.1942182557 0.0000000000 0.2609637929 0.2604952399 0.0000000000 0.2463841680 0.4092123106 0.0000000000 0.1990592994 0.4036161580 0.0000000000 0.2292303470 0.3505331420 0.0000000000 0.3984523977 0.3411383417 0.0000000000 0.3541663823 0.3536207986 0.0000000000 0.3821979065 0.3180112381 0.0000000000 0.7790493472 0.6731028212 0.0000000000 0.7557898484 0.6769719364 0.0000000000 0.7456065760 0.6391772407 0.0000000000 0.7800236953 0.3269809563 0.0000000000 0.7534013605 0.3614929793 0.0000000000 0.7570425817 0.3231357775 0.0000000000 0.2539353615 0.7051611323 0.0000000000 0.2792949222 0.6477927011 0.0000000000 0.3100763125 0.6791275999 0.0000000000 0.1684031440 0.8479776616 0.0000000000 0.2369610118 0.7864593387 0.0000000000 0.2776806089 0.8456136400 0.0000000000 0.3818941925 0.4721560634 0.0000000000 0.4324917347 0.4360554675 0.0000000000 0.4290933895 0.5246779815 0.0000000000 0.2675374494 0.3705422459 0.0000000000 0.2463841680 0.4092123106 0.0000000000 0.2292303470 0.3505331420 0.0000000000 0.5357142857 0.7414970415 0.0000000000 0.5497543589 0.7576632693 0.0000000000 0.5212378204 0.7569666932 0.0000000000 0.0000000000 1.0000000000 0.0000000000 0.0000000000 0.9000000000 0.0000000000 0.0859890518 0.9139072011 0.0000000000 0.0000000000 1.0000000000 0.0000000000 0.0859890518 0.9139072011 0.0000000000 0.1000000000 1.0000000000 0.0000000000 0.5000000000 0.3100000000 0.0000000000 0.5125332543 0.3227192664 0.0000000000 0.4872028536 0.3239045131 0.0000000000 0.7758448524 0.7877268613 0.0000000000 0.7628848107 0.7605934586 0.0000000000 0.7904279966 0.7559720035 0.0000000000 0.7758448524 0.2122731387 0.0000000000 0.7904279966 0.2440279965 0.0000000000 0.7628848107 0.2394065414 0.0000000000 0.5000000000 0.2900000000 0.0000000000 0.4922201219 0.2812906356 0.0000000000 0.5039682540 0.2828161872 0.0000000000 0.4883470854 0.6948265107 0.0000000000 0.4938952939 0.7000971716 0.0000000000 0.4907825373 0.7066666667 0.0000000000 0.9682539683 0.6900000000 0.0000000000 0.9722222222 0.6769291060 0.0000000000 0.9761904762 0.6900000000 0.0000000000 0.9761904762 0.3100000000 0.0000000000 0.9722222222 0.3230708940 0.0000000000 0.9682539683 0.3100000000 0.0000000000 0.6021907333 0.0926574225 0.0000000000 0.6782976812 0.1148406052 0.0000000000 0.6388851509 0.1375415295 0.0000000000 0.5674603175 0.2247474582 0.0000000000 0.5357449978 0.2267259986 0.0000000000 0.5347057941 0.1912024382 0.0000000000 0.2539353615 0.7051611323 0.0000000000 0.2812942420 0.7514297802 0.0000000000 0.2369610118 0.7864593387 0.0000000000 0.7719268177 0.7428481231 0.0000000000 0.7904279966 0.7559720035 0.0000000000 0.7628848107 0.7605934586 0.0000000000 0.7719268177 0.2571518769 0.0000000000 0.7628848107 0.2394065414 0.0000000000 0.7904279966 0.2440279965 0.0000000000 0.9032790705 0.7288283732 0.0000000000 0.9087301587 0.7192359144 0.0000000000 0.9155031495 0.7257106082 0.0000000000 0.9032790705 0.2711716268 0.0000000000 0.9155031495 0.2742893918 0.0000000000 0.9087301587 0.2807640856 0.0000000000 0.6388851509 0.8624584705 0.0000000000 0.6782993498 0.8851718090 0.0000000000 0.6001536631 0.8994821006 0.0000000000 0.8000000000 1.0000000000 0.0000000000 0.8165635265 0.9153417488 0.0000000000 0.8808217602 0.9194682915 0.0000000000 0.8000000000 0.0000000000 0.0000000000 0.8808217602 0.0805317085 0.0000000000 0.8165635886 0.0846584408 0.0000000000 0.7378929042 0.8115717322 0.0000000000 0.7114241930 0.7774594263 0.0000000000 0.7414855741 0.7754847221 0.0000000000 0.7378929042 0.1884282678 0.0000000000 0.7414855741 0.2245152779 0.0000000000 0.7114241930 0.2225405737 0.0000000000 0.4717603562 0.6910504696 0.0000000000 0.4473861238 0.6871956618 0.0000000000 0.4689083487 0.6663981281 0.0000000000 0.3821979065 0.3180112381 0.0000000000 0.3541663823 0.3536207986 0.0000000000 0.3526372069 0.3162202134 0.0000000000 0.8650793651 0.7100000000 0.0000000000 0.8730158730 0.7100000000 0.0000000000 0.8690476190 0.7212912977 0.0000000000 0.8650793651 0.2900000000 0.0000000000 0.8690476190 0.2787087023 0.0000000000 0.8730158730 0.2900000000 0.0000000000 0.7758448524 0.7877268613 0.0000000000 0.7800234879 0.8252971513 0.0000000000 0.7378929042 0.8115717322 0.0000000000 0.7758448524 0.2122731387 0.0000000000 0.7378929042 0.1884282678 0.0000000000 0.7800234879 0.1747028487 0.0000000000 0.5972932026 0.7417423457 0.0000000000 0.5831749274 0.7293864911 0.0000000000 0.5984995888 0.7260885855 0.0000000000 0.5972932026 0.2582576543 0.0000000000 0.5984995888 0.2739114145 0.0000000000 0.5831749274 0.2706135089 0.0000000000 0.2979491613 0.5079308066 0.0000000000 0.2637269634 0.4819335741 0.0000000000 0.3159938297 0.4535214934 0.0000000000 0.2539353615 0.7051611323 0.0000000000 0.2369610118 0.7864593387 0.0000000000 0.1912528455 0.7371552909 0.0000000000 0.4337513221 0.6607932313 0.0000000000 0.4106398804 0.6863231001 0.0000000000 0.3896570907 0.6584859206 0.0000000000 0.5039682540 0.7733951496 0.0000000000 0.4789072453 0.7993031313 0.0000000000 0.4793241221 0.7574460945 0.0000000000 0.3940431725 0.7565850447 0.0000000000 0.4199289892 0.7290534135 0.0000000000 0.4307930036 0.7535681637 0.0000000000 0.3248589322 0.3964700486 0.0000000000 0.3159938297 0.4535214934 0.0000000000 0.2839017290 0.4041714418 0.0000000000 0.5000000000 0.2900000000 0.0000000000 0.4938811636 0.2933333333 0.0000000000 0.4922201219 0.2812906356 0.0000000000 0.9795676331 0.7287089067 0.0000000000 0.9645787997 0.7260973716 0.0000000000 0.9722222222 0.7194062969 0.0000000000 0.9795676331 0.2712910933 0.0000000000 0.9722222222 0.2805937031 0.0000000000 0.9645787997 0.2739026284 0.0000000000 0.5972932026 0.7417423457 0.0000000000 0.5984995888 0.7260885855 0.0000000000 0.6129103550 0.7293947115 0.0000000000 0.5972932026 0.2582576543 0.0000000000 0.6129103550 0.2706052885 0.0000000000 0.5984995888 0.2739114145 0.0000000000 0.7719268177 0.7428481231 0.0000000000 0.7604121568 0.7294176701 0.0000000000 0.7735579138 0.7261378615 0.0000000000 0.7719268177 0.2571518769 0.0000000000 0.7735579138 0.2738621385 0.0000000000 0.7604121568 0.2705823299 0.0000000000 0.8608177766 0.7486134619 0.0000000000 0.8712077471 0.7653917186 0.0000000000 0.8422205365 0.7563515445 0.0000000000 0.8608177766 0.2513865381 0.0000000000 0.8422205365 0.2436484555 0.0000000000 0.8712077471 0.2346082814 0.0000000000 0.3962088611 0.7222679320 0.0000000000 0.4199289892 0.7290534135 0.0000000000 0.3940431725 0.7565850447 0.0000000000 0.7758448524 0.7877268613 0.0000000000 0.7378929042 0.8115717322 0.0000000000 0.7414855741 0.7754847221 0.0000000000 0.7758448524 0.2122731387 0.0000000000 0.7414855741 0.2245152779 0.0000000000 0.7378929042 0.1884282678 0.0000000000 0.2255544275 0.5658304639 0.0000000000 0.1658327442 0.5185629059 0.0000000000 0.2203056429 0.5045175393 0.0000000000 0.7460317460 0.7100000000 0.0000000000 0.7539682540 0.7100000000 0.0000000000 0.7506950160 0.7200294935 0.0000000000 0.7460317460 0.2900000000 0.0000000000 0.7506950160 0.2799705065 0.0000000000 0.7539682540 0.2900000000 0.0000000000 0.1684031440 0.8479776616 0.0000000000 0.0579098568 0.8475991375 0.0000000000 0.0960089442 0.7895901564 0.0000000000 0.5008690023 0.1928690996 0.0000000000 0.4458839681 0.1733183042 0.0000000000 0.5042500767 0.1543133976 0.0000000000 0.3248589322 0.3964700486 0.0000000000 0.2980298761 0.3640121278 0.0000000000 0.3541663823 0.3536207986 0.0000000000 0.4678966828 0.2936187756 0.0000000000 0.4846599965 0.2931075700 0.0000000000 0.4819228975 0.3064333520 0.0000000000 0.6190476190 0.7100000000 0.0000000000 0.6269841270 0.7100000000 0.0000000000 0.6223463908 0.7200113160 0.0000000000 0.6190476190 0.2900000000 0.0000000000 0.6223463908 0.2799886840 0.0000000000 0.6269841270 0.2900000000 0.0000000000 0.9032790705 0.7288283732 0.0000000000 0.8999834280 0.7176820118 0.0000000000 0.9087301587 0.7192359144 0.0000000000 0.9032790705 0.2711716268 0.0000000000 0.90873015
[...]
<PointData Scalars="tracer_conc,region_id," Vectors="" Tensors="">
<DataArray type="Float64" Name="tracer_conc" format="ascii">
0.9192698761 1.0424544953 1.0447310744 0.7475800550 0.7623436593 0.7473683238 0.3108479969 0.1261561241 0.4597027907 0.9994163680 0.9996621061 0.9989570319 0.9993988572 0.9989936092 0.9995516870 0.4461704913 0.1325327711 0.1094760909 0.9941323998 0.9959789686 0.9956227879 0.9949995317 0.9956105992 0.9964701809 0.2929276737 0.2797134148 0.3455472859 0.8904809495 0.9059788234 1.0515845587 -0.0632283243 0.6813925779 0.8039502963 0.7232294043 0.7476240730 0.7474086526 0.3107127612 0.2490880967 0.2419530820 0.9902564392 0.9967714508 0.9957631311 0.9891928246 0.9934318806 0.9907621704 0.2480578336 0.1902963446 0.2411818639 0.2643427311 -0.0577518191 0.7976301738 0.0206794963 0.0787683782 0.8721693547 1.0477419586 1.0271784002 0.9919753736 0.9170218478 0.8844891252 0.8682354114 0.8956190522 0.8605523252 0.8524209022 0.1139848033 0.1506791739 0.1735350023 0.0796742049 0.1178316092 0.1441535194 0.2193637087 0.2704300677 0.2876284790 0.6214955001 0.0162892233 0.8803061304 0.4932142169 0.5192564363 0.4679831273 0.0288385948 0.0292770368 0.0473437196 0.0280627287 0.0488911648 0.0525127067 1.0007106484 0.9988584888 0.9996873103 0.9177922993 0.9012810062 0.9343661287 0.8954171102 0.9164864758 0.8736007189 0.9984947169 0.9973018822 0.9967905573 0.3508966135 0.1456582336 0.0843995355 0.9999765200 0.9999888397 0.9999970937 0.9999992274 0.9999993403 0.9999917269 0.5584218226 0.7179305719 0.6310885996 0.4508668485 0.3877032636 0.4035624983 0.1038163291 0.1544089469 0.1283239823 0.9118906857 0.9349028594 0.9013145020 0.8849544230 0.8732745509 0.9167583561 0.9958608426 0.9988324588 0.9976953672 0.9961715660 0.9981000158 0.9968758169 0.6942374682 0.7705509175 0.6187512146 0.9444934872 0.9596158827 1.0041922413 0.9298790367 1.0039349276 0.9472784447 0.8679656944 0.8249824678 0.8722975093 0.8329086393 0.8361619283 0.7767242693 0.3755631336 0.3350460205 0.3690884238 0.9941989182 1.0234625596 0.9849953788 0.9271263941 0.9371279604 1.0154550017 0.9806403803 0.9844165577 0.9849188499 0.9185787055 0.9248610308 0.8685188915 0.8967401229 0.8333456502 0.9048517267 0.6112735650 0.5921106489 0.6241553113 0.4980914809 0.4673081163 0.4323597253 0.1518635825 0.1210508057 0.1515795611 0.1040375356 0.1265585292 0.0817924335 0.3121065751 0.2816901420 0.2537395123 0.4368496722 0.3941531497 0.3954569681 0.2618541913 0.3127622278 0.3122264440 0.2079328119 0.1094809293 0.1670846004 0.9985449322 0.9995631468 0.9974712515 1.0000060776 0.9999645868 0.9999910133 1.0000061127 0.9999999489 0.9999892452 0.6111998197 0.6242282823 0.6526586251 0.4980463680 0.5104338217 0.4674934158 0.9102789999 0.8991396830 0.9166523215 0.8859925993 0.8838105954 0.8623195470 0.9849562108 0.9894949556 0.9758669190 0.9822586977 0.9706012850 0.9882710837 0.2754460308 0.3167577197 0.2666002101 0.9203394229 0.8675839162 0.8717196669 0.8986176619 0.8355780901 0.8324806370 0.1033429825 0.0731136071 0.0991732592 0.5884425862 0.6129176061 0.9668506248 0.8242790571 0.8394651253 0.8398002304 0.0762660038 0.0411329292 0.0532735604 0.3477985845 0.2747329789 0.3635522211 0.1574334376 0.7515888911 0.9623163227 0.9995240154 0.9995072614 1.0005435366 0.2242827845 0.2416328049 0.6951898727 1.0429121307 0.4868315313 1.0166891643 0.9946716189 1.0006808837 1.0001450299 0.9961747644 0.9969471002 0.9951463882 0.7861417592 0.7469541375 0.7499528521 0.6944129026 0.6383752709 0.6384709723 0.9962713784 0.9977486147 1.0014805527 0.9997290083 0.9998609844 0.9998970074 0.0420075747 0.0619890972 0.0908382990 0.1593628472 0.1437275754 0.1331101214 0.5535639812 0.5681732194 0.5974040284 0.3540191596 0.3868239606 0.5112503216 0.9722219221 0.9759997897 0.9624946646 0.9654627860 0.9526206394 0.9707464447 0.9846073542 0.9953584245 0.9626895484 0.9804313127 0.9526978114 0.9937394244 0.3321995603 0.4036573457 0.3873042097 0.0885786867 0.8195676969 0.8689651308 0.1989808117 0.3190984168 0.3643599842 0.6773291751 0.6176840577 0.6184967070 0.5977916915 0.5253277585 0.5341980189 0.4640229989 0.4048714967 0.3642235209 0.0956989230 0.0602203939 0.8042882441 0.8253072081 0.8866228089 0.8700631152 0.7832728779 0.8373596996 0.8570239970 0.3309562704 0.5212611416 0.5419360331 0.9558624178 0.9622929069 0.9770514992 0.9444785573 0.9722702859 0.9521784128 0.5536475572 0.5346987525 0.5680462996 0.8511532698 0.6592859114 0.5442548936 0.9998551464 0.9995478201 0.9999347074 0.9996976711 1.0000949803 0.9996177495 0.4645095878 0.3675312034 0.4028759930 0.4324754373 0.3559455646 0.1052348907 0.1173715377 0.1159421054 0.1480366919 0.1504528968 0.1878238820 0.1635579436 0.6773111128 0.7105492682 0.7425822218 0.5970479135 0.6772907273 0.6332070854 0.0793788300 0.1442685873 0.1196186125 0.8332114323 0.8513628497 0.8233061936 0.7805685537 0.7698453487 0.8059684635 0.9532256875 0.9663293767 0.9504030488 0.9288185602 0.9386233356 0.9373714458 0.4502122982 0.4120955902 0.4142887933 0.1023556371 0.1719739090 0.1142166494 0.0896232518 0.1347140980 0.1285030088 0.0496804266 0.0414861844 0.0763508544 0.3131821459 0.3933607091 0.4131621071 1.0297475840 1.0099172900 0.8661967733 0.1485025720 0.1890568469 0.1389451891 0.9959304325 0.9980158001 0.9956013891 0.9964243653 0.9956166147 0.9977495554 0.9968611048 0.9985303635 1.0105206697 -0.0740858228 0.2435198858 0.9157945346 0.1830000973 0.1179748169 0.1504461217 1.0293763827 0.9428625449 0.9711241186 0.9353995637 0.8696395986 0.8854881224 0.9177764861 0.8558893692 0.8369193353 0.3139584696 0.3444882799 0.3923762530 0.0692276592 0.0739645291 0.1013805380 0.9178188708 0.9335724968 0.9463078323 0.8954464553 0.9321887823 0.9155250900 0.1672540293 0.1190757368 0.1848568942 0.0385640388 0.0939670936 0.0802024208 0.9399597351 0.9336570729 0.9246646325 0.9222416760 0.9019073685 0.9149826100 0.9558971993 0.9010789888 0.8765116481 0.3788372094 0.2888962628 0.2708717574 0.1255955895 0.1396646763 0.1856445123 0.9998361675 0.9998940705 0.9999385411 0.9999621349 0.9999571105 0.9998824021 0.9677713947 0.5992521235 0.6941466243 0.5188235988 0.5222917903 0.5332477284 0.8837041051 0.7643154255 0.7779271146 0.2091743978 0.1703968801 0.1083888615 0.3762426616 0.3996612219 0.8494259500 0.7957217308 0.6494864254 0.7920208439 0.9730943137 0.9640215233 0.9807643873 0.9637076892 0.9776821718 0.9558329376 0.1106277179 0.1328788944 0.1430201462 0.9554959324 0.9433533142 0.9645645132 0.9394644669 0.9569112509 0.9270450762 1.0669984971 0.6337522702 0.8503659071 0.9999993287 1.0000078418 0.9999910112 1.0000012461 0.9999968739 1.0000031501 0.9101463582 0.9269738023 0.8935477424 0.9325763715 0.9152471149 0.9440063710 1.0258913097 0.6795529048 0.6308221780 0.0682885684 0.1018302479 0.0880199002 0.8767135307 0.8375993691 0.7877565261 0.9040569841 0.8844797415 0.9156442063 0.8862955455 0.8872966118 0.8517327917 0.8705232227 0.8538136099 0.8847924837 0.8327254643 0.8086749365 0.8543985461 0.6239776126 0.5993820007 0.6435801572 0.1041262481 0.0996655430 0.1264802393 0.6705660975 0.6436262742 0.6930984547 0.9280688602 1.0536373570 1.0295793063 0.8596148249 1.0642558303 1.0616149096 0.6184871593 0.6176632548 0.5857382617 0.9721103990 0.9799452356 0.9757047318 0.9653282084 0.9703105243 0.9755195561 0.9910529607 0.9924194358 0.9932699750 0.9918067421 0.9912636621 0.9888526491 0.5252845671 0.4934932935 0.5340906517 0.3265236210 0.6475394129 1.0261286743 0.1480777897 0.2367539526 0.1903971993 0.9330654225 0.9654550871 0.8711198195 0.9154230274 0.8381507056 0.9547080122 0.9853604579 0.9874687638 0.9884885709 0.9853298897 0.9847000476 0.9810691502 0.5480736632 0.5571780545 0.5629786157 0.2033989984 0.2291501581 0.2482477279 0.2130051731 0.5606894055 0.4934881455 0.7170357120 0.7231941848 0.7323215157 0.1597858844 0.1366090960 0.1860572195 0.3659712173 1.0272806953 1.1384150261 0.3439606796 0.2926548099 0.3180850884 0.0553445380 0.0518077250 0.1265474234 0.1032585609 0.1318641314 0.1105771258 0.4941429002 0.5099653105 0.5384995987 0.3444695933 0.3951042390 0.3938203625 0.4146744198 0.4634670385 0.4949845533 0.8252145377 0.8088871387 0.7711526825 0.7768449488 0.7101996407 0.7582902603 0.4347302972 0.4503898117 0.4789146511 0.0525340596 0.0487801675 0.0329364971 0.3133843117 0.1783588925 0.2198969061 0.9993909275 0.9995275595 0.9996865752 0.9997133601 0.9996221214 0.9994083638 0.6186645538 0.4631056533 0.6175299398 0.9187346114 0.8722781197 0.9014269517 0.8965454610 0.8737602837 0.8361886824 0.9662715137 0.9627187002 0.9503756118 0.9385531192 0.9490946442 0.9373250906 1.0000313018 1.0000328639 1.0000965084 1.0000307443 1.0000929424 1.0000264387 0.9989083824 0.9997843741 0.9989166286 0.9989704203 0.9986975641 0.9996403249 1.0000100319 0.9999921967 0.9999638934 1.0000054478 0.9999892943 0.9999963117 0.4942227247 0.4774525530 0.5098073702 0.6122172028 0.5557311617 0.5256357484 0.3407438016 0.8211362893 0.6191933133 0.9936446581 0.9987497845 0.9868905754 0.9929974597 0.9838854985 0.9985979029 0.4809053543 0.9471002138 1.1478213086 0.9183459624 0.9458761435 0.9532243956 0.8964492006 0.9415563627 0.9319811310 0.3733679130 0.1472291664 0.3765710022 0.1021823513 0.1661863487 0.1095434801 0.2675569346 0.3173473712 0.2926407861 0.9940479360 0.9909799327 0.9943224462 0.9938076699 0.9933241836 0.9893048016 0.4376030343 0.3953348704 0.4376861564 0.7198055056 0.7103081323 0.7364597597 0.6359921636 0.6101677493 0.5864360797 0.6773205545 0.7023702200 0.6176633752 0.5986499787 0.5328144048 0.6343347779 1.0000066531 1.0000056277 0.9999972185 1.0000076886 0.9999964029 1.0000067642 0.6562407272 0.6170064116 0.6137977384 0.4906209519 0.5298726341 0.4822557360 0.4143830092 0.4780596587 0.3653460859 0.9947317222 0.9956408782 1.0007138078 0.9962953021 0.9951676462 0.9932249521 0.8966745293 0.9207377540 0.9177103623 0.8623546484 0.8837008143 0.8669546029 0.9078452635 0.8661933200 0.9017664521 0.8396261524 0.8211564487 0.8361049229 1.0019101466 0.9924677104 0.9948736861 1.0024593109 0.9935039760 0.9902182085 0.6061526224 0.5682759046 0.6301199946 0.3765912785 0.4197536803 0.6583794648 0.1833092956 0.1481744066 0.1183909983 0.2140601701 0.2514953048 0.5601756375 0.9991790544 0.9974093462 0.9935236355 0.9993786312 0.9927633196 0.9968995780 0.2030825241 0.1633955903 0.1887864266 0.4631704312 0.3651823667 0.4796584082 0.7877632048 0.7761302021 0.8040738968 0.7296142566 0.7181222549 0.6870889452 0.6519924438 0.6697835439 0.6884948854 0.5214820086 0.5648331164 0.5486995861 0.1824641303 0.3726390894 0.1498183565 0.6661140853 0.6207450875 1.0132317299 0.9991814993 0.9977249677 0.9979180700 0.9994145842 0.9980952485 0.9977437224 0.0543394978 0.0803973304 0.0807716792 0.5513081758 0.4895585767 0.5659796834 0.2002004910 0.1759520293 0.3161823130 0.1793157605 0.1573378782 0.1910544046 0.8087670191 0.8246870123 0.8690223837 0.7581413652 0.8339651226 0.7763995235 0.9993525858 1.0084946150 0.9970834950 1.0006885957 1.0000374655 1.0004901083 0.4347781312 0.4053360976 0.4500482532 1.0132057078 0.9856511550 1.0042786489 0.9964521299 0.9976279117 0.9975499791 0.9971964641 0.9978721831 0.9958167039 0.0573214183 0.0365503671 0.0494613983 0.9909795965 0.9903393215 0.9859277267 0.9894435581 0.9830562974 0.9892036842 0.6085806588 0.5838537945 0.5993816593 0.8981067885 0.8062131310 0.1467354653 0.9600884932 1.0007767641 0.9589726634 0.9495692805 0.9472665046 1.0004204372 0.4524244187 0.4009090161 0.4647264851 1.0041823916 0.9489577996 0.9971620739 0.9351441896 1.0047444653 0.9955412859 0.3942459460 0.4626803823 0.4148424614 0.9372171293 0.9524233947 0.9533504299 0.9220469276 0.9289487459 0.9169523478 0.9372748789 0.9393172848 0.9524587686 0.9221531509 0.9169718833 0.9080878292 0.6912065755 0.7171809389 0.5580714220 0.9997657066 0.9999828227 0.9996548035 0.9998380976 0.9997594267 1.0000041267 0.4378049623 0.4378720540 0.4675210489 0.9918259268 0.9940482371 0.9922314183 0.4813257191 0.5464441384 0.6560551427 0.9999708931 0.9999959442 0.9999933741 0.9999909590 0.9999980876 0.9999994991 0.9889791486 0.9976189193 0.9978689689 0.9891899340 0.9908444551 0.9876001007 0.9841402393 0.9957030954 0.9927975870 0.9798469530 0.9906005981 0.9945483763 0.0257516172 0.0482625431 0.0366222908 0.9119588321 0.9247059628 0.9339356216 0.8853891986 0.9153748284 0.9019282406 0.6754977547 0.7108492347 0.6558870773 0.5835383288 0.5638794030 0.6328413826 0.8252293202 0.8721386767 0.7695502724 0.3217983798 1.1234763610 1.1260414294 0.7831355515 0.7176131284 0.8392668175 0.7308244036 1.0792813612 0.9907014745 0.9851898796 0.9756324049 0.9797738820 0.9826016872 0.9752290266 0.9703114600 0.1594571901 0.1624940870 0.1951939477 0.0985940449 0.1228056281 0.1274248539 0.3407458861 0.1846835042 0.1887881274 0.0753781936 0.0644661502 0.0483588315 0.8197834607 0.8782838288 0.9022746222 0.1474849957 0.1385064250 0.1071339469 0.4971886939 0.4516737336 0.3999142927 0.7697739482 0.7418857456 0.6190345316 0.5535019360 0.4965112555 0.4554338115 0.9977593178 0.9964361992 0.9979721986 0.9977780293 0.9981684291 0.9964128648 0.0677334334 0.0767806418 0.0480577548 0.7876986308 0.9095491335 0.2994455916 0.9932466190 0.9970127168 0.9978359072 1.0015033734 1.0256827409 0.9847543442 0.9580521319 0.8455932270 0.8844615716 1.0000151822 0.9999573202 0.9999842060 1.0000125641 0.9999601994 0.9998984267 0.8689609283 0.9017049692 0.8663635392 0.8102838167 0.8362411735 0.8211399226 0.9994638688 0.9998725480 1.0005073253 0.9993199917 1.0005830743 0.9998793277 0.4364152441 0.3944729626 0.4012076666 0.9825476379 0.9889497548 0.9941929956 0.9789740963 0.9935012700 0.9874944833 1.1305612699 0.4735491748 1.1371946567 0.0556555354 0.0792185376 0.0563407543 0.5540439143 0.6178269520 0.4804733808 0.3881545130 0.3229556850 0.2877135442 0.4666297385 0.4017780408 0.5562197401 0.9824102785 0.9947303147 0.9867014591 0.9791720121 0.9836241472 0.9943760166 0.3395962923 0.3705417846 0.5558119434 0.7194975883 0.6886349674 0.6696987362 0.5821495436 0.5499748532 0.5627486582 0.5244832147 0.4784397203 0.4486042444 0.5539660132 0.5862850544 0.6184297797 0.1523490110 0.1520631395 0.1886007193 0.1922984032 0.1974370308 0.1367749538 0.3679713861 0.3134460480 0.3530851632 0.2448580582 0.2585750734 0.2014558723 0.6345027276 0.6588741068 0.9802684245 0.8547069251 0.8671096354 0.8689699203 0.8257008016 0.7712196147 0.7876837133 0.7767983999 0.7262807221 0.7080881443 0.0791319802 0.0527666107 0.0779477910 0.4960826307 0.4255796576 0.5062707238 0.0265313688 0.0331779517 0.0475606002 0.2429776190 0.4357745887 0.2108155251 0.1936610370 0.2089501744 0.6308947924 1.0893056499 0.5954656614 1.0697630341 0.1704625593 0.1839570777 0.5895215238 1.0941118402 0.7311867087 1.0866469147 0.4862955939 1.1425880395 1.1417954349 0.9848815500 0.9886525178 1.0048565401 0.9981883208 0.9988391219 0.9989397214 0.8743152918 0.9020180586 0.8719923659 0.8373920570 0.8362028282 0.8743565689 0.6144864720 0.4313771680 0.4643996744 0.9725058965 0.9781312219 1.0075011852 0.9956941475 0.9969468886 0.9971486762 0.1168202541 0.0873382666 0.1152807199 0.7292882567 0.6394856188 0.6590547960 0.5781043850 0.5868354550 0.5723493284 0.9402828120 0.9219587207 0.9378024461 0.9081935832 0.8932643158 0.9018069944 0.9817682829 0.9799350948 0.9878955388 0.9758991707 0.9853668318 0.9762839733 0.5802353505 0.5269482929 0.4961140125 0.9121397572 0.9012874599 0.8925026431 0.8852306787 0.8594855883 0.8732817885 0.9999990728 1.0000621707 0.9999990728 0.9999999688 0.9999999688 1.0000823709 0.9996936427 0.9978253448 0.9997220327 0.4516556680 0.4408396541 0.4690905996 0.8650981726 1.1177116281 0.6665539817 0.3758304534 0.3692546583 0.4081401831 1.0000018872 0.9999658241 1.0000049179 1.0000011565 1.0000019145 0.9999020970 0.1501184923 0.1617568790 0.5455263364 1.0516049320 0.9003480054 1.0574088157 0.4515364954 0.3966241604 0.3671292932 0.0275903326 0.0285427852 0.0462602057 0.9473174811 0.8723402344 0.9648842744 0.9330568573 0.9530871358 0.8400034917 0.7015844057 0.6930186341 0.7232583215 0.0588104886 0.0494746751 0.0778433472 1.0070603490 0.9935058904 1.0155144054 0.3168174710 0.4867377913 1.1253968892 0.9950532855 0.9924718940 0.9957211449 0.9941708169 0.9958213750 0.9912970602 0.4039707804 0.5865182904 0.4962215539 0.1358637343 0.1458158861 0.5045368996 1.0004013588 1.0000967315 0.9997317205 0.6108313488 0.5789511074 0.5925372430 0.4979536272 0.4323357393 0.4603713250 0.9999175680 1.0000025262 1.0000134543 0.9999560578 1.0000107302 1.0000018306 0.0581136365 0.0854034901 0.0767916414 0.9972943714 0.9952554830 0.9965609146 0.1504927930 0.1280000157 0.1231188069 0.2204369275 0.2859700245 0.2307391253 -0.0214443448 0.1173503438 0.6467685099 0.9997240714 0.9999048996 0.9987377896 0.9998533641 0.9990682943 0.9999596251 0.8565544918 1.0101602405 1.0657191145 0.1140373136 0.1164293765 0.4202798295 0.9391602791 1.0030716257 1.0112050476 0.9848537793 0.9843732039 0.9877047325 0.9943141877 0.9992067154 0.9964985916 0.6772934188 0.7427571063 0.7022426197 0.5987464080 0.6346392974 0.6777406566 0.4907975346 0.4689820595 0.4960372100 1.0000129128 1.0001059651 0.9999969468 1.0000247355 1.0000003085 1.0001371140 0.0944402785 0.3266034016 0.0963554999 0.9999984342 0.9999898561 0.9999997697 1.0000001291 1.0000000249 0.9999981564 0.9964972695 0.9980501781 0.9979269570 0.9962628485 0.9981325219 0.9980156659 0.9996262254 0.9933488135 0.9954801007 0.9998887442 0.9951710222 0.9924243180 0.9961568192 0.9932310482 0.9956383584 0.1240240988 0.1323546037 0.4678051725 0.4655791756 0.4670424415 0.4047251804 0.9999945581 0.9999885898 0.9999999279 0.9999982922 1.0000003267 0.9999987211 0.9197257082 0.9378267712 0.9220569414 0.8832076535 0.9019547351 0.8932699821 0.4945572587 0.4675016071 0.5194831545 0.9990706139 0.9995372168 0.9977769067 0.9992731599 0.9978080057 0.9996419594 0.1164340872 0.1232212624 0.4365507642 0.9522464212 0.9622909972 0.9460901783 0.9386261871 0.9312323359 0.9532160644 0.2151867348 0.5796041650 0.3382043408 0.4642467107 0.4690146961 0.4774335011 1.0000011825 1.0001022179 1.0000011825 1.0000039141 1.0000039141 1.0001363179 0.4142490020 0.4120021725 0.3920651962 0.1598652317 0.1971160863 0.1797387076 0.9999997120 0.9999997120 1.0000773534 0.9999994684 0.9999994684 1.0000721396 0.2117285654 0.1797612303 0.1978359088 0.9948273343 0.9814098780 1.0038724064 0.9830933597 1.0154030381 0.9872834992 0.1313190734 0.3713848965 0.1632803051 0.7326959797 1.0880701970 1.1045187729 0.9270801817 1.0155535920 0.9980782738 0.9806038628 0.9792400905 0.9845463578 0.7423273942 0.7105609206 0.7715508653 0.6772823961 0.7096649290 0.6332277635 0.1568387367 0.9617058968 0.2984320552 0.3764533421 0.4033680638 0.3118651056 0.1629605308 0.0969241086 0.1198452470 0.1682290751 0.1873207018 0.2349252119 0.7780307014 0.7460346208 0.7529000532 0.6903909080 0.6447120481 0.6661988959 0.9990198218 0.9997361119 0.9993805271 0.9991917915 0.9994594162 0.9998555037 0.8675933282 0.9260986437 0.8854694196 0.8327836724 0.8557969592 0.9064534083 0.3318093749 0.3660839731 0.4593745220 0.9985653198 1.0335437242 0.9240854873 0.2862389308 0.2489074221 0.2292168990 0.9106786005 0.8909777369 0.8988436358 0.8863010476 0.8622816674 0.8599998704 0.3621057062 0.3811156417 0.2697979095 0.3750775992 0.1276321246 0.1297457332 0.6099748820 0.6516580432 0.6402481443 0.4950261760 0.5445298197 0.5212830303 0.9981251168 1.0007665903 1.0006413415 0.9998863428 0.9998563734 0.9999615791 0.3651878858 0.3138403778 0.4122492276 0.3673429187 0.3170248250 0.4017126919 0.3327520844 0.3468830183 0.4028471940 0.2395277687 0.3713967621 0.3114789239 0.1078443271 0.0769887474 0.0863208646 0.8333087736 0.8232876059 0.8148653620 0.7806506075 0.7567847727 0.7698480991 0.9999992762 0.9999992762 1.0000675922 1.0000000590 1.0000000590 1.0000840413 0.1839837807 0.1203410798 0.1481818198 0.9389825523 0.9160760138 0.8689512040 0.9296909014 0.8596588008 0.8957142982 0.5116571800 0.5570184930 0.6505947242 0.9962638133 1.0014971428 0.9998650694 0.9997249597 0.9996443025 0.9998815843 1.0006442239 0.9965401908 0.9992096303 1.0004219579 0.9988445112 0.9960798162 0.9999993017 0.9999993017 1.0000070603 0.9999988548 0.99