<?xml version="1.0"?>
<VTKFile type="UnstructuredGrid" version="0.1" byte_order="LittleEndian">
<UnstructuredGrid>
<Piece NumberOfPoints="8154" NumberOfCells="2718">
<Points>
<DataArray type="Float64" NumberOfComponents="3" format="ascii">
0.5787652689 0.3254091753 0.0000000000 0.5873015873 0.3100000000 0.0000000000 0.5952380952 0.3100000000 0.0000000000 0.6753742723 0.6696911584 0.0000000000 0.6825396825 0.6900000000 0.0000000000 0.6746031746 0.6900000000 0.0000000000 0.5000000000 0.6900000000 0.0000000000 0.5000000000 0.6966666667 0.0000000000 0.4883470854 0.6948265107 0.0000000000 0.9365079365 0.3100000000 0.0000000000 0.9372303145 0.3210087551 0.0000000000 0.9285714286 0.3100000000 0.0000000000 0.9365079365 0.6900000000 0.0000000000 0.9285714286 0.6900000000 0.0000000000 0.9399834623 0.6782768144 0.0000000000 0.4883470854 0.6948265107 0.0000000000 0.5000000000 0.6966666667 0.0000000000 0.4938952939 0.7000971716 0.0000000000 0.8968253968 0.3100000000 0.0000000000 0.9047619048 0.3100000000 0.0000000000 0.8998390692 0.3291223722 0.0000000000 0.8968253968 0.6900000000 0.0000000000 0.8998390692 0.6708776278 0.0000000000 0.9047619048 0.6900000000 0.0000000000 0.4707643184 0.2100542782 0.0000000000 0.4458839681 0.1733183042 0.0000000000 0.5008690023 0.1928690996 0.0000000000 0.6058549608 0.3213323554 0.0000000000 0.5787652689 0.3254091753 0.0000000000 0.5952380952 0.3100000000 0.0000000000 0.2945441193 0.1942182557 0.0000000000 0.3121474738 0.2511265515 0.0000000000 0.2609637929 0.2604952399 0.0000000000 0.6622036067 0.6829322315 0.0000000000 0.6753742723 0.6696911584 0.0000000000 0.6746031746 0.6900000000 0.0000000000 0.4587222933 0.0685381525 0.0000000000 0.4111465674 0.1169976912 0.0000000000 0.4000000000 0.0000000000 0.0000000000 0.8785333177 0.7282266810 0.0000000000 0.8849371662 0.7177589937 0.0000000000 0.8915023598 0.7236450509 0.0000000000 0.8785333177 0.2717733190 0.0000000000 0.8915023598 0.2763549491 0.0000000000 0.8849371662 0.2822410063 0.0000000000 0.4111465674 0.1169976912 0.0000000000 0.3540648308 0.0785379059 0.0000000000 0.4000000000 0.0000000000 0.0000000000 0.2299760631 0.2225257972 0.0000000000 0.2945441193 0.1942182557 0.0000000000 0.2609637929 0.2604952399 0.0000000000 0.2463841680 0.4092123106 0.0000000000 0.1990592994 0.4036161580 0.0000000000 0.2292303470 0.3505331420 0.0000000000 0.3984523977 0.3411383417 0.0000000000 0.3541663823 0.3536207986 0.0000000000 0.3821979065 0.3180112381 0.0000000000 0.7790493472 0.6731028212 0.0000000000 0.7557898484 0.6769719364 0.0000000000 0.7456065760 0.6391772407 0.0000000000 0.7800236953 0.3269809563 0.0000000000 0.7534013605 0.3614929793 0.0000000000 0.7570425817 0.3231357775 0.0000000000 0.2539353615 0.7051611323 0.0000000000 0.2792949222 0.6477927011 0.0000000000 0.3100763125 0.6791275999 0.0000000000 0.1684031440 0.8479776616 0.0000000000 0.2369610118 0.7864593387 0.0000000000 0.2776806089 0.8456136400 0.0000000000 0.3818941925 0.4721560634 0.0000000000 0.4324917347 0.4360554675 0.0000000000 0.4290933895 0.5246779815 0.0000000000 0.2675374494 0.3705422459 0.0000000000 0.2463841680 0.4092123106 0.0000000000 0.2292303470 0.3505331420 0.0000000000 0.5357142857 0.7414970415 0.0000000000 0.5497543589 0.7576632693 0.0000000000 0.5212378204 0.7569666932 0.0000000000 0.0000000000 1.0000000000 0.0000000000 0.0000000000 0.9000000000 0.0000000000 0.0859890518 0.9139072011 0.0000000000 0.0000000000 1.0000000000 0.0000000000 0.0859890518 0.9139072011 0.0000000000 0.1000000000 1.0000000000 0.0000000000 0.5000000000 0.3100000000 0.0000000000 0.5125332543 0.3227192664 0.0000000000 0.4872028536 0.3239045131 0.0000000000 0.7758448524 0.7877268613 0.0000000000 0.7628848107 0.7605934586 0.0000000000 0.7904279966 0.7559720035 0.0000000000 0.7758448524 0.2122731387 0.0000000000 0.7904279966 0.2440279965 0.0000000000 0.7628848107 0.2394065414 0.0000000000 0.5000000000 0.2900000000 0.0000000000 0.4922201219 0.2812906356 0.0000000000 0.5039682540 0.2828161872 0.0000000000 0.4883470854 0.6948265107 0.0000000000 0.4938952939 0.7000971716 0.0000000000 0.4907825373 0.7066666667 0.0000000000 0.9682539683 0.6900000000 0.0000000000 0.9722222222 0.6769291060 0.0000000000 0.9761904762 0.6900000000 0.0000000000 0.9761904762 0.3100000000 0.0000000000 0.9722222222 0.3230708940 0.0000000000 0.9682539683 0.3100000000 0.0000000000 0.6021907333 0.0926574225 0.0000000000 0.6782976812 0.1148406052 0.0000000000 0.6388851509 0.1375415295 0.0000000000 0.5674603175 0.2247474582 0.0000000000 0.5357449978 0.2267259986 0.0000000000 0.5347057941 0.1912024382 0.0000000000 0.2539353615 0.7051611323 0.0000000000 0.2812942420 0.7514297802 0.0000000000 0.2369610118 0.7864593387 0.0000000000 0.7719268177 0.7428481231 0.0000000000 0.7904279966 0.7559720035 0.0000000000 0.7628848107 0.7605934586 0.0000000000 0.7719268177 0.2571518769 0.0000000000 0.7628848107 0.2394065414 0.0000000000 0.7904279966 0.2440279965 0.0000000000 0.9032790705 0.7288283732 0.0000000000 0.9087301587 0.7192359144 0.0000000000 0.9155031495 0.7257106082 0.0000000000 0.9032790705 0.2711716268 0.0000000000 0.9155031495 0.2742893918 0.0000000000 0.9087301587 0.2807640856 0.0000000000 0.6388851509 0.8624584705 0.0000000000 0.6782993498 0.8851718090 0.0000000000 0.6001536631 0.8994821006 0.0000000000 0.8000000000 1.0000000000 0.0000000000 0.8165635265 0.9153417488 0.0000000000 0.8808217602 0.9194682915 0.0000000000 0.8000000000 0.0000000000 0.0000000000 0.8808217602 0.0805317085 0.0000000000 0.8165635886 0.0846584408 0.0000000000 0.7378929042 0.8115717322 0.0000000000 0.7114241930 0.7774594263 0.0000000000 0.7414855741 0.7754847221 0.0000000000 0.7378929042 0.1884282678 0.0000000000 0.7414855741 0.2245152779 0.0000000000 0.7114241930 0.2225405737 0.0000000000 0.4717603562 0.6910504696 0.0000000000 0.4473861238 0.6871956618 0.0000000000 0.4689083487 0.6663981281 0.0000000000 0.3821979065 0.3180112381 0.0000000000 0.3541663823 0.3536207986 0.0000000000 0.3526372069 0.3162202134 0.0000000000 0.8650793651 0.7100000000 0.0000000000 0.8730158730 0.7100000000 0.0000000000 0.8690476190 0.7212912977 0.0000000000 0.8650793651 0.2900000000 0.0000000000 0.8690476190 0.2787087023 0.0000000000 0.8730158730 0.2900000000 0.0000000000 0.7758448524 0.7877268613 0.0000000000 0.7800234879 0.8252971513 0.0000000000 0.7378929042 0.8115717322 0.0000000000 0.7758448524 0.2122731387 0.0000000000 0.7378929042 0.1884282678 0.0000000000 0.7800234879 0.1747028487 0.0000000000 0.5972932026 0.7417423457 0.0000000000 0.5831749274 0.7293864911 0.0000000000 0.5984995888 0.7260885855 0.0000000000 0.5972932026 0.2582576543 0.0000000000 0.5984995888 0.2739114145 0.0000000000 0.5831749274 0.2706135089 0.0000000000 0.2979491613 0.5079308066 0.0000000000 0.2637269634 0.4819335741 0.0000000000 0.3159938297 0.4535214934 0.0000000000 0.2539353615 0.7051611323 0.0000000000 0.2369610118 0.7864593387 0.0000000000 0.1912528455 0.7371552909 0.0000000000 0.4337513221 0.6607932313 0.0000000000 0.4106398804 0.6863231001 0.0000000000 0.3896570907 0.6584859206 0.0000000000 0.5039682540 0.7733951496 0.0000000000 0.4789072453 0.7993031313 0.0000000000 0.4793241221 0.7574460945 0.0000000000 0.3940431725 0.7565850447 0.0000000000 0.4199289892 0.7290534135 0.0000000000 0.4307930036 0.7535681637 0.0000000000 0.3248589322 0.3964700486 0.0000000000 0.3159938297 0.4535214934 0.0000000000 0.2839017290 0.4041714418 0.0000000000 0.5000000000 0.2900000000 0.0000000000 0.4938811636 0.2933333333 0.0000000000 0.4922201219 0.2812906356 0.0000000000 0.9795676331 0.7287089067 0.0000000000 0.9645787997 0.7260973716 0.0000000000 0.9722222222 0.7194062969 0.0000000000 0.9795676331 0.2712910933 0.0000000000 0.9722222222 0.2805937031 0.0000000000 0.9645787997 0.2739026284 0.0000000000 0.5972932026 0.7417423457 0.0000000000 0.5984995888 0.7260885855 0.0000000000 0.6129103550 0.7293947115 0.0000000000 0.5972932026 0.2582576543 0.0000000000 0.6129103550 0.2706052885 0.0000000000 0.5984995888 0.2739114145 0.0000000000 0.7719268177 0.7428481231 0.0000000000 0.7604121568 0.7294176701 0.0000000000 0.7735579138 0.7261378615 0.0000000000 0.7719268177 0.2571518769 0.0000000000 0.7735579138 0.2738621385 0.0000000000 0.7604121568 0.2705823299 0.0000000000 0.8608177766 0.7486134619 0.0000000000 0.8712077471 0.7653917186 0.0000000000 0.8422205365 0.7563515445 0.0000000000 0.8608177766 0.2513865381 0.0000000000 0.8422205365 0.2436484555 0.0000000000 0.8712077471 0.2346082814 0.0000000000 0.3962088611 0.7222679320 0.0000000000 0.4199289892 0.7290534135 0.0000000000 0.3940431725 0.7565850447 0.0000000000 0.7758448524 0.7877268613 0.0000000000 0.7378929042 0.8115717322 0.0000000000 0.7414855741 0.7754847221 0.0000000000 0.7758448524 0.2122731387 0.0000000000 0.7414855741 0.2245152779 0.0000000000 0.7378929042 0.1884282678 0.0000000000 0.2255544275 0.5658304639 0.0000000000 0.1658327442 0.5185629059 0.0000000000 0.2203056429 0.5045175393 0.0000000000 0.7460317460 0.7100000000 0.0000000000 0.7539682540 0.7100000000 0.0000000000 0.7506950160 0.7200294935 0.0000000000 0.7460317460 0.2900000000 0.0000000000 0.7506950160 0.2799705065 0.0000000000 0.7539682540 0.2900000000 0.0000000000 0.1684031440 0.8479776616 0.0000000000 0.0579098568 0.8475991375 0.0000000000 0.0960089442 0.7895901564 0.0000000000 0.5008690023 0.1928690996 0.0000000000 0.4458839681 0.1733183042 0.0000000000 0.5042500767 0.1543133976 0.0000000000 0.3248589322 0.3964700486 0.0000000000 0.2980298761 0.3640121278 0.0000000000 0.3541663823 0.3536207986 0.0000000000 0.4678966828 0.2936187756 0.0000000000 0.4846599965 0.2931075700 0.0000000000 0.4819228975 0.3064333520 0.0000000000 0.6190476190 0.7100000000 0.0000000000 0.6269841270 0.7100000000 0.0000000000 0.6223463908 0.7200113160 0.0000000000 0.6190476190 0.2900000000 0.0000000000 0.6223463908 0.2799886840 0.0000000000 0.6269841270 0.2900000000 0.0000000000 0.9032790705 0.7288283732 0.0000000000 0.8999834280 0.7176820118 0.0000000000 0.9087301587 0.7192359144 0.0000000000 0.9032790705 0.2711716268 0.0000000000 0.90873015
[...]
<PointData Scalars="tracer_conc,region_id," Vectors="" Tensors="">
<DataArray type="Float64" Name="tracer_conc" format="ascii">
0.2012582912 0.7262698767 0.7056442929 0.0339840911 0.0367472664 0.0339357453 0.0069270091 0.0074641718 0.0047253875 0.5153457457 0.5490152477 0.4689403623 0.5149679970 0.4735238983 0.5334154754 0.0048368231 0.0074445238 0.0066487636 0.3251604703 0.3576869633 0.3483042235 0.3402679099 0.3502836304 0.3693356241 0.0026601636 0.0023433663 0.0036803029 0.2245977772 0.2044538715 0.7021946685 -0.0232585055 0.0592725894 0.0638832919 0.0297835014 0.0339387324 0.0338919032 0.0028869340 0.0018833300 0.0016703310 0.2870649800 0.3067838688 0.3273627679 0.2705663139 0.3112764520 0.2846105318 0.0018425447 0.0010674969 0.0016535344 0.0079450991 -0.0192673235 0.0589902352 -0.0132239910 -0.0079892921 0.0529242891 0.3287477509 0.1773403349 0.3747131214 0.0973777997 0.0780514512 0.0690886221 0.0797355751 0.0684474147 0.0568173208 0.0004997076 0.0006482660 0.0008601642 0.0002168513 0.0004455596 0.0006195754 0.0014248545 0.0022933667 0.0023234474 0.0353090775 -0.0157016283 0.0573344890 0.0090477695 0.0103127156 0.0078618610 0.0000417256 0.0000456100 0.0000926488 0.0000376656 0.0000997533 0.0001067997 0.8777898327 0.7086025973 0.7063313798 0.1008780681 0.0883134344 0.1159169165 0.0840422121 0.0981300381 0.0719018198 0.8234244467 0.7329707199 0.7373385163 0.0056661482 0.0067821847 0.0053264522 0.7183267086 0.7487416707 0.7801276300 0.8325210845 0.8093227152 0.7631529874 0.0124889816 0.0264984208 0.0180538781 0.0070033310 0.0049204919 0.0054071005 0.0004927164 0.0006913270 0.0004682991 0.0965746712 0.1153264581 0.0883779805 0.0782919389 0.0719379785 0.0971674783 0.3700878026 0.3915983180 0.4187521247 0.3626658108 0.4157584329 0.3804153128 0.0249687755 0.0352213768 0.0170190767 0.1263171252 0.1551162067 0.2702573642 0.1079248246 0.2448592765 0.1346464615 0.0683122999 0.0523362862 0.0709177353 0.0541717391 0.0558977794 0.0394388912 0.0045660645 0.0035140154 0.0043698683 0.3698167181 0.1840595949 0.3037695674 0.2453392180 0.2666340438 0.2624964608 0.2189403039 0.2377236690 0.2407390818 0.1002630087 0.1037769632 0.0675408347 0.0835820198 0.0533552159 0.0870249719 0.0166122548 0.0144879087 0.0168750419 0.0128252579 -0.0018406244 -0.0017676891 0.0006831979 0.0004798765 0.0007670203 0.0004819452 0.0004604897 0.0002693218 0.0029691390 0.0024073541 0.0019354042 0.0065212524 0.0051178638 0.0051696043 0.0021332209 0.0028148378 0.0030828247 0.0006927435 0.0000118887 0.0004716409 0.8270891106 0.8508793071 0.7459834793 0.8087705137 0.6946647951 0.7523753362 0.8660891299 0.8151909746 0.7410079224 0.0166354698 0.0169080884 0.0194070974 0.0133000356 0.0069424392 -0.0020797885 0.0964599180 0.0857686244 0.0980312453 0.0785320468 0.0775601544 0.0666894115 0.2392277718 0.2649496871 0.1972799594 0.2246174770 0.1801404338 0.2523779399 0.0021946863 0.0027920784 0.0021657900 0.0984278871 0.0686497876 0.0714525148 0.0815746290 0.0564238100 0.0545479835 0.0003392603 0.0001865277 0.0003179643 0.0662608217 0.0724838822 0.0799181297 0.0524637197 0.0575880977 0.0577358945 0.0002023297 0.0000759051 0.0001144024 0.0037718929 0.0022122145 0.0041460932 -0.0232370253 0.0700860289 0.1266753193 0.7337734245 0.8059229422 0.8178764318 0.0156763020 0.0171936109 0.0218162465 0.5445163596 -0.1052952031 0.5073334118 0.3700278690 0.3583319756 0.3913138882 0.3625714689 0.3799668183 0.3417888014 0.0375966519 0.0320208816 0.0345722568 0.0339436474 -0.0041281213 0.0140251551 0.5637653244 0.6115611725 0.5887321625 0.5721800152 0.6136712443 0.6302130747 -0.0005624450 0.0003777621 0.0004661690 0.0007424908 0.0006380405 0.0005296538 0.0123817279 0.0124909391 0.0144728452 -0.0148173150 -0.0289025830 0.0262679366 0.1880977884 0.1975329074 0.1618539356 0.1690804239 0.1424367421 0.1805752128 0.2273605260 0.2857315294 0.1501651893 0.2067031961 0.1312976680 0.2626898862 0.0035087849 0.0053097112 0.0049405077 -0.0051093611 0.0391135332 0.0511403522 0.0029211684 0.0024699545 0.0035489063 0.0229822519 0.0171800245 0.0173656526 0.0152157353 0.0107141614 0.0111421615 0.0074124205 0.0054381107 0.0042020026 -0.0032240129 -0.0052021926 0.0350344412 0.0516708876 0.0764155863 0.0690613788 0.0403541809 0.0555854196 0.0620998205 -0.0189103260 0.0279965641 0.0376067814 0.1484780842 0.1622667838 0.1955712813 0.1305026333 0.1782858989 0.1427627701 0.0123610086 0.0106533087 0.0124661420 0.0371784956 0.0196319546 0.0163524174 0.6074842722 0.5332348086 0.6321426708 0.5643432921 0.6763746648 0.5501394739 0.0073820458 0.0043106874 0.0053178670 0.0046897094 0.0055876545 0.0045166072 0.0005052250 0.0004047317 0.0006316385 0.0006654484 0.0009995540 0.0007883092 0.0233078531 0.0278255720 0.0324681592 0.0154163520 0.0229263797 0.0186613802 0.0002141200 0.0006200263 0.0004556930 0.0559029603 0.0622038506 0.0521644306 0.0407140898 0.0382982849 0.0466243265 0.1354057396 0.1477636961 0.1435744872 0.1118990833 0.1230346160 0.1215950245 0.0065706698 0.0054167904 0.0057374789 0.0004746734 0.0008642684 0.0007250249 0.0000041016 0.0004766273 0.0006464922 0.0001032190 0.0000766259 0.0002001740 0.0029481863 0.0050349796 0.0056068138 0.2059564345 0.1717560168 0.0718492469 0.0006499885 0.0010416922 0.0006105229 0.3580182384 0.4060306788 0.3484129986 0.3696679070 0.3502212319 0.4028268097 0.6215472590 0.7028032683 0.4374524751 -0.0143555112 0.0058235572 0.0544645110 0.0009856751 0.0004452007 0.0006918508 0.7655834210 0.2278873287 0.3321911543 0.1090991011 0.0693940027 0.0774794125 0.0921595883 0.0631354208 0.0558998923 0.0030215981 0.0037441969 0.0049513366 0.0001731680 0.0001937167 0.0003220809 0.1008244412 0.1168411594 0.1310096988 0.0839941804 0.1129648077 0.0991243974 0.0008092544 0.0004432251 0.0010032946 -0.0007865234 0.0005826073 -0.0002105774 0.1249905592 0.1167716104 0.1083964270 0.1050060587 0.0889878616 0.0987240599 0.1208035833 0.0790327307 0.0756126392 0.0040780306 0.0023598986 0.0023262759 0.0001399090 0.0006995146 0.0005611351 0.6081779433 0.6338710940 0.6603857805 0.6836343046 0.6794674900 0.6247737782 0.4314012756 -0.1154885864 0.0554491787 0.0103604089 0.0105324771 0.0111712359 0.2521245735 -0.0393711133 0.0721277900 0.0007205016 0.0000533286 -0.0000232139 0.0320728915 0.0351933105 0.0418019131 0.1922155710 -0.0501154721 0.1669691394 0.1901829817 0.1652679706 0.2137389071 0.1650577145 0.1979465991 0.1484392350 0.0003929456 0.0005283085 0.0006261656 0.1483645994 0.1288564077 0.1644472942 0.1240077217 0.1469493206 0.1096869904 0.6123485548 -0.0440406641 0.2497109215 0.8108038318 0.8860925360 0.7367235245 0.8638700708 0.7797924413 0.9147913756 0.1078714590 0.1015563537 0.0771792427 0.1156790297 0.0991201950 0.1280519848 0.5331330367 0.0084539672 -0.0341635072 0.0001667509 0.0003272589 0.0002593561 0.1854890467 0.0175221082 -0.0042150949 0.0903376597 0.0778714628 0.0987135651 0.1318651244 0.0530623108 0.0557211865 0.0706435461 0.0631507681 0.0775845657 0.0552472565 0.0476639868 0.0626439139 0.0178537708 0.0156885104 0.0195771431 0.0003469061 0.0003228032 0.0004797416 0.0226607236 0.0196821104 0.0252359944 0.1665155371 0.3951542235 0.5687806549 0.1473490712 0.5979245340 0.5361898372 0.0173254966 0.0171472669 0.0146016255 0.1883235811 0.2147068648 0.1981389276 0.1693184646 0.1813551201 0.1972528989 0.2882510119 0.3021321375 0.3129724177 0.2950700961 0.2881854028 0.2680363706 0.0106937857 0.0089842253 0.0111025756 -0.0565561431 0.0641591641 0.2904667424 0.0006348227 0.0015453283 0.0010705476 0.1115007048 0.1456061196 0.0677374253 0.0947804715 0.0539614690 0.1256398873 0.2442006528 0.2573117776 0.2651626751 0.2432835380 0.2387277111 0.2210571729 0.0120867661 0.0126363818 0.0130551908 0.0011877088 0.0015152215 0.0017562848 -0.0204253698 0.0564411957 0.0414266798 0.0288756291 0.0298223172 0.0312760398 0.0064783607 0.0037795696 0.0077876966 -0.0597306566 0.3009624070 0.3840321178 0.0036910531 0.0026128743 0.0031361643 -0.0007844202 -0.0010315370 -0.0022174582 0.0003403084 0.0005179604 0.0003903239 0.0090697968 0.0091915856 0.0106425252 0.0037185904 0.0051314074 0.0050834304 0.0057433766 0.0076040068 0.0089199424 0.0521270675 0.0474233362 0.0384457487 0.0392617838 0.0276469804 0.0355488650 0.0066503885 0.0065995861 0.0078198527 0.0003411164 0.0000947504 0.0001565289 0.0024514531 0.0022458101 0.0017443161 0.5151274626 0.5339587021 0.5592414125 0.5638960426 0.5499914669 0.5154550523 0.0161078776 0.0069938863 0.0167830643 0.0998966894 0.0707243580 0.0881759040 0.0829711348 0.0717652356 0.0556458241 0.1478681941 0.1596966935 0.1435996186 0.1231268812 0.1369584033 0.1216556023 0.9713995495 0.7296079929 0.7045970336 0.9717889748 0.7109178439 0.7267482103 0.4716948073 0.5453064821 0.4660299226 0.4740038200 0.4550961646 0.5317548019 0.8082378857 0.7372064851 0.6954388886 0.8618824065 0.7463472773 0.7802731976 0.0090557264 0.0078411162 0.0091730039 0.0146380970 0.0123904117 0.0130482493 -0.0605817309 0.1795671623 0.0786550166 0.3097752397 0.3694860327 0.2455894129 0.2984810044 0.2262382034 0.3540392090 0.0019768088 0.1671839332 0.3055983124 0.1001515293 0.1316965426 0.1405291417 0.0834608798 0.1226920752 0.1141273728 0.0045967376 0.0036888606 0.0036331013 0.0000956201 0.0004490566 0.0000262098 0.0021621263 0.0030937322 0.0026137281 0.3246275097 0.2867897379 0.3275972558 0.3174050240 0.3121716333 0.2700961752 0.0065813387 0.0051472694 0.0066302950 0.0292550347 0.0257601635 0.0288460766 0.0215351819 0.0123540577 0.0117830466 0.0233126967 0.0260644683 0.0169831099 0.0155695519 0.0109039079 0.0182605054 0.9878704410 0.8441686706 0.7329920827 0.9871137207 0.7233322478 0.8381657425 0.0194797051 0.0168313746 0.0181927936 -0.0010785923 -0.0041735154 -0.0022704354 0.0056992969 0.0078736071 0.0042064188 0.3695632689 0.3278664313 0.3581665595 0.3618100030 0.3416804643 0.3115340178 0.0857784427 0.0910939205 0.0979144016 0.0669202017 0.0771269536 0.0689787961 0.0781862145 0.0734369039 0.0714485393 0.0576404195 0.0514903058 0.0564328631 0.4649231094 0.2938104070 0.3240978143 0.4456796165 0.3034378521 0.2711114666 0.0146270081 0.0153975369 0.0169140281 -0.0417772404 -0.0434112524 0.0863907079 0.0009855935 0.0006716987 0.0004504531 -0.0230132537 -0.0217210316 0.0581552957 0.4337071510 0.3759263467 0.3099322084 0.4313646150 0.2993640855 0.3612111970 0.0011809196 0.0007852270 0.0010190183 0.0074829969 0.0041545251 0.0081922355 0.0437830750 0.0375147878 0.0431539227 0.0306094497 0.0292182872 0.0247505303 0.0212278120 0.0233465637 0.0227142684 -0.0104938820 0.0196510802 -0.0045089549 0.0028901858 0.0036198221 0.0036724826 0.0734167149 0.0522459955 0.3374083294 0.4711935147 0.4068676580 0.4140282168 0.4868635632 0.4214916948 0.4095585696 0.0001551260 0.0002669756 0.0002175585 0.0107983520 0.0110980470 0.0124345390 0.0028980915 0.0022532252 0.0024743308 0.0016848342 0.0021801966 0.0019977108 0.0475335192 0.0526010467 0.0673677924 0.0356584546 0.0532083637 0.0397309091 0.8084064889 0.5625027465 0.8252682195 0.8340635504 0.7322098431 0.7038326048 0.0066285301 0.0053889238 0.0065801889 0.7862636452 0.3507069120 0.5605980673 0.3692923849 0.4038567409 0.4013322087 0.3901252155 0.4076241959 0.3538993995 0.0001504292 0.0000790666 0.0000978836 0.2865981566 0.2791869590 0.2470745141 0.2707951475 0.2294453233 0.2690238159 0.0164953802 0.0145173378 0.0157040283 0.0394527254 0.0378633624 -0.0023055390 0.1558967810 0.2739294789 0.1536156001 0.1372724313 0.1334923807 0.2501191366 0.0071721001 0.0052776247 0.0076093610 0.3325354505 0.1164248960 0.2850719929 0.0978876010 0.3068860333 0.2600600178 0.0051141468 0.0074780179 0.0057756281 0.1251795236 0.1257499492 0.1352684999 0.1052919000 0.1118148031 0.1007391270 0.1251249364 0.1161211897 0.1256845099 0.1051694226 0.1007176696 0.0934291619 0.0247387102 0.0273562178 0.0118109859 0.5794777548 0.6435198058 0.5519368449 0.6040616061 0.5809800325 0.6774986691 0.0066100153 0.0066620122 0.0078076073 0.4137136934 0.6564043958 0.5544269488 0.0089788849 0.0161216454 0.0189478880 0.7213607222 0.7824494627 0.7530271693 0.7606851486 0.8120071321 0.8285678507 0.2870640267 0.2830697826 0.3065690784 0.2705694871 0.2842960663 0.2584005141 0.2280447964 0.3207237953 0.2927812123 0.2074731898 0.2701198150 0.2997725134 0.0000399907 0.0000938686 0.0000778165 0.0964424932 0.1083504880 0.1164343402 0.0782113245 0.0983093956 0.0889679290 0.0232888951 0.0275261506 0.0209523923 0.0144770903 0.0130624728 0.0183373383 0.0517052519 0.0672416100 0.0370327402 -0.0349878732 0.3120215143 0.2761137533 0.0403932173 0.0278190397 0.0538628246 0.0842316623 0.4677376201 0.3353233570 0.2386370727 0.1980352685 0.2152196598 0.2241261123 0.1978538072 0.1812138503 0.0007464572 0.0007760224 0.0010754717 0.0003195820 0.0004855369 0.0004841154 0.0025330084 -0.0006526770 0.0002232528 -0.0032154737 0.0012733385 -0.0024570193 0.0463165028 0.0745438821 0.0775778516 0.0006368895 0.0006019174 0.0003660217 0.0079697146 0.0066539545 0.0069099419 0.0362281189 0.0323043625 0.0162941865 0.0107850215 0.0091012426 0.0094413507 0.4065566647 0.3669820452 0.4135180754 0.4092335148 0.4207999660 0.3669062490 0.0001660492 0.0002033356 0.0000941490 0.1087796084 0.1649973833 -0.0358881471 0.5745958560 0.7270492829 0.7436853623 0.3879837348 0.3481252325 0.5632953441 0.1251885822 0.0595726244 0.0851117470 0.8031754212 0.6858216788 0.7229241248 0.7459232313 0.6888827182 0.6334234442 0.0658390625 0.0714195875 0.0733615944 0.0482683305 0.0563115115 0.0515051290 0.4825180909 0.5384443576 0.6961828314 0.4663553547 0.6894908816 0.5321452886 0.0065781403 0.0051568960 0.0053609429 0.2257793296 0.2665012271 0.3079081037 0.2092633862 0.2956323820 0.2544674908 0.4473508966 -0.0399121302 0.3982688528 0.0001562108 0.0002099889 0.0001169082 0.0121985631 0.0165082713 0.0081071626 0.0046554473 0.0030693472 0.0024391366 0.0076540889 0.0052439919 0.0117254811 0.2266233321 0.3059475966 0.2465496661 0.2115831152 0.2279462657 0.2939255645 0.0038123015 -0.0036894450 0.0143697272 0.0258208788 0.0227210165 0.0233682978 0.0129840659 -0.0025742726 0.0163129293 0.0104585884 0.0082885741 0.0070074188 0.0123768567 0.0146843119 0.0170809566 0.0006872726 0.0007796697 0.0010210559 0.0011048985 0.0011446021 0.0005675555 0.0043416018 0.0030243266 0.0038885653 0.0017905143 0.0019666563 0.0011947596 0.0789768908 0.0863332245 0.0929764867 0.0635286984 0.0690249708 0.0698689620 0.0517554828 0.0385081010 0.0423352594 0.0387234737 0.0302661740 0.0274101364 0.0002213955 0.0001100057 0.0002138125 0.0079856188 0.0080724059 0.0091395147 0.0000538024 0.0001477963 0.0000953952 -0.0132566142 0.0282343006 -0.0113923663 0.0131537988 0.0144066583 0.0183884553 0.6145379619 -0.0021582501 0.5823388012 0.0111183504 0.0121522169 0.0156019269 0.6616132529 0.0959769458 0.6364923485 -0.0130632910 0.3197788966 0.3627097669 0.4399392259 0.4774740727 0.4617292613 0.4261943253 0.4628118064 0.4687116955 0.0726642316 0.0876201578 0.0710849413 0.0570249542 0.0561219500 0.0711338640 0.0147772570 0.0061292510 0.0074889079 0.3725486986 0.4045001027 0.3926595741 0.3521352292 0.3819940994 0.3873098542 0.0004927576 0.0002840434 0.0004034708 0.0260164393 0.0245820439 0.0266237201 0.0134059063 -0.0080978967 -0.0107922434 0.1160396273 0.1082771663 0.1070398835 0.0933739766 0.0832580714 0.0889109757 0.2248140433 0.2155471947 0.2560547584 0.2002649540 0.2379105183 0.2004260852 0.0138751469 0.0107607102 0.0091194118 0.0963096909 0.0884073709 0.0828719850 0.0780266746 0.0655769832 0.0719341913 0.9855263711 0.7138834424 0.9855263711 0.9837577416 0.9837577416 0.6975341702 0.7370778285 0.7150491442 0.8127536581 0.0071743150 0.0067469995 0.0078828882 0.1562055281 0.4896495226 0.0336449760 0.0045922614 0.0043837125 0.0055378148 0.7860807236 0.6877943327 0.8042872828 0.7313356933 0.7467351691 0.6327236438 0.0094549712 0.0103013093 0.0131938341 0.6790345898 0.2384635486 0.6614996742 0.0066358004 0.0056693283 0.0058931814 0.0000437221 0.0000408309 0.0000866884 0.1242445966 0.0677280139 0.1481037578 0.1058785174 0.1277092841 0.0543775331 0.0266467963 0.0254198528 0.0297147871 0.0001587255 0.0000952774 0.0002048345 0.7053785658 0.3587468277 0.6872498306 -0.0461205604 0.0071070854 0.3178243144 0.3399522343 0.3018216226 0.3496451626 0.3249663323 0.3472300711 0.2879679337 0.0050013046 0.0130530080 0.0089678173 0.0081303477 0.0088198522 0.0111592418 0.8849013998 0.8559648000 0.8678461042 0.0165492293 0.0142574442 0.0145144992 0.0125700896 -0.0013630889 0.0103371180 0.6374617148 0.7364543790 0.7681566261 0.6724748416 0.8026171149 0.7758037251 0.0001548006 0.0002822881 0.0002685894 0.7804451686 0.6544666297 0.7511990174 0.0006644878 0.0004897048 0.0004912724 0.0014557820 0.0022657110 0.0014934043 -0.0208469860 -0.0154072593 0.0549638256 0.5354611018 0.5685401111 0.4476996973 0.5720280325 0.4709047879 0.6001683536 0.1344563904 0.3708935790 0.6052285056 0.0054231940 0.0058370694 0.0069623105 0.2669706826 0.2831854806 0.2622637095 0.2409346000 0.2378479093 0.2582418072 0.7203318903 0.4679879965 0.7012398920 0.0234296981 0.0323642314 0.0264514343 0.0156426108 0.0186322412 0.0229229636 0.0089010587 0.0078927208 0.0091452548 0.9783105621 0.6923739842 0.8181701098 0.9739814066 0.7863332798 0.6739713258 0.0043410313 0.0056826046 0.0052796743 0.8106658810 0.7523899584 0.8214999742 0.8721217376 0.8793348490 0.8163949863 0.3698104691 0.4191900460 0.4136383714 0.3627465098 0.4198855186 0.4164728688 0.4306924583 0.3109761528 0.3464313726 0.4275349243 0.3391650110 0.2994127353 0.7379850641 0.5652552077 0.7226969182 0.0070631073 0.0076205476 0.0094496952 0.0076311966 0.0077420778 0.0054069614 0.7807740969 0.7487349346 0.8135905214 0.8331179000 0.8793589320 0.8094708213 0.0981897012 0.1069823095 0.1081920373 0.0772352815 0.0887589139 0.0832534924 0.0090455312 0.0078309524 0.0103036639 0.4725892051 0.5095444961 0.4061304770 0.4885592117 0.4079082945 0.5214755623 0.0062112221 0.0066659485 0.0080264201 0.1435612116 0.1612726261 0.1335289248 0.1230910305 0.1146783073 0.1419282339 -0.0198578146 0.0485096366 -0.0149468982 0.0077014581 0.0079017976 0.0082777037 0.9822488908 0.6843373851 0.9822488908 0.9800047090 0.9800047090 0.6657993710 0.0057263513 0.0054159046 0.0050249084 0.0007529185 0.0011109650 0.0009626605 0.9841714026 0.9841714026 0.7012678535 0.9846178949 0.9846178949 0.7053578818 0.0013130230 0.0009645294 0.0011263679 0.3456484612 0.2506992988 0.1805617469 0.3456736453 0.2975187707 0.4381818022 0.0051519949 0.0059431962 0.0048190892 0.0524449814 0.4904620025 0.5642310203 0.2454111449 0.2622171654 0.2389302581 0.2190441010 0.2129332348 0.2373601685 0.0327993403 0.0278225760 0.0380521815 0.0232446542 0.0271808527 0.0186338107 -0.0324768440 0.1345197272 -0.0154312531 0.0043072304 0.0053489432 0.0029616487 0.0007483334 0.0003019646 0.0004548085 0.0008206738 0.0010533647 0.0015730765 0.0374278157 0.0335693792 0.0321168433 0.0285642730 0.0204191264 0.0228382525 0.4731010133 0.5500309942 0.5119795398 0.4895230975 0.5244334499 0.5761561730 0.0686733976 0.1026167864 0.0773347442 0.0547042239 0.0630016441 0.0861541230 0.0034003056 0.0042911826 0.0070413550 0.4898771026 0.7526906200 0.1585778372 0.0023691342 0.0017777093 0.0015175091 0.0961529177 0.0828270337 0.0858535144 0.0781443876 0.0668796160 0.0657854419 0.0046975134 0.0041833032 0.0023548685 0.0046526806 0.0044693494 0.0036216962 0.0165861853 0.0194684610 0.0197605612 0.0094558945 0.0119923417 0.0112755130 0.6121097034 0.6386926922 0.5886081186 0.6307772976 0.6138600078 0.6730482926 0.0042057707 0.0030010753 0.0054987557 0.0042982059 0.0030426506 0.0052071803 0.0035534516 0.0037938982 0.0052371232 0.0015670886 0.0040206961 0.0029382530 0.0004681124 0.0002732609 0.0002888777 0.0558182474 0.0521773659 0.0499833818 0.0406366703 0.0356889904 0.0382954673 0.9850227062 0.9850227062 0.7091221522 0.9836232440 0.9836232440 0.6963313705 0.0009878998 0.0004625875 0.0006709271 0.1160003067 0.0983388663 0.0683474916 0.1057922528 0.0647641237 0.0841783899 0.0079544042 -0.0056005976 0.0264509980 0.5637847080 0.5883241291 0.5425839098 0.5723595321 0.5532627737 0.6128310555 0.5609714995 0.3606778389 0.4701930609 0.5270255585 0.4471249254 0.349