<?xml version="1.0"?>
<VTKFile type="UnstructuredGrid" version="0.1" byte_order="LittleEndian">
<UnstructuredGrid>
<Piece NumberOfPoints="21" NumberOfCells="20">
<Points>
<DataArray type="Float64" NumberOfComponents="3" format="ascii">
0.0000000000 0.0000000000 0.0000000000 1.0000000000 0.0000000000 0.0000000000 0.0500000000 0.0000000000 0.0000000000 0.1000000000 0.0000000000 0.0000000000 0.1500000000 0.0000000000 0.0000000000 0.2000000000 0.0000000000 0.0000000000 0.2500000000 0.0000000000 0.0000000000 0.3000000000 0.0000000000 0.0000000000 0.3500000000 0.0000000000 0.0000000000 0.4000000000 0.0000000000 0.0000000000 0.4500000000 0.0000000000 0.0000000000 0.5000000000 0.0000000000 0.0000000000 0.5500000000 0.0000000000 0.0000000000 0.6000000000 0.0000000000 0.0000000000 0.6500000000 0.0000000000 0.0000000000 0.7000000000 0.0000000000 0.0000000000 0.7500000000 0.0000000000 0.0000000000 0.8000000000 0.0000000000 0.0000000000 0.8500000000 0.0000000000 0.0000000000 0.9000000000 0.0000000000 0.0000000000 0.9500000000 0.0000000000 0.0000000000 
</DataArray>
</Points>
<Cells>
<DataArray type="UInt32" Name="connectivity" format="ascii">
0 2 2 3 3 4 4 5 5 6 6 7 7 8 8 9 9 10 10 11 11 12 12 13 13 14 14 15 15 16 16 17 17 18 18 19 19 20 20 1 
</DataArray>
<DataArray type="UInt32" Name="offsets" format="ascii">
2 4 6 8 10 12 14 16 18 20 22 24 26 28 30 32 34 36 38 40 
</DataArray>
<DataArray type="UInt32" Name="types" format="ascii">
3 3 3 3 3 3 3 3 3 3 3 3 3 3 3 3 3 3 3 3 
</DataArray>
</Cells>
<CellData Scalars="pressure_p0," Vectors="velocity_p0," Tensors="">
<DataArray type="Float64" Name="pressure_p0" format="ascii">
0.0118728330 0.0316054672 0.0392173086 0.0263656635 -0.0156496781 -0.0959574838 -0.2241134131 -0.4100048946 -0.6636437119 -0.9948318304 -1.4126938616 -1.9250818509 -2.5378753018 -3.2542212001 -4.0737835771 -4.9920962270 -6.0001296623 -7.0841863079 -8.2262177043 -9.4046081046 
</DataArray>
<DataArray type="Float64" Name="velocity_p0" NumberOfComponents="3" format="ascii">
-0.0461582872 0.0000000000 0.0000000000 -0.0300783651 0.0000000000 0.0000000000 0.0024048936 0.0000000000 0.0000000000 0.0518976132 0.0000000000 0.0000000000 0.1192065737 0.0000000000 0.0000000000 0.2052149753 0.0000000000 0.0000000000 0.3107159351 0.0000000000 0.0000000000 0.4362057493 0.0000000000 0.0000000000 0.5816428608 0.0000000000 0.0000000000 0.7461844223 0.0000000000 0.0000000000 0.9279203479 0.0000000000 0.0000000000 1.1236343091 0.0000000000 0.0000000000 1.3286310573 0.0000000000 0.0000000000 1.5366775574 0.0000000000 0.0000000000 1.7401083652 0.0000000000 0.0000000000 1.9301391428 0.0000000000 0.0000000000 2.0974115748 0.0000000000 0.0000000000 2.2327550438 0.0000000000 0.0000000000 2.3280965019 0.0000000000 0.0000000000 2.3773897289 0.0000000000 0.0000000000 
</DataArray>
</CellData>
</Piece>
</UnstructuredGrid>
</VTKFile>
