<?xml version="1.0"?>
<VTKFile type="UnstructuredGrid" version="0.1" byte_order="LittleEndian">
<UnstructuredGrid>
<Piece NumberOfPoints="21" NumberOfCells="20">
<Points>
<DataArray type="Float64" NumberOfComponents="3" format="ascii">
0.0000000000 0.0000000000 0.0000000000 1.0000000000 0.0000000000 0.0000000000 0.0500000000 0.0000000000 0.0000000000 0.1000000000 0.0000000000 0.0000000000 0.1500000000 0.0000000000 0.0000000000 0.2000000000 0.0000000000 0.0000000000 0.2500000000 0.0000000000 0.0000000000 0.3000000000 0.0000000000 0.0000000000 0.3500000000 0.0000000000 0.0000000000 0.4000000000 0.0000000000 0.0000000000 0.4500000000 0.0000000000 0.0000000000 0.5000000000 0.0000000000 0.0000000000 0.5500000000 0.0000000000 0.0000000000 0.6000000000 0.0000000000 0.0000000000 0.6500000000 0.0000000000 0.0000000000 0.7000000000 0.0000000000 0.0000000000 0.7500000000 0.0000000000 0.0000000000 0.8000000000 0.0000000000 0.0000000000 0.8500000000 0.0000000000 0.0000000000 0.9000000000 0.0000000000 0.0000000000 0.9500000000 0.0000000000 0.0000000000 
</DataArray>
</Points>
<Cells>
<DataArray type="UInt32" Name="connectivity" format="ascii">
0 2 2 3 3 4 4 5 5 6 6 7 7 8 8 9 9 10 10 11 11 12 12 13 13 14 14 15 15 16 16 17 17 18 18 19 19 20 20 1 
</DataArray>
<DataArray type="UInt32" Name="offsets" format="ascii">
2 4 6 8 10 12 14 16 18 20 22 24 26 28 30 32 34 36 38 40 
</DataArray>
<DataArray type="UInt32" Name="types" format="ascii">
3 3 3 3 3 3 3 3 3 3 3 3 3 3 3 3 3 3 3 3 
</DataArray>
</Cells>
<CellData Scalars="pressure_p0," Vectors="velocity_p0," Tensors="">
<DataArray type="Float64" Name="pressure_p0" format="ascii">
0.0028633605 0.0088674781 0.0157266229 0.0240882087 0.0347201624 0.0485678595 0.0668194627 0.0909814059 0.1229649221 0.1651830428 0.2206551134 0.2931121826 0.3870912484 0.5079989226 0.6621155842 0.8565002465 1.0987465504 1.3965372228 1.7569599922 2.1856058069 
</DataArray>
<DataArray type="Float64" Name="velocity_p0" NumberOfComponents="3" format="ascii">
-0.0115446506 0.0000000000 0.0000000000 -0.0126617786 0.0000000000 0.0000000000 -0.0149878096 0.0000000000 0.0000000000 -0.0187113668 0.0000000000 0.0000000000 -0.0241279599 0.0000000000 0.0000000000 -0.0316546985 0.0000000000 0.0000000000 -0.0418490479 0.0000000000 0.0000000000 -0.0554303884 0.0000000000 0.0000000000 -0.0733021549 0.0000000000 0.0000000000 -0.0965708134 0.0000000000 0.0000000000 -0.1265557394 0.0000000000 0.0000000000 -0.1647810678 0.0000000000 0.0000000000 -0.2129367995 0.0000000000 0.0000000000 -0.2727921740 0.0000000000 0.0000000000 -0.3460405190 0.0000000000 0.0000000000 -0.4340536934 0.0000000000 0.0000000000 -0.5375305047 0.0000000000 0.0000000000 -0.6560461459 0.0000000000 0.0000000000 -0.7875655625 0.0000000000 0.0000000000 -0.9281031087 0.0000000000 0.0000000000 
</DataArray>
</CellData>
</Piece>
</UnstructuredGrid>
</VTKFile>
