<?xml version="1.0"?>
<VTKFile type="UnstructuredGrid" version="0.1" byte_order="LittleEndian">
<UnstructuredGrid>
<Piece NumberOfPoints="3918" NumberOfCells="1306">
<Points>
<DataArray type="Float64" NumberOfComponents="3" format="ascii">
0 0 0 0.082799035591426873 0.082799035591510806 0 0 0.10000000000041601 0 0 0 0 0.099999999999928008 0 0 0.082799035591426873 0.082799035591510806 0 0 0.20000000000083221 0 0 0.10000000000041601 0 0.066361468125430589 0.15903440181097661 0 0.082799035591426873 0.082799035591510806 0 0.066361468125430589 0.15903440181097661 0 0 0.10000000000041601 0 0.082799035591426873 0.082799035591510806 0 0.140351188660986 0.16130415108589741 0 0.066361468125430589 0.15903440181097661 0 0.20669143849501961 0.085546078947938975 0 0.140351188660986 0.16130415108589741 0 0.082799035591426873 0.082799035591510806 0 0.099999999999928008 0 0 0.20669143849501961 0.085546078947938975 0 0.082799035591426873 0.082799035591510806 0 0.099999999999928008 0 0 0.19999999999983389 0 0 0.20669143849501961 0.085546078947938975 0 0.20669143849501961 0.085546078947938975 0 0.21725788110387281 0.17316968768743621 0 0.140351188660986 0.16130415108589741 0 0.20669143849501961 0.085546078947938975 0 0.29145143692666958 0.13500804559578439 0 0.21725788110387281 0.17316968768743621 0 0.29999999999973409 0 0 0.29145143692666958 0.13500804559578439 0 0.20669143849501961 0.085546078947938975 0 0.29999999999973409 0 0 0.20669143849501961 0.085546078947938975 0 0.19999999999983389 0 0 0.34318159319555042 0.3314386771104964 0 0.24783073444672249 0.24783073444648379 0 0.33604819894646598 0.23280286076243209 0 0.29145143692666958 0.13500804559578439 0 0.24783073444672249 0.24783073444648379 0 0.21725788110387281 0.17316968768743621 0 0.29145143692666958 0.13500804559578439 0 0.33604819894646598 0.23280286076243209 0 0.24783073444672249 0.24783073444648379 0 0.21725788110387281 0.17316968768743621 0 0.17318221359491059 0.27409688392309489 0 0.140351188660986 0.16130415108589741 0 0.21725788110387281 0.17316968768743621 0 0.24783073444672249 0.24783073444648379 0 0.17318221359491059 0.27409688392309489 0 0.2371857680100064 0.35865548441110112 0 0.17318221359491059 0.27409688392309489 0 0.24783073444672249 0.24783073444648379 0 0.13897501191807771 0.34545639364066222 0 0.089078158003765312 0.2493007687782936 0 0.17318221359491059 0.27409688392309489 0 0.089078158003765312 0.2493007687782936 0 0.140351188660986 0.16130415108589741 0 0.17318221359491059 0.27409688392309489 0 0.089078158003765312 0.2493007687782936 0 0.066361468125430589 0.15903440181097661 0 0.140351188660986 0.16130415108589741 0 0 0.20000000000083221 0 0.066361468125430589 0.15903440181097661 0 0.089078158003765312 0.2493007687782936 0 0 0.30000000000124832 0 0.089078158003765312 0.2493007687782936 0 0.0632094674441709 0.3449112819864934 0 0 0.20000000000083221 0 0.089078158003765312 0.2493007687782936 0 0 0.30000000000124832 0 0.083393126324559225 0.42307471369029392 0 0 0.40000000000166441 0 0.0632094674441709 0.3449112819864934 0 0 0.30000000000124832 0 0.0632094674441709 0.3449112819864934 0 0 0.40000000000166441 0 0 0.50000000000205869 0 0 0.40000000000166441 0 0.083393126324559225 0.42307471369029392 0 0.083393126324559225 0.42307471369029392 0 0.13897501191807771 0.34545639364066222 0 0.16486701364709541 0.41592657376307979 0 0.083393126324559225 0.42307471369029392 0 0.16486701364709541 0.41592657376307979 0 0.12353277228144981 0.51086097771927308 0 0.083393126324559225 0.42307471369029392 0 0.0632094674441709 0.3449112819864934 0 0.13897501191807771 0.34545639364066222 0 0.13897501191807771 0.34545639364066222 0 0.0632094674441709 0.3449112819864934 0 0.089078158003765312 0.2493007687782936 0 0 0.60000000000138687 0 0.070553891733833127 0.57745844360881338 0 0.079752623936563252 0.65630726580969023 0 0 0.60000000000138687 0 0 0.50000000000205869 0 0.070553891733833127 0.57745844360881338 0 0 0.50000000000205869 0 0.083393126324559225 0.42307471369029392 0 0.12353277228144981 0.51086097771927308 0 0 0.50000000000205869 0 0.12353277228144981 0.51086097771927308 0 0.070553891733833127 0.57745844360881338 0 0.12353277228144981 0.51086097771927308 0 0.16324260003398389 0.62262730759772122 0 0.070553891733833127 0.57745844360881338 0 0.079752623936563252 0.65630726580969023 0 0.070553891733833127 0.57745844360881338 0 0.16324260003398389 0.62262730759772122 0 0.12353277228144981 0.51086097771927308 0 0.1946526892501724 0.54636184660733622 0 0.16324260003398389 0.62262730759772122 0 0.27661118526457179 0.58730386222759956 0 0.16324260003398389 0.62262730759772122 0 0.1946526892501724 0.54636184660733622 0 0.1946526892501724 0.54636184660733622 0 0.21928696632013719 0.4676461135047027 0 0.27220668248394869 0.50912429725145214 0 0.12353277228144981 0.51086097771927308 0 0.21928696632013719 0.4676461135047027 0 0.1946526892501724 0.54636184660733622 0 0.27661118526457179 0.58730386222759956 0 0.27220668248394869 0.50912429725145214 0 0.34793494568226019 0.52426775179830853 0 0.34793494568226019 0.52426775179830853 0 0.27220668248394869 0.50912429725145214 0 0.29987747321592639 0.43430880093746571 0 0.29987747321592639 0.43430880093746571 0 0.27220668248394869 0.50912429725145214 0 0.21928696632013719 0.4676461135047027 0 0.27661118526457179 0.58730386222759956 0 0.1946526892501724 0.54636184660733622 0 0.27220668248394869 0.50912429725145214 0 0.13897501191807771 0.34545639364066222 0 0.2371857680100064 0.35865548441110112 0 0.16486701364709541 0.41592657376307979 0 0.13897501191807771 0.34545639364066222 0 0.17318221359491059 0.27409688392309489 0 0.2371857680100064 0.35865548441110112 0 0.2371857680100064 0.35865548441110112 0 0.21928696632013719 0.4676461135047027 0 0.16486701364709541 0.41592657376307979 0 0.12353277228144981 0.51086097771927308 0 0.16486701364709541 0.41592657376307979 0 0.21928696632013719 0.4676461135047027 0 0.2371857680100064 0.35865548441110112 0 0.29987747321592639 0.43430880093746571 0 0.21928696632013719 0.4676461135047027 0 0.2371857680100064 0.35865548441110112 0 0.34318159319555042 0.3314386771104964 0 0.29987747321592639 0.43430880093746571 0 0.34318159319555042 0.3314386771104964 0 0.2371857680100064 0.35865548441110112 0 0.24783073444672249 0.24783073444648379 0 0.38593969585746768 0.44843324941957241 0 0.34318159319555042 0.3314386771104964 0 0.42544665781957403 0.3726599289372452 0 0.38593969585746768 0.44843324941957241 0 0.29987747321592639 0.43430880093746571 0 0.34318159319555042 0.3314386771104964 0 0.38593969585746768 0.44843324941957241 0 0.42544665781957403 0.3726599289372452 0 0.47711113382803011 0.43513410852522788 0 0.47711113382803011 0.43513410852522788 0 0.42544665781957403 0.3726599289372452 0 0.49272830291620878 0.32528628960011152 0 0.42544665781957403 0.3726599289372452 0 0.41589935411558732 0.26752529264016389 0 0.49272830291620878 0.32528628960011152 0 0.42544665781957403 0.3726599289372452 0 0.34318159319555042 0.3314386771104964 0 0.41589935411558732 0.26752529264016389 0 0.27661118526457179 0.58730386222759956 0 0.34793494568226019 0.52426775179830853 0 0.38240158409674341 0.60644575028138747 0 0.27661118526457179 0.58730386222759956 0 0.38240158409674341 0.60644575028138747 0 0.32437633398017029 0.65970549827478953 0 0.38593969585746768 0.44843324941957241 0 0.34793494568226019 0.52426775179830853 0 0.29987747321592639 0.43430880093746571 0 0.38593969585746768 0.44843324941957241 0 0.47711113382803011 0.43513410852522788 0 0.45232393232070839 0.53082724112931345 0 0.38593969585746768 0.44843324941957241 0 0.45232393232070839 0.53082724112931345 0 0.34793494568226019 0.52426775179830853 0 0.38240158409674341 0.60644575028138747 0 0.34793494568226019 0.52426775179830853 0 0.45232393232070839 0.53082724112931345 0 0.38240158409674341 0.60644575028138747 0 0.45232393232070839 0.53082724112931345 0 0.46433624429412901 0.61260020600107856 0 0.56379254693201075 0.58472273515948836 0 0.46433624429412901 0.61260020600107856 0 0.45232393232070839 0.53082724112931345 0 0.5174764925733939 0.65338828204098198 0 0.46433624429412901 0.61260020600107856 0 0.56379254693201075 0.58472273515948836 0 0.55763912874459476 0.49619993861770217 0 0.45232393232070839 0.53082724112931345 0 0.47711113382803011 0.43513410852522788 0 0.55763912874459476 0.49619993861770217 0 0.56379254693201075 0.58472273515948836 0 0.45232393232070839 0.53082724112931345 0 0.64897033023755402 0.45530630145656431 0 0.66278242936710119 0.53985356489900171 0 0.55763912874459476 0.49619993861770217 0 0.56379254693201075 0.58472273515948836 0 0.55763912874459476 0.49619993861770217 0 0.66278242936710119 0.53985356489900171 0 0.65500944633069913 0.60601350811213128 0 0.59670004617370476 0.65981579440137683 0 0.56379254693201075 0.58472273515948836 0 0.56509579243166053 0.39588847936247551 0 0.47711113382803011 0.43513410852522788 0 0.49272830291620878 0.32528628960011152 0 0.56509579243166053 0.39588847936247551 0 0.55763912874459476 0.49619993861770217 0 0.47711113382803011 0.43513410852522788 0 0.56509579243166053 0.39588847936247551 0 0.65823561246403328 0.35502292901158627 0 0.64897033023755402 0.45530630145656431 0 0.56509579243166053 0.39588847936247551 0 0.64897033023755402 0.45530630145656431 0 0.55763912874459476 0.49619993861770217 0 0.56509579243166053 0.39588847936247551 0 0.49272830291620878 0.32528628960011152 0 0.58612580217118482 0.27813894450229909 0 0.56509579243166053 0.39588847936247551 0 0.58612580217118482 0.27813894450229909 0 0.65823561246403328 0.35502292901158627 0 0.49272830291620878 0.32528628960011152 0 0.49255105193724569 0.22337579986912359 0 0.58612580217118482 0.27813894450229909 0 0.49255105193724569 0.22337579986912359 0 0.50264032148191051 0.12292784096123539 0 0.5565830077206213 0.19095699352548859 0 0.49255105193724569 0.22337579986912359 0 0.5565830077206213 0.19095699352548859 0 0.58612580217118482 0.27813894450229909 0 0.64669101990832323 0.1799054750174742 0 0.58612580217118482 0.27813894450229909 0 0.55658
[...]
<PointData Scalars="A_conc," Vectors="" Tensors="">
<DataArray type="Float64" Name="A_conc" format="ascii">
0.0018163733832568284 0.0021646602310023046 0.0017445286657217175 0.0017606424410981929 0.0022776801866939132 0.0021209165377881005 0.0017696702788437386 0.0017551342390356712 0.0020858686770580184 0.0021315470031082711 0.002050216029366786 0.0017159984037498298 0.0020666656507571917 0.0023881977191489946 0.0019840126564862467 0.0027188406668045791 0.00231831049333248 0.0019922131608959589 0.0021814891410791297 0.0027399921992763096 0.0020227759716524422 0.0021100109966733834 0.0027286421625334774 0.0026823615557469409 0.0026540288089836931 0.0027348470659433839 0.0022446464048293899 0.0025663367470058537 0.0031501841590969096 0.0026482734769932362 0.0032668740365215656 0.0030881555599869479 0.0025170571533869568 0.0033085763694812578 0.0025693702550550301 0.0026142244719719724 0.0034679654400120732 0.0027265778705272774 0.00341341133971497 0.0031393718843313457 0.0028541123252199146 0.0026212366225764061 0.0030635619471032563 0.0034380714588151803 0.0027749929702244299 0.0027530339396951344 0.0024917646056194062 0.0022677134429073664 0.0026934217789789747 0.0029203005039010457 0.0024265843497071737 0.002839819280574266 0.0024057763537644154 0.0029071320532740642 0.0023506196093395098 0.0020608749837981127 0.0025502892746962903 0.00206035152725339 0.0023362715913754204 0.0025570836129176458 0.0021182093956297141 0.0019826826164922396 0.0023895807595442449 0.001721934825342635 0.0020489153946882236 0.0021824610224989919 0.0017321191073967914 0.0021823420752947213 0.0020530382779400972 0.0017579500075408957 0.0022059165098351108 0.0017696914871457932 0.0021436867455819327 0.0017286505423051821 0.0020598976867532122 0.0017815112486584861 0.0020920680904424989 0.0017737657667943919 0.0017574697019776481 0.001764957280222738 0.0021730691633510316 0.0020264392039924953 0.0023614498557410217 0.0024969252477091059 0.0020412198741480768 0.002508603874567045 0.0022621981503215503 0.0020780921448750145 0.0019929751496068149 0.002408133300261225 0.0024032838036156402 0.0019865644452052816 0.0021177981076672811 0.0017296962128463067 0.0020868188619384727 0.00213068110407741 0.0017738987344504808 0.0017624578856369685 0.0021143673105261714 0.0016949907715080466 0.0021214376672874175 0.0023373366349521908 0.0017041125305187572 0.0023404125003857394 0.0020588766105603053 0.0022666106028912197 0.0025127833075294995 0.0019782507180958475 0.0020530202033264217 0.0020085145978905846 0.0025258714914048394 0.0022010798034309462 0.0026388660885292093 0.0024509287080750988 0.0031132312344279559 0.0023609613002140688 0.0025518902745589878 0.0025239397164373858 0.0026845391640378117 0.0030562344324821904 0.0021661052668879481 0.0027680642107494979 0.0026099816841433751 0.00295823589637565 0.0029278269790161404 0.0035092448474692639 0.0034991271636411717 0.0029092204986965815 0.003115416846382927 0.0031976990336984022 0.0029941419365204047 0.0026140044340570079 0.0030551597457212382 0.0024797034709213824 0.0030252039231374456 0.0022778382124016743 0.002891026823263575 0.002414407297374961 0.0022701357041311062 0.002469815231711314 0.0028965907140413934 0.0028521047164730747 0.0027227617215960162 0.0023700178752186839 0.0021886180987829131 0.0024388042605774235 0.0027817974363180255 0.0027717403078320758 0.0032178023037623517 0.002640849179029521 0.0026850184297958647 0.0034957360986143183 0.0031418188372818239 0.0035223276820165305 0.0027329761119740227 0.0028012173911181257 0.0036595061286679208 0.0033059289994087611 0.0040256403434578234 0.003748242890030997 0.0030397759071437778 0.003399951029890646 0.0035546389111205936 0.0039228511509861721 0.0044193076328870821 0.0043370025649857626 0.0038306870772271172 0.0045149635717275415 0.0038907854526729893 0.0038094000114289013 0.0045637657366171137 0.0040085797511928952 0.0032735338824689403 0.0039283807748946324 0.002877519276766596 0.0034364894859665422 0.0037424663503943809 0.0029031088485297041 0.0037512623265691636 0.003268467626136052 0.0037412273440005435 0.0034233169650673364 0.0030347303645220486 0.003525470285582321 0.0044008093595089229 0.0041524617553018181 0.0036306159209898254 0.0042463782527550993 0.003309846580938627 0.0036192661463522804 0.003307755367373451 0.0042400423102930832 0.0035236525393462477 0.0041552088685062822 0.0043065154096934592 0.0052017353473526829 0.0041541673402972455 0.0040006915678253334 0.0046330492402493666 0.0040727152407425016 0.0051624654107119729 0.0051239113761352498 0.0040049733206456032 0.004257272172584585 0.0050528630371260144 0.0051302228923635817 0.0039027032908235029 0.0059104687620889981 0.0060893280223288625 0.0047426659111433249 0.0049308807679562848 0.0048520531202812895 0.0061593059649415029 0.0060474483889704951 0.005295267517009994 0.0049047690168681083 0.0051781958147157046 0.0042129179246107344 0.004392790793831783 0.0051219695937899205 0.005034088793528328 0.0041402516217347628 0.0048374573177912637 0.0060432057948895017 0.0058993384088830659 0.0049568598461751396 0.0059969852108400787 0.0048676512411831999 0.005085678235668612 0.0042764490204707673 0.0053553810942858293 0.0049212669965605239 0.005194952448793211 0.0061019820994327057 0.0043672509361689354 0.0043494544116566228 0.005408130566503082 0.004367800372029996 0.0044479134970878687 0.0050602210860818259 0.0042737610985676758 0.004987559982447853 0.0053608736729829493 0.0059459048068663482 0.0052139018139578447 0.0048357098378549439 0.0050463651758297185 0.005941535197663504 0.0048438065685652764 0.0054190566767299483 0.0060887208697451506 0.0049874419359885666 0.0044071538954307552 0.005569166115752572 0.0051392312538168679 0.0045013507630571473 0.0052333200676786462 0.0043941408641221353 0.0046250173149786676 0.0045185509247816025 0.0038744211348163884 0.0051863498507801397 0.0049861683518017015 0.0043689668058332944 0.0036605445964619466 0.0039534484773005828 0.0046092118952402701 0.0040649772595255226 0.0037750696884939977 0.0033849713333868204 0.0037224865869871209 0.0046950652160393479 0.003952252987005518 0.0038424090998386857 0.0040686359248897925 0.0033891570025530024 0.0039321768260130365 0.003482055758433516 0.0030941894275629085 0.0031699058071974341 0.0035624344567822433 0.0029888676210772049 0.0038753471941294394 0.0029352291818602319 0.0034921965609535054 0.0038907714716370292 0.0033344610435407269 0.0029562200260607584 0.0032352314583731223 0.0038090271056123457 0.0039530015754270439 0.0032957965862016776 0.0039893096962677621 0.0033512805464840315 0.0045011325564593878 0.0045187110699045005 0.0037367448394821749 0.0036038844746813349 0.0045778411564550729 0.0044991806695989858 0.004564915209638881 0.0038313686103751158 0.003685468254198015 0.0017862417713060122 0.0017654458027555934 0.0021358720011456964 0.002249940193708022 0.0017393032371846254 0.0020928436221700707 0.0021825121911198384 0.002023688042940501 0.0024288582246820359 0.0021166656086775131 0.0023656987054230518 0.0027105109149133662 0.0026465334567258021 0.002298771663309863 0.0027801161058614203 0.0032500715704456055 0.0025555494094178523 0.0026912040896079066 0.0031819932703241525 0.0026157390658834412 0.0032969658538166877 0.0026829827161778193 0.0026714907303842738 0.0032209760306903213 0.002616669405889979 0.0031668980188658291 0.0032970010195842911 0.0027690494147427601 0.0023188547233979405 0.0027577615559551817 0.0028135707515268477 0.0022517863911261779 0.002370209874278393 0.0028107257909420315 0.002336246216843862 0.0022543681406001622 0.0020055027326843985 0.0023336700233026397 0.0024145626988908942 0.0020458544265317133 0.0020450995858870588 0.0023677360470328113 0.0021083643982980895 0.0017283921657072305 0.0021076375249776944 0.0017717332090357333 0.0021387443787843005 0.0017668013199673817 0.0017223932770281257 0.0021796152382168427 0.0021033220357352948 0.002000727381247144 0.0024483450948336598 0.0023315000364358333 0.0021073825917525772 0.0024708490043497643 0.0020298765622807535 0.0020991608289428121 0.0020455545758690254 0.0025343898649170912 0.0020548672798660229 0.002495645481471455 0.0024308807140471706 0.0017636064046965732 0.0017636078639067005 0.002208518027157266 0.0021780109722479199 0.0017193569080934611 0.0021252902446325809 0.0017662043985616402 0.0021600814354076907 0.0017681320712765449 0.0019972377798898214 0.00247944411906089 0.0025060207965145569 0.0030870298454475928 0.0029308278316481431 0.0023106186126096999 0.0029890798977708238 0.0024109505694885052 0.0023839706538104381 0.0027251700035370854 0.0023660466122511392 0.0029597576946968052 0.0024259243781485965 0.0027830199388847194 0.0023602443640080351 0.0026441697392122847 0.0028824048095767415 0.0032009753365550737 0.0028035829047518127 0.0034543967480733548 0.0031263405885071194 0.0027805059436593472 0.0033243816107194732 0.0034400819741936561 0.0029911448936631446 0.0033564561250342493 0.0028317715107234343 0.004068494459445183 0.0031552919422543251 0.003647872196788529 0.0040921621157481236 0.0033182032228842914 0.0032008310575802864 0.0039547654235705691 0.0038661526573990444 0.0048833690842594295 0.0041060273674438834 0.0032188295968592481 0.0040189091785556175 0.0039661126292223391 0.0035388180340583993 0.0043074176767566551 0.0047122495192974062 0.0048292146763555107 0.0037788817391500524 0.004755721880330791 0.0038541671489296329 0.0041974563858631483 0.0045598886021175032 0.0054715321140141821 0.0046788464579782451 0.00450774941168278 0.0050447630254873525 0.0054300807138482187 0.0056644274654885007 0.0056331644771803104 0.0045372122906995674 0.0056853745142182921 0.0045698905978291942 0.0053777983633067289 0.0041555936951169197 0.0039498955978728928 0.0046892390376668284 0.0038733203541246545 0.0048190846112990994 0.0046349016426697432 0.0057283569244493725 0.0044661568542381279 0.0046529402190673167 0.0057074278974235705 0.0050559466435829425 0.0044204583927167996 0.0059755677869652067 0.0047968036859058647 0.0050034406830700767 0.0059216922613176187 0.004918254487036219 0.005581946548420284 0.0039830108002390195 0.0051786844028136525 0.0049755956996121904 0.0040351013712854869 0.004578020666942407 0.0052031133112853218 0.0035249920352440978 0.0034844676763881944 0.0043080340931591398 0.0042697063887264962 0.0034234421237697814 0.0040668197555623039 0.0041476718492799367 0.0035311408577772003 0.0032738514380235891 0.0030467769977376414 0.0033784147612697401 0.0036328259618081909 0.0030703380068757553 0.0036443661780837921 0.0032025921429487676 0.0030825016075232414 0.0031998955710981491 0.0036716218270052108 0.0036335576414410031 0.003145147398654576 0.0035934960209737386 0.0038579707476617529 0.0030227332882315767 0.0036113710428236968 0.0037397027735673509 0.0034946193952930214 0.00428324111791479 0.0036346053599477469 0.0041855488350034647 0.0046112615723415068 0.0044860578318134166 0.0040578610979551347 0.005024797858706952 0.0054946943779126279 0.0043578015167016031 0.0048952629378079407 0.005354986710359071 0.0047526788820323211 0.0059438496525101286 0.0063748466325544671 0.005634353925648131 0.0069663219960297753 0.0051947937339865673 0.0057923196426083248 0.0065248754293433311 0.0077385604921333196 0.0061926869024196357 0.0067866531645755382 0.0091013692305675457 0.0072720176923356458 0.0087438243254001381 0.0088857217836501093 0.0085247278122094119 0.0099082877258059535 0.0076061074604883202 0.009755605236351288 0.0086565296725567616 0.0095830259407252739 0.0098793361295663844 0.008456273534946445 0.008112607030670474 0.0094028884530567829 0.0076817038292438505 0.0075221191260946493 0.0092856333758353799 0.0096979828840150824 0.0083181434804728491 0.0078927170647896186 0.0069362253390710645 0.0073992015681736984 0.007827779646895237 0.0088456654850969929 0.007590228056897257 0.0066262412710934981 0.0080136979755738684 0.0080882836741043643 0.0067513324963298441 0.0064172458429581601 0.0056078454220142154 0.006633501370176046 0.0069626174893722866 0.0057611659474706622 0.0054175519066501339 0.0067536645361404779 0.0053493722107305179 0.0063259016630072542 0.0067057620465896224 0.0065432961107532699 0.006157833349321927 0.0072633270665155431 0.0080504837522135716 0.0063688835975116952 0.0071079968875040807 0.0067929792303329899 0.0079961093707540693 0.0070599637510976847 0.0060292336413291011 0.0070556643331310745 0.0062257245999576549 0.0069566092545994586 0.0072205032771641628 0.0061108702125558766 0.0061729275749696829 0.0063672429534275769 0.0054246416352187205 0.005467197775886003 0.0054989234462429039 0.006424962681945391 0.0057605089337378831 0.0071210796926291647 0.006049449327588231 0.0052257049120610485 0.006262785248492342 0.0055390130548757677 0.0059334051734826823 0.0062187679470005214 0.0051729792477367672 0.0070240887645490755 0.0069941893525595333 0.0059353745322220279 0.0068462099030711324 0.0080025596264658265 0.0068158665424279744 0.0066984816514869729 0.0084575465098514317 0.0078679938218824373 0.0091893668193937204 0.0076601039272592448 0.0082519078635424244 0.0091925531985518234 0.0081093331132113481 0.007681382447475394 0.0082993325239709478 0.0069256324400085896 0.0078723040974250733 0.010560657650765302 0.0090712578595432171 0.0088485815996073962 0.0090656936023870427 0.0092860182006601379 0.00796787423435775 0.010039409492863072 0.0089954551323378571 0.0080465428850398195 0.0088015714944129284 0.0098619872689210148 0.010323175940898717 0.0096063799318475956 0.011763880796993429 0.010085827575629404 0.010227072262742417 0.010020828514950288 0.01173120522198982 0.010470841221743648 0.0087257295839866245 0.010267076494385118 0.010036985848721364 0.011556130784382458 0.012267463845889981 0.010061412243224621 0.012275238402746814 0.011319525173418951 0.011013017208214388 0.013963867718259774 0.013944554843928697 0.016373619225373323 0.013530897732074047 0.013550591277758532 0.016240496756727216 0.015527262988067949 0.01333704349934711 0.017616466669891251 0.014624260311591034 0.015322149361369195 0.013472776411683712 0.015634626366648877 0.014955787644124757 0.011228797906113357 0.014083877214414869 0.011949994378895015 0.013693786870047232 0.015160877512881095 0.012867256872181213 0.011769438603170382 0.013956276243664599 0.013137660224659987 0.01341556194399535 0.012901579899297168 0.015191708382753012 0.010875154486529785 0.013240709102388417 0.013747265766096087 0.01575957776510838 0.014639344757336709 0.017223591038811093 0.01460710081231769 0.013206111873376423 0.016088602011432217 0.013159849890600688 0.014956003472810432 0.01606098422969714 0.011086403373152174 0.013898694291201082 0.011019055245765552 0.011050765403640394 0.012018820238280256 0.013361150357580943 0.010347759977820238 0.01158509348534832 0.0088233329829577913 0.011639074373591206 0.0093645259223217366 0.0089447156112176032 0.011517491150044017 0.0096280284851869725 0.00932857816390327 0.01146665263817752 0.011400469901839629 0.0091332163357083791 0.0086985258263408381 0.0097178576927240586 0.010792039063604887 0.010581237806347532 0.0094901437350644793 0.011402729015627 0.010315126278544903 0.011146166755000275 0.012716349650882978 0.013828214578925739 0.012449331772102688 0.010855093121483457 0.014902637364069176 0.012122704057256234 0.013522138640802426 0.014271007481628423 0.015775049579748852 0.017454126656394186 0.006823346986850904 0.0084914428973692467 0.0068523130730459986 0.0077460514905463582 0.0067430408928517678 0.0084145235840485076 0.0075590419270024859 0.0093778108050649751 0.0079769138636025822 0.0081905638624697429 0.0068182382668177119 0.0077781458660401937 0.0075207764576558228 0.0081993660874568001 0.0093685878957541924 0.010234976815600585 0.0091500288470240491 0.007963843019509767 0.0083801019252542335 0.010283592803330265 0.0080485256427891543 0.008198790071412658 0.0099960538776187029 0.010144167247189374 0.0082997995831858122 0.0090116717637847826 0.010085102049573602 0.0085274299553677688 0.0074086998510602461 0.0092315536885293429 0.009304282518553128 0.0075078442162130835 0.0075202911947145814 0.0077468841274147913 0.0077341261916340654 0.0066244784801460788 0.0086790108916348693 0.0083536671087859719 0.0066454547845421555 0.0087241613148077019 0.0067239506324709422 0.0076248083938339406 0.0070778796950554893 0.0057496547706939157 0.0068766528285707559 0.0069034504363576429 0.0066993337514741243 0.0077956953733193755 0.0078625174589692613 0.0067540836368195495 0.0063055296989577847 0.0052726618583664392 0.0066232443120077637 0.0059526366977017643 0.0058046646583849023 0.0064818223137989251 0.0069272441076339746 0.0058390740810096899 0.0049339228879987972 0.0060624494684412503 0.0071709189697601984 0.0056408861887003456 0.0058686619521643021 0.0056255438154435228 0.0071669527686861563 0.0062297498895428948 0.007076567135973843 0.0071052214538549355 0.0055204378659472935 0.0068945140181388438 0.0078750939733306328 0.0069609628840536768 0.007048467729857729 0.0071142629560402588 0.0060882225631103144 0.0058125059520450452 0.0064083080013931067 0.0050697629480436707 0.0062215480603737784 0.0072028119747630159 0.0057916879596640871 0.0064051558606095958 0.005982339785394186 0.0050474244259325505 0.0057428334436449725 0.0058888697343671102 0.0066205095289518182 0.0070644168236363176 0.0056274272943742272 0.0065183205369585395 0.0068954646270852297 0.0063417912860549222 0.0076338164364961429 0.0063350167173560927 0.0070201312113615999 0.0076295759756451259 0.0065012846327657196 0.0057519929897823958 0.0071775679286280713 0.0057935326654935653 0.0058646048068167114 0.0071473827398366944 0.0059978538554173707 0.004812043024255583 0.0060677300503696524 0.0071094932421944968 0.0058844769035868421 0.0057025692344259554 0.0070536324530278659 0.0057486786370792263 0.0070057925425512941 0.006859633281378303 0.0068111394991663531 0.0080166341799657558 0.0066991243055512968 0.0078828977919854458 0.0084720551731386432 0.0082777561625889916 0.0076792746869151426 0.0090779316708605642 0.0081793475839199679 0.0090869043713699988 0.007686827959800838 0.0066617629604772341 0.0083790043435999842 0.0078937716450752492 0.0079770660910203472 0.010031943414444614 0.008894602974070763 0.0099314260025233914 0.0087225230311733376 0.0098813338935410059 0.010065267168115557 0.0080726605302161979 0.0088843449761345054 0.0091433905829386465 0.0072774503725562024 0.0080245426963807542 0.0082138645989155504 0.0074775101817680777 0.0068515514873977654 0.0091305259490920138 0.0082141583787491632 0.007246313326814453 0.0067134179892776643 0.0074604419800486065 0.0084087685267976737 0.0089608538853327892 0.0093751901030415166 0.0080307602114530318 0.0079249913799589334 0.0092812616226427974 0.010013010521018259 0.010413828658653914 0.0091825223057675764 0.0087524028568634789 0.0089918319066442289 0.0078444212835667142 0.0092718449717970938 0.0087824138544738261 0.0090654017878430797 0.010342123249509118 0.010328906520031577 0.0086506643643153719 0.010256523345902591 0.010076759344808275 0.010003387654582269 0.011748854574651755 0.010340061075269818 0.0098202214068872744 0.009078800548046986 0.0095968783228183394 0.010120891681352188 0.01175883435168139 0.011385493339298811 0.012981573430710923 0.011356893166650525 0.011630073639457296 0.011601706615827528 0.009931816380319378 0.0096589582753933562 0.0096084575018289126 0.012022772625790728 0.011275696899713326 0.013953685433323263 0.011514530159030898 0.0094143454923305021 0.011638723607188732 0.011873839751942219 0.011526764647149329 0.014124657966785959 0.011253819744996797 0.0094441283488756553 0.011897065965078717 0.011628313971892439 0.011268826852601554 0.01376690851676902 0.01394401388958035 0.015978141192588297 0.016670248862186564 0.013091286753750334 0.013513905470951198 0.013334252463808146 0.016823000898663037 0.016165233231325033 0.013241622259882686 0.016635171823713032 0.014776924992378876 0.012548343959899606 0.013069399980707554 0.013348323441704626 0.012832744900816224 0.011203666621840433 0.01253206366408648 0.014355554440123663 0.013628992315117102 0.011134663676912673 0.012789966378406892 0.013872705929553381 0.014684492288