<?xml version="1.0"?>
<VTKFile type="UnstructuredGrid" version="0.1" byte_order="LittleEndian">
<UnstructuredGrid>
<Piece NumberOfPoints="3918" NumberOfCells="1306">
<Points>
<DataArray type="Float64" NumberOfComponents="3" format="ascii">
0 0 0 0 0.10000000000041601 0 0.082799035591426873 0.082799035591510806 0 0 0 0 0.082799035591426873 0.082799035591510806 0 0.099999999999928008 0 0 0 0.10000000000041601 0 0 0.20000000000083221 0 0.066361468125430589 0.15903440181097661 0 0 0.10000000000041601 0 0.082799035591426873 0.082799035591510806 0 0.066361468125430589 0.15903440181097661 0 0.082799035591426873 0.082799035591510806 0 0.140351188660986 0.16130415108589741 0 0.066361468125430589 0.15903440181097661 0 0.082799035591426873 0.082799035591510806 0 0.20669143849501961 0.085546078947938975 0 0.140351188660986 0.16130415108589741 0 0.082799035591426873 0.082799035591510806 0 0.099999999999928008 0 0 0.20669143849501961 0.085546078947938975 0 0.099999999999928008 0 0 0.19999999999983389 0 0 0.20669143849501961 0.085546078947938975 0 0.20669143849501961 0.085546078947938975 0 0.21725788110387281 0.17316968768743621 0 0.140351188660986 0.16130415108589741 0 0.20669143849501961 0.085546078947938975 0 0.29145143692666958 0.13500804559578439 0 0.21725788110387281 0.17316968768743621 0 0.20669143849501961 0.085546078947938975 0 0.29145143692666958 0.13500804559578439 0 0.29999999999973409 0 0 0.19999999999983389 0 0 0.20669143849501961 0.085546078947938975 0 0.29999999999973409 0 0 0.24783073444672249 0.24783073444648379 0 0.34318159319555042 0.3314386771104964 0 0.33604819894646598 0.23280286076243209 0 0.29145143692666958 0.13500804559578439 0 0.24783073444672249 0.24783073444648379 0 0.21725788110387281 0.17316968768743621 0 0.29145143692666958 0.13500804559578439 0 0.24783073444672249 0.24783073444648379 0 0.33604819894646598 0.23280286076243209 0 0.21725788110387281 0.17316968768743621 0 0.17318221359491059 0.27409688392309489 0 0.140351188660986 0.16130415108589741 0 0.24783073444672249 0.24783073444648379 0 0.21725788110387281 0.17316968768743621 0 0.17318221359491059 0.27409688392309489 0 0.24783073444672249 0.24783073444648379 0 0.17318221359491059 0.27409688392309489 0 0.2371857680100064 0.35865548441110112 0 0.17318221359491059 0.27409688392309489 0 0.089078158003765312 0.2493007687782936 0 0.13897501191807771 0.34545639364066222 0 0.17318221359491059 0.27409688392309489 0 0.089078158003765312 0.2493007687782936 0 0.140351188660986 0.16130415108589741 0 0.089078158003765312 0.2493007687782936 0 0.140351188660986 0.16130415108589741 0 0.066361468125430589 0.15903440181097661 0 0.089078158003765312 0.2493007687782936 0 0 0.20000000000083221 0 0.066361468125430589 0.15903440181097661 0 0.089078158003765312 0.2493007687782936 0 0 0.30000000000124832 0 0.0632094674441709 0.3449112819864934 0 0.089078158003765312 0.2493007687782936 0 0 0.20000000000083221 0 0 0.30000000000124832 0 0.0632094674441709 0.3449112819864934 0 0 0.40000000000166441 0 0.083393126324559225 0.42307471369029392 0 0 0.30000000000124832 0 0.0632094674441709 0.3449112819864934 0 0 0.40000000000166441 0 0 0.40000000000166441 0 0.083393126324559225 0.42307471369029392 0 0 0.50000000000205869 0 0.083393126324559225 0.42307471369029392 0 0.13897501191807771 0.34545639364066222 0 0.16486701364709541 0.41592657376307979 0 0.083393126324559225 0.42307471369029392 0 0.12353277228144981 0.51086097771927308 0 0.16486701364709541 0.41592657376307979 0 0.0632094674441709 0.3449112819864934 0 0.083393126324559225 0.42307471369029392 0 0.13897501191807771 0.34545639364066222 0 0.089078158003765312 0.2493007687782936 0 0.0632094674441709 0.3449112819864934 0 0.13897501191807771 0.34545639364066222 0 0.070553891733833127 0.57745844360881338 0 0 0.60000000000138687 0 0.079752623936563252 0.65630726580969023 0 0.070553891733833127 0.57745844360881338 0 0 0.60000000000138687 0 0 0.50000000000205869 0 0.083393126324559225 0.42307471369029392 0 0 0.50000000000205869 0 0.12353277228144981 0.51086097771927308 0 0.070553891733833127 0.57745844360881338 0 0 0.50000000000205869 0 0.12353277228144981 0.51086097771927308 0 0.070553891733833127 0.57745844360881338 0 0.12353277228144981 0.51086097771927308 0 0.16324260003398389 0.62262730759772122 0 0.070553891733833127 0.57745844360881338 0 0.16324260003398389 0.62262730759772122 0 0.079752623936563252 0.65630726580969023 0 0.12353277228144981 0.51086097771927308 0 0.16324260003398389 0.62262730759772122 0 0.1946526892501724 0.54636184660733622 0 0.16324260003398389 0.62262730759772122 0 0.1946526892501724 0.54636184660733622 0 0.27661118526457179 0.58730386222759956 0 0.1946526892501724 0.54636184660733622 0 0.27220668248394869 0.50912429725145214 0 0.21928696632013719 0.4676461135047027 0 0.12353277228144981 0.51086097771927308 0 0.1946526892501724 0.54636184660733622 0 0.21928696632013719 0.4676461135047027 0 0.27220668248394869 0.50912429725145214 0 0.27661118526457179 0.58730386222759956 0 0.34793494568226019 0.52426775179830853 0 0.27220668248394869 0.50912429725145214 0 0.29987747321592639 0.43430880093746571 0 0.34793494568226019 0.52426775179830853 0 0.27220668248394869 0.50912429725145214 0 0.21928696632013719 0.4676461135047027 0 0.29987747321592639 0.43430880093746571 0 0.1946526892501724 0.54636184660733622 0 0.27220668248394869 0.50912429725145214 0 0.27661118526457179 0.58730386222759956 0 0.13897501191807771 0.34545639364066222 0 0.16486701364709541 0.41592657376307979 0 0.2371857680100064 0.35865548441110112 0 0.17318221359491059 0.27409688392309489 0 0.13897501191807771 0.34545639364066222 0 0.2371857680100064 0.35865548441110112 0 0.16486701364709541 0.41592657376307979 0 0.21928696632013719 0.4676461135047027 0 0.2371857680100064 0.35865548441110112 0 0.12353277228144981 0.51086097771927308 0 0.16486701364709541 0.41592657376307979 0 0.21928696632013719 0.4676461135047027 0 0.21928696632013719 0.4676461135047027 0 0.29987747321592639 0.43430880093746571 0 0.2371857680100064 0.35865548441110112 0 0.29987747321592639 0.43430880093746571 0 0.2371857680100064 0.35865548441110112 0 0.34318159319555042 0.3314386771104964 0 0.24783073444672249 0.24783073444648379 0 0.2371857680100064 0.35865548441110112 0 0.34318159319555042 0.3314386771104964 0 0.34318159319555042 0.3314386771104964 0 0.38593969585746768 0.44843324941957241 0 0.42544665781957403 0.3726599289372452 0 0.29987747321592639 0.43430880093746571 0 0.34318159319555042 0.3314386771104964 0 0.38593969585746768 0.44843324941957241 0 0.38593969585746768 0.44843324941957241 0 0.42544665781957403 0.3726599289372452 0 0.47711113382803011 0.43513410852522788 0 0.42544665781957403 0.3726599289372452 0 0.49272830291620878 0.32528628960011152 0 0.47711113382803011 0.43513410852522788 0 0.42544665781957403 0.3726599289372452 0 0.49272830291620878 0.32528628960011152 0 0.41589935411558732 0.26752529264016389 0 0.34318159319555042 0.3314386771104964 0 0.42544665781957403 0.3726599289372452 0 0.41589935411558732 0.26752529264016389 0 0.27661118526457179 0.58730386222759956 0 0.38240158409674341 0.60644575028138747 0 0.34793494568226019 0.52426775179830853 0 0.27661118526457179 0.58730386222759956 0 0.38240158409674341 0.60644575028138747 0 0.32437633398017029 0.65970549827478953 0 0.29987747321592639 0.43430880093746571 0 0.38593969585746768 0.44843324941957241 0 0.34793494568226019 0.52426775179830853 0 0.38593969585746768 0.44843324941957241 0 0.45232393232070839 0.53082724112931345 0 0.47711113382803011 0.43513410852522788 0 0.38593969585746768 0.44843324941957241 0 0.34793494568226019 0.52426775179830853 0 0.45232393232070839 0.53082724112931345 0 0.38240158409674341 0.60644575028138747 0 0.34793494568226019 0.52426775179830853 0 0.45232393232070839 0.53082724112931345 0 0.38240158409674341 0.60644575028138747 0 0.45232393232070839 0.53082724112931345 0 0.46433624429412901 0.61260020600107856 0 0.45232393232070839 0.53082724112931345 0 0.46433624429412901 0.61260020600107856 0 0.56379254693201075 0.58472273515948836 0 0.46433624429412901 0.61260020600107856 0 0.56379254693201075 0.58472273515948836 0 0.5174764925733939 0.65338828204098198 0 0.45232393232070839 0.53082724112931345 0 0.55763912874459476 0.49619993861770217 0 0.47711113382803011 0.43513410852522788 0 0.45232393232070839 0.53082724112931345 0 0.55763912874459476 0.49619993861770217 0 0.56379254693201075 0.58472273515948836 0 0.55763912874459476 0.49619993861770217 0 0.64897033023755402 0.45530630145656431 0 0.66278242936710119 0.53985356489900171 0 0.55763912874459476 0.49619993861770217 0 0.56379254693201075 0.58472273515948836 0 0.66278242936710119 0.53985356489900171 0 0.56379254693201075 0.58472273515948836 0 0.59670004617370476 0.65981579440137683 0 0.65500944633069913 0.60601350811213128 0 0.49272830291620878 0.32528628960011152 0 0.47711113382803011 0.43513410852522788 0 0.56509579243166053 0.39588847936247551 0 0.55763912874459476 0.49619993861770217 0 0.47711113382803011 0.43513410852522788 0 0.56509579243166053 0.39588847936247551 0 0.56509579243166053 0.39588847936247551 0 0.65823561246403328 0.35502292901158627 0 0.64897033023755402 0.45530630145656431 0 0.55763912874459476 0.49619993861770217 0 0.56509579243166053 0.39588847936247551 0 0.64897033023755402 0.45530630145656431 0 0.49272830291620878 0.32528628960011152 0 0.56509579243166053 0.39588847936247551 0 0.58612580217118482 0.27813894450229909 0 0.56509579243166053 0.39588847936247551 0 0.58612580217118482 0.27813894450229909 0 0.65823561246403328 0.35502292901158627 0 0.49272830291620878 0.32528628960011152 0 0.58612580217118482 0.27813894450229909 0 0.49255105193724569 0.22337579986912359 0 0.49255105193724569 0.22337579986912359 0 0.5565830077206213 0.19095699352548859 0 0.50264032148191051 0.12292784096123539 0 0.58612580217118482 0.27813894450229909 0 0.49255105193724569 0.22337579986912359 0 0.5565830077206213 0.19095699352548859 0 0.58612580217118482 0.27813894450229909 0 0.5565830077206213 0.19095699352548859 0 0.64669
[...]
<PointData Scalars="A_conc," Vectors="" Tensors="">
<DataArray type="Float64" Name="A_conc" format="ascii">
0.00080200202581944392 0.0007543158708093995 0.0009634085069627885 0.00077119973806516148 0.00093904302394626237 0.0010279234574665805 0.00076182945307317717 0.00077083738520884303 0.00092572807142161104 0.00074080609696722212 0.00094575566589653946 0.00090651886292747344 0.00091036950829047011 0.0010716894016078056 0.00087039334244500303 0.00086938094168579694 0.0012336556200135192 0.0010333150723821766 0.00088576502685229464 0.0009757095165139468 0.0012453307863591078 0.00093546436627161915 0.0012477970056322227 0.0012129056980031772 0.0011977881277949499 0.0012404490244679216 0.0009924141704802309 0.0011488202931718872 0.0014459705065543395 0.0011921504128554433 0.0011216428260969703 0.0014090627248977833 0.0015155493729449481 0.0011835963793662633 0.0011498478901267404 0.0015381086905713896 0.0012242513227551694 0.0016071590489261502 0.0015792502633951262 0.0014410806599347388 0.0012973828868721817 0.0011767697985692938 0.0013979765687577809 0.0012523658536308603 0.0015936607676888866 0.0012505885718821249 0.0011199196518383737 0.0010050493891853331 0.001334204718380089 0.0012172217026531216 0.0010832590938432557 0.0013266175834191689 0.0010713304057942141 0.0012921968305814767 0.0011518791846787367 0.000906473044366403 0.0010513149675053879 0.0011559333978609413 0.00090623306219266551 0.0010429651716810748 0.00093830911829713903 0.0010724543891216859 0.00086953701313932609 0.00097326343639612945 0.00074466872796616053 0.00090563997252115678 0.0009730640522696574 0.00075003848669378517 0.00090864397092426915 0.0009857148719378088 0.00076408016991745856 0.0007705373824348961 0.00091253402648541358 0.00074824985617448503 0.00095325539873707262 0.00077671594515766077 0.00092980947739738527 0.00077250625696458357 0.00076793674452532604 0.00096911085247000433 0.00076396362086104063 0.00088902870171647121 0.001057483908324462 0.0011248199298332766 0.00089716014784889625 0.0010074239615609007 0.0011312087429279395 0.0008759415027398996 0.00091739715306763954 0.0010829941730643796 0.00093785306287116421 0.00087233515687451719 0.0010802604543801197 0.00092538077286140796 0.00074875336125802036 0.00094704578512042113 0.00094035406675514407 0.00077272294726973172 0.0007666363387918519 0.00094110934457530739 0.000729991625988563 0.0010484825155999986 0.00091030008131343706 0.00073493488025495098 0.0010501228573120765 0.00086609742595654209 0.0010097840218440388 0.0011338868442722207 0.00088257203378823196 0.001140961955849968 0.00090460015795912113 0.00097357632035247423 0.0010998051857681107 0.0011943118250742355 0.0010495520720097038 0.0011457311365607179 0.0014317673158708733 0.0011301663060501446 0.0014015728015030499 0.0012117243495284396 0.00095418607156725938 0.0011782982466368233 0.0012583937111645316 0.0013289281780038376 0.0013445684521932145 0.0016288456440250703 0.0013184414358685373 0.0014245734367894197 0.0016231819695740567 0.0013667111896214 0.0011720094372305965 0.0014712850978534835 0.0011053190279163138 0.0013840962954576516 0.001399469173107947 0.001011019132028476 0.0010790284215929089 0.0013208553678256431 0.0011071861629311313 0.0010066415873279792 0.0013238182912757275 0.0010542958612876009 0.0012330973534660547 0.0012994282029807672 0.00096667139331063894 0.0010926328972107548 0.0012659487065354582 0.0011870287726367034 0.0014824668923206646 0.0012542729172852576 0.0014393113528944409 0.0012049823583758824 0.0016231137147036526 0.0012667643929627859 0.0012317995965105124 0.0016378940348083819 0.0015142294006996017 0.001697980734654794 0.0018906385463971342 0.0013810029728727469 0.0015685482926305694 0.0017491478432031539 0.0016370301054003749 0.0018310423043988811 0.0020931018001551591 0.0017769214609333495 0.0021406915708587315 0.0020448996963244553 0.0018117894118055704 0.0021689489699604683 0.0017696325419807768 0.0014952767529105024 0.001880549877993784 0.0018390983590821715 0.0012982605114654363 0.0017473714405538434 0.0015872307713453767 0.0013127185666803999 0.0017522718891394894 0.0015014157700456502 0.0013783402265376682 0.0017453517952282012 0.0015798532340884446 0.0016201783959368091 0.0019506908343522873 0.0020824527971566387 0.0016815213577497151 0.0015141882657523588 0.0020052279312248933 0.0016764609986807762 0.0015129804293995141 0.0020015982419002883 0.0016205679907601617 0.0019522687411495177 0.0020338604280437217 0.0018612699801504105 0.0019442199054369364 0.0025031021590054417 0.0018963374483923646 0.0024800730449781581 0.0021956115409039693 0.0018637883596433571 0.00246112576580393 0.0019979713955801124 0.0018032635025615703 0.0024191614176395141 0.0024611733169046033 0.0022327748804830769 0.0028691890116966478 0.0029667510794264798 0.0022987864564007836 0.0023417214351953083 0.0030088512181655237 0.0023255928016092512 0.0025372336646001261 0.0029470853621502468 0.002068450648837033 0.0019714664070236698 0.0024886699599432193 0.0024080572062117945 0.0019285755903497141 0.0024555952883281843 0.0022843021488152156 0.0029423852110941648 0.0028624014958805806 0.0023082000731666445 0.0023565662183141888 0.0029213073790211406 0.001998971981368153 0.0024334511023562377 0.0025807247198237145 0.0023344788866969473 0.0024842760437534996 0.0029775165588305482 0.0020527801356292814 0.0026118576143850944 0.0020427136952403096 0.0020545870283894857 0.0024248005201224806 0.0020947405629323534 0.0025843393915075349 0.0019978663345153933 0.0023810267486524608 0.0024962072890878854 0.0022898101124537704 0.0028925172070576807 0.0022956229500090547 0.0024020515593526338 0.00289029662692801 0.0026143418133160192 0.0023648029544572112 0.0029635443615629313 0.0027037396193003559 0.0024543934981489444 0.0020771901619975586 0.0025128228234681509 0.0021329949454952663 0.0020597871572833148 0.0022060131300273259 0.0021334454413222122 0.0017966143686964919 0.0023811824784784859 0.0024861600483279513 0.0020479257447084259 0.002188846782188004 0.0018424693378526302 0.0016897040560013244 0.0019074217762186222 0.0015511254924957768 0.0017563726049896482 0.0022460238378839716 0.001840476658230443 0.0017318458117710819 0.0019093254429165519 0.001802710560163903 0.0015531216975872273 0.0014178889698926488 0.0018539589369790483 0.0016054276587926099 0.0013526180115139858 0.0014606618637024822 0.0016528317927087602 0.0013248705816444621 0.0016129921724579502 0.0018140565690440774 0.0013366658577580262 0.0015347256225985695 0.0018228275176169165 0.0014770282550419767 0.001853604222546375 0.0017757139900446287 0.0015401527832702025 0.0015116964598723098 0.0018741533926917298 0.0021426073016135973 0.0021326884852199235 0.0017270021913060964 0.0021322152756836281 0.0021715300712449787 0.0016560748129375016 0.002170186762291886 0.001782775351061767 0.0017036735463497224 0.00078593128651169286 0.0009497296649436279 0.00076563389365723311 0.00076074058807450596 0.0010134770997952704 0.00092616985666152938 0.00097677678512583235 0.0010926084055696815 0.0008887329010746339 0.00094044307785992381 0.0010576469833594264 0.0012380388933252559 0.0010213163626788401 0.0012024439937321791 0.0012610881343923894 0.0011513265952070467 0.00150539305869556 0.0012111700757591393 0.0014668971090580965 0.0011689634257662721 0.0015187479822259722 0.001485247446932675 0.0012086177608145092 0.0012039750971016632 0.001454830171661565 0.0011709027077301609 0.001521109801866591 0.0012569830887827625 0.0010295126082074217 0.0012524550502460898 0.0012817098489076939 0.00099810908854820637 0.0010582034845303834 0.0010415577189334629 0.0012785373794245152 0.00099830830054396759 0.0010848647910499541 0.0010421810239435113 0.00087964218246322653 0.0010614620535386188 0.00090100071987866319 0.0009012730914611419 0.00093511294925855044 0.00074735018831752957 0.00093540043519687655 0.00076806848687031252 0.00077165645508505667 0.00095227810936528222 0.00074485688408850207 0.00093332973281781727 0.00097130204982315987 0.0010422652190918038 0.00087711286538878102 0.0011014532488413538 0.00089316557559017949 0.0011137353871021069 0.00093182604017615338 0.0009271391598616324 0.00090046680337954317 0.0011451041649825084 0.0010918267737997265 0.00090287188134033423 0.0011239024864263824 0.0007672120970520582 0.00098679756132586034 0.00076710885549327134 0.00097028456117939144 0.00074317005552209368 0.00094411539102228696 0.00076848942000054109 0.00076965226082928288 0.00096290692059210789 0.0011155744295091928 0.00087391567892229735 0.0011296132888374273 0.0010213350063921574 0.0014170779580760808 0.0013375325347850841 0.0010624740151702553 0.0010767611841591724 0.0013700122688916783 0.0010518050366194296 0.0012340019918251877 0.0013537791705232568 0.0010526402324184466 0.0010852392334694246 0.0012663512107178461 0.0014737271722677745 0.0011883981115276517 0.001310314181190615 0.001431417496606776 0.0012655364068687078 0.0016010491739295754 0.0012522918790842193 0.0015333126122686761 0.0015928444882605665 0.00136298088973997 0.0012815802098446246 0.0015515845386768971 0.0016928315335225626 0.0014361917719762801 0.0019142266004828542 0.0014623124785655825 0.0015228343493898918 0.0019275901752699781 0.0017960910474100612 0.0023362216475267565 0.0018424080798300217 0.0014654309146436553 0.0018854778782221365 0.0019308971414827019 0.0016294720823355365 0.0020345439955105635 0.0018549166062937484 0.0017445709737546676 0.0022421857092522132 0.0023044213310843714 0.0019700691985530803 0.0017891308867637062 0.0022679215098585629 0.0021515555167606285 0.0026428797941061895 0.0022150166617822247 0.0024099893373508161 0.0021208028745495116 0.002618389996197212 0.0027412215720550477 0.0021299791450898036 0.0027234207614327387 0.0025867577408714977 0.0027537848709490139 0.0021494978861082694 0.0022326528765578319 0.001948771680864163 0.0018394797753593702 0.0022986555700278597 0.0022005286706861305 0.0017944659883531639 0.0021997048311885974 0.0020999800663686159 0.0027803119941862114 0.0020728076893610195 0.0027679255319463833 0.0024147556025767469 0.0023832831851954761 0.0022701937055094991 0.0029103205368761573 0.0026925107789331861 0.0023316713292812164 0.002878473206788384 0.002488227309572441 0.0018461974435122642 0.0023773610835070508 0.00216690737114492 0.0025025079011479017 0.0018773502269739365 0.0020370439757302294 0.0016054251130376137 0.001624828134871437 0.0020156182704458773 0.0019080495225561054 0.0015693540079220313 0.0014973451721716933 0.0019549239127865329 0.0016317764694824665 0.0013859233114688488 0.0015577228317671509 0.0016904249419826939 0.0013994568203155064 0.0016973745745105693 0.0014675255490775255 0.0014101690242326308 0.001709389067055652 0.0014634657031381716 0.001668589268532751 0.0016877121376618763 0.0014341832989017643 0.001377061265363461 0.0016746992972121108 0.0018106814144467271 0.0020209412656312952 0.0016079256147619428 0.001741995113308626 0.0019639058528195265 0.0016804556598665689 0.0021960382580447982 0.0018894580301151843 0.0021219641669196678 0.0024060967742938612 0.0020469668447673818 0.0026564174103623208 0.0023287465887134092 0.0025718493222564895 0.0022443421832737927 0.0028909376985866648 0.0031094441490551105 0.0034376576560110244 0.0027029404182883562 0.0024746066281709756 0.003201642775616723 0.0027991918537672196 0.0029969495319903706 0.0038571180632986559 0.0033266906024483562 0.0035631191612217894 0.0046018333838062017 0.0044017935826882503 0.0044637590667731602 0.0042617497621129877 0.0050540337733184452 0.0043454212124123355 0.0049755954985050135 0.0037489487351474102 0.0042168868184562832 0.0048654301602566105 0.0050348224025826161 0.004777653503917457 0.0037973547097162798 0.0040424198942480751 0.004938749697420297 0.0047029581180915514 0.0036953998805132303 0.0039312791177236123 0.0033935955037269873 0.0041727064474394206 0.0036435151655983674 0.0044659499854686896 0.0038905190642825127 0.0037641266816334077 0.0040077078173430293 0.0032265086211076548 0.0040533938826423643 0.0033044684438049087 0.0031188919389186979 0.0034356260193826142 0.0026864782950488412 0.0032532556858690057 0.0025922621196823501 0.0027806779041796253 0.0033267757802639543 0.0025507896453550163 0.0032977020029824962 0.0030877308392529431 0.0035982709714750712 0.0031976599355602806 0.0029840939231850824 0.0040301226052067048 0.003501580136638819 0.0030890405383317415 0.0034716764672810558 0.0033241940097038644 0.0039989538093442136 0.0030260262231234553 0.002918927229410393 0.0034873385915968696 0.0035719134932891555 0.0029551351673248981 0.003426410094332707 0.0025956094899992985 0.0031131091039687513 0.0030073814490201569 0.0026409540096221295 0.0026228422751753827 0.0031482287576777594 0.0029320001005142945 0.0027721559707363187 0.0035235206220859848 0.0024946331538775422 0.002665258975345656 0.0030619474968830002 0.0024630042647627456 0.003035633434313071 0.0028780987467720877 0.0028612419452796693 0.0034496264645437367 0.0034637190760778867 0.0033385867313871238 0.0040030468903459859 0.003352922495671388 0.0039189146464703849 0.0032601125011104391 0.0042504963631891258 0.0037869636475613066 0.0046570491369287417 0.0041202963248289518 0.0038002833542850481 0.0040409154301947348 0.0046588882991928102 0.00338727712303479 0.0039214668128386369 0.0041612961552049323 0.0045652107239320351 0.0044384227797817921 0.0054253641543599044 0.0047035936789757305 0.0039506737113603257 0.0045783658257020146 0.0045333070601558285 0.0039888872398133324 0.0051306124667096021 0.0044078907066755308 0.0052862781214537049 0.0050162046377231337 0.005131675343721386 0.006108980322418237 0.0048497468231540782 0.0050892188914985238 0.0052083455252799737 0.0060876697056713863 0.0043588469724512666 0.0052500484167068324 0.005367505815999968 0.0050828121372079871 0.0063920576329456564 0.0059724362436647241 0.0050988782424514524 0.0063970724443035993 0.0058346218671123939 0.00561020070482365 0.0073565634079660516 0.0073667251859726775 0.0070760534115572437 0.0070864537755887282 0.008793262733707289 0.0069435219396024976 0.0082701296274944516 0.0087030116461463362 0.0081283880455882002 0.0077014295828581845 0.0095269640868066666 0.007036177489308848 0.008343317743964157 0.0079294409024939644 0.0061807996424292824 0.0057543360080871998 0.0074492340187000388 0.0071872592634486835 0.0066913918948672971 0.0080691426965725684 0.0060601220642335692 0.0073646329736515772 0.0068743509005336646 0.0067144799391640952 0.0080898522514218293 0.0070214466102111106 0.0069432692441894848 0.0072450387692273386 0.0055387038873633467 0.0077114489759146955 0.0083934817158384783 0.0092870474001314589 0.0086195230988565033 0.0068787984895649851 0.0077141758016704984 0.007929353236765321 0.0086004372764140052 0.0068467311249234778 0.0073451266492425126 0.0056426716393926969 0.0056797396860459558 0.0062270086447723094 0.0070237522017089181 0.0056560337615113379 0.0044039625127865103 0.0052869876036257335 0.0060085177295023757 0.0047232338794967865 0.0044824653504540535 0.0060431757021613269 0.0046999699424882394 0.0059711775481272626 0.0048714703463137009 0.0045721131076031495 0.0058951530140563084 0.0059314789898768476 0.0043427423996821009 0.0055514894147297164 0.0049313743824757885 0.005897550736501298 0.0054142436529533615 0.0047826720799824477 0.0057288845211496868 0.0052389922673265234 0.0066493389533926759 0.0072995557968380627 0.0055342783344454341 0.0064713258151343116 0.0070945312248865159 0.0062517659761237203 0.0079155153445509933 0.0084049350663671415 0.0074833716401520329 0.0094227746006184613 0.0042742172458294378 0.0033339723971566471 0.0033544276816677761 0.0042258525511234789 0.0038523876663592248 0.0032856015929953754 0.0037326756912693659 0.0047657845094374648 0.0039669172523505445 0.0038716556872095279 0.0033300351625867594 0.0041023470788230116 0.0040892064340174866 0.0037091671176753879 0.0047607929195847311 0.0039386558109977352 0.0046216525045569556 0.0052401222948312608 0.0039938391725154627 0.004178697974394594 0.0052714419026188035 0.0040621593719179054 0.0051827068673615095 0.0050949962436161421 0.0041237563464637432 0.0045500367780804121 0.005152003547146209 0.0042694979541487389 0.004690312645255562 0.0036405599619959775 0.004734113515024633 0.0037017051670668677 0.0037223849692152406 0.0038458124093712137 0.0038665063259522084 0.0032257718125596911 0.004188313871451561 0.004369129398050905 0.0032220955277964735 0.0043961274067806973 0.0037781232022175717 0.0032711774511320611 0.0034913760213122879 0.0033839303775487625 0.0027585464273906495 0.0038851474467787297 0.0033831060989498694 0.0032738773889295298 0.0039373283521226292 0.0033050581893208234 0.0030687427561522703 0.0025239086631315948 0.0032650140799920725 0.0028794052725696281 0.0034138811993544714 0.0031792927655904728 0.0027899300170481562 0.0023340654371222067 0.0029494299503274946 0.0028287086950226593 0.0035493515362804992 0.0028311177027727629 0.0027075552351230516 0.0026969404225980782 0.0035494331183581933 0.0030314073363306212 0.00349178298959956 0.0026328094790038972 0.003511935558863935 0.0039325324077464623 0.0033802679036168265 0.0034195687254000989 0.0034763876104510092 0.0035152263145066618 0.002943688298505949 0.0024084650569046072 0.0028115038872006488 0.003140477039535133 0.0035694012179534316 0.0030258475399158346 0.0027878412611919349 0.0023945591532099995 0.0031383498442125526 0.0029048692716896153 0.0028483811109472615 0.0027669916179128245 0.0032508477592773904 0.002696151928572164 0.0031882254689300118 0.0034908077582700178 0.0030787212820038573 0.0033861805045438034 0.0037997439505247869 0.0034568117849755418 0.0030740209053229635 0.0037967509340312436 0.0035542596438304153 0.0027639100474713021 0.0031772043651153796 0.0027921163016975691 0.0028295577638968567 0.0035394260268477112 0.0022697120655772668 0.0029170665678274281 0.0029537824957418398 0.0027421739962899105 0.002841664989372549 0.0035182166012690027 0.0027579930452291896 0.0034545738695948335 0.0034820832059793616 0.0033334468206983889 0.0033613978134102471 0.0040096137098763343 0.0032605249845839282 0.0042595253887303267 0.0039256215413946919 0.0041368236316333944 0.0037967452857880198 0.0045916928939734999 0.0038017248771861963 0.0045974299824935042 0.0040804655849367918 0.0032398383891238261 0.0039327257219380326 0.0042066692993983634 0.0044745427757139382 0.0039509360754929864 0.0051271016383918344 0.0043638283726779858 0.0050612332558927654 0.0050305059435564979 0.004005281206753494 0.0044678503884162321 0.0051468056884870364 0.0035750528408919069 0.0039976178105536582 0.0046329174130575702 0.003351193331063612 0.0037015734319483526 0.0041171161927291795 0.0035558713964270929 0.0041022722135343245 0.0046251686834773388 0.0032721347992545795 0.0036913572953259427 0.0042251723329585281 0.0039853085231746016 0.0047542925809085897 0.004517358129567395 0.0039176423999525501 0.004694242867441285 0.0051151384141736502 0.0046302023342947168 0.0043832266499320861 0.0053402206061041908 0.0046989537004692153 0.0038827589554459316 0.0045366117382742762 0.0045662064943238091 0.0044018413668626064 0.0053012094286169469 0.004317102336590847 0.0052461184914335199 0.005285371915497424 0.0050808616111063598 0.0051207384478572692 0.0060987994504916078 0.0045634642155763074 0.0052928071100874349 0.0049908783447492194 0.0051497155505506155 0.0061050831796185638 0.0048449447945408276 0.0058400799250295909 0.0058593349809856017 0.0068018362149268128 0.0050257345796254687 0.0060023312415262639 0.0060213863894542398 0.004883548917819891 0.0048525203727758986 0.0062598025396870755 0.0057856502310984579 0.0059246557967224372 0.0073718455135404932 0.0060265603629514886 0.0047254857054205438 0.0061630407331497161 0.0057716678048427917 0.0059317402215813241 0.0074739943647149096 0.0060204601086742198 0.0047429820311748203 0.0061776553255899471 0.0057601095509753576 0.0073541005240149943 0.0072474790654872357 0.0067874566540427634 0.0085379572345906703 0.00895791329146748 0.0070620586637309361 0.0069536353279462532 0.0090616113293304212 0.0068758594856616357 0.0089338403980991337 0.0086514094161944267 0.0065106310508101992 0.00784