<?xml version="1.0"?>
<VTKFile type="UnstructuredGrid" version="0.1" byte_order="LittleEndian">
<UnstructuredGrid>
<Piece NumberOfPoints="3918" NumberOfCells="1306">
<Points>
<DataArray type="Float64" NumberOfComponents="3" format="ascii">
0 0 0 0.082799035591426873 0.082799035591510806 0 0 0.10000000000041601 0 0 0 0 0.099999999999928008 0 0 0.082799035591426873 0.082799035591510806 0 0 0.20000000000083221 0 0 0.10000000000041601 0 0.066361468125430589 0.15903440181097661 0 0.082799035591426873 0.082799035591510806 0 0.066361468125430589 0.15903440181097661 0 0 0.10000000000041601 0 0.082799035591426873 0.082799035591510806 0 0.140351188660986 0.16130415108589741 0 0.066361468125430589 0.15903440181097661 0 0.20669143849501961 0.085546078947938975 0 0.140351188660986 0.16130415108589741 0 0.082799035591426873 0.082799035591510806 0 0.099999999999928008 0 0 0.20669143849501961 0.085546078947938975 0 0.082799035591426873 0.082799035591510806 0 0.099999999999928008 0 0 0.19999999999983389 0 0 0.20669143849501961 0.085546078947938975 0 0.20669143849501961 0.085546078947938975 0 0.21725788110387281 0.17316968768743621 0 0.140351188660986 0.16130415108589741 0 0.20669143849501961 0.085546078947938975 0 0.29145143692666958 0.13500804559578439 0 0.21725788110387281 0.17316968768743621 0 0.29999999999973409 0 0 0.29145143692666958 0.13500804559578439 0 0.20669143849501961 0.085546078947938975 0 0.29999999999973409 0 0 0.20669143849501961 0.085546078947938975 0 0.19999999999983389 0 0 0.34318159319555042 0.3314386771104964 0 0.24783073444672249 0.24783073444648379 0 0.33604819894646598 0.23280286076243209 0 0.29145143692666958 0.13500804559578439 0 0.24783073444672249 0.24783073444648379 0 0.21725788110387281 0.17316968768743621 0 0.29145143692666958 0.13500804559578439 0 0.33604819894646598 0.23280286076243209 0 0.24783073444672249 0.24783073444648379 0 0.21725788110387281 0.17316968768743621 0 0.17318221359491059 0.27409688392309489 0 0.140351188660986 0.16130415108589741 0 0.21725788110387281 0.17316968768743621 0 0.24783073444672249 0.24783073444648379 0 0.17318221359491059 0.27409688392309489 0 0.2371857680100064 0.35865548441110112 0 0.17318221359491059 0.27409688392309489 0 0.24783073444672249 0.24783073444648379 0 0.13897501191807771 0.34545639364066222 0 0.089078158003765312 0.2493007687782936 0 0.17318221359491059 0.27409688392309489 0 0.089078158003765312 0.2493007687782936 0 0.140351188660986 0.16130415108589741 0 0.17318221359491059 0.27409688392309489 0 0.089078158003765312 0.2493007687782936 0 0.066361468125430589 0.15903440181097661 0 0.140351188660986 0.16130415108589741 0 0 0.20000000000083221 0 0.066361468125430589 0.15903440181097661 0 0.089078158003765312 0.2493007687782936 0 0 0.30000000000124832 0 0.089078158003765312 0.2493007687782936 0 0.0632094674441709 0.3449112819864934 0 0 0.20000000000083221 0 0.089078158003765312 0.2493007687782936 0 0 0.30000000000124832 0 0.083393126324559225 0.42307471369029392 0 0 0.40000000000166441 0 0.0632094674441709 0.3449112819864934 0 0 0.30000000000124832 0 0.0632094674441709 0.3449112819864934 0 0 0.40000000000166441 0 0 0.50000000000205869 0 0 0.40000000000166441 0 0.083393126324559225 0.42307471369029392 0 0.083393126324559225 0.42307471369029392 0 0.13897501191807771 0.34545639364066222 0 0.16486701364709541 0.41592657376307979 0 0.083393126324559225 0.42307471369029392 0 0.16486701364709541 0.41592657376307979 0 0.12353277228144981 0.51086097771927308 0 0.083393126324559225 0.42307471369029392 0 0.0632094674441709 0.3449112819864934 0 0.13897501191807771 0.34545639364066222 0 0.13897501191807771 0.34545639364066222 0 0.0632094674441709 0.3449112819864934 0 0.089078158003765312 0.2493007687782936 0 0 0.60000000000138687 0 0.070553891733833127 0.57745844360881338 0 0.079752623936563252 0.65630726580969023 0 0 0.60000000000138687 0 0 0.50000000000205869 0 0.070553891733833127 0.57745844360881338 0 0 0.50000000000205869 0 0.083393126324559225 0.42307471369029392 0 0.12353277228144981 0.51086097771927308 0 0 0.50000000000205869 0 0.12353277228144981 0.51086097771927308 0 0.070553891733833127 0.57745844360881338 0 0.12353277228144981 0.51086097771927308 0 0.16324260003398389 0.62262730759772122 0 0.070553891733833127 0.57745844360881338 0 0.079752623936563252 0.65630726580969023 0 0.070553891733833127 0.57745844360881338 0 0.16324260003398389 0.62262730759772122 0 0.12353277228144981 0.51086097771927308 0 0.1946526892501724 0.54636184660733622 0 0.16324260003398389 0.62262730759772122 0 0.27661118526457179 0.58730386222759956 0 0.16324260003398389 0.62262730759772122 0 0.1946526892501724 0.54636184660733622 0 0.1946526892501724 0.54636184660733622 0 0.21928696632013719 0.4676461135047027 0 0.27220668248394869 0.50912429725145214 0 0.12353277228144981 0.51086097771927308 0 0.21928696632013719 0.4676461135047027 0 0.1946526892501724 0.54636184660733622 0 0.27661118526457179 0.58730386222759956 0 0.27220668248394869 0.50912429725145214 0 0.34793494568226019 0.52426775179830853 0 0.34793494568226019 0.52426775179830853 0 0.27220668248394869 0.50912429725145214 0 0.29987747321592639 0.43430880093746571 0 0.29987747321592639 0.43430880093746571 0 0.27220668248394869 0.50912429725145214 0 0.21928696632013719 0.4676461135047027 0 0.27661118526457179 0.58730386222759956 0 0.1946526892501724 0.54636184660733622 0 0.27220668248394869 0.50912429725145214 0 0.13897501191807771 0.34545639364066222 0 0.2371857680100064 0.35865548441110112 0 0.16486701364709541 0.41592657376307979 0 0.13897501191807771 0.34545639364066222 0 0.17318221359491059 0.27409688392309489 0 0.2371857680100064 0.35865548441110112 0 0.2371857680100064 0.35865548441110112 0 0.21928696632013719 0.4676461135047027 0 0.16486701364709541 0.41592657376307979 0 0.12353277228144981 0.51086097771927308 0 0.16486701364709541 0.41592657376307979 0 0.21928696632013719 0.4676461135047027 0 0.2371857680100064 0.35865548441110112 0 0.29987747321592639 0.43430880093746571 0 0.21928696632013719 0.4676461135047027 0 0.2371857680100064 0.35865548441110112 0 0.34318159319555042 0.3314386771104964 0 0.29987747321592639 0.43430880093746571 0 0.34318159319555042 0.3314386771104964 0 0.2371857680100064 0.35865548441110112 0 0.24783073444672249 0.24783073444648379 0 0.38593969585746768 0.44843324941957241 0 0.34318159319555042 0.3314386771104964 0 0.42544665781957403 0.3726599289372452 0 0.38593969585746768 0.44843324941957241 0 0.29987747321592639 0.43430880093746571 0 0.34318159319555042 0.3314386771104964 0 0.38593969585746768 0.44843324941957241 0 0.42544665781957403 0.3726599289372452 0 0.47711113382803011 0.43513410852522788 0 0.47711113382803011 0.43513410852522788 0 0.42544665781957403 0.3726599289372452 0 0.49272830291620878 0.32528628960011152 0 0.42544665781957403 0.3726599289372452 0 0.41589935411558732 0.26752529264016389 0 0.49272830291620878 0.32528628960011152 0 0.42544665781957403 0.3726599289372452 0 0.34318159319555042 0.3314386771104964 0 0.41589935411558732 0.26752529264016389 0 0.27661118526457179 0.58730386222759956 0 0.34793494568226019 0.52426775179830853 0 0.38240158409674341 0.60644575028138747 0 0.27661118526457179 0.58730386222759956 0 0.38240158409674341 0.60644575028138747 0 0.32437633398017029 0.65970549827478953 0 0.38593969585746768 0.44843324941957241 0 0.34793494568226019 0.52426775179830853 0 0.29987747321592639 0.43430880093746571 0 0.38593969585746768 0.44843324941957241 0 0.47711113382803011 0.43513410852522788 0 0.45232393232070839 0.53082724112931345 0 0.38593969585746768 0.44843324941957241 0 0.45232393232070839 0.53082724112931345 0 0.34793494568226019 0.52426775179830853 0 0.38240158409674341 0.60644575028138747 0 0.34793494568226019 0.52426775179830853 0 0.45232393232070839 0.53082724112931345 0 0.38240158409674341 0.60644575028138747 0 0.45232393232070839 0.53082724112931345 0 0.46433624429412901 0.61260020600107856 0 0.56379254693201075 0.58472273515948836 0 0.46433624429412901 0.61260020600107856 0 0.45232393232070839 0.53082724112931345 0 0.5174764925733939 0.65338828204098198 0 0.46433624429412901 0.61260020600107856 0 0.56379254693201075 0.58472273515948836 0 0.55763912874459476 0.49619993861770217 0 0.45232393232070839 0.53082724112931345 0 0.47711113382803011 0.43513410852522788 0 0.55763912874459476 0.49619993861770217 0 0.56379254693201075 0.58472273515948836 0 0.45232393232070839 0.53082724112931345 0 0.64897033023755402 0.45530630145656431 0 0.66278242936710119 0.53985356489900171 0 0.55763912874459476 0.49619993861770217 0 0.56379254693201075 0.58472273515948836 0 0.55763912874459476 0.49619993861770217 0 0.66278242936710119 0.53985356489900171 0 0.65500944633069913 0.60601350811213128 0 0.59670004617370476 0.65981579440137683 0 0.56379254693201075 0.58472273515948836 0 0.56509579243166053 0.39588847936247551 0 0.47711113382803011 0.43513410852522788 0 0.49272830291620878 0.32528628960011152 0 0.56509579243166053 0.39588847936247551 0 0.55763912874459476 0.49619993861770217 0 0.47711113382803011 0.43513410852522788 0 0.56509579243166053 0.39588847936247551 0 0.65823561246403328 0.35502292901158627 0 0.64897033023755402 0.45530630145656431 0 0.56509579243166053 0.39588847936247551 0 0.64897033023755402 0.45530630145656431 0 0.55763912874459476 0.49619993861770217 0 0.56509579243166053 0.39588847936247551 0 0.49272830291620878 0.32528628960011152 0 0.58612580217118482 0.27813894450229909 0 0.56509579243166053 0.39588847936247551 0 0.58612580217118482 0.27813894450229909 0 0.65823561246403328 0.35502292901158627 0 0.49272830291620878 0.32528628960011152 0 0.49255105193724569 0.22337579986912359 0 0.58612580217118482 0.27813894450229909 0 0.49255105193724569 0.22337579986912359 0 0.50264032148191051 0.12292784096123539 0 0.5565830077206213 0.19095699352548859 0 0.49255105193724569 0.22337579986912359 0 0.5565830077206213 0.19095699352548859 0 0.58612580217118482 0.27813894450229909 0 0.64669101990832323 0.1799054750174742 0 0.58612580217118482 0.27813894450229909 0 0.55658
[...]
<PointData Scalars="A_conc," Vectors="" Tensors="">
<DataArray type="Float64" Name="A_conc" format="ascii">
7.8775863104805289e-06 1.3965864106559109e-06 -6.2985407173855602e-07 7.3664675806914044e-06 8.9089704644759514e-06 5.7839059161671506e-07 1.9253013413281661e-06 1.0805812268410882e-06 2.3109857457580998e-06 1.7110339155408232e-06 2.2108314640223446e-06 1.0162757117332457e-06 1.4184476134448334e-06 2.8418693142959183e-06 1.9170776200843111e-06 2.8367154705978518e-06 2.6157649458557538e-06 1.1619743029785736e-06 8.9805347014270683e-06 2.5737030514944815e-06 7.8037117079453342e-07 8.2346931400585361e-06 9.7531910627207421e-06 1.7956313779112677e-06 2.4872962969314305e-06 3.6003314715894074e-06 2.2418289493618086e-06 2.1749975997842286e-06 3.3513371712081531e-06 3.3020812671369839e-06 1.0490161398924447e-05 1.4350688912767773e-06 2.792696344016395e-06 1.0431619486301121e-05 1.7196294920880667e-06 9.085062573461944e-06 5.4967810970497411e-06 3.2268348679805665e-06 5.3531247554898364e-06 4.5504248261534008e-06 3.9934850537657558e-06 3.1497225308340139e-06 4.1478435606628337e-06 5.5743645566248224e-06 3.572515385875696e-06 3.7720835385861689e-06 3.2487820115965342e-06 2.3962159537979251e-06 3.506151096216666e-06 4.259383720348408e-06 2.8753693846781443e-06 3.9374524354838213e-06 2.741438547814544e-06 4.1447769341673526e-06 2.8497637417519174e-06 2.207667682925751e-06 3.4126918229576437e-06 2.2022552140643542e-06 2.6873423531545233e-06 3.5159653985856821e-06 2.4829942820230092e-06 1.9402611701643776e-06 2.9318362484922627e-06 1.5553246224598007e-06 2.1939516327207208e-06 2.722221533878338e-06 1.6222296732703148e-06 2.7026806498471083e-06 2.3210072787430561e-06 1.6952090379483787e-06 2.7794133831902838e-06 1.794173399780066e-06 2.5511757344578498e-06 1.6080207944036738e-06 2.3722286581009048e-06 1.7982788152705238e-06 2.4822285241443199e-06 1.7681854165229805e-06 1.7227054765065168e-06 1.7431134155892905e-06 2.6542742342071687e-06 2.0756104713523929e-06 2.9249321297962501e-06 3.253399301014034e-06 2.1333907466513585e-06 3.2960916347339498e-06 2.6775361333195697e-06 2.2910193510353926e-06 2.1057722979405285e-06 3.1116909346881039e-06 3.0721245713339182e-06 2.0594643051248255e-06 2.4526483892135947e-06 1.6143041450430543e-06 2.4325468719758737e-06 2.5281164445784273e-06 1.7820568602092303e-06 1.7402030915890764e-06 2.5371384462037815e-06 1.4819158111946859e-06 2.4582764745027113e-06 2.9748356883616083e-06 1.5159173763645135e-06 2.986261288269062e-06 2.3296089868274854e-06 2.6935436658419088e-06 3.3357313485511164e-06 2.0001442458786785e-06 2.2190415959395858e-06 2.1202283882728345e-06 3.3821613044338251e-06 2.4120559333479055e-06 3.5563522958102986e-06 3.0761667606369645e-06 4.7289411199302484e-06 2.6612613924679611e-06 3.1576319565452312e-06 3.0294131436363666e-06 3.4636715446737051e-06 4.5241234609265689e-06 2.2577574210884017e-06 3.8481687037514185e-06 3.4294760885177443e-06 3.9822828694463664e-06 3.8807872692790978e-06 5.6581174763820902e-06 5.6091078095461449e-06 3.789558736310476e-06 4.4051658495792984e-06 4.8266111038151843e-06 4.2291928691912155e-06 3.1214339531576889e-06 4.4715120532213931e-06 2.8173250940499604e-06 4.3732316380076442e-06 2.5533425852788203e-06 4.1794099400185748e-06 2.8919930141513397e-06 2.5148265545794625e-06 3.0439242525225804e-06 4.1943883146088428e-06 4.017967167623442e-06 3.6414556326409034e-06 2.6864919920724075e-06 2.3566090228328463e-06 2.9970585941722823e-06 3.9050575693865611e-06 3.6337026354844274e-06 4.9172851137872722e-06 3.2467529747587821e-06 3.186229110368882e-06 5.6545333814272592e-06 4.529213672288852e-06 5.7682178332727496e-06 3.4060143368344202e-06 3.6197270603961147e-06 5.7510902158524434e-06 4.6111700797934645e-06 7.0267279896330832e-06 6.2536128260681128e-06 3.981038590083526e-06 5.1530207268493424e-06 5.119498633431683e-06 6.4216740803833534e-06 8.1918427865443424e-06 7.6768486645401244e-06 5.8294943003618202e-06 8.3952497800384869e-06 6.1884998108201126e-06 5.9315860776887787e-06 8.6765582291926255e-06 6.9137977928742958e-06 4.4106588492407573e-06 6.6655379926681283e-06 3.5362719514532625e-06 5.2691163841408669e-06 6.2954568183418498e-06 3.6662842596675311e-06 6.3363582392536074e-06 4.7868178895277875e-06 6.2286112155607871e-06 5.2039267611027081e-06 3.9642764335906791e-06 4.9497089237292578e-06 8.0851616682078021e-06 7.1818387153230968e-06 5.5979009408148608e-06 7.7377931164819497e-06 4.5418386516852369e-06 5.6039215080403157e-06 4.533887988852653e-06 7.7087076680189852e-06 5.0074588710069714e-06 7.2051354737685834e-06 7.807087276231474e-06 1.0846108073738075e-05 6.8173286218325854e-06 6.1944570224872649e-06 8.4666976150815838e-06 6.2911439886696131e-06 1.0599373043157886e-05 1.0521312609581889e-05 6.2138007580561169e-06 7.1518053402824628e-06 1.0053388496055952e-05 1.0395858203256974e-05 5.5228604387323429e-06 1.2922357766914014e-05 1.3741404130940636e-05 7.7335791991430965e-06 8.9351927680943997e-06 8.5774866729190828e-06 1.4265524519761619e-05 1.3724868997614647e-05 1.0383408221128628e-05 8.7025195919862773e-06 1.0654874622180571e-05 6.8386099599152736e-06 7.5755942922663664e-06 1.0288007522075762e-05 9.9245665127988676e-06 6.3525019261502325e-06 8.1368266692664146e-06 1.3554110803175286e-05 1.2838369930484301e-05 9.0706726302215858e-06 1.3579314458011325e-05 8.6940095066607311e-06 1.0000141353813538e-05 6.7409467303148659e-06 1.1199641341736665e-05 8.7551465238706141e-06 9.9979045334962451e-06 1.3980940047904167e-05 7.356078254666414e-06 7.2757283519452834e-06 1.1544500481021411e-05 7.5283060297453578e-06 7.6290372578174479e-06 1.0308222431750343e-05 6.7595871122297055e-06 9.6374751375144154e-06 1.1254210176255144e-05 1.332555432910874e-05 1.0168371309705312e-05 8.4998335600600446e-06 8.935541467055739e-06 1.3542862272021747e-05 8.8390729318947488e-06 1.5634655088032024e-05 1.1414622550171195e-05 7.066114062439674e-06 1.3547039693595046e-05 1.6829262722495879e-05 6.4243513593410308e-06 1.2304592994589623e-05 8.779207612862237e-06 5.0232751116564318e-06 1.298795374559097e-05 5.7719912781310223e-06 5.8017841368563301e-06 1.0003538977456032e-05 9.9230714136297329e-06 7.0136835820556511e-06 5.4800283572349791e-06 5.5359336013289368e-06 7.7244894491849705e-06 6.1975075590061464e-06 6.1690457123152245e-06 3.9114517606194056e-06 1.1511073802612539e-05 1.3512701569481914e-05 4.4897590787594495e-06 1.2594841325467378e-05 5.6099823625009986e-06 3.5352691984073747e-06 1.3096213333705606e-05 2.4024675038310459e-06 1.155349726475738e-05 1.0145831145386109e-05 4.1120467739350125e-06 9.8268691195993353e-07 6.6818451638293695e-06 3.4096047095709429e-06 4.487924150862191e-06 6.7312849491445671e-06 5.0546810970770728e-06 3.5538830829416645e-06 4.3767320285136964e-06 6.290847781909225e-06 6.8145657470040313e-06 4.7025624261755064e-06 7.004789017757951e-06 4.8523297979870065e-06 8.3139692444526554e-06 8.3917398944389025e-06 5.4698474729962623e-06 4.9957283590736855e-06 8.5060672334396472e-06 8.4127792324088283e-06 8.7577358065956299e-06 6.0747396022198101e-06 5.5326970533213565e-06 9.7157051954570703e-06 -1.5993645793139636e-06 9.0969230188133807e-07 1.1013875826642309e-05 9.3994609622187243e-06 -2.2415921293773722e-07 1.1244581766247866e-05 2.0613776307007027e-07 3.1803195871611199e-06 1.0539724011296586e-05 2.2695836984385092e-06 1.1585045432174621e-05 1.1773166718157494e-05 3.6624522522477856e-06 -5.601226899549068e-07 1.2449945569874418e-05 1.0962749755154428e-05 -1.4542642192497829e-06 1.2630769763370073e-05 -3.909063616296712e-07 8.8512954274547117e-07 2.3487251313751855e-06 3.9321977421922552e-06 5.5370887683745417e-06 1.8518590238020861e-06 5.4963475343595816e-06 4.5729250817088468e-06 2.7960048736865145e-06 2.7783312914718594e-06 4.3668751150093776e-06 3.1012886177755018e-06 1.8785789780732879e-06 3.1135758961780988e-06 1.1463312993568949e-06 3.6312040075747592e-06 5.7602876213291007e-07 2.0297470734928023e-06 6.3182878889375673e-07 3.6528250988178063e-06 1.2850120580158023e-06 2.0442752664950068e-06 1.6718194975501097e-06 1.4722471409047828e-06 9.1515255099842883e-07 2.2239644074749373e-06 2.0469352667339329e-06 2.3662818079266721e-06 8.119462151282059e-07 1.6391394453363106e-06 2.8327742940324409e-06 2.4406064937722769e-06 1.9197243558234168e-06 3.3842897733332134e-06 2.1671990804717281e-06 2.5345077379037143e-06 3.4731082825357373e-06 2.132980191636865e-06 2.3119142153584993e-06 2.181424039150677e-06 3.3608849859159877e-06 2.1727392680722961e-06 3.1328692076765031e-06 3.3751960819936501e-06 1.8785397507481117e-06 1.6961545431229129e-06 2.831812997010907e-06 2.6260480836990812e-06 1.5677059537951214e-06 2.5004439558982866e-06 1.7526707764704337e-06 2.6325703797554113e-06 1.7508610230544115e-06 1.9868488759138479e-06 3.1959668849631516e-06 3.2815405106287568e-06 4.6076394245840703e-06 4.1613754339635786e-06 2.4232404146029327e-06 4.4274641481156839e-06 2.8581774083999819e-06 2.76932951733732e-06 3.6476378158541769e-06 2.6614982744350151e-06 4.3057863509421761e-06 2.8181889863908232e-06 4.0501737281595964e-06 3.0584893171454772e-06 3.2531834282126138e-06 3.9353689344065036e-06 4.881108430936727e-06 3.5276440510014126e-06 5.5184164273720812e-06 4.5019803516087726e-06 3.4010982924455856e-06 5.0736119492739771e-06 5.436004152128754e-06 4.137093248277182e-06 5.248101387262575e-06 3.6701417207440138e-06 7.218915330976656e-06 4.1433329906045539e-06 5.7632547635763821e-06 7.338325305978929e-06 4.7616574240873437e-06 4.3872599216280657e-06 6.2938238383818764e-06 5.9747917232804489e-06 9.7785131523992641e-06 7.2404959242659984e-06 4.1857329756303707e-06 6.9333762571452654e-06 6.6196709301516152e-06 5.1088956604156469e-06 7.8280981536057268e-06 8.9586226583927648e-06 9.4269366363961207e-06 5.3984012683791826e-06 9.2631435075025572e-06 5.8970642317234671e-06 7.1321897483111463e-06 7.8941939306146134e-06 1.1656026321013203e-05 8.3811197408070743e-06 7.5665496928553056e-06 9.772901794140873e-06 1.1400548209066707e-05 1.218843953261717e-05 1.2003151958567505e-05 7.3346533086227334e-06 1.2323602282775465e-05 7.5607849030924203e-06 1.0970808018584725e-05 6.8045963734488041e-06 6.3100988715689061e-06 9.0443282063953128e-06 5.7498086667918618e-06 9.3960502086445619e-06 8.6563548793867342e-06 1.268434176487108e-05 7.4631158070648031e-06 8.2274392567399657e-06 1.2508228045291262e-05 9.6336671336288786e-06 7.1274751632834398e-06 1.2798389451403418e-05 7.5692684390211742e-06 9.5093430916051562e-06 1.2927661767684381e-05 8.5867947103747276e-06 1.1589605562971839e-05 5.5128729555001997e-06 1.0758755122750029e-05 8.8614881343318024e-06 5.9792672709360787e-06 8.3146691039791002e-06 1.0760653503937758e-05 3.3636139304867456e-06 5.9118064616761164e-06 6.9175603996441741e-06 7.5285777275216965e-06 4.7120273827046217e-06 7.0553590164035543e-06 7.4868849442239579e-06 5.35947550629843e-06 4.5240587531469613e-06 4.0676446984152087e-06 5.1262266154020017e-06 5.9400875784080756e-06 4.4235567518408867e-06 6.3617878319943153e-06 4.2724153107932334e-06 1.2099379152812122e-05 2.4592036426274037e-07 3.6463770414780616e-06 3.9763505891770697e-06 3.689447899290102e-06 6.5134081474062821e-06 1.4374276522761721e-05 1.3148575652519586e-05 2.1735130175631801e-06 1.3852193611740468e-05 3.7324517457654434e-06 3.5093268219888019e-06 1.2754492686939352e-05 2.3795423387639152e-06 1.4916586033738173e-05 1.4078330776021453e-05 3.2647653779566099e-06 8.3786528658381445e-06 1.6871857511418957e-05 1.4605132333508614e-05 6.4232237258062519e-06 1.5473462925122049e-05 7.7896606939325754e-06 1.1026119860867502e-05 1.7144300256317013e-05 9.6522652461332733e-06 1.6457068184921517e-05 1.3987425293781715e-05 9.5713622120569961e-06 1.8651227793004794e-05 2.2313964962514311e-05 1.5555775809383603e-05 1.4517709044670108e-05 2.7964192472603118e-05 1.7839453026103162e-05 2.3808676202345199e-05 2.5355506685955583e-05 2.2027458421175024e-05 3.1127938080668322e-05 1.7120626968067265e-05 3.0255803379755402e-05 2.3719718419457788e-05 2.8259172105842037e-05 3.071961323465523e-05 2.1379890060614871e-05 2.0937793003684385e-05 2.8736843663292233e-05 1.8128810284456475e-05 1.6321678079914882e-05 2.7485010114177605e-05 2.9734120693684071e-05 2.3124406733251714e-05 2.0400196194595541e-05 1.5316755636227923e-05 1.8723635268807868e-05 1.8972283945171619e-05 2.5354499913684089e-05 2.0661755005698773e-05 1.4138987343134062e-05 2.0859023383714037e-05 2.1890604986979312e-05 1.5164440758125661e-05 1.3292730517757249e-05 1.0402162962822639e-05 1.527613218283207e-05 1.7081972023051744e-05 1.1622785868132085e-05 1.0243355395217356e-05 1.6375746289806799e-05 9.6777963567628944e-06 1.4384039371087438e-05 1.6113406273052821e-05 1.4680578825011967e-05 1.2885972240835738e-05 1.8507027591208595e-05 2.1963400011930361e-05 1.3025647517919415e-05 1.7065997177474826e-05 1.5191838526740113e-05 2.1732545281358811e-05 1.6577873761373775e-05 1.2522883797724034e-05 1.764119251263132e-05 1.3459277803640576e-05 1.6770717603111719e-05 1.8119013863986257e-05 1.2426742238314325e-05 1.3781555075282158e-05 1.4693861415483665e-05 1.0251006626116973e-05 1.0688049596480472e-05 1.0880414717497285e-05 1.5180484966960018e-05 1.1365994568309969e-05 1.8015554370821861e-05 1.277750213715915e-05 9.7769960978705952e-06 1.4510483996747477e-05 1.1182307046456778e-05 1.2840228117575969e-05 1.4208925908966327e-05 9.3969455552477673e-06 1.7167126312731986e-05 1.7109103671425501e-05 1.1723902052867074e-05 1.5478887922393587e-05 2.1815326411449343e-05 1.5419498574533271e-05 1.3980190649691301e-05 2.3802358229471515e-05 2.0507842813642236e-05 2.7454516460935079e-05 1.8268156763186743e-05 2.1638964284710856e-05 2.7480711508543229e-05 2.090975396348615e-05 1.8470719670100952e-05 2.2925024650362045e-05 1.5215652960646916e-05 2.0516819924396392e-05 3.4818597351982485e-05 2.4927360268583135e-05 2.353256446962083e-05 2.6118689466844619e-05 2.7477714418772308e-05 1.9320259681316111e-05 3.1864513975263844e-05 2.5291943753476513e-05 1.9295025243635552e-05 2.2926465472885568e-05 2.9761469538987557e-05 3.3046863222926193e-05 2.6501876512189133e-05 4.1908195230988832e-05 3.0006456051417595e-05 3.0588020625793356e-05 2.9175661083252401e-05 4.1481478577506656e-05 3.3751474184417734e-05 2.2027066491914789e-05 3.2381136337834374e-05 2.791640457837572e-05 3.9092105414240906e-05 4.4581716676588706e-05 2.826852388093958e-05 4.4709597214020108e-05 3.7478637432758239e-05 3.0978501123360467e-05 5.5284082431005396e-05 5.5249644925408032e-05 7.4285563556978154e-05 4.83467291046524e-05 4.8383033917749347e-05 7.2096472931204719e-05 6.5312125943246501e-05 4.4920653616625366e-05 8.3822478142991588e-05 5.4581213119911501e-05 6.1413041086271541e-05 4.7266117477669199e-05 6.7156354487460631e-05 6.0662974489010641e-05 3.4226583058302168e-05 5.7261399340158563e-05 3.9915200875248957e-05 5.1152189716354789e-05 6.4177939046158601e-05 4.4029927055580754e-05 3.7180954106715834e-05 5.5431423878000257e-05 4.8488817663862502e-05 4.8416093745490339e-05 4.4665834141507121e-05 6.4815806988040094e-05 3.0828184160989285e-05 5.0157585230552104e-05 5.3754922559862855e-05 6.5016750062517619e-05 5.4947572900421155e-05 8.0108405991149973e-05 5.8975968307137906e-05 4.4474769654647735e-05 7.093237891938631e-05 4.3952316487755642e-05 6.0832876847745078e-05 7.0524611487351793e-05 3.3952837700896541e-05 5.585074893614295e-05 3.3450182526588516e-05 3.3536781005644901e-05 4.1023369225159748e-05 5.1894330535889263e-05 3.2150586718186875e-05 4.0978171665374495e-05 2.1777641767585165e-05 4.1486638802618233e-05 2.5687140395517691e-05 2.3326400752890596e-05 4.0422202597398534e-05 2.7583079547264575e-05 2.506359620368973e-05 3.933664246102476e-05 3.8848877555786696e-05 2.2735937366311305e-05 2.2916789929279305e-05 2.8786214254159145e-05 3.7033423166617676e-05 3.4482392854867336e-05 2.5924368724673642e-05 3.9174143916124516e-05 3.0716218362116253e-05 3.5572549385776568e-05 4.8920464364432363e-05 5.4702886400539149e-05 4.5162549500141697e-05 3.1316782025466752e-05 6.3826875946706603e-05 3.9854891815142691e-05 4.982205520054933e-05 5.2632694273970989e-05 6.5118163656851833e-05 8.3740910001562502e-05 1.5006886167335908e-05 2.4303644878437161e-05 1.5348775849166646e-05 1.9942894496057228e-05 1.4268165742207925e-05 2.3568467340449151e-05 1.7837022447806874e-05 2.8650450215222601e-05 2.0158999897320469e-05 2.2429083156467502e-05 1.477950922471012e-05 2.0180722225118028e-05 1.7502935611820809e-05 2.126398095761191e-05 2.8614811594531625e-05 3.2954459320074702e-05 2.6202887509448553e-05 1.8578234656473151e-05 2.1407199016993213e-05 3.3502297112429378e-05 1.9624081752592347e-05 1.9286903588105988e-05 3.0833416673719184e-05 3.2009784939853578e-05 2.015056088721057e-05 2.6005119325456189e-05 3.1734033940579939e-05 2.2745341134836291e-05 1.6569739176286044e-05 2.8432397303087271e-05 2.9178947121990703e-05 1.6881528407395655e-05 1.945359649251931e-05 2.1935959401326131e-05 1.9394660063241353e-05 1.3812166033919909e-05 2.469561669154595e-05 2.2991463336868961e-05 1.3200281904699192e-05 2.5028779606848877e-05 1.4013835043057236e-05 1.8953777342771674e-05 1.7464113385538386e-05 1.0745198309398023e-05 1.6308151964049553e-05 1.5852704084939508e-05 1.4667716332635953e-05 2.0525637984635089e-05 2.3226679850825305e-05 1.3819389217216173e-05 1.6362329153002875e-05 1.4102195817885012e-05 1.9093910976785046e-05 9.919085760905582e-06 1.0004298943615245e-05 1.7743155975783514e-05 1.593596814103723e-05 1.2834402834755045e-05 8.0319995882912016e-06 1.3341752068010586e-05 1.8246493998791076e-05 1.0966114868629433e-05 1.1822367285740083e-05 1.0663857452401077e-05 1.8246158713863284e-05 1.3623513969373509e-05 1.7416629828031506e-05 1.7743310088783067e-05 9.7922752731682129e-06 1.5728421586142125e-05 2.115604040055369e-05 1.6165658096175873e-05 1.7209672554362372e-05 1.7635249594267075e-05 1.2335487033071756e-05 1.2265143041472761e-05 1.5114144350214609e-05 8.9960678486577105e-06 1.3509729720959896e-05 1.8396181757175379e-05 1.1386389228776328e-05 1.5069362944452647e-05 1.3030068192692482e-05 8.801712783771333e-06 1.1550791076733458e-05 1.2293275033836899e-05 1.5774201532277603e-05 1.7638963136627828e-05 1.0552607792991537e-05 1.49005265514007e-05 1.6103341593645566e-05 1.3271025420898224e-05 2.0049326437079774e-05 1.3167012268455208e-05 1.6794922165582843e-05 1.998174125397622e-05 1.4710189479974648e-05 1.1076090729735567e-05 1.8224133630290055e-05 1.1611084113935887e-05 1.1886122564905695e-05 1.8206642152130215e-05 1.3325832807372879e-05 7.9929164806910906e-06 1.3590139052694766e-05 1.7999974861533554e-05 1.2040918689817911e-05 1.118857718696295e-05 1.7421730700787696e-05 1.0837769604984255e-05 1.7117910615170263e-05 1.5598293121906978e-05 1.5284317102138026e-05 2.1838066661288556e-05 1.3979588816786263e-05 2.0506600005897831e-05 2.3928401096000795e-05 2.1911613702178432e-05 1.8352874091132262e-05 2.6697272798272414e-05 2.1295597314181134e-05 2.6800572830776022e-05 1.844770170579149e-05 1.3800705251971856e-05 2.3379061751390433e-05 2.0635578605036809e-05 1.8984931705963781e-05 3.1858018764651636e-05 2.464237869698145e-05 3.0592503043667324e-05 2.2604193838980378e-05 3.0145184935093244e-05 3.2101237955755181e-05 1.954868516046386e-05 2.4512070091065698e-05 2.7320606350132636e-05 1.6392853735465442e-05 2.0706801836393589e-05 2.2665474492308519e-05 1.8496799181353382e-05 1.5128939606042177e-05 2.72241229084042e-05 2.1639077481476829e-05 1.6113713231484262e-05 1.4304665198818128e-05 1.8366351602204274e-05 2.3653068341081551e-05 2.5393155206668053e-05 2.796317216913129e-05 1.9595925781980459e-05 1.8395785931421142e-05 2.6905370653326724e-05 3.1654435626055437e-05 3.3800716998369858e-05 2.568157613156137e-05 2.2943743276287673e-05 2.5690239873115074e-05 1.8701611548585121e-05 2.756545646482014e-05 2.3219118611183222e-05 2.514584707591852e-05 3.3489262504244183e-05 3.2793547779693888e-05 2.1660504412596116e-05 3.2466077149992568e-05 2.9525128688183881e-05 2.9186632557889567e-05 4.1658051441413893e-05 3.2934037048614902e-05 2.9367565546085045e-05 2.4458193537776959e-05 2.6455429117091209e-05 3.009577