<?xml version="1.0"?>
<VTKFile type="UnstructuredGrid" version="0.1" byte_order="LittleEndian">
<UnstructuredGrid>
<Piece NumberOfPoints="3918" NumberOfCells="1306">
<Points>
<DataArray type="Float64" NumberOfComponents="3" format="ascii">
2.199999999999999e+00 1.000000000000000e+00 0.000000000000000e+00 2.167042760209688e+00 9.180909330202516e-01 0.000000000000000e+00 2.276253312368741e+00 8.960026502048396e-01 0.000000000000000e+00 4.794660531865603e+00 4.928781786967001e-01 0.000000000000000e+00 4.895148782943732e+00 5.622595023726160e-01 0.000000000000000e+00 4.773700345920383e+00 5.924187786805324e-01 0.000000000000000e+00 2.543072460766750e+00 7.257064952909391e-01 0.000000000000000e+00 2.612778635682587e+00 6.379739460669237e-01 0.000000000000000e+00 2.649888912334054e+00 7.569619856190068e-01 0.000000000000000e+00 1.948052693999185e+00 1.289873040940654e-01 0.000000000000000e+00 1.894432874635162e+00 7.551835003504323e-02 0.000000000000000e+00 1.999999999995511e+00 0.000000000000000e+00 0.000000000000000e+00 4.558741850192379e+00 1.706710584301058e-01 0.000000000000000e+00 4.482003026509532e+00 2.394413792785933e-01 0.000000000000000e+00 4.451469977250477e+00 1.357957442429618e-01 0.000000000000000e+00 3.299999999999999e+00 1.000000000000000e+00 0.000000000000000e+00 3.204890379983837e+00 9.254368576810614e-01 0.000000000000000e+00 3.273830491511281e+00 8.834576202305108e-01 0.000000000000000e+00 3.299999999999999e+00 1.000000000000000e+00 0.000000000000000e+00 3.273830491511281e+00 8.834576202305108e-01 0.000000000000000e+00 3.353422182013107e+00 9.028315595988372e-01 0.000000000000000e+00 4.111703902366866e+00 1.331175536465074e-01 0.000000000000000e+00 4.099999999998633e+00 0.000000000000000e+00 0.000000000000000e+00 4.182764237453481e+00 8.084782043728693e-02 0.000000000000000e+00 4.699999999999545e+00 0.000000000000000e+00 0.000000000000000e+00 4.776755050008729e+00 9.373387207737824e-02 0.000000000000000e+00 4.690158205531358e+00 1.364814217295172e-01 0.000000000000000e+00 1.948052693999185e+00 1.289873040940654e-01 0.000000000000000e+00 1.999999999995511e+00 0.000000000000000e+00 0.000000000000000e+00 2.049999999995552e+00 8.978335458097943e-02 0.000000000000000e+00 2.612778635682587e+00 6.379739460669237e-01 0.000000000000000e+00 2.680790723483929e+00 5.770944853520404e-01 0.000000000000000e+00 2.721274941296599e+00 6.860745476515622e-01 0.000000000000000e+00 2.217157304231143e+00 1.490340955835976e-01 0.000000000000000e+00 2.263108527926066e+00 7.883543312226374e-02 0.000000000000000e+00 2.320771471773918e+00 1.774611341310380e-01 0.000000000000000e+00 6.201761285132973e-01 8.145180217066926e-01 0.000000000000000e+00 5.107672864112288e-01 8.169186336319382e-01 0.000000000000000e+00 5.291217175395199e-01 7.399324289248853e-01 0.000000000000000e+00 2.764640797973617e+00 6.197673077442869e-01 0.000000000000000e+00 2.721274941296599e+00 6.860745476515622e-01 0.000000000000000e+00 2.680790723483929e+00 5.770944853520404e-01 0.000000000000000e+00 3.000000000000007e-01 1.000000000000000e+00 0.000000000000000e+00 2.235202862591317e-01 8.887389633270458e-01 0.000000000000000e+00 3.153592145619369e-01 8.815404533065442e-01 0.000000000000000e+00 2.299999999999999e+00 1.000000000000000e+00 0.000000000000000e+00 2.199999999999999e+00 1.000000000000000e+00 0.000000000000000e+00 2.276253312368741e+00 8.960026502048396e-01 0.000000000000000e+00 1.299999999999999e+00 1.000000000000000e+00 0.000000000000000e+00 1.246238897717278e+00 9.001620782265900e-01 0.000000000000000e+00 1.325594839248253e+00 8.832813258746552e-01 0.000000000000000e+00 1.299999999999999e+00 1.000000000000000e+00 0.000000000000000e+00 1.325594839248253e+00 8.832813258746552e-01 0.000000000000000e+00 1.386478687610004e+00 9.220875103295796e-01 0.000000000000000e+00 3.099999999999999e+00 1.000000000000000e+00 0.000000000000000e+00 3.138079516399413e+00 8.908467724822530e-01 0.000000000000000e+00 3.204890379983837e+00 9.254368576810614e-01 0.000000000000000e+00 1.599999999996661e+00 0.000000000000000e+00 0.000000000000000e+00 1.679983210048711e+00 8.220201556683318e-02 0.000000000000000e+00 1.609545399082946e+00 1.308291592921435e-01 0.000000000000000e+00 1.061007011519329e+00 5.618772874050625e-01 0.000000000000000e+00 1.160572984923127e+00 6.015530474704378e-01 0.000000000000000e+00 1.050000000000000e+00 6.706367924525535e-01 0.000000000000000e+00 6.215262983536076e-01 7.328515730233995e-01 0.000000000000000e+00 6.201761285132973e-01 8.145180217066926e-01 0.000000000000000e+00 5.291217175395199e-01 7.399324289248853e-01 0.000000000000000e+00 1.948052693999185e+00 1.289873040940654e-01 0.000000000000000e+00 2.049999999995552e+00 8.978335458097943e-02 0.000000000000000e+00 2.057936946544583e+00 1.849235821189668e-01 0.000000000000000e+00 2.091091774288676e+00 8.874649005201438e-01 0.000000000000000e+00 1.981107049933336e+00 8.600018538720656e-01 0.000000000000000e+00 2.085258760309228e+00 8.052686384966041e-01 0.000000000000000e+00 1.039491394416145e+00 8.340298301149526e-01 0.000000000000000e+00 9.354088824890808e-01 8.828123294523768e-01 0.000000000000000e+00 9.137231126914012e-01 8.048617635747636e-01 0.000000000000000e+00 1.981107049933336e+00 8.600018538720656e-01 0.000000000000000e+00 1.996885229669902e+00 7.683000423456376e-01 0.000000000000000e+00 2.085258760309228e+00 8.052686384966041e-01 0.000000000000000e+00 2.299999999999999e+00 1.000000000000000e+00 0.000000000000000e+00 2.276253312368741e+00 8.960026502048396e-01 0.000000000000000e+00 2.395017918255099e+00 9.023368606738377e-01 0.000000000000000e+00 4.399999999999088e+00 0.000000000000000e+00 0.000000000000000e+00 4.443360971034338e+00 6.001006090376452e-02 0.000000000000000e+00 4.340464407462508e+00 1.058022966868348e-01 0.000000000000000e+00 7.543413513517198e-01 1.288879963162577e-01 0.000000000000000e+00 6.466910199083232e-01 1.799054750174742e-01 0.000000000000000e+00 6.626722243468293e-01 7.849715957809261e-02 0.000000000000000e+00 9.999999999992801e-02 0.000000000000000e+00 0.000000000000000e+00 2.066914384950196e-01 8.554607894793897e-02 0.000000000000000e+00 8.279903559142687e-02 8.279903559151081e-02 0.000000000000000e+00 3.431815931955504e-01 3.314386771104964e-01 0.000000000000000e+00 2.371857680100064e-01 3.586554844111011e-01 0.000000000000000e+00 2.478307344467225e-01 2.478307344464838e-01 0.000000000000000e+00 1.039491394416145e+00 8.340298301149526e-01 0.000000000000000e+00 1.035017143854235e+00 9.257730596464975e-01 0.000000000000000e+00 9.354088824890808e-01 8.828123294523768e-01 0.000000000000000e+00 1.763223103020597e+00 6.969213383069597e-01 0.000000000000000e+00 1.659764170257915e+00 7.783869792876411e-01 0.000000000000000e+00 1.641237689750194e+00 6.703960699373966e-01 0.000000000000000e+00 2.171230381509611e+00 6.460806590265337e-01 0.000000000000000e+00 2.235035871331497e+00 5.528935828550036e-01 0.000000000000000e+00 2.240765570563543e+00 6.710361137189144e-01 0.000000000000000e+00 3.099999999999999e+00 1.000000000000000e+00 0.000000000000000e+00 3.204890379983837e+00 9.254368576810614e-01 0.000000000000000e+00 3.199999999999998e+00 1.000000000000000e+00 0.000000000000000e+00 4.689375887502736e+00 8.629982390821114e-01 0.000000000000000e+00 4.559658010798574e+00 8.268398885804081e-01 0.000000000000000e+00 4.659699064592896e+00 7.795622692497817e-01 0.000000000000000e+00 2.217157304231143e+00 1.490340955835976e-01 0.000000000000000e+00 2.320771471773918e+00 1.774611341310380e-01 0.000000000000000e+00 2.244951071131736e+00 2.260199244934647e-01 0.000000000000000e+00 3.859396958574677e-01 4.484332494195724e-01 0.000000000000000e+00 2.998774732159264e-01 4.343088009374657e-01 0.000000000000000e+00 3.431815931955504e-01 3.314386771104964e-01 0.000000000000000e+00 1.948052693999185e+00 1.289873040940654e-01 0.000000000000000e+00 2.057936946544583e+00 1.849235821189668e-01 0.000000000000000e+00 1.949071218763063e+00 2.055183505669977e-01 0.000000000000000e+00 4.558741850192379e+00 1.706710584301058e-01 0.000000000000000e+00 4.451469977250477e+00 1.357957442429618e-01 0.000000000000000e+00 4.536544111235556e+00 7.547590122663222e-02 0.000000000000000e+00 2.764640797973617e+00 6.197673077442869e-01 0.000000000000000e+00 2.748586785039362e+00 5.211021237021853e-01 0.000000000000000e+00 2.861122426073405e+00 5.967442355315300e-01 0.000000000000000e+00 9.849196667091529e-01 7.457027191416240e-01 0.000000000000000e+00 1.039491394416145e+00 8.340298301149526e-01 0.000000000000000e+00 9.137231126914012e-01 8.048617635747636e-01 0.000000000000000e+00 2.171230381509611e+00 6.460806590265337e-01 0.000000000000000e+00 2.122199951799849e+00 5.850416005702397e-01 0.000000000000000e+00 2.235035871331497e+00 5.528935828550036e-01 0.000000000000000e+00 1.948411343815324e+00 5.977864372950021e-01 0.000000000000000e+00 1.831604818415202e+00 5.415700660643472e-01 0.000000000000000e+00 1.949496869330408e+00 5.032480558805372e-01 0.000000000000000e+00 9.555466748202026e-01 6.138712331357172e-01 0.000000000000000e+00 9.543842823432471e-01 5.002189144552502e-01 0.000000000000000e+00 1.061007011519329e+00 5.618772874050625e-01 0.000000000000000e+00 3.211383243381871e+00 8.238513614296178e-01 0.000000000000000e+00 3.287305785442545e+00 7.342276537100590e-01 0.000000000000000e+00 3.314972634714863e+00 8.093336828947851e-01 0.000000000000000e+00 1.399999999999999e+00 1.000000000000000e+00 0.000000000000000e+00 1.463012078585596e+00 8.920964591701215e-01 0.000000000000000e+00 1.500000000000000e+00 1.000000000000000e+00 0.000000000000000e+00 3.699999999998025e+00 0.000000000000000e+00 0.000000000000000e+00 3.799999999998176e+00 0.000000000000000e+00 0.000000000000000e+00 3.736690596671465e+00 1.064195787014745e-01 0.000000000000000e+00 3.099999999997114e+00 0.000000000000000e+00 0.000000000000000e+00 3.199999999997265e+00 0.000000000000000e+00 0.000000000000000e+00 3.138143461708514e+00 1.082496513635721e-01 0.000000000000000e+00 3.287305785442545e+00 7.342276537100590e-01 0.000000000000
[...]
<PointData Scalars="A_conc," Vectors="" Tensors="">
<DataArray type="Float64" Name="A_conc" format="ascii">
1.795618369789946e-02 1.671013278296419e-02 2.125141135819108e-02 4.227255092711902e-01 4.507949223421351e-01 4.168931538515472e-01 3.125790927039044e-02 3.605698547940879e-02 3.872987177828950e-02 1.151772693779917e-02 1.017080794864669e-02 1.328130167915750e-02 3.585064137401388e-01 3.375882969956986e-01 3.293131286629309e-01 9.823716334639987e-02 8.452463514972069e-02 9.435240786441747e-02 9.723118373630120e-02 9.332254485278230e-02 1.052616466368027e-01 2.446200991164442e-01 2.418182312680710e-01 2.624224783431829e-01 3.965691770152133e-01 4.179185459328816e-01 3.938330990348367e-01 1.114679960634257e-02 1.293165114249106e-02 1.424621567714838e-02 3.495456066635268e-02 4.006683088539836e-02 4.325642408101743e-02 1.812316899015779e-02 2.010185743815553e-02 2.275100991344936e-02 8.881496172204368e-04 6.376325030714725e-04 6.744284954297182e-04 4.607337281735815e-02 4.251956392991962e-02 3.929489537105543e-02 4.612425999940326e-04 3.193869278290816e-04 4.371728301585773e-04 2.190227213381611e-02 1.751328028838578e-02 2.085536820682442e-02 3.443558342829466e-03 2.956591843037370e-03 3.690779246960054e-03 3.314947915976233e-03 3.566465062599066e-03 4.187270995773455e-03 7.331214874741164e-02 7.807101493860986e-02 8.679416797756538e-02 6.089069617709241e-03 7.293095817260231e-03 6.059061946386077e-03 2.057668353017916e-03 2.711068594837060e-03 1.991117683472798e-03 8.716318880582759e-04 8.642625837390345e-04 6.446606857203278e-04 1.102431892154842e-02 1.415613511373877e-02 1.439208773477724e-02 1.529234376472405e-02 1.174104376079266e-02 1.513223326991215e-02 2.130961192238258e-03 1.586758346251385e-03 1.495197112370545e-03 1.204815229922189e-02 1.253168506167152e-02 1.532354048865607e-02 2.124248376190222e-02 2.018118784319694e-02 2.590763501221548e-02 3.162703872407292e-01 3.278570452842760e-01 3.003367940191493e-01 1.161055488055699e-03 8.471882334583972e-04 8.881861289266392e-04 2.985682683363200e-04 3.616407227663148e-04 2.422528095533162e-04 4.913150769800918e-04 3.516249615374913e-04 3.638346016992395e-04 2.077651409108492e-03 2.059566001172114e-03 1.515227277689887e-03 8.641195183495076e-03 6.701415104865193e-03 6.400584607035947e-03 1.683831184200576e-02 1.941943891683685e-02 1.973007311822391e-02 7.283434258529585e-02 8.640029874935605e-02 8.597431557547312e-02 3.938766291964368e-01 3.580468111138640e-01 3.856715961627331e-01 1.820736899788381e-02 2.278480437312031e-02 1.942526093103578e-02 5.272042515423468e-04 3.987279301222742e-04 4.643413781666253e-04 1.129839802772432e-02 1.460467336785374e-02 1.142095459338570e-02 3.583835129435753e-01 3.291471301413709e-01 3.523441681141525e-01 4.507836037324417e-02 4.357534570295234e-02 5.363150250945838e-02 1.818044025028791e-03 2.116163671877806e-03 1.457291656444878e-03 1.721318234150880e-02 1.533789472160941e-02 1.975828344080324e-02 1.188571389488461e-02 8.852210984100630e-03 1.190938284253357e-02 1.650280896318590e-03 1.636624041845284e-03 2.216984243385984e-03 8.524904783059416e-02 9.609885804781101e-02 1.002155848563773e-01 3.982214957321517e-03 4.723969274115817e-03 5.206464013339701e-03 1.585350808847104e-01 1.792452636079374e-01 1.656076803236593e-01 7.367841793534108e-02 8.656639502137506e-02 7.785448082404492e-02 9.691285868961853e-02 8.614082158445342e-02 8.323886338916632e-02 3.938071903465962e-01 4.289934121189286e-01 3.985760675455904e-01 1.139352760500176e-03 1.152464853385580e-03 8.142305434300057e-04 4.065372115557508e-02 4.903085930850879e-02 4.403149847600973e-02 3.939475795916061e-01 3.701849256296347e-01 3.581612560925614e-01 3.966981681361684e-01 3.939624937226470e-01 3.780757858878449e-01 4.226635118938947e-01 4.501811976174810e-01 4.507435946417513e-01 1.911129354422864e-03 2.658352953878436e-03 2.654861224569120e-03 2.452732937350240e-01 2.284873786170613e-01 2.424769545805023e-01 2.901028298774069e-01 3.037227480558164e-01 3.174664954385393e-01 2.821302679642144e-04 3.881335334987446e-04 3.480306365722849e-04 5.088812751127539e-02 6.101361608068470e-02 6.033470360226106e-02 2.543887154282006e-01 2.300815263542866e-01 2.555092313940950e-01 1.342598217728069e-01 1.157608304468646e-01 1.352553336689035e-01 6.497747505589456e-03 8.468421080306434e-03 6.473580577205628e-03 1.575822038296748e-03 2.115162503072369e-03 2.171231942057910e-03 1.033231308163242e-01 1.030506562573791e-01 1.197890949909898e-01 1.689482887126121e-01 1.482932608434351e-01 1.691473865939679e-01 4.481119495321677e-03 5.804975520667897e-03 4.441689643820380e-03 3.937172457718772e-01 4.178281799939977e-01 4.289358337647385e-01 2.905937606581473e-01 2.784729865407110e-01 3.041967803665525e-01 7.895118505088511e-04 5.868764674723183e-04 5.563490296445890e-04 2.985679404749256e-02 2.279481245553228e-02 2.827596447227328e-02 1.666951917008479e-02 1.699359783356299e-02 1.358296150714660e-02 4.111284588400460e-03 3.958515383699494e-03 4.843990477912908e-03 1.647424073307354e-01 1.784387537446144e-01 1.843218996716936e-01 8.575852084534832e-02 8.930072499504720e-02 7.697441318702150e-02 4.212953452578415e-03 3.275507108452384e-03 3.367541606625286e-03 8.539723446830601e-02 1.002311792396253e-01 9.741747929225826e-02 1.794838486697158e-01 2.022033089530280e-01 1.979209028250300e-01 7.567652867981869e-04 7.723690109921989e-04 5.322691243916062e-04 2.076507828473821e-02 2.550925098162223e-02 2.585726822782490e-02 7.903094515693156e-02 9.556187859445803e-02 8.204772866129002e-02 3.003721006782597e-02 2.501157171944539e-02 2.315281268065298e-02 5.271787115037097e-02 5.319939400182716e-02 4.297996411951792e-02 1.524471380689993e-01 1.435562535974151e-01 1.327528608398046e-01 3.258586067307479e-03 4.268349318780255e-03 4.119721947471808e-03 8.447532268543394e-02 8.623236356454417e-02 9.816077303353050e-02 1.772128654633183e-01 1.802301962734958e-01 1.985963512530225e-01 8.087578189663647e-03 6.437035519059073e-03 5.959735086530391e-03 6.880780176229921e-03 5.286945768114032e-03 5.283045841449418e-03 5.952550944973282e-02 7.151471197103661e-02 7.063454110663782e-02 1.320675271639864e-01 1.552301775349129e-01 1.527539071068642e-01 2.530497353817558e-01 2.842365972064286e-01 2.811002839958410e-01 1.469673644221149e-01 1.259892753640726e-01 1.360080807452265e-01 9.031288175877035e-02 9.520395147086559e-02 7.844530517563404e-02 6.283817557581417e-03 6.253486364114074e-03 5.295877374013932e-03 1.470172693467492e-01 1.335734865432148e-01 1.261388729106087e-01 2.749084443045954e-01 2.545419003243153e-01 2.441249623503128e-01 3.188035564200755e-02 3.044014359813280e-02 3.662129808534839e-02 2.902371954948799e-01 3.166839151003760e-01 3.007685907365675e-01 1.664518970545469e-02 1.605661823921996e-02 1.302062779834126e-02 5.500736777217613e-03 7.033431207813683e-03 6.478278804348293e-03 6.822077513504493e-03 7.757762828476050e-03 6.258541990040134e-03 1.337307256345633e-01 1.444842061598623e-01 1.276838721866948e-01 3.348475929286326e-03 4.401885339786403e-03 4.115433076100081e-03 1.958319129841031e-01 1.744604413153409e-01 1.776743819418246e-01 2.096391696585176e-03 1.651560684283957e-03 1.572553103181180e-03 3.001514251987060e-01 3.277567887750243e-01 3.298841777180133e-01 4.223978668956706e-03 3.261679771406607e-03 3.471535018007237e-03 2.004987045597273e-01 1.951095433908527e-01 1.768834822764699e-01 7.219754972749819e-04 7.059544128940526e-04 9.701632138140103e-04 3.612503722606230e-04 3.205305949832107e-04 2.780320968651142e-04 2.501818039535604e-04 2.922328801013030e-04 3.339273672209750e-04 8.486004034743613e-03 8.316117726415877e-03 6.492998767861195e-03 8.819874646006495e-04 7.489769443744552e-04 6.254699901752607e-04 2.748024646851552e-01 2.439234895040820e-01 2.618265712491017e-01 4.790139205522693e-04 3.974245248270407e-04 3.151719378820296e-04 5.067716965270800e-04 4.425833165315244e-04 5.751904583901554e-04 3.959353534236203e-03 3.027689324523495e-03 3.152281652670094e-03 3.033647302286763e-01 3.123920876039569e-01 3.291859675664727e-01 3.848886306693028e-03 3.027028329488996e-03 4.175134907298803e-03 9.054397249809963e-03 1.198719611681544e-02 9.520244599748283e-03 2.784872009242632e-02 2.643568400169933e-02 3.110004013928669e-02 3.402088728829844e-04 3.456582353850919e-04 4.411163604995579e-04 3.037769906805746e-01 2.913199740996133e-01 3.127968865122763e-01 1.572671038281637e-03 1.363663029359546e-03 1.148502414078866e-03 3.790027467253971e-02 3.519451970194525e-02 4.338864228543347e-02 1.727727698084440e-03 2.065329784860752e-03 1.474942214733408e-03 2.707293481276403e-01 2.586779821507627e-01 2.880032671590007e-01 2.334183220098803e-01 2.114912580985601e-01 2.069621966436415e-01 8.788895933414820e-02 7.844850553293846e-02 9.152091202201496e-02 3.848331174304600e-03 2.921292039544038e-03 3.592126830127470e-03 1.890876666431733e-01 2.094008122029961e-01 1.938713264988706e-01 2.064051244609136e-01 2.291090415539157e-01 2.329638229083654e-01 1.173406014918265e-01 1.199944127487036e-01 1.021927762077747e-01 9.157807017441881e-04 9.523033165690284e-04 6.778136716381659e-04 4.387546800227021e-04 4.150278115355476e-04 5.110864773639447e-04 4.507697460734365e-01 4.360696477211606e-01 4.168493776934005e-01 1.595640799671635e-01 1.708012276431301e-01 1.477612371681009e-01 1.186086177983710e-01 1.034417738458986e-01 1.094372949542410e-01 1.575914296452576e-03 1.156912267314749e-03 1.323739340012384e-03 3.198731849432655e-01 2.904894684791625e-01 3.035449941258184e-01 8.022820317503423e-03 5.873490514585378e-03 7.111845790992017e-03 8.177763194436801e-03 7.763214593102840e-03 1.016118421335147e-02 6.850782837457747e-02 5.915703462573635e-02 5.952664969847041e-02 6.047712256653084e-02 6.011103097206463e-02 5.274185575057783e-02 1.671243060418776e-01 1.811207917124277e-01 1.893962029755991e-01 4.759519301920683e-03 4.006948608014883e-03 3.614006722137678e-03 1.051239328127951e-01 8.984605321249123e-02 9.524448222521349e-02 1.802931656226859e-01 1.947064802389408e-01 1.885993166656971e-01 4.137061791528051e-03 3.466105294487435e-03 3.748782906316041e-03 9.613333525884822e-02 9.076059496565819e-02 8.699614540788994e-02 1.022069161693093e-01 1.180982281943159e-01 1.192150573234898e-01 1.697480030782004e-01 1.490993749994288e-01 1.495903528152208e-01 4.297371587711124e-03 5.701654523505495e-03 5.675821204913324e-03 5.973025764171729e-02 5.888903156031339e-02 4.965287664113834e-02 2.071224190152878e-03 1.767974872138505e-03 1.466205888944608e-03 2.586494329907729e-01 2.724669342436715e-01 2.879461809383859e-01 9.232490923958513e-03 1.177242260724352e-02 1.189332539332203e-02 6.151716725347531e-02 5.158578720961197e-02 5.131245600267591e-02 3.612426172595161e-03 3.074484185624086e-03 2.750554186060471e-03 2.204199109544755e-01 1.973307781339361e-01 2.078316460512120e-01 2.387390557385557e-02 2.698971765570220e-02 2.838885655274028e-02 2.704250369174722e-02 3.451527761009561e-02 3.226206589683873e-02 1.681401593024437e-02 1.328042797807847e-02 1.367028913698794e-02 5.516102862814072e-04 4.539480415140787e-04 3.798185502522220e-04 4.041387614761251e-04 4.767884403030395e-04 3.595168667079370e-04 9.302415326807395e-03 1.111856098239783e-02 1.270814534328125e-02 9.201769310464770e-03 1.267807565463795e-02 1.178454410117857e-02 6.206800751166115e-02 5.127336901482508e-02 5.181063633959844e-02 1.467917435653740e-03 1.403153063269106e-03 1.018099725846633e-03 4.793561213648196e-04 3.471594794218183e-04 4.701474867741686e-04 6.164326118591594e-02 5.105315366512365e-02 6.018468971453753e-02 5.169229708603360e-02 5.337598142836061e-02 6.063375506466660e-02 1.046695660424685e-03 1.210275571287669e-03 1.419525666677772e-03 1.351823678336351e-01 1.157946098178515e-01 1.200428685705255e-01 2.550069373079855e-01 2.279795524434925e-01 2.341970967945252e-01 2.723541165227356e-02 3.048569755014804e-02 3.461963634617519e-02 1.833895408797465e-02 2.165901930993065e-02 1.842874756770125e-02 2.505415302371385e-03 2.458372699060022e-03 3.374817184599806e-03 1.344583009882614e-01 1.192268127735172e-01 1.344767171829051e-01 2.544979807265962e-01 2.336386048109056e-01 2.551458286663840e-01 3.487038931032973e-01 3.735836050590862e-01 3.508874078200510e-01 8.416431047087653e-03 1.014767913625161e-02 9.843874684287345e-03 1.883438131955068e-02 1.892292749668502e-02 1.559406922227956e-02 1.719608292949129e-03 2.089047805560715e-03 2.265281509364675e-03 1.727554573602134e-03 2.267956430572840e-03 2.032938887054044e-03 9.573008140895605e-03 9.880557588279475e-03 1.137552833799843e-02 3.858667729846710e-02 3.726940555091557e-02 3.186082676254007e-02 3.414371281494165e-04 4.857630267136526e-04 4.217282522737709e-04 1.903339549055502e-02 1.654285758444747e-02 1.621439748870051e-02 2.083666276523096e-04 2.082494620454207e-04 2.797667918961640e-04 4.241702180470456e-03 4.760826610933572e-03 3.608862607999828e-03 7.377010889606598e-04 9.257824162760843e-04 7.061168162639362e-04 1.339997682863324e-03 1.632930735758847e-03 1.238167114723036e-03 7.833068636305749e-04 5.946503554606159e-04 6.303173568534906e-04 2.405071581309892e-03 2.882590694029767e-03 3.167539657519685e-03 1.068906369512015e-03 1.441087998111700e-03 1.082247804843100e-03 2.162478178663961e-02 2.519779091976665e-02 1.998699093040925e-02 1.972262816863215e-02 2.505556820771365e-02 2.401709551103093e-02 4.211339733704600e-04 3.772612482375386e-04 3.327727833703555e-04 6.278790207017926e-03 8.342574920925336e-03 8.123195753547859e-03 4.800166879401642e-01 4.800166879401640e-01 4.501048518963021e-01 1.083610395584977e-02 1.123435432123078e-02 1.392995338387243e-02 1.358499363112967e-01 1.165971904030235e-01 1.187023406849829e-01 2.559389835690393e-01 2.306262323043339e-01 2.319939142778438e-01 7.594460135788151e-03 9.507210627056499e-03 1.009371451041311e-02 6.774697755713528e-03 5.230873394941099e-03 6.661789623445449e-03 1.062080891437631e-02 1.333859394748539e-02 1.027639733343201e-02 3.579144522655338e-01 3.783211426980299e-01 3.796651489329279e-01 1.583053486039232e-03 2.177766302144349e-03 2.112687545781562e-03 3.893701563599512e-02 3.233324137309156e-02 3.163053204550468e-02 1.205007710232129e-01 1.069666313304336e-01 1.027668498180509e-01 2.067157581443113e-02 1.587962089785682e-02 1.830027536759876e-02 7.193539226679539e-04 6.365092869569099e-04 5.353990121470183e-04 1.171385210042352e-02 9.395993757964315e-03 1.185704384646252e-02 3.588887760956255e-04 2.875313679331861e-04 3.643513654826569e-04 1.205870588007369e-02 9.695594713588860e-03 9.098309073036381e-03 5.463996299120485e-04 3.753688044546429e-04 4.743110277341569e-04 8.844776797554935e-02 8.071073949327152e-02 7.907366101052010e-02 7.191913447496964e-02 7.996491469505530e-02 8.159194817146843e-02 3.379546635974938e-01 3.131646450829000e-01 3.296850823716861e-01 6.250888720311619e-04 5.290216756993411e-04 6.602223552314868e-04 1.284713130026093e-02 1.597772062220357e-02 1.331605351482670e-02 1.410561206881311e-02 1.590262372567681e-02 1.272252426655401e-02 4.800352841012067e-01 4.506937412265918e-01 4.501312399877889e-01 1.190537612201921e-03 1.598977095940274e-03 1.688116472876208e-03 1.389054036627358e-02 1.365071793582764e-02 1.692460117798343e-02 5.217952101678001e-02 4.697428006891104e-02 4.339236045902558e-02 7.601404918735125e-04 6.011501961722690e-04 8.153636868172066e-04 7.181044916638110e-04 7.744833639173759e-04 9.583125158363983e-04 1.399527864836574e-03 1.299499425571214e-03 1.093123811475762e-03 3.251944430389504e-04 4.298072333580757e-04 4.471359692390551e-04 1.273171106542930e-02 9.569408452548410e-03 1.097299190777432e-02 1.098242790380274e-01 1.175725246818373e-01 1.266671242962911e-01 1.407551765098932e-01 1.488752783462118e-01 1.602225019582522e-01 1.699065836362107e-01 1.586090138953984e-01 1.757932779659155e-01 1.103494323708169e-01 1.043840902306550e-01 9.855597481753282e-02 4.844356208085878e-04 6.675674064770385e-04 6.582630859592024e-04 5.150656663226236e-02 5.430557772693626e-02 4.624564482871546e-02 1.672682749493567e-01 1.894132090721838e-01 1.781931493607138e-01 4.754089562815797e-03 3.602288866413995e-03 4.053857514665252e-03 1.051109519152749e-01 9.563606216301344e-02 8.976718820043472e-02 6.805703288906876e-03 6.749923455758863e-03 5.112250149590597e-03 5.973641113874467e-02 6.028375665530082e-02 7.130646369944491e-02 1.338006508086398e-01 1.330022730754742e-01 1.535190320453828e-01 2.546427167127576e-01 2.536007665688984e-01 2.815706868511823e-01 5.234930647729358e-02 4.504093116212991e-02 5.288253051422266e-02 2.914297150383927e-03 2.203318364141710e-03 2.522610439284231e-03 4.829675871957406e-02 5.207890771803229e-02 4.324266545885189e-02 5.260601896596440e-03 6.802977741521814e-03 6.779220241176998e-03 1.997633882974014e-03 2.667468811146752e-03 2.054980710655904e-03 7.074733255099994e-02 5.914263427215902e-02 5.982901676783189e-02 1.514939693246418e-01 1.328593819845564e-01 1.338614225575191e-01 2.535189041563804e-01 2.546431114921653e-01 2.791249576684297e-01 2.664704295225369e-01 2.620620859913774e-01 2.413534626737560e-01 8.998156449275582e-04 7.088835632698092e-04 9.392519571547412e-04 2.218685766437855e-02 1.929602042263223e-02 1.898234458451859e-02 5.298444598076876e-03 4.598743550316239e-03 4.070007723167866e-03 4.881756492285010e-02 4.043870307708305e-02 4.437339627003827e-02 8.936796336804682e-03 7.553298530350711e-03 7.466472375455261e-03 1.999795316033035e-02 1.870531637533786e-02 1.623720253862873e-02 1.605304627507760e-01 1.487758658683256e-01 1.426943115895787e-01 1.313180695946360e-01 1.437818013812504e-01 1.498335143741957e-01 5.888127197873887e-04 4.238911565160600e-04 5.725654248923484e-04 7.681683318928509e-03 7.150858803112715e-03 5.935646434164376e-03 1.267128610283679e-02 1.180841603598694e-02 9.458257308710364e-03 4.752858119778493e-04 4.722302282539066e-04 6.206292274681073e-04 1.507150894153383e-02 1.665910217661680e-02 1.909404697437176e-02 4.441206855817886e-02 5.319157671610315e-02 5.121235631896546e-02 3.865866690846921e-03 4.603702835463592e-03 4.983495397618379e-03 3.727550031544725e-03 3.466703047048023e-03 4.132968477756593e-03 1.899032008565578e-01 1.946752744737808e-01 1.802368061391387e-01 8.697747326168674e-02 9.063599906231153e-02 9.609988938316652e-02 4.146743865003835e-02 4.480412365649881e-02 3.701112567021657e-02 1.094530203640600e-02 8.562650823176254e-03 9.989738314516295e-03 3.849089962691824e-02 3.089543889653023e-02 3.551982521879170e-02 4.973152395801085e-04 5.479436725402411e-04 6.680487422016390e-04 3.380430589564655e-04 3.797547815722133e-04 4.356120106449044e-04 3.622201627258523e-04 4.782062527396944e-04 4.190955134716091e-04 3.138716894393841e-03 3.322624876302068e-03 2.373705045338767e-03 1.884506745493425e-01 2.125224712838081e-01 2.089569624048415e-01 9.571748879170911e-03 1.207848530846004e-02 9.129576272480160e-03 6.895939515652029e-04 7.830612341324045e-04 6.061295300293962e-04 3.194587947766919e-01 3.031070587332842e-01 3.295724552944937e-01 1.780453300414983e-03 1.731803669355747e-03 2.144605872764309e-03 8.921598501746221e-04 1.017071386281473e-03 7.418927411136121e-04 1.016120752372306e-03 9.270751134145131e-04 7.358287254847313e-04 1.024794910856589e-01 1.191677451134753e-01 1.176730640270651e-01 1.695134118178668e-01 1.509719037585355e-01 1.490941166402816e-01 4.332352787674252e-03 5.630055539122394e-03 5.706200056226777e-03 3.593091492978111e-03 4.735796775368367e-03 4.011770051718973e-03 1.296615340818967e-02 1.570150492302153e-02 1.644641605630348e-02 1.911768310264992e-02 1.593703747580367e-02 1.518045328321434e-02 7.429844204853596e-02 6.908250066139851e-02 7.902451667367678e-02 1.945721672716192e-04 2.632340801848292e-04 2.984126461810711e-04 6.850006887338730e-03 5.852164304307864e-03 5.198206686632983e-03 4.578895652307803e-04 4.925006545295609e-04 3.752901042906541e-04 4.471979401366300e-02 4.560006476095962e-02 5.283753671558664e-02 1.797201175773905e-02 2.226434142595756e-02 2.137631528728813e-02 5.994528560882240e-02 6.623897243247884e-02 7.164282314752105e-02 1.069899183690628e-02 1.38