<?xml version="1.0"?>
<VTKFile type="UnstructuredGrid" version="0.1" byte_order="LittleEndian">
<UnstructuredGrid>
<Piece NumberOfPoints="3918" NumberOfCells="1306">
<Points>
<DataArray type="Float64" NumberOfComponents="3" format="ascii">
0 0 0 0.099999999999928008 0 0 0.082799035591426873 0.082799035591510806 0 0 0 0 0.082799035591426873 0.082799035591510806 0 0 0.10000000000041601 0 0.099999999999928008 0 0 0.20669143849501961 0.085546078947938975 0 0.082799035591426873 0.082799035591510806 0 0.20669143849501961 0.085546078947938975 0 0.140351188660986 0.16130415108589741 0 0.082799035591426873 0.082799035591510806 0 0.082799035591426873 0.082799035591510806 0 0.140351188660986 0.16130415108589741 0 0.066361468125430589 0.15903440181097661 0 0.082799035591426873 0.082799035591510806 0 0.066361468125430589 0.15903440181097661 0 0 0.10000000000041601 0 0 0.20000000000083221 0 0 0.10000000000041601 0 0.066361468125430589 0.15903440181097661 0 0 0.20000000000083221 0 0.066361468125430589 0.15903440181097661 0 0.089078158003765312 0.2493007687782936 0 0 0.20000000000083221 0 0.089078158003765312 0.2493007687782936 0 0 0.30000000000124832 0 0 0.30000000000124832 0 0.089078158003765312 0.2493007687782936 0 0.0632094674441709 0.3449112819864934 0 0.13897501191807771 0.34545639364066222 0 0.089078158003765312 0.2493007687782936 0 0.17318221359491059 0.27409688392309489 0 0.089078158003765312 0.2493007687782936 0 0.140351188660986 0.16130415108589741 0 0.17318221359491059 0.27409688392309489 0 0.089078158003765312 0.2493007687782936 0 0.066361468125430589 0.15903440181097661 0 0.140351188660986 0.16130415108589741 0 0.21725788110387281 0.17316968768743621 0 0.24783073444672249 0.24783073444648379 0 0.17318221359491059 0.27409688392309489 0 0.21725788110387281 0.17316968768743621 0 0.17318221359491059 0.27409688392309489 0 0.140351188660986 0.16130415108589741 0 0.2371857680100064 0.35865548441110112 0 0.17318221359491059 0.27409688392309489 0 0.24783073444672249 0.24783073444648379 0 0.34318159319555042 0.3314386771104964 0 0.24783073444672249 0.24783073444648379 0 0.33604819894646598 0.23280286076243209 0 0.29145143692666958 0.13500804559578439 0 0.24783073444672249 0.24783073444648379 0 0.21725788110387281 0.17316968768743621 0 0.29145143692666958 0.13500804559578439 0 0.33604819894646598 0.23280286076243209 0 0.24783073444672249 0.24783073444648379 0 0.20669143849501961 0.085546078947938975 0 0.29145143692666958 0.13500804559578439 0 0.21725788110387281 0.17316968768743621 0 0.20669143849501961 0.085546078947938975 0 0.21725788110387281 0.17316968768743621 0 0.140351188660986 0.16130415108589741 0 0.099999999999928008 0 0 0.19999999999983389 0 0 0.20669143849501961 0.085546078947938975 0 0.29999999999973409 0 0 0.20669143849501961 0.085546078947938975 0 0.19999999999983389 0 0 0.29999999999973409 0 0 0.29145143692666958 0.13500804559578439 0 0.20669143849501961 0.085546078947938975 0 0.29999999999973409 0 0 0.35933948296838258 0.073809900849860513 0 0.29145143692666958 0.13500804559578439 0 0.39999999999966429 0 0 0.35933948296838258 0.073809900849860513 0 0.29999999999973409 0 0 0.40428440976105728 0.1643886070295453 0 0.29145143692666958 0.13500804559578439 0 0.35933948296838258 0.073809900849860513 0 0.43504744109702559 0.077628892606360606 0 0.40428440976105728 0.1643886070295453 0 0.35933948296838258 0.073809900849860513 0 0.40428440976105728 0.1643886070295453 0 0.43504744109702559 0.077628892606360606 0 0.50264032148191051 0.12292784096123539 0 0.39999999999966429 0 0 0.49999999999959438 0 0 0.43504744109702559 0.077628892606360606 0 0.39999999999966429 0 0 0.43504744109702559 0.077628892606360606 0 0.35933948296838258 0.073809900849860513 0 0.49999999999959438 0 0 0.50264032148191051 0.12292784096123539 0 0.43504744109702559 0.077628892606360606 0 0.49999999999959438 0 0 0.57505385014294308 0.072457888465917331 0 0.50264032148191051 0.12292784096123539 0 0.49999999999959438 0 0 0.59999999999951659 0 0 0.57505385014294308 0.072457888465917331 0 0.59999999999951659 0 0 0.66267222434682926 0.078497159578092612 0 0.57505385014294308 0.072457888465917331 0 0.57505385014294308 0.072457888465917331 0 0.64669101990832323 0.1799054750174742 0 0.5565830077206213 0.19095699352548859 0 0.57505385014294308 0.072457888465917331 0 0.5565830077206213 0.19095699352548859 0 0.50264032148191051 0.12292784096123539 0 0.49255105193724569 0.22337579986912359 0 0.5565830077206213 0.19095699352548859 0 0.58612580217118482 0.27813894450229909 0 0.49255105193724569 0.22337579986912359 0 0.50264032148191051 0.12292784096123539 0 0.5565830077206213 0.19095699352548859 0 0.64669101990832323 0.1799054750174742 0 0.58612580217118482 0.27813894450229909 0 0.5565830077206213 0.19095699352548859 0 0.49272830291620878 0.32528628960011152 0 0.49255105193724569 0.22337579986912359 0 0.58612580217118482 0.27813894450229909 0 0.49255105193724569 0.22337579986912359 0 0.49272830291620878 0.32528628960011152 0 0.41589935411558732 0.26752529264016389 0 0.49255105193724569 0.22337579986912359 0 0.41589935411558732 0.26752529264016389 0 0.40428440976105728 0.1643886070295453 0 0.40428440976105728 0.1643886070295453 0 0.50264032148191051 0.12292784096123539 0 0.49255105193724569 0.22337579986912359 0 0.33604819894646598 0.23280286076243209 0 0.40428440976105728 0.1643886070295453 0 0.41589935411558732 0.26752529264016389 0 0.40428440976105728 0.1643886070295453 0 0.33604819894646598 0.23280286076243209 0 0.29145143692666958 0.13500804559578439 0 0.33604819894646598 0.23280286076243209 0 0.41589935411558732 0.26752529264016389 0 0.34318159319555042 0.3314386771104964 0 0.38593969585746768 0.44843324941957241 0 0.34318159319555042 0.3314386771104964 0 0.42544665781957403 0.3726599289372452 0 0.38593969585746768 0.44843324941957241 0 0.29987747321592639 0.43430880093746571 0 0.34318159319555042 0.3314386771104964 0 0.38593969585746768 0.44843324941957241 0 0.42544665781957403 0.3726599289372452 0 0.47711113382803011 0.43513410852522788 0 0.47711113382803011 0.43513410852522788 0 0.42544665781957403 0.3726599289372452 0 0.49272830291620878 0.32528628960011152 0 0.42544665781957403 0.3726599289372452 0 0.41589935411558732 0.26752529264016389 0 0.49272830291620878 0.32528628960011152 0 0.42544665781957403 0.3726599289372452 0 0.34318159319555042 0.3314386771104964 0 0.41589935411558732 0.26752529264016389 0 0.56509579243166053 0.39588847936247551 0 0.47711113382803011 0.43513410852522788 0 0.49272830291620878 0.32528628960011152 0 0.56509579243166053 0.39588847936247551 0 0.58612580217118482 0.27813894450229909 0 0.65823561246403328 0.35502292901158627 0 0.56509579243166053 0.39588847936247551 0 0.49272830291620878 0.32528628960011152 0 0.58612580217118482 0.27813894450229909 0 0.56509579243166053 0.39588847936247551 0 0.64897033023755402 0.45530630145656431 0 0.55763912874459476 0.49619993861770217 0 0.56509579243166053 0.39588847936247551 0 0.65823561246403328 0.35502292901158627 0 0.64897033023755402 0.45530630145656431 0 0.56509579243166053 0.39588847936247551 0 0.55763912874459476 0.49619993861770217 0 0.47711113382803011 0.43513410852522788 0 0.55763912874459476 0.49619993861770217 0 0.45232393232070839 0.53082724112931345 0 0.47711113382803011 0.43513410852522788 0 0.55763912874459476 0.49619993861770217 0 0.56379254693201075 0.58472273515948836 0 0.45232393232070839 0.53082724112931345 0 0.56379254693201075 0.58472273515948836 0 0.55763912874459476 0.49619993861770217 0 0.66278242936710119 0.53985356489900171 0 0.64897033023755402 0.45530630145656431 0 0.66278242936710119 0.53985356489900171 0 0.55763912874459476 0.49619993861770217 0 0.65500944633069913 0.60601350811213128 0 0.59670004617370476 0.65981579440137683 0 0.56379254693201075 0.58472273515948836 0 0.56379254693201075 0.58472273515948836 0 0.46433624429412901 0.61260020600107856 0 0.45232393232070839 0.53082724112931345 0 0.5174764925733939 0.65338828204098198 0 0.46433624429412901 0.61260020600107856 0 0.56379254693201075 0.58472273515948836 0 0.38240158409674341 0.60644575028138747 0 0.34793494568226019 0.52426775179830853 0 0.45232393232070839 0.53082724112931345 0 0.38240158409674341 0.60644575028138747 0 0.45232393232070839 0.53082724112931345 0 0.46433624429412901 0.61260020600107856 0 0.38593969585746768 0.44843324941957241 0 0.45232393232070839 0.53082724112931345 0 0.34793494568226019 0.52426775179830853 0 0.38593969585746768 0.44843324941957241 0 0.47711113382803011 0.43513410852522788 0 0.45232393232070839 0.53082724112931345 0 0.38593969585746768 0.44843324941957241 0 0.34793494568226019 0.52426775179830853 0 0.29987747321592639 0.43430880093746571 0 0.27661118526457179 0.58730386222759956 0 0.38240158409674341 0.60644575028138747 0 0.32437633398017029 0.65970549827478953 0 0.27661118526457179 0.58730386222759956 0 0.34793494568226019 0.52426775179830853 0 0.38240158409674341 0.60644575028138747 0 0.27661118526457179 0.58730386222759956 0 0.1946526892501724 0.54636184660733622 0 0.27220668248394869 0.50912429725145214 0 0.27661118526457179 0.58730386222759956 0 0.16324260003398389 0.62262730759772122 0 0.1946526892501724 0.54636184660733622 0 0.12353277228144981 0.51086097771927308 0 0.1946526892501724 0.54636184660733622 0 0.16324260003398389 0.62262730759772122 0 0.12353277228144981 0.51086097771927308 0 0.21928696632013719 0.4676461135047027 0 0.1946526892501724 0.54636184660733622 0 0.1946526892501724 0.54636184660733622 0 0.21928696632013719 0.4676461135047027 0 0.27220668248394869 0.50912429725145214 0 0.29987747321592639 0.43430880093746571 0 0.27220668248394869 0.50912429725145214 0 0.21928696632013719 0.4676461135047027 0 0.27661118526457179 0.58730386222759956 0 0.27220668248394869 0.50912429725145214 0 0.34793494568226019 0.52426775179830853 0 0.34793494568226019 0.52426775179830853 0 0.27220668248394869 0.50912429725145214 0 0.29987747321592639 0.43430880093746571 0 0.2371857680100064 0.35865548441110112 0 0.29987747321592639 0.43430880093746571 0 0.21928696632013
[...]
<PointData Scalars="A_conc," Vectors="" Tensors="">
<DataArray type="Float64" Name="A_conc" format="ascii">
9.3831117640550683e-08 1.2580947181125872e-07 -1.050317617426365e-07 1.279355393409713e-07 -4.2845574204446108e-08 -6.2837399016708307e-08 1.7200649184959911e-07 -6.3339840392958343e-08 -6.5547157656457481e-08 -1.0630715641210439e-08 1.3267776201266296e-08 -2.6370605600558537e-09 -1.0655620319824714e-08 4.1764737087225733e-09 6.4791466111021395e-09 -7.8799012504674125e-09 7.9996341599981954e-09 -1.1973290953078293e-10 6.4603507168041358e-09 -7.3928080515478837e-09 9.3245733474374619e-10 6.9018388807181878e-11 -1.3038530251305621e-09 1.2348346363233804e-09 -4.4462279582049513e-10 3.73246120254594e-10 3.3529539166251382e-10 1.4897351495034197e-11 4.963996172984846e-10 -3.1435591907385339e-10 -4.2620470849619622e-10 5.1690048785518194e-10 1.9627834750303635e-10 6.575470965294417e-10 -2.1208642820675885e-09 1.463317185538147e-09 1.8656301384043749e-09 -8.677012750106605e-10 -9.979288633937144e-10 -7.763323494350232e-10 7.9776009744704536e-10 4.0579002225533295e-10 -4.0656800718348817e-10 2.1331624931177672e-09 -1.7265944859342789e-09 -3.6543324297808017e-11 1.9095642620897111e-11 4.8004720462513451e-11 -1.0462483399929272e-10 5.996676178355411e-11 1.2445124155191076e-10 -1.9907242632494565e-09 2.3070054303145416e-09 -3.1628116706508482e-10 -3.0433508935826763e-09 1.6749362261043151e-09 1.5098321929674813e-09 -4.1707916302978204e-09 -1.9135555505218655e-08 2.3306347135516475e-08 -1.7106645144913657e-08 8.4266603049014133e-09 8.6799848400122424e-09 1.3087850431684278e-07 1.4525592908499565e-07 -1.3281912558249667e-07 1.206739204349914e-07 -1.1851612761613266e-07 1.3992898421421927e-07 1.6348923850528152e-07 -1.0778973792876664e-07 -1.8062564155302473e-08 1.8987304971536627e-07 -6.8848835898933641e-08 -1.0524912172548557e-07 1.7970017813065781e-07 -2.0329640314592541e-07 2.0833889227265443e-07 1.0762170410835201e-08 6.2393605055102922e-09 -1.7001530916345493e-08 -1.3159117676563917e-08 2.1825362114274699e-08 -8.6662444377107884e-09 2.7638138171419577e-08 -8.253738608943495e-09 -1.9384399562476072e-08 1.8400507154917678e-07 1.3098890418393872e-07 -1.5446543168697763e-07 2.2836749964832146e-07 -8.678671673205967e-08 -8.0644131454497183e-08 1.7054048793182823e-07 -1.1555263271148159e-07 -1.7463239782200826e-08 2.0149277405151243e-07 -9.4348664168312347e-08 -1.0365982568549352e-07 2.4443791764656497e-07 1.8497791273566786e-07 -2.5841430339771187e-07 2.4582874973301314e-07 -1.3396980612251478e-07 -9.9859085083093957e-08 -1.8719952673496072e-08 9.6781252537844837e-09 9.0418274197115887e-09 -1.2855453527929637e-08 1.3223050046315396e-08 -3.6759651838576165e-10 1.1044543507531024e-11 4.3497207965848164e-11 -1.3170837714624281e-11 1.3231886377343943e-09 -2.9312010821929148e-09 3.8707122198822063e-09 6.2952973502597735e-11 -2.9406415881036064e-11 3.1512724364490499e-11 1.2575659697616313e-11 1.13213285914382e-11 -1.3523017403154242e-11 -1.834989792627207e-11 2.360394829026368e-11 -1.1553542217238265e-12 8.1218978231290103e-10 -4.6838315090308225e-10 5.457744536882951e-10 -1.7249089831918701e-10 -1.6831901828205865e-09 2.2205782379481431e-09 -2.012085521882961e-11 7.3354617115779117e-10 -2.0833100763783164e-10 5.2417489274373051e-10 2.6795194132272889e-09 -3.2036943059710192e-09 1.5285677955098672e-10 -9.1648203487732551e-12 -9.6676781590898609e-11 9.9428961583007223e-11 -3.3999758754043236e-11 6.4377853325999165e-11 9.9292500615157881e-11 4.6993087516120935e-11 -2.4149723405525338e-11 4.3840913179777526e-11 3.1419608820254991e-11 1.2173205163276474e-10 1.5472489254402693e-10 2.5139398797731753e-11 -8.3761585346131822e-12 9.0133469841514421e-11 -5.7055778974297011e-11 2.2971681247286155e-11 1.0656073394816254e-10 -1.162906188983852e-11 -5.1246794090891641e-11 1.6945792157916618e-10 1.207435548009811e-10 -5.2232696847641625e-11 2.1416095917407026e-10 -1.3661281000272759e-10 7.574425447098121e-11 2.216125229994557e-10 -5.0122708653086717e-12 -1.0168842279235232e-10 2.6568455453564674e-11 2.9289790103209925e-10 1.8322836190222882e-10 4.4156496020793846e-11 1.0218973779274629e-10 3.0889427175548711e-10 1.4175066937339509e-10 2.8612866666526271e-10 -4.4080077556388981e-11 2.7124282310314448e-10 7.2717915195350438e-11 2.9710050705315256e-11 2.0933359725990968e-10 1.8805904485891841e-10 3.7629258464107495e-11 1.062045382983466e-10 1.2977054160638908e-10 3.4320067996417103e-10 2.5214495498899407e-10 3.2727153971077582e-10 6.6653099226107477e-11 2.8252113534139984e-10 9.9894799271857136e-11 1.3707500812438363e-10 2.3724361395451368e-10 4.7757950581185258e-11 8.3530524634597883e-11 8.590099610678898e-11 5.9838881425986943e-11 2.1812338718732988e-10 6.8466564337341422e-11 3.8766139398335506e-11 1.1993551969236833e-10 4.5522144341808902e-11 9.800391755821188e-11 1.2534258810360096e-10 1.0005405701324956e-11 1.4752430967400592e-10 5.8142574555600097e-11 4.3969338474687285e-12 5.4856765228379674e-11 1.555443779877235e-10 5.1705615408557691e-11 1.0528185746353255e-10 -1.544589104577259e-11 2.4326247878263196e-11 8.8032936351313319e-11 4.7700199948178569e-11 1.574940250208682e-11 8.3010208483829944e-11 7.081149746871139e-11 4.4995851806570298e-11 1.8585934517024863e-11 6.2692845553366653e-11 5.654204843941606e-11 1.3449190678090226e-11 3.1977839483627794e-11 2.2940248156251052e-11 4.3271078017772575e-11 2.1784559409306296e-11 1.3434629508945518e-11 2.8292851212389503e-11 4.9906032009867718e-11 3.7552340542266273e-11 1.4161905881623754e-11 6.3162252462303011e-11 1.4822700545251017e-11 6.9697358377935231e-11 1.5117936118488123e-11 2.5940069689917704e-11 4.5046663974626844e-11 8.7433091509699203e-11 1.0248306690682856e-10 4.802411138080563e-11 -1.059632445238958e-11 -1.6895022542960149e-11 2.9997676931575099e-11 3.8441467194797272e-11 -1.55952940009105e-12 -4.0198096008063163e-13 3.5911977210411295e-11 -3.5981284429361971e-11 -2.4717440392958207e-11 6.592868895888094e-11 -1.0639272596962792e-11 3.2597949549342175e-11 -1.8530458450233069e-11 -1.5574209107828929e-11 1.2783585064087112e-12 2.8557083253077911e-11 -9.4616628255144368e-12 4.2599481087103835e-11 8.4635354546856869e-12 1.1820218465211864e-11 1.0706323685166146e-11 2.7242100864222379e-11 5.5903430526435104e-12 1.6515976080675525e-11 1.754892748537243e-11 1.8605121000825703e-11 -1.8558024576576373e-11 2.2642773754617198e-11 -2.7312109781958496e-10 -2.6548584656667292e-10 6.0636894465294759e-10 2.9659999089495886e-11 -1.4522687695823619e-11 -9.2290182477931795e-12 2.3598914272170198e-11 7.3567346588806625e-12 -1.7408381473308133e-11 3.1344003593272265e-11 -5.4513198786140207e-11 2.3169195192867955e-11 9.3682394271233918e-12 3.3425691766379039e-12 1.3789656879742247e-11 4.5103702278901905e-12 9.3160373931273183e-12 2.000702731539028e-11 2.7576629759950606e-12 2.2226135486164292e-11 1.5793071667044469e-11 2.1535171316520463e-11 3.7184448448434336e-12 4.0970407085719096e-11 1.3499185260561104e-11 4.1720434877927217e-11 3.7396308824427506e-12 3.6545879486831984e-12 7.7769445806365371e-12 3.2727881265509349e-11 8.3990840011789384e-12 8.4406598534324021e-12 1.8158871665080289e-11 5.5275803919831914e-11 2.2460433623798995e-11 -6.1458748802263517e-11 -1.197606306297897e-10 2.321122787435305e-11 9.6549402755436662e-11 1.2481026077689133e-09 -1.0146075891360275e-09 8.85226249191883e-10 -1.8428997180521598e-10 -2.6930998638281347e-09 4.5463969249620938e-09 6.3169345098672026e-11 2.9776344973340313e-10 -3.6093279483207515e-10 1.2166552218792498e-11 5.1076476985011728e-11 6.4930685914714859e-13 4.227695449701131e-11 -9.5148473009467062e-12 4.5166954175147685e-11 5.4426071890095866e-11 4.2661893009653739e-11 1.0560312347402208e-11 4.0910293663918177e-11 6.4631445424715305e-11 2.7901759925861311e-11 2.1713044685130109e-11 7.2303988862173235e-11 3.7611219577778704e-11 2.7211831589875904e-11 1.0157816703330657e-11 6.2789642571998906e-11 1.2233792902431609e-11 1.3293735793903541e-11 6.8499114143570561e-11 5.6446078845741913e-11 -3.666136847099562e-12 -4.3072573040126007e-14 -3.5014428157823603e-09 1.8818242045464933e-09 4.2516516089823481e-09 -1.030761295891347e-08 -2.837098174014621e-09 1.3144711132928098e-08 -1.9588868396120667e-08 5.7150698158901728e-09 1.3873798580230495e-08 -2.2254898652083825e-08 2.7353840397182616e-08 -5.0989417450987898e-09 -2.4021524599639527e-08 1.1714334496555483e-08 1.3366632863336267e-08 2.4164951157892555e-07 -1.0148880726163236e-07 -1.3025202012896462e-07 -4.2740521835691019e-08 5.039762229789768e-08 -7.657100462206668e-09 1.192380695598876e-08 -3.3127367214836445e-08 2.1203560258847691e-08 -3.6280424119496477e-09 1.447592636138527e-08 -1.0847883949435619e-08 1.8634986006952991e-09 2.5929445649182513e-09 -1.9133313018822905e-09 1.7009492900639724e-09 6.6188782358745407e-09 -8.3198275259385136e-09 -6.5071982032287737e-11 2.4383103721587514e-09 -1.0567787115354765e-09 8.8321115503070752e-09 9.4048728352013886e-10 -9.7725988338272157e-09 -8.6534941690108101e-09 4.5263975090176679e-10 8.2008544181090483e-09 1.7016484801804312e-07 1.3129579227151747e-07 -1.4597820510117813e-07 1.7098436445093113e-07 -8.7378621009685801e-08 -5.7125858665402302e-08 2.2078667773265531e-07 -9.9846246001320841e-08 -4.5173939643011743e-08 1.7317737794680711e-07 -1.2923514007168597e-07 1.6057884703961682e-07 2.1898939600714119e-07 -3.5286355305456325e-10 -1.5131725163446525e-07 1.7336415405369225e-07 1.8413837567853143e-07 -2.1053912411995329e-07 2.0605392672544213e-07 2.4765050006149987e-07 -2.3677751691936204e-07 2.8032696524070889e-07 -6.6671568458580856e-08 -1.7606835520977684e-07 2.2792455886056664e-07 -2.608662102844082e-07 1.8954703230957448e-07 2.4650139202258821e-07 -1.3453798009834885e-07 -9.0955116998779568e-08 2.0639748027281313e-07 -3.8867595535764023e-08 -1.2818935766843405e-07 1.6529571961211422e-07 2.6244402156099991e-07 -2.3073841332938827e-07 -1.2209174895084438e-08 -2.3009910829599712e-08 3.5219085724684143e-08 -2.1265813201675752e-09 3.4166222097352665e-10 1.7849190991940486e-09 -2.2432584776032713e-11 -5.4429477541452029e-11 1.558158130359932e-10 4.047234628946019e-10 -8.9927232730441512e-10 4.9454886440981317e-10 -1.0677145579851795e-11 1.43196724571717e-10 -4.9170473783504932e-11 -2.2419285693182964e-09 1.1285331080093752e-09 1.113395461308921e-09 3.6798700708955001e-09 2.4641994423221198e-08 -2.8321864494116693e-08 -3.4546602099999148e-09 1.0623246970508372e-09 2.9929650279189036e-09 -4.0113796040047571e-08 5.2489426214931743e-08 -1.2375630174884169e-08 2.5892813888341034e-07 -1.4678124248203541e-07 -9.4924274931906626e-08 -4.4450137966481466e-08 1.2098568013292822e-09 4.324028116515219e-08 2.2312981232167865e-10 1.7757550576543159e-10 -1.3259102388519325e-10 3.3317725655721142e-09 9.9024148084892204e-09 -8.3919508666829128e-09 6.3321942337647466e-11 -8.0154555143322433e-11 2.1225677949286697e-10 -1.755238235487236e-09 3.8243320337806074e-10 1.3728050321091752e-09 -3.0722882300681757e-11 2.8125097882186757e-11 1.4172383510619466e-10 -6.0465446267027014e-11 1.2789301684778035e-10 1.0941294634322996e-10 9.9527089194907583e-11 1.5447867593357926e-11 5.2793727439112375e-11 8.398686792770709e-11 2.4822161196170566e-11 7.9570948807066392e-11 5.7414176535374187e-11 5.2616920276387759e-11 1.2568840877962224e-10 1.3538734978749298e-10 2.8780889706262726e-11 1.0934799959149533e-10 1.3890825523547278e-10 9.984057744037641e-11 3.1465777291728075e-11 1.9285156638339899e-10 -9.4625119500536715e-11 9.7509211643677493e-11 1.5248737735543549e-10 1.7295004604550785e-11 1.980431941044765e-10 5.3795447570050666e-11 1.9668125351445116e-10 1.6213976591222864e-10 9.7541170713280889e-11 1.9452748124899138e-10 5.4782263762406333e-11 2.6747895129258641e-10 2.0611313538115462e-10 7.7110625195635761e-11 1.7645808930994913e-10 4.2570247660251737e-10 1.1056384405101259e-10 1.2960397580287931e-10 2.5616656800942887e-10 9.4156379600431767e-11 3.3626159110673864e-10 4.2109499132679763e-11 4.5743510989891497e-11 -1.2544922319809599e-10 1.8855797744757774e-10 1.5941034701633909e-10 2.6900071020922371e-10 3.3206723221901626e-10 -4.4018207867451926e-11 3.6689191619820463e-10 4.8575203575061395e-11 2.460875602888945e-11 2.5523892186334643e-10 4.8095403104547569e-10 -8.4885631265078114e-11 2.7385773772822846e-10 4.9495835025661449e-10 1.9127853158374425e-10 4.0139248149699723e-10 3.2429583543213519e-10 5.6828982662914944e-11 1.3369301377219511e-10 5.6817019038590378e-10 4.2838335432271938e-10 6.6852004445287501e-10 2.6070747015273655e-10 4.55942673130352e-10 8.9259740310955018e-10 5.0771846934378965e-10 2.7901023433428252e-10 7.5267762259491622e-10 -5.5615056625289948e-10 1.0113258699812061e-09 1.1768165789137433e-09 -2.9427860791356972e-10 -4.8652847533641539e-11 9.5247695594833174e-10 -1.1863494195052571e-10 3.9482451183215007e-10 1.2838559458273136e-10 -7.0119912667463113e-11 5.3420218745274426e-10 3.9764564780405625e-10 -7.0349929458286488e-10 3.0585364677880867e-10 -1.0124945506523062e-10 6.0251034589683409e-10 -5.0126089083160346e-10 5.3816997232828976e-10 1.1206814535969868e-10 -6.5023811768798854e-10 -7.0506004248596055e-10 -9.8005498155532599e-10 1.6851150240412875e-09 -2.3214927366426673e-09 2.2830640959959216e-09 8.6768844512048189e-10 5.1386053242889386e-08 -2.5617705003987805e-08 -2.3998783069728787e-08 4.2582223132662842e-08 -1.6047477500650892e-09 -2.9276741202107234e-08 -6.7891828882271693e-09 3.6928775599059149e-09 3.0963053283212536e-09 -3.7455154900105315e-10 -6.9929584086167795e-11 4.4448113308722103e-10 -3.2744785980739174e-10 2.6150242401263418e-10 1.7176261883288664e-10 -3.0479907392978871e-11 2.9257411351756814e-10 -2.495655998333734e-10 -1.7759622035300466e-09 2.3922924211919733e-09 -6.163302176619275e-10 9.577924864771242e-10 -7.1476970368178619e-10 -2.4302278279533718e-10 1.8338503782891602e-07 -1.7882483109232456e-07 9.9729824206766239e-08 1.1481112461470197e-07 -5.4147000959738359e-08 -4.7044155068683798e-08 4.2681132688140637e-08 1.1072804528645173e-07 -8.9289974467139768e-08 2.343281048142234e-08 7.529676979188185e-08 -6.4960012397189642e-08 1.8367075207972359e-08 -7.9897787193578574e-09 -5.5106202941356156e-09 1.8077331220406142e-08 -1.3166496812367147e-08 8.9245912462825296e-09 8.378893857871532e-09 -2.5676749667714161e-10 -1.3609371759651878e-09 5.8699859301289002e-09 -4.5998195678383577e-09 1.0437644145535495e-08 -6.3134034640756234e-09 1.4467546216545143e-08 -2.0736629858446135e-09 1.6575423644703931e-08 1.0511512208937546e-08 -1.234356815294963e-08 1.5021771394536029e-08 -1.6657773776740641e-08 2.4193544815687237e-08 -1.1729579403295438e-09 3.679013348356079e-09 -2.5060554080265356e-09 2.2521286360532615e-08 -9.2896029916750243e-09 -6.4545932132643853e-09 -4.2870237181119855e-09 2.4866292003583552e-09 1.8003945177536305e-09 -2.9212323415863843e-09 1.33561339327503e-09 1.5856189483113542e-09 7.1081012973972773e-10 1.7548953887225831e-09 -2.4657055184623106e-09 2.2764836834611845e-10 -1.3956484995578606e-09 1.1680001312117417e-09 -5.7079747317669019e-10 2.8274596389497314e-10 2.8805150928171736e-10 6.863632517512339e-11 2.6460013854813178e-09 -2.266560710595521e-09 1.1413282048354107e-09 -5.7500811277227496e-10 -1.4632217759652065e-10 -3.2895313053816554e-10 -4.4907224189454478e-10 7.7802537243271078e-10 -7.9325556392477708e-10 1.3036335855156773e-09 5.0916240904741478e-11 9.1519743003838039e-10 1.0475712616085664e-09 -9.8606907856626203e-10 -1.9640640614797134e-13 1.9404289187605416e-09 6.9483202792446727e-10 4.2177000127280275e-10 4.0887520554247474e-10 1.2311364668576018e-09 7.8588252365453754e-12 8.7887659512791583e-10 1.8311931699952828e-09 3.0392453128922161e-10 7.264947602706064e-10 9.8006681431082215e-10 3.5701471969477359e-10 1.2334961073089658e-09 8.2857642095627065e-10 3.3138675735862047e-10 2.3711175539184423e-09 2.0658942149441211e-09 1.3070062316955817e-09 2.596490270058656e-09 -5.1818701926657846e-11 3.9330085968016969e-09 -4.9677227084887364e-10 -1.2177902014692091e-09 3.3609251244810145e-10 3.5408448078949147e-09 -1.2954191817683863e-09 2.8836045662646055e-09 3.5734917184159e-09 -1.968544143985145e-09 3.0153294342806765e-09 -2.4118245563635458e-09 3.8145171150025331e-09 3.7380787587339697e-09 1.1514364431118842e-09 1.4901779020107124e-09 3.8819455741358643e-09 2.0793685646352751e-09 6.7766010758932209e-10 3.0349126111338252e-09 6.92965525343161e-10 3.6523966909803359e-09 1.2785136648033267e-09 1.3349325060067979e-09 3.9162713481536168e-09 5.19201820966414e-10 2.2340142906723929e-09 2.1825963435035062e-09 3.4236711579553483e-09 3.4561420729700457e-09 6.8041462251973404e-10 3.7205215119850831e-09 1.2033956639742359e-09 1.9490530382299488e-09 8.0556499086647454e-10 3.9032520361048757e-09 1.9517482788117594e-09 7.6812694969189484e-10 1.7511269149671096e-09 4.0576759266791241e-09 2.6170696650842322e-09 -1.0483385663903176e-09 3.0472656567551786e-09 -1.6691540993455192e-10 2.3316036726978352e-09 4.6761598561110603e-10 2.7246055507896163e-09 1.8130535831993496e-09 -8.6599114712951678e-10 6.7700704283944135e-10 4.5081642986309574e-10 3.1481396282207238e-09 2.252050309788213e-09 3.3203804037075391e-09 -3.6221194997823309e-10 -4.9742944512813433e-11 2.1359317751448875e-09 2.882552809628316e-09 1.0215206496357562e-11 1.2310367953391945e-09 1.5697457420693082e-09 -1.3514443327669184e-10 1.8848190277695105e-09 3.9590539753506579e-10 6.8307220072557851e-10 1.9639427109639128e-10 3.5184853937117388e-10 6.1879477594053286e-10 2.6152047918011844e-10 4.9386640819714704e-10 9.7198042292198098e-10 1.7143740451522305e-10 1.6224159935962155e-09 5.2149215109652353e-10 1.2831636166780403e-09 3.9578457212613784e-10 8.9314135121936069e-10 2.6959913432941637e-09 8.7788037431095688e-10 3.3350305657050021e-10 1.5188350540583939e-09 1.5049661892518646e-09 2.920464207385931e-10 1.6676612174164189e-09 8.626243670350628e-10 1.1885632988241451e-09 2.2507892689583671e-09 3.0286328135048821e-10 3.7275789595364256e-10 7.6358022873446935e-10 1.6791429898820142e-09 8.7812633253284599e-10 4.0097158007189204e-11 8.3274033459354734e-10 7.2193545349201108e-10 4.2239771719169172e-10 1.0914285766202038e-09 3.5548250557369834e-10 1.1768991501579277e-09 5.6465322832521364e-10 5.8842908994240226e-10 7.8431979742350907e-10 3.338305915014021e-10 1.9085669346473403e-10 7.3375598652945536e-10 5.0043317874299866e-10 8.0275010582929643e-11 6.9856189703049822e-10 4.3200827472606509e-10 2.0647240223668371e-10 4.9890034719198715e-10 8.8595786011244971e-10 2.4121066027271678e-10 6.2128358432895737e-11 3.2212356712720597e-10 1.4043544824204234e-10 2.2893215742701713e-10 4.2916444823587384e-10 4.830133497524023e-10 2.2071273717170329e-10 1.3822304455742723e-10 2.1548532527901103e-10 3.0580728316041433e-10 6.7935903305888572e-10 3.6602772069615552e-10 1.270841987358075e-10 4.4920254370120652e-10 4.8966105420310039e-10 1.1310929182751277e-10 2.7552351765882333e-10 5.1500825617431559e-10 1.2046559032860034e-10 1.6688308737996379e-10 2.5763689001162809e-10 3.2460436327721388e-11 2.7397769612416465e-10 3.0993211700610499e-10 -8.406956658894874e-11 3.4725249077006828e-10 4.0223578845805832e-10 -6.2800210526629019e-12 3.6664986003124651e-11 1.5283780232827058e-10 3.7081968261254418e-10 -2.9277131043896982e-11 3.729196183458995e-10 2.5766689467603019e-10 5.1960298984712764e-11 2.4090753887358427e-10 8.3125304407370249e-10 3.0533383252044406e-11 3.3412795172206702e-10 1.0491671041480069e-10 7.2157113586698114e-10 -4.9977135710946458e-12 8.5796353211412766e-10 6.400203191333697e-10 2.160094063582774e-10 5.0450981495865736e-10 1.3205650478951986e-09 7.0514039206341257e-10 8.8798512895199005e-10 -9.0202643433546934e-11 4.0491642922073197e-10 1.6710968636158064e-11 5.3879613286830178e-10 3.5584796646269624e-10 1.1412099430576727e-10 1.8122552701062256e-10 6.700065739079426e-10 4.3209703808807643e-10 -8.7060114879650497e-11 6.0241802011241937e-10 -9.2153789111646657e-11 1.9236806926242762e-10 4.0701891355536363e-10 1.9586202197310223e-10 -3.7795113917652178e-11 7.0139276035551859e-13 1.0965748229039271e-10 3.2080754427795681e-10 -5.650349