<?xml version="1.0"?>
<VTKFile type="UnstructuredGrid" version="0.1" byte_order="LittleEndian">
<UnstructuredGrid>
<Piece NumberOfPoints="3918" NumberOfCells="1306">
<Points>
<DataArray type="Float64" NumberOfComponents="3" format="ascii">
0 0 0 0 0.10000000000041601 0 0.082799035591426873 0.082799035591510806 0 0 0 0 0.082799035591426873 0.082799035591510806 0 0.099999999999928008 0 0 0 0.10000000000041601 0 0 0.20000000000083221 0 0.066361468125430589 0.15903440181097661 0 0 0.10000000000041601 0 0.082799035591426873 0.082799035591510806 0 0.066361468125430589 0.15903440181097661 0 0.082799035591426873 0.082799035591510806 0 0.140351188660986 0.16130415108589741 0 0.066361468125430589 0.15903440181097661 0 0.082799035591426873 0.082799035591510806 0 0.20669143849501961 0.085546078947938975 0 0.140351188660986 0.16130415108589741 0 0.082799035591426873 0.082799035591510806 0 0.099999999999928008 0 0 0.20669143849501961 0.085546078947938975 0 0.099999999999928008 0 0 0.19999999999983389 0 0 0.20669143849501961 0.085546078947938975 0 0.20669143849501961 0.085546078947938975 0 0.21725788110387281 0.17316968768743621 0 0.140351188660986 0.16130415108589741 0 0.20669143849501961 0.085546078947938975 0 0.29145143692666958 0.13500804559578439 0 0.21725788110387281 0.17316968768743621 0 0.20669143849501961 0.085546078947938975 0 0.29145143692666958 0.13500804559578439 0 0.29999999999973409 0 0 0.19999999999983389 0 0 0.20669143849501961 0.085546078947938975 0 0.29999999999973409 0 0 0.24783073444672249 0.24783073444648379 0 0.34318159319555042 0.3314386771104964 0 0.33604819894646598 0.23280286076243209 0 0.29145143692666958 0.13500804559578439 0 0.24783073444672249 0.24783073444648379 0 0.21725788110387281 0.17316968768743621 0 0.29145143692666958 0.13500804559578439 0 0.24783073444672249 0.24783073444648379 0 0.33604819894646598 0.23280286076243209 0 0.21725788110387281 0.17316968768743621 0 0.17318221359491059 0.27409688392309489 0 0.140351188660986 0.16130415108589741 0 0.24783073444672249 0.24783073444648379 0 0.21725788110387281 0.17316968768743621 0 0.17318221359491059 0.27409688392309489 0 0.24783073444672249 0.24783073444648379 0 0.17318221359491059 0.27409688392309489 0 0.2371857680100064 0.35865548441110112 0 0.17318221359491059 0.27409688392309489 0 0.089078158003765312 0.2493007687782936 0 0.13897501191807771 0.34545639364066222 0 0.17318221359491059 0.27409688392309489 0 0.089078158003765312 0.2493007687782936 0 0.140351188660986 0.16130415108589741 0 0.089078158003765312 0.2493007687782936 0 0.140351188660986 0.16130415108589741 0 0.066361468125430589 0.15903440181097661 0 0.089078158003765312 0.2493007687782936 0 0 0.20000000000083221 0 0.066361468125430589 0.15903440181097661 0 0.089078158003765312 0.2493007687782936 0 0 0.30000000000124832 0 0.0632094674441709 0.3449112819864934 0 0.089078158003765312 0.2493007687782936 0 0 0.20000000000083221 0 0 0.30000000000124832 0 0.0632094674441709 0.3449112819864934 0 0 0.40000000000166441 0 0.083393126324559225 0.42307471369029392 0 0 0.30000000000124832 0 0.0632094674441709 0.3449112819864934 0 0 0.40000000000166441 0 0 0.40000000000166441 0 0.083393126324559225 0.42307471369029392 0 0 0.50000000000205869 0 0.083393126324559225 0.42307471369029392 0 0.13897501191807771 0.34545639364066222 0 0.16486701364709541 0.41592657376307979 0 0.083393126324559225 0.42307471369029392 0 0.12353277228144981 0.51086097771927308 0 0.16486701364709541 0.41592657376307979 0 0.0632094674441709 0.3449112819864934 0 0.083393126324559225 0.42307471369029392 0 0.13897501191807771 0.34545639364066222 0 0.089078158003765312 0.2493007687782936 0 0.0632094674441709 0.3449112819864934 0 0.13897501191807771 0.34545639364066222 0 0.070553891733833127 0.57745844360881338 0 0 0.60000000000138687 0 0.079752623936563252 0.65630726580969023 0 0.070553891733833127 0.57745844360881338 0 0 0.60000000000138687 0 0 0.50000000000205869 0 0.083393126324559225 0.42307471369029392 0 0 0.50000000000205869 0 0.12353277228144981 0.51086097771927308 0 0.070553891733833127 0.57745844360881338 0 0 0.50000000000205869 0 0.12353277228144981 0.51086097771927308 0 0.070553891733833127 0.57745844360881338 0 0.12353277228144981 0.51086097771927308 0 0.16324260003398389 0.62262730759772122 0 0.070553891733833127 0.57745844360881338 0 0.16324260003398389 0.62262730759772122 0 0.079752623936563252 0.65630726580969023 0 0.12353277228144981 0.51086097771927308 0 0.16324260003398389 0.62262730759772122 0 0.1946526892501724 0.54636184660733622 0 0.16324260003398389 0.62262730759772122 0 0.1946526892501724 0.54636184660733622 0 0.27661118526457179 0.58730386222759956 0 0.1946526892501724 0.54636184660733622 0 0.27220668248394869 0.50912429725145214 0 0.21928696632013719 0.4676461135047027 0 0.12353277228144981 0.51086097771927308 0 0.1946526892501724 0.54636184660733622 0 0.21928696632013719 0.4676461135047027 0 0.27220668248394869 0.50912429725145214 0 0.27661118526457179 0.58730386222759956 0 0.34793494568226019 0.52426775179830853 0 0.27220668248394869 0.50912429725145214 0 0.29987747321592639 0.43430880093746571 0 0.34793494568226019 0.52426775179830853 0 0.27220668248394869 0.50912429725145214 0 0.21928696632013719 0.4676461135047027 0 0.29987747321592639 0.43430880093746571 0 0.1946526892501724 0.54636184660733622 0 0.27220668248394869 0.50912429725145214 0 0.27661118526457179 0.58730386222759956 0 0.13897501191807771 0.34545639364066222 0 0.16486701364709541 0.41592657376307979 0 0.2371857680100064 0.35865548441110112 0 0.17318221359491059 0.27409688392309489 0 0.13897501191807771 0.34545639364066222 0 0.2371857680100064 0.35865548441110112 0 0.16486701364709541 0.41592657376307979 0 0.21928696632013719 0.4676461135047027 0 0.2371857680100064 0.35865548441110112 0 0.12353277228144981 0.51086097771927308 0 0.16486701364709541 0.41592657376307979 0 0.21928696632013719 0.4676461135047027 0 0.21928696632013719 0.4676461135047027 0 0.29987747321592639 0.43430880093746571 0 0.2371857680100064 0.35865548441110112 0 0.29987747321592639 0.43430880093746571 0 0.2371857680100064 0.35865548441110112 0 0.34318159319555042 0.3314386771104964 0 0.24783073444672249 0.24783073444648379 0 0.2371857680100064 0.35865548441110112 0 0.34318159319555042 0.3314386771104964 0 0.34318159319555042 0.3314386771104964 0 0.38593969585746768 0.44843324941957241 0 0.42544665781957403 0.3726599289372452 0 0.29987747321592639 0.43430880093746571 0 0.34318159319555042 0.3314386771104964 0 0.38593969585746768 0.44843324941957241 0 0.38593969585746768 0.44843324941957241 0 0.42544665781957403 0.3726599289372452 0 0.47711113382803011 0.43513410852522788 0 0.42544665781957403 0.3726599289372452 0 0.49272830291620878 0.32528628960011152 0 0.47711113382803011 0.43513410852522788 0 0.42544665781957403 0.3726599289372452 0 0.49272830291620878 0.32528628960011152 0 0.41589935411558732 0.26752529264016389 0 0.34318159319555042 0.3314386771104964 0 0.42544665781957403 0.3726599289372452 0 0.41589935411558732 0.26752529264016389 0 0.27661118526457179 0.58730386222759956 0 0.38240158409674341 0.60644575028138747 0 0.34793494568226019 0.52426775179830853 0 0.27661118526457179 0.58730386222759956 0 0.38240158409674341 0.60644575028138747 0 0.32437633398017029 0.65970549827478953 0 0.29987747321592639 0.43430880093746571 0 0.38593969585746768 0.44843324941957241 0 0.34793494568226019 0.52426775179830853 0 0.38593969585746768 0.44843324941957241 0 0.45232393232070839 0.53082724112931345 0 0.47711113382803011 0.43513410852522788 0 0.38593969585746768 0.44843324941957241 0 0.34793494568226019 0.52426775179830853 0 0.45232393232070839 0.53082724112931345 0 0.38240158409674341 0.60644575028138747 0 0.34793494568226019 0.52426775179830853 0 0.45232393232070839 0.53082724112931345 0 0.38240158409674341 0.60644575028138747 0 0.45232393232070839 0.53082724112931345 0 0.46433624429412901 0.61260020600107856 0 0.45232393232070839 0.53082724112931345 0 0.46433624429412901 0.61260020600107856 0 0.56379254693201075 0.58472273515948836 0 0.46433624429412901 0.61260020600107856 0 0.56379254693201075 0.58472273515948836 0 0.5174764925733939 0.65338828204098198 0 0.45232393232070839 0.53082724112931345 0 0.55763912874459476 0.49619993861770217 0 0.47711113382803011 0.43513410852522788 0 0.45232393232070839 0.53082724112931345 0 0.55763912874459476 0.49619993861770217 0 0.56379254693201075 0.58472273515948836 0 0.55763912874459476 0.49619993861770217 0 0.64897033023755402 0.45530630145656431 0 0.66278242936710119 0.53985356489900171 0 0.55763912874459476 0.49619993861770217 0 0.56379254693201075 0.58472273515948836 0 0.66278242936710119 0.53985356489900171 0 0.56379254693201075 0.58472273515948836 0 0.59670004617370476 0.65981579440137683 0 0.65500944633069913 0.60601350811213128 0 0.49272830291620878 0.32528628960011152 0 0.47711113382803011 0.43513410852522788 0 0.56509579243166053 0.39588847936247551 0 0.55763912874459476 0.49619993861770217 0 0.47711113382803011 0.43513410852522788 0 0.56509579243166053 0.39588847936247551 0 0.56509579243166053 0.39588847936247551 0 0.65823561246403328 0.35502292901158627 0 0.64897033023755402 0.45530630145656431 0 0.55763912874459476 0.49619993861770217 0 0.56509579243166053 0.39588847936247551 0 0.64897033023755402 0.45530630145656431 0 0.49272830291620878 0.32528628960011152 0 0.56509579243166053 0.39588847936247551 0 0.58612580217118482 0.27813894450229909 0 0.56509579243166053 0.39588847936247551 0 0.58612580217118482 0.27813894450229909 0 0.65823561246403328 0.35502292901158627 0 0.49272830291620878 0.32528628960011152 0 0.58612580217118482 0.27813894450229909 0 0.49255105193724569 0.22337579986912359 0 0.49255105193724569 0.22337579986912359 0 0.5565830077206213 0.19095699352548859 0 0.50264032148191051 0.12292784096123539 0 0.58612580217118482 0.27813894450229909 0 0.49255105193724569 0.22337579986912359 0 0.5565830077206213 0.19095699352548859 0 0.58612580217118482 0.27813894450229909 0 0.5565830077206213 0.19095699352548859 0 0.64669
[...]
<PointData Scalars="A_conc," Vectors="" Tensors="">
<DataArray type="Float64" Name="A_conc" format="ascii">
7.469886062401618e-06 -4.7202838921681085e-07 1.4807418410645271e-06 6.9793058274911634e-06 7.0643526627239854e-07 8.4966384816321782e-06 1.1247022600314272e-06 1.9170302176735926e-06 2.3238404486564953e-06 1.0534722128522538e-06 1.7661492383540716e-06 2.2201513780273358e-06 1.4768903397804621e-06 2.8582745339644229e-06 1.9293664168369484e-06 1.2152274810319627e-06 2.9031707612375285e-06 2.6266690877255587e-06 8.6885253598705992e-07 8.5362917839673026e-06 2.6628916023025256e-06 7.8198684974030545e-06 9.3369728523960674e-06 1.9218280525490854e-06 2.5600229727459387e-06 3.6127221761469968e-06 2.2568046040365405e-06 2.2391665989968716e-06 3.4506191669224743e-06 3.3055485913438049e-06 2.7980257461139269e-06 1.6500862054870858e-06 1.0114404120715428e-05 8.6754380833003106e-06 1.8207071398167989e-06 1.0071038824149132e-05 3.2273682481551229e-06 5.5008098704621407e-06 5.3531875702501909e-06 4.5640103167051536e-06 3.9884063221455631e-06 3.15630462606269e-06 4.1624638656311819e-06 3.5682683353271243e-06 5.5715695944010351e-06 3.7786369876159007e-06 3.2419494378937764e-06 2.408514147993693e-06 4.2570703244105448e-06 3.5122607270561284e-06 2.8733414928506839e-06 4.1447574546378418e-06 2.7424289808157566e-06 3.9426095715319827e-06 3.4124587633436323e-06 2.2048172016955543e-06 2.8553026093953205e-06 3.510245184536577e-06 2.2005035523669242e-06 2.7005262693228095e-06 2.4787649268253365e-06 2.9433079203754696e-06 1.9517777239484955e-06 2.718904949101109e-06 1.5596226889807888e-06 2.2061101427960446e-06 2.6998060206706542e-06 1.6233640400127713e-06 2.3258934818058172e-06 2.7775602458704415e-06 1.6987980560644108e-06 1.7927090375988513e-06 2.3738250888818384e-06 1.6132176614636308e-06 2.5592906564280394e-06 1.7987456905911745e-06 2.4853344584451078e-06 1.7737564708304689e-06 1.7492833995917838e-06 2.6622854951258135e-06 1.7273888041174388e-06 2.0835181806354779e-06 2.9268830716671401e-06 3.2616328878062498e-06 2.1412907890746881e-06 2.6826463377985808e-06 3.3057869044934281e-06 2.1076522012097761e-06 2.2995194963068988e-06 3.1143554757168632e-06 2.4493077884167723e-06 2.0640074176346697e-06 3.0770481460428869e-06 2.430285868911456e-06 1.6130476779891063e-06 2.5286776967750288e-06 2.5357717879290213e-06 1.7787379685708884e-06 1.7465410257928192e-06 2.4666546777329303e-06 1.4861562842301567e-06 2.9804938392970416e-06 2.3277154192992515e-06 1.5213657884236964e-06 2.9913188940116126e-06 1.99960218725263e-06 2.6994629532354251e-06 3.3308386136389904e-06 2.1180301041314843e-06 3.380016956764661e-06 2.2197062391379215e-06 2.4178068747687795e-06 3.0709500262890831e-06 3.5581266086389206e-06 2.6576988509999061e-06 3.1596977349092933e-06 4.7256941878681305e-06 3.0306307829971411e-06 4.5308718423366501e-06 3.4737205477605623e-06 2.2621105652090477e-06 3.4309361479426219e-06 3.8583425697322648e-06 3.8887712955174707e-06 3.9779602630582236e-06 5.6641398585662467e-06 3.795474708871677e-06 4.4191638862070238e-06 5.6148522544845876e-06 4.2348107009661511e-06 3.1300938196516771e-06 4.8402312859179844e-06 2.8193991591765289e-06 4.3814945889120603e-06 4.4676228539891922e-06 2.5558617935117478e-06 2.900426052646078e-06 4.1844348269956974e-06 3.0445437145106226e-06 2.5183904462612836e-06 4.1991120695365223e-06 2.6937299923101044e-06 3.6534480001113417e-06 4.0223651557155638e-06 2.3615092288665297e-06 3.0066049928847141e-06 3.9156317893202236e-06 3.258353263606304e-06 4.9296506395290769e-06 3.6376299377316359e-06 4.542193679188995e-06 3.1903239482882409e-06 5.6572248914919114e-06 3.6194886514151464e-06 3.4110200414005375e-06 5.7719662895575975e-06 4.6131522179579374e-06 5.7670673050426707e-06 7.0344529011517632e-06 3.9930912824479299e-06 5.1546214699155177e-06 6.2690479374667882e-06 5.1344659919700371e-06 6.4285037802768715e-06 8.2076761472414418e-06 5.8375057181469875e-06 8.3985856727345835e-06 7.6935261489375889e-06 6.1976804442350082e-06 8.6800513683541418e-06 5.930772827406507e-06 4.4151564716205989e-06 6.9227068748266821e-06 6.6645780985833733e-06 3.5334774503106225e-06 6.2894867580301596e-06 5.2761624689109613e-06 3.6619021117399123e-06 6.332451465879661e-06 4.7889350785461952e-06 3.977676078003676e-06 6.2428513195779959e-06 5.2089822699134721e-06 4.9637141747062192e-06 7.1875847924469144e-06 8.1029207648981661e-06 5.6127249121197808e-06 4.5474290469354365e-06 7.7444767256455682e-06 5.5971112917409469e-06 4.5402873947371391e-06 7.7139592071134204e-06 5.0021486261946667e-06 7.2113079720963276e-06 7.8004689837737332e-06 6.2005850470031036e-06 6.8105190876595284e-06 1.0841460521719126e-05 6.2884273447881014e-06 1.0593108939987472e-05 8.4681396389731353e-06 6.2195867729948906e-06 1.0537087091581122e-05 7.1697162891934168e-06 5.5282092077902334e-06 1.0067266485401071e-05 1.0390349009803734e-05 7.7463036861199948e-06 1.2948185729028779e-05 1.374425383842448e-05 8.5915407716989314e-06 8.92964122152748e-06 1.4270217677114337e-05 8.6964034639225441e-06 1.0385554270292933e-05 1.3719284098551657e-05 7.5784449428363789e-06 6.8549161736902551e-06 1.0668899196504398e-05 9.9421291498257409e-06 6.3660325186277117e-06 1.0302676645289498e-05 8.1493185672719232e-06 1.3563840026872107e-05 1.2860125800072842e-05 8.711247981322263e-06 9.0850215162172834e-06 1.3601777455932207e-05 6.7453468755513917e-06 1.0015170423803774e-05 1.1198219146734796e-05 8.7699871117110387e-06 9.9961057438062086e-06 1.3990401691597116e-05 7.3588997740297446e-06 1.1544158800016414e-05 7.2774997817551266e-06 7.5285343796907201e-06 1.0307507062806675e-05 7.6387452220662652e-06 1.1252747809190626e-05 6.7633277083258174e-06 9.6450377087814844e-06 1.0166360383335742e-05 8.5069668901853088e-06 1.3334745817648379e-05 8.8338429951417842e-06 8.9664797636580582e-06 1.3538687818124484e-05 1.5330336527635156e-05 7.1873359314407026e-06 1.1569309904556045e-05 1.6524162044048522e-05 6.6458552212005709e-06 1.3161935121110337e-05 8.901251253555562e-06 1.203798861365609e-05 5.1724906519395443e-06 1.2730716062902532e-05 5.9271418178789559e-06 5.8085997919530895e-06 9.9169847909188539e-06 1.0033442261055615e-05 7.0270393891589951e-06 7.7945905536835986e-06 5.5907351979082304e-06 5.4804096441714529e-06 6.2543272468215546e-06 3.9679657574519769e-06 6.1687321244275407e-06 1.3239156699514599e-05 4.6318051030326936e-06 1.111136965785936e-05 5.7260573423971599e-06 1.2173472898303196e-05 3.6326231056024717e-06 1.1019709102671102e-05 1.2667870852534644e-05 2.6312934040055785e-06 1.1929911765595496e-06 9.7592254079198202e-06 4.2398293699864272e-06 3.425943355009106e-06 4.5466554411291027e-06 6.6842188207689496e-06 3.5686971832292155e-06 5.0504531511783057e-06 6.7362604000092264e-06 4.3781599798150037e-06 6.8147716240652765e-06 6.2955412221031008e-06 4.8565027097559544e-06 4.7027318248110799e-06 7.0050334168824744e-06 8.3943117638290537e-06 8.3156608424502445e-06 5.4718206865201211e-06 8.4131551087602345e-06 8.5158745749306007e-06 5.0008102672536708e-06 8.7589103117636433e-06 6.0748631718027818e-06 5.5373878054226739e-06 9.106110242405066e-06 1.0132097419862587e-06 -1.3468587679816057e-06 8.8277977658571303e-06 1.0378259218271823e-05 -4.7770165443739676e-08 1.0561462778359382e-05 3.1391837194878091e-06 3.4134220088099664e-07 9.9176443182581813e-06 2.2804565822323046e-06 1.0919992312271739e-05 3.5700967058037777e-06 1.1034218291566294e-05 -1.5860978863442597e-07 1.026519519606075e-05 1.1784672178271591e-05 -1.0003236612602925e-06 1.1904010509203537e-05 -7.6239397909258829e-08 1.2700296551738249e-06 5.4882633917749457e-06 2.4640474414870313e-06 3.8762960984565674e-06 5.424240462805171e-06 1.9742608420705713e-06 4.6412558564504283e-06 2.9075355684718202e-06 2.76124528315916e-06 4.3092101124721493e-06 3.1985369276992568e-06 1.9454245856881073e-06 3.0839601009103175e-06 3.5327955247484097e-06 1.3933661791005851e-06 7.4693439643163427e-07 3.5916167735585045e-06 8.3645714004242017e-07 2.0246644379928822e-06 1.7920541108842951e-06 1.3543020485371664e-06 2.061700391917016e-06 1.5531982660514986e-06 9.6979365914767192e-07 2.2537106734106909e-06 8.9385352278863933e-07 2.0239624205656063e-06 2.3925423526935513e-06 1.6361072318400432e-06 2.4479151421151194e-06 2.8118017665382579e-06 2.2421900681984118e-06 1.9342866276237645e-06 3.3640668462292604e-06 2.1419309533973768e-06 3.4544835954836097e-06 2.5146459870186132e-06 2.3098190218354787e-06 2.1832387698242791e-06 3.3632069466962351e-06 3.3503287085976786e-06 2.1683158526611532e-06 3.1402807996353905e-06 1.8673222595184738e-06 2.821554616789571e-06 1.6985207817325241e-06 2.6241241874174112e-06 1.5678665341021244e-06 2.5023440115824603e-06 1.7512771609105374e-06 1.7520488991915039e-06 2.6333543451595492e-06 3.1961727124331452e-06 1.9870877143745966e-06 3.2818999290444272e-06 2.4218268646971584e-06 4.6030648230740332e-06 4.1654531838830338e-06 2.7693565652881699e-06 2.8583309442336318e-06 4.4297501846848118e-06 2.6604745427816229e-06 3.643979817371937e-06 4.304886603328076e-06 3.0344058197075149e-06 2.826677382927451e-06 4.0346472821796621e-06 4.8763621124555498e-06 3.2497791785415703e-06 3.9347326674139863e-06 4.4977583775784012e-06 3.5275485659585452e-06 5.5116061188143301e-06 3.4021145524907212e-06 5.0781953068228312e-06 5.4323046955140891e-06 4.1320664894821317e-06 3.6739206748038698e-06 5.2503082404061648e-06 5.758815981191765e-06 4.1447593488380256e-06 7.2241958237462072e-06 4.3918161606413837e-06 4.7577875967781555e-06 7.3406551043139549e-06 5.9774120900088872e-06 9.770020798435673e-06 6.2836332990072905e-06 4.1835938727212518e-06 6.9351728926848359e-06 7.2296892906240544e-06 5.1048151952673592e-06 7.8251371493045547e-06 6.6254391577128042e-06 5.3996063605246269e-06 8.9655757803596324e-06 9.4213361777241303e-06 7.1288225196564026e-06 5.9017749738191026e-06 9.2663596706843937e-06 7.9006353809790475e-06 1.1663432497488693e-05 8.3747609264878907e-06 9.7662709910212685e-06 7.5676808668624958e-06 1.1402147238217043e-05 1.2174921930908855e-05 7.3241738675910158e-06 1.1997317601424104e-05 1.0979965241804775e-05 1.2320796113746946e-05 7.5542909382193686e-06 9.0501286839002833e-06 6.8843928649982733e-06 6.2874219521641585e-06 9.3825287643437871e-06 8.6544604470331716e-06 5.745478978060795e-06 8.2137964152792628e-06 7.4613751925995317e-06 1.2678063389384328e-05 7.1355039957786866e-06 1.2522005973500794e-05 9.6859040102592605e-06 9.5700799786067399e-06 7.6249961694865711e-06 1.2924796610928867e-05 1.1594005400704404e-05 8.6303837335675762e-06 1.3030475874419875e-05 1.082510647805894e-05 5.5641651262582222e-06 8.9242570831594121e-06 8.3170473826010286e-06 1.081591768877248e-05 6.0468054126396522e-06 7.0312069822989931e-06 5.8806509028812855e-06 3.4959464940089558e-06 7.6074101478059415e-06 7.0332836960648448e-06 4.7203886726392059e-06 4.5133990137719879e-06 7.4762636193710463e-06 5.3664556814945807e-06 4.0672685341012708e-06 5.1146254514071131e-06 5.9457959741193773e-06 4.3991978069510757e-06 6.3565552814221893e-06 4.3269231112357027e-06 1.1373172678385213e-05 3.876086852093173e-06 6.4678275344866986e-07 6.4886490549839002e-06 4.1139498365436965e-06 3.7428804166806006e-06 1.2295061810983725e-05 2.5440828867194819e-06 1.373210854843361e-05 3.8373948683766699e-06 3.830053426086833e-06 1.3213146052212359e-05 2.7716427278932169e-06 1.2168266785922138e-05 1.436719374450148e-05 3.5494715124356507e-06 1.3502458722793651e-05 8.430455720047147e-06 1.4041762308160714e-05 1.6254052268754351e-05 6.5283304743570905e-06 1.4786551641923698e-05 7.8092845365109105e-06 1.1299345649098295e-05 1.6484964651999298e-05 1.6545069800924245e-05 9.8792971454454069e-06 1.3352146528608751e-05 1.802989627304161e-05 9.9092838753638263e-06 1.4952775362034257e-05 2.1765448191112356e-05 1.4678372101028484e-05 1.716879015310376e-05 2.7328926397172959e-05 2.4062595019451223e-05 2.4704336812062391e-05 2.2153265956629173e-05 3.1039001041249442e-05 2.3693634611034267e-05 3.0458386243311523e-05 1.7289685227603185e-05 2.1362347031326035e-05 2.8505054317517537e-05 3.061780260830908e-05 2.8693716316249824e-05 1.8236784547287338e-05 2.0874685728313566e-05 2.9881585507458585e-05 2.7412099438200026e-05 1.6432851548043167e-05 2.0507741093697737e-05 1.5266981020334204e-05 2.3063489471786096e-05 1.8106559686589943e-05 2.5447801497820796e-05 1.9357137243801008e-05 2.0061430702442993e-05 2.1246975566050116e-05 1.4122399743431717e-05 2.2115650149589961e-05 1.5196676388656735e-05 1.3398523854403649e-05 1.713321656441577e-05 1.0450985974063472e-05 1.5399086864245658e-05 1.0242576211952292e-05 1.1721511391124625e-05 1.6461458363782955e-05 9.6839963636629638e-06 1.6155720641900995e-05 1.4339353617931855e-05 1.8468224426425828e-05 1.4728409095883124e-05 1.2845204838036446e-05 2.20585300737145e-05 1.7006425017561414e-05 1.3072002027133892e-05 1.6552375833255244e-05 1.5200570278135653e-05 2.1744839618016233e-05 1.3445508761985866e-05 1.2533348541337952e-05 1.7648618280870343e-05 1.8096083210461254e-05 1.2413832531523627e-05 1.6781627806068251e-05 1.0246981330636761e-05 1.468132912761608e-05 1.3792999975410478e-05 1.0868395945522893e-05 1.0683946900255919e-05 1.5153289510501866e-05 1.2782267512379182e-05 1.1360871780028908e-05 1.8009751513620495e-05 9.782808179874669e-06 1.117947094199571e-05 1.4518332950399668e-05 9.3986850132583011e-06 1.4212964612202327e-05 1.2834537407839839e-05 1.1727692518857744e-05 1.7116527455653366e-05 1.7160238257454512e-05 1.5426872428682348e-05 2.1821042125165667e-05 1.5471839152414624e-05 2.0513858550988263e-05 1.3974454100366066e-05 2.3799434173960077e-05 1.8272258921373976e-05 2.7459968995455777e-05 2.1636431893475201e-05 1.847849246149114e-05 2.0894099408986478e-05 2.7485207858755844e-05 1.5192205371107527e-05 2.0531590582882871e-05 2.2908717196153636e-05 2.4903541884047652e-05 2.3539512617991721e-05 3.4808976117474999e-05 2.7454191414858622e-05 1.930712222974114e-05 2.6125644232430865e-05 2.5297942256533542e-05 1.9292990182955805e-05 3.186174707930189e-05 2.2932064946514688e-05 3.3052221082269497e-05 2.9758233822116605e-05 3.001223962754684e-05 4.1911122746051095e-05 2.6498068425492671e-05 2.918117722277977e-05 3.0582190667429293e-05 4.1489450937380964e-05 2.2029368836512434e-05 3.238701108904275e-05 3.3746144576775212e-05 2.7911534842132372e-05 4.4574899335595724e-05 3.910117670377858e-05 2.8256004147256996e-05 4.4688379333554669e-05 3.7454615878706497e-05 3.0979720420061235e-05 5.5252424859251593e-05 5.5281462094486964e-05 4.8349570062832545e-05 4.8380448255246257e-05 7.4286564144269345e-05 4.4921442622640511e-05 6.5312656044458844e-05 7.2098732780288312e-05 6.141831347393263e-05 5.4559491001716448e-05 8.3816207258789082e-05 4.7273222266653019e-05 6.7159926301229336e-05 6.0641235954111356e-05 3.9907066500365343e-05 3.4234582181711549e-05 5.7271733991681217e-05 5.1171677638381987e-05 4.3992227382390872e-05 6.415348398445754e-05 3.7169955730975612e-05 5.5449569203868044e-05 4.8450263821648134e-05 4.4555644683258339e-05 6.4680537923360163e-05 4.8726599475206286e-05 5.0037460041620597e-05 5.4049151500195632e-05 3.0835948336436329e-05 5.4799109201315188e-05 6.5382764530089971e-05 8.0018172587087219e-05 7.1308296457615362e-05 4.4930511877945519e-05 5.7914773494398274e-05 6.0657227638483813e-05 7.0856156851109684e-05 4.4227716523937089e-05 5.6133828363665367e-05 3.3615886401784718e-05 3.4002780834867322e-05 4.1002848068917119e-05 5.1839950560919639e-05 3.3518980206582798e-05 2.1760208681671812e-05 3.2137350603764534e-05 4.0953260373688416e-05 2.5843429677901034e-05 2.3257972535787303e-05 4.1524896100721571e-05 2.5298548033000593e-05 4.0547500362590408e-05 2.7465573818844907e-05 2.283704414820658e-05 3.902976398628167e-05 3.9403033953904055e-05 2.2354306457989271e-05 3.6361567312085519e-05 2.8755732736429561e-05 3.9282352435189432e-05 3.3735703910495174e-05 2.5831048583303773e-05 3.5754297598146447e-05 3.0031021390898361e-05 4.8125058943203695e-05 5.5151604226689991e-05 3.1396194288818292e-05 4.4247214581748093e-05 5.0378127747881769e-05 3.9022559028401363e-05 6.2891772268407716e-05 6.5641116865719214e-05 5.1693304389914473e-05 8.2683550645524831e-05 2.4316348317987889e-05 1.5013556069581474e-05 1.5358645057466071e-05 2.3579861214056109e-05 1.9942284222624853e-05 1.4275846568392432e-05 1.7835902995411627e-05 2.864987053850128e-05 2.0165300354301415e-05 2.0179366593311294e-05 1.4784696143164184e-05 2.2435159833728329e-05 2.1276066874425069e-05 1.7502908826331875e-05 2.8613383065964906e-05 1.8589335980804848e-05 2.6200349639141532e-05 3.2971059035299673e-05 1.9637047932364101e-05 2.1413076976516253e-05 3.351679513595302e-05 1.9292793746128284e-05 3.2024434914400301e-05 3.0836502399637708e-05 2.0179283600620538e-05 2.595631611472769e-05 3.1751704120534137e-05 2.2774443546770556e-05 2.8385661243033717e-05 1.6574336309814084e-05 2.9126492175849879e-05 1.6928927075113561e-05 1.9360203897640834e-05 1.9435947456484971e-05 2.1838216652224782e-05 1.3828820198827117e-05 2.3004912567585333e-05 2.4701982958913801e-05 1.320596821316498e-05 2.5046145406256731e-05 1.8957671903166309e-05 1.4024971297828683e-05 1.7472907223626967e-05 1.6321060045565161e-05 1.0756286769613752e-05 2.0536713411930715e-05 1.586166962565229e-05 1.4680501432665319e-05 2.3125930173616418e-05 1.387800422814894e-05 1.622845814120411e-05 1.3814741288215182e-05 1.8936090395013109e-05 1.0094896859698088e-05 1.5974690035204235e-05 1.7615111210545191e-05 1.006620064497905e-05 8.0646278496465872e-06 1.3357706262756663e-05 1.2827832887109451e-05 1.8254273610904294e-05 1.1831502481795609e-05 1.0972749345522054e-05 1.0673166947379777e-05 1.8252459349998272e-05 1.362305409668446e-05 1.7424073152087992e-05 9.8003795721067738e-06 1.7753971153365731e-05 2.1155338209423375e-05 1.5733693954351916e-05 1.6166419096650329e-05 1.7215053132316676e-05 1.763573966769254e-05 1.233786700300518e-05 8.994651570420877e-06 1.2275087636175515e-05 1.5114334142198178e-05 1.8398509082356734e-05 1.3509096380511237e-05 1.1396101833939417e-05 8.8022986585878794e-06 1.506871107599933e-05 1.3039704062742875e-05 1.2302558273658207e-05 1.1572181856447812e-05 1.5793928829503351e-05 1.05724752473083e-05 1.4919171191587646e-05 1.7663971256004727e-05 1.3289690210834559e-05 1.6128311664794587e-05 2.0068306317328827e-05 1.679612868287411e-05 1.3188821408297496e-05 2.0000104741115021e-05 1.8225952767363004e-05 1.1085335671676876e-05 1.4732457646254657e-05 1.1602898728811063e-05 1.1892762121934016e-05 1.819819406753608e-05 7.9894876624427804e-06 1.3317457814305561e-05 1.3596444180236876e-05 1.1214288365300454e-05 1.204353510276985e-05 1.801971796535504e-05 1.0842839248589378e-05 1.713578724097568e-05 1.7411431603109334e-05 1.5302352174283005e-05 1.55879990814328e-05 2.1840039631643271e-05 1.3974192287360014e-05 2.3920283642103147e-05 2.050950252057084e-05 2.1902820903326558e-05 1.8355217320333044e-05 2.6696274810277958e-05 1.8449643635923387e-05 2.6797004385296862e-05 2.1328101382419539e-05 1.3819397419244104e-05 2.0636436545023797e-05 2.3410490922679412e-05 2.4638379412158077e-05 1.9017002698920353e-05 3.1877948015950064e-05 2.2604428444894359e-05 3.0580655589218094e-05 3.0161116514117173e-05 1.9540932744216736e-05 2.4512026564138332e-05 3.2091689545581266e-05 1.64119961067242e-05 2.071052585540397e-05 2.7335001776214831e-05 1.5131732414610546e-05 1.8516221557428369e-05 2.2669858175993019e-05 1.6130767163644219e-05 2.1668345794176127e-05 2.7240211124975111e-05 1.4329679900074352e-05 1.8385390216634349e-05 2.3682480506081194e-05 1.9625095940171588e-05 2.7992912083475802e-05 2.5409092506767681e-05 1.8421677852582938e-05 2.6932848527386913e-05 3.1682363826454355e-05 2.5712696741694003e-05 2.2957999788881394e-05 3.3826860585376688e-05 2.7564365969265698e-05 1.8708068366579506e-05 2.5704230319457953e-05 2.5145162772190892e-05 2.3233507844390841e-05 3.349514744190982e-05 2.1675603494479547e-05 3.2470133020419934e-05 3.2818368691350111e-05 2.9191236006225588e-05 2.9550515819695124e-05 4.1668060319234872e-05 2.4485943004034384e-05 3.2963127018168847e-05 2.9395746294978017e-05 3.0125432117376461e-05 4.181890969971