<?xml version="1.0"?>
<VTKFile type="UnstructuredGrid" version="0.1" byte_order="LittleEndian">
<UnstructuredGrid>
<Piece NumberOfPoints="3918" NumberOfCells="1306">
<Points>
<DataArray type="Float64" NumberOfComponents="3" format="ascii">
0 0 0 0.082799035591426873 0.082799035591510806 0 0 0.10000000000041601 0 0 0 0 0.099999999999928008 0 0 0.082799035591426873 0.082799035591510806 0 0 0.20000000000083221 0 0 0.10000000000041601 0 0.066361468125430589 0.15903440181097661 0 0.082799035591426873 0.082799035591510806 0 0.066361468125430589 0.15903440181097661 0 0 0.10000000000041601 0 0.082799035591426873 0.082799035591510806 0 0.140351188660986 0.16130415108589741 0 0.066361468125430589 0.15903440181097661 0 0.20669143849501961 0.085546078947938975 0 0.140351188660986 0.16130415108589741 0 0.082799035591426873 0.082799035591510806 0 0.099999999999928008 0 0 0.20669143849501961 0.085546078947938975 0 0.082799035591426873 0.082799035591510806 0 0.099999999999928008 0 0 0.19999999999983389 0 0 0.20669143849501961 0.085546078947938975 0 0.20669143849501961 0.085546078947938975 0 0.21725788110387281 0.17316968768743621 0 0.140351188660986 0.16130415108589741 0 0.20669143849501961 0.085546078947938975 0 0.29145143692666958 0.13500804559578439 0 0.21725788110387281 0.17316968768743621 0 0.29999999999973409 0 0 0.29145143692666958 0.13500804559578439 0 0.20669143849501961 0.085546078947938975 0 0.29999999999973409 0 0 0.20669143849501961 0.085546078947938975 0 0.19999999999983389 0 0 0.34318159319555042 0.3314386771104964 0 0.24783073444672249 0.24783073444648379 0 0.33604819894646598 0.23280286076243209 0 0.29145143692666958 0.13500804559578439 0 0.24783073444672249 0.24783073444648379 0 0.21725788110387281 0.17316968768743621 0 0.29145143692666958 0.13500804559578439 0 0.33604819894646598 0.23280286076243209 0 0.24783073444672249 0.24783073444648379 0 0.21725788110387281 0.17316968768743621 0 0.17318221359491059 0.27409688392309489 0 0.140351188660986 0.16130415108589741 0 0.21725788110387281 0.17316968768743621 0 0.24783073444672249 0.24783073444648379 0 0.17318221359491059 0.27409688392309489 0 0.2371857680100064 0.35865548441110112 0 0.17318221359491059 0.27409688392309489 0 0.24783073444672249 0.24783073444648379 0 0.13897501191807771 0.34545639364066222 0 0.089078158003765312 0.2493007687782936 0 0.17318221359491059 0.27409688392309489 0 0.089078158003765312 0.2493007687782936 0 0.140351188660986 0.16130415108589741 0 0.17318221359491059 0.27409688392309489 0 0.089078158003765312 0.2493007687782936 0 0.066361468125430589 0.15903440181097661 0 0.140351188660986 0.16130415108589741 0 0 0.20000000000083221 0 0.066361468125430589 0.15903440181097661 0 0.089078158003765312 0.2493007687782936 0 0 0.30000000000124832 0 0.089078158003765312 0.2493007687782936 0 0.0632094674441709 0.3449112819864934 0 0 0.20000000000083221 0 0.089078158003765312 0.2493007687782936 0 0 0.30000000000124832 0 0.083393126324559225 0.42307471369029392 0 0 0.40000000000166441 0 0.0632094674441709 0.3449112819864934 0 0 0.30000000000124832 0 0.0632094674441709 0.3449112819864934 0 0 0.40000000000166441 0 0 0.50000000000205869 0 0 0.40000000000166441 0 0.083393126324559225 0.42307471369029392 0 0.083393126324559225 0.42307471369029392 0 0.13897501191807771 0.34545639364066222 0 0.16486701364709541 0.41592657376307979 0 0.083393126324559225 0.42307471369029392 0 0.16486701364709541 0.41592657376307979 0 0.12353277228144981 0.51086097771927308 0 0.083393126324559225 0.42307471369029392 0 0.0632094674441709 0.3449112819864934 0 0.13897501191807771 0.34545639364066222 0 0.13897501191807771 0.34545639364066222 0 0.0632094674441709 0.3449112819864934 0 0.089078158003765312 0.2493007687782936 0 0 0.60000000000138687 0 0.070553891733833127 0.57745844360881338 0 0.079752623936563252 0.65630726580969023 0 0 0.60000000000138687 0 0 0.50000000000205869 0 0.070553891733833127 0.57745844360881338 0 0 0.50000000000205869 0 0.083393126324559225 0.42307471369029392 0 0.12353277228144981 0.51086097771927308 0 0 0.50000000000205869 0 0.12353277228144981 0.51086097771927308 0 0.070553891733833127 0.57745844360881338 0 0.12353277228144981 0.51086097771927308 0 0.16324260003398389 0.62262730759772122 0 0.070553891733833127 0.57745844360881338 0 0.079752623936563252 0.65630726580969023 0 0.070553891733833127 0.57745844360881338 0 0.16324260003398389 0.62262730759772122 0 0.12353277228144981 0.51086097771927308 0 0.1946526892501724 0.54636184660733622 0 0.16324260003398389 0.62262730759772122 0 0.27661118526457179 0.58730386222759956 0 0.16324260003398389 0.62262730759772122 0 0.1946526892501724 0.54636184660733622 0 0.1946526892501724 0.54636184660733622 0 0.21928696632013719 0.4676461135047027 0 0.27220668248394869 0.50912429725145214 0 0.12353277228144981 0.51086097771927308 0 0.21928696632013719 0.4676461135047027 0 0.1946526892501724 0.54636184660733622 0 0.27661118526457179 0.58730386222759956 0 0.27220668248394869 0.50912429725145214 0 0.34793494568226019 0.52426775179830853 0 0.34793494568226019 0.52426775179830853 0 0.27220668248394869 0.50912429725145214 0 0.29987747321592639 0.43430880093746571 0 0.29987747321592639 0.43430880093746571 0 0.27220668248394869 0.50912429725145214 0 0.21928696632013719 0.4676461135047027 0 0.27661118526457179 0.58730386222759956 0 0.1946526892501724 0.54636184660733622 0 0.27220668248394869 0.50912429725145214 0 0.13897501191807771 0.34545639364066222 0 0.2371857680100064 0.35865548441110112 0 0.16486701364709541 0.41592657376307979 0 0.13897501191807771 0.34545639364066222 0 0.17318221359491059 0.27409688392309489 0 0.2371857680100064 0.35865548441110112 0 0.2371857680100064 0.35865548441110112 0 0.21928696632013719 0.4676461135047027 0 0.16486701364709541 0.41592657376307979 0 0.12353277228144981 0.51086097771927308 0 0.16486701364709541 0.41592657376307979 0 0.21928696632013719 0.4676461135047027 0 0.2371857680100064 0.35865548441110112 0 0.29987747321592639 0.43430880093746571 0 0.21928696632013719 0.4676461135047027 0 0.2371857680100064 0.35865548441110112 0 0.34318159319555042 0.3314386771104964 0 0.29987747321592639 0.43430880093746571 0 0.34318159319555042 0.3314386771104964 0 0.2371857680100064 0.35865548441110112 0 0.24783073444672249 0.24783073444648379 0 0.38593969585746768 0.44843324941957241 0 0.34318159319555042 0.3314386771104964 0 0.42544665781957403 0.3726599289372452 0 0.38593969585746768 0.44843324941957241 0 0.29987747321592639 0.43430880093746571 0 0.34318159319555042 0.3314386771104964 0 0.38593969585746768 0.44843324941957241 0 0.42544665781957403 0.3726599289372452 0 0.47711113382803011 0.43513410852522788 0 0.47711113382803011 0.43513410852522788 0 0.42544665781957403 0.3726599289372452 0 0.49272830291620878 0.32528628960011152 0 0.42544665781957403 0.3726599289372452 0 0.41589935411558732 0.26752529264016389 0 0.49272830291620878 0.32528628960011152 0 0.42544665781957403 0.3726599289372452 0 0.34318159319555042 0.3314386771104964 0 0.41589935411558732 0.26752529264016389 0 0.27661118526457179 0.58730386222759956 0 0.34793494568226019 0.52426775179830853 0 0.38240158409674341 0.60644575028138747 0 0.27661118526457179 0.58730386222759956 0 0.38240158409674341 0.60644575028138747 0 0.32437633398017029 0.65970549827478953 0 0.38593969585746768 0.44843324941957241 0 0.34793494568226019 0.52426775179830853 0 0.29987747321592639 0.43430880093746571 0 0.38593969585746768 0.44843324941957241 0 0.47711113382803011 0.43513410852522788 0 0.45232393232070839 0.53082724112931345 0 0.38593969585746768 0.44843324941957241 0 0.45232393232070839 0.53082724112931345 0 0.34793494568226019 0.52426775179830853 0 0.38240158409674341 0.60644575028138747 0 0.34793494568226019 0.52426775179830853 0 0.45232393232070839 0.53082724112931345 0 0.38240158409674341 0.60644575028138747 0 0.45232393232070839 0.53082724112931345 0 0.46433624429412901 0.61260020600107856 0 0.56379254693201075 0.58472273515948836 0 0.46433624429412901 0.61260020600107856 0 0.45232393232070839 0.53082724112931345 0 0.5174764925733939 0.65338828204098198 0 0.46433624429412901 0.61260020600107856 0 0.56379254693201075 0.58472273515948836 0 0.55763912874459476 0.49619993861770217 0 0.45232393232070839 0.53082724112931345 0 0.47711113382803011 0.43513410852522788 0 0.55763912874459476 0.49619993861770217 0 0.56379254693201075 0.58472273515948836 0 0.45232393232070839 0.53082724112931345 0 0.64897033023755402 0.45530630145656431 0 0.66278242936710119 0.53985356489900171 0 0.55763912874459476 0.49619993861770217 0 0.56379254693201075 0.58472273515948836 0 0.55763912874459476 0.49619993861770217 0 0.66278242936710119 0.53985356489900171 0 0.65500944633069913 0.60601350811213128 0 0.59670004617370476 0.65981579440137683 0 0.56379254693201075 0.58472273515948836 0 0.56509579243166053 0.39588847936247551 0 0.47711113382803011 0.43513410852522788 0 0.49272830291620878 0.32528628960011152 0 0.56509579243166053 0.39588847936247551 0 0.55763912874459476 0.49619993861770217 0 0.47711113382803011 0.43513410852522788 0 0.56509579243166053 0.39588847936247551 0 0.65823561246403328 0.35502292901158627 0 0.64897033023755402 0.45530630145656431 0 0.56509579243166053 0.39588847936247551 0 0.64897033023755402 0.45530630145656431 0 0.55763912874459476 0.49619993861770217 0 0.56509579243166053 0.39588847936247551 0 0.49272830291620878 0.32528628960011152 0 0.58612580217118482 0.27813894450229909 0 0.56509579243166053 0.39588847936247551 0 0.58612580217118482 0.27813894450229909 0 0.65823561246403328 0.35502292901158627 0 0.49272830291620878 0.32528628960011152 0 0.49255105193724569 0.22337579986912359 0 0.58612580217118482 0.27813894450229909 0 0.49255105193724569 0.22337579986912359 0 0.50264032148191051 0.12292784096123539 0 0.5565830077206213 0.19095699352548859 0 0.49255105193724569 0.22337579986912359 0 0.5565830077206213 0.19095699352548859 0 0.58612580217118482 0.27813894450229909 0 0.64669101990832323 0.1799054750174742 0 0.58612580217118482 0.27813894450229909 0 0.55658
[...]
<PointData Scalars="A_conc," Vectors="" Tensors="">
<DataArray type="Float64" Name="A_conc" format="ascii">
0.0029661751210335791 0.0035099671353137668 0.0028761843310352304 0.0028879079197262885 0.0036684434044802821 0.0034487204130794324 0.0029078677528136094 0.0028888227205735241 0.0033889856789830965 0.0034625359912155615 0.0033381502675884321 0.002832888296837368 0.0033706763884129016 0.0038533053411810739 0.0032444526227510474 0.0043558872170430547 0.0037548526109228721 0.0032659506363072618 0.0035319666934758563 0.0043854718617894906 0.0033095338100317885 0.003432731930649852 0.004356591499304791 0.0043053993260681487 0.0042649722274604703 0.004382871871819633 0.0036517287897576151 0.0041427316686506871 0.005010177277928656 0.0042621294730088837 0.0051677496291258071 0.0049269037706004964 0.0040736682119180247 0.0052269940836680833 0.004147902973371591 0.0041974584907390712 0.0054836901901140584 0.0043921658561810123 0.0054029634277114316 0.0049936034281457351 0.0045669968794306293 0.0042247726898545588 0.0048891049189976115 0.0054364097964947657 0.0044579830056188765 0.0044081962446623759 0.0040156156086126327 0.0036842747787438962 0.0043251970096557643 0.0046594937710627352 0.0039251416109599554 0.004541684368768768 0.003896677509332775 0.0046415085704761818 0.0037996586292185141 0.0033643100642081099 0.0040984242555135303 0.0033634952950569166 0.0037804721614112125 0.0041074361646952114 0.0034445508599562479 0.0032427867669891867 0.0038552528934911266 0.0028404108393976796 0.0033365797250501606 0.0035356444757140958 0.0028550656649519038 0.0035357028452365716 0.0033408072130686247 0.002891768909008548 0.0035694061376974084 0.002908206058064564 0.0034785869723302524 0.0028500524203410836 0.0033502648619283815 0.0029254189304423108 0.0033962706562235155 0.0029144986610084873 0.0028908711547478831 0.002901639416442114 0.0035204359731967005 0.0033130665233887767 0.0038145627257407753 0.0040190302290575575 0.0033338564442484597 0.0040355187510072122 0.0036663776259948707 0.0033858786744535778 0.0032556904255168369 0.0038805714891992859 0.0038738532036032463 0.0032467976231941179 0.0034443574820531477 0.0028516108029025071 0.0033919508850520264 0.0034584113382273214 0.0029144033069951562 0.002898019272552687 0.0034310431757186809 0.002802250671778988 0.0034470850425377332 0.0037726034269070581 0.0028152196865487878 0.0037770171395349558 0.0033521479312288668 0.0036727005096360496 0.004040604444952401 0.003238391564793215 0.0033486265633789472 0.0032812738152996675 0.0040592504620047863 0.0035806998120464445 0.0042350604948136802 0.0039536193938203654 0.004947240968017649 0.0038281982160627099 0.0041138091590947534 0.0040747609756158262 0.0043137843304151954 0.0048648346318272999 0.0035316982117486228 0.0044301995115395331 0.0041946004848328082 0.0047321594089205464 0.0046872783414935865 0.0055439678339652097 0.0055298713695993967 0.0046614745070354489 0.0049657590217990384 0.0050792819460221961 0.0047785521277953196 0.0042159444016556151 0.0048660787607407198 0.0040133071909177103 0.0048218084298368305 0.0036976181968476221 0.0046130211184783497 0.0039035175771035746 0.0036870012179658516 0.003985843392006562 0.0046209826960909688 0.0045582647689502397 0.004367047051557842 0.0038415032038973942 0.0035632358002287206 0.0039375497365848706 0.0044495354890952974 0.0044466521866249852 0.0051073765249905817 0.0042533488547303721 0.0043270806520272851 0.0055217452137829104 0.0050025758186621611 0.0055589028319518782 0.0043938663503471365 0.0044949490577811009 0.0057802386527028484 0.0052615958535099901 0.0063129400349484829 0.0059014544440960416 0.0048623563357513798 0.00538988321518681 0.0056376921299950136 0.0061730246202188043 0.0068939990462833197 0.0067826866406211208 0.0060485703511255354 0.0070378677945176606 0.0061303414769288559 0.0060107276235511287 0.0071043139492972989 0.0062900016356323002 0.0052177554248789152 0.0061719775210071718 0.0046215277118511165 0.0054440792609132373 0.0058906972244263389 0.0046569296843239055 0.005902994363115188 0.0051949637879279411 0.0058914793692516655 0.005425726359219998 0.0048550844893378454 0.0055978858541094172 0.0068687005484429822 0.0065091995980661732 0.0057404628700968062 0.0066369081789608752 0.0052710729175522754 0.0057222051773379978 0.0052682400169830343 0.0066282319875726817 0.0055927265855046102 0.0065129899892904164 0.0067295359892788021 0.0080352814916885094 0.0065240924811686349 0.0063047366053987329 0.0072220747715634123 0.0064142073714127754 0.0079821969776949411 0.0079239358997561082 0.0063104869893951775 0.0066751842588579288 0.0078283675607354018 0.0079386529126958434 0.0061730757763242342 0.0090778979206752927 0.0093322966693641513 0.0074156271610994178 0.0076729614860565516 0.00756077915625635 0.0094253238176871951 0.0092673808216004946 0.0081967658726944548 0.0076388051719656139 0.0080046268255449023 0.0066159702078972798 0.0068736369128400698 0.007928800975457357 0.007803141585431962 0.0065181506608909369 0.0075507074338619432 0.0092653376500349393 0.0090632321608978255 0.0077088613374684881 0.0091928126236698673 0.007581478835134714 0.0078810043992031207 0.0067182143926134748 0.0082643017079857863 0.0076624950113902534 0.0080509184337685218 0.0093437917600192114 0.0068400461766920523 0.0068155234119625426 0.0083352574120846307 0.0068388074933109317 0.0069586525086046376 0.0078364020304165921 0.0067139300741513985 0.0077397955501579425 0.0082710880716039895 0.0091218743601386432 0.0080752718531444528 0.0075376939548534045 0.0078414639915474187 0.009115670598845169 0.0075473422321093529 0.0083580388184430945 0.0093350906745527876 0.0077652898036470221 0.006894153213153599 0.0085588970756578491 0.0079691639224351296 0.0070203701207485741 0.0080921086309742735 0.0068907106708743556 0.0071867030853272956 0.0070577875392035692 0.006117782293470442 0.0080277516665195718 0.0077367528275531896 0.0068526958084482231 0.0057975422177719274 0.0062252566196576821 0.0071772500432512086 0.0063766337312368953 0.0059530382803759108 0.0053845724261624523 0.0058721949264523557 0.0072829059616394748 0.0062252605504788594 0.0060335469404272863 0.0063817569135023221 0.0053907588977799856 0.0061569470732754138 0.005519282676906879 0.0049292976976658123 0.0050337629289542336 0.0056277571246912909 0.0047900473364026292 0.0060901654498475739 0.0047123788883656256 0.0055309487404377354 0.0061113334234515603 0.0052936546081448575 0.0047415512579831983 0.0051587934440354439 0.0059996386938790704 0.0062051119869755214 0.0052418867610197492 0.0062553166937934458 0.0053238660907413875 0.0070190071792180109 0.0070432644999061707 0.0059125959758191959 0.0057213788361704966 0.0071333789724764181 0.0070155080069186707 0.0071051108202209671 0.0060399867247880133 0.0058320274651346218 0.0029220066115367522 0.0029059427229222454 0.0034650738915409729 0.0036271978293149574 0.002855089674919464 0.0034041322226125463 0.0035316302072069252 0.003305944864061724 0.0039127868604283602 0.0034392138935063266 0.0038241530192876252 0.0043295024283790551 0.0042399266921168679 0.003729571436445412 0.0044534838830918681 0.0051441364192606172 0.0041135603607570983 0.0043299459644078695 0.0050498974238309602 0.0042249637434714424 0.0052315567255668619 0.0043157643795605468 0.0042964324109601411 0.0051101558090544024 0.0042243023262158131 0.0050351378602625993 0.0052282981536831115 0.0044352959387645224 0.0037632116364231475 0.0044162486992892396 0.0044975815469527891 0.0036584477097371688 0.00383480506169891 0.0044957213247306168 0.0037827562551480736 0.0036639423162087006 0.0032792321467811358 0.0037751806792057242 0.0038926459624294071 0.0033374056017005087 0.0033357332880633557 0.0038223143106812215 0.0034258739968753608 0.002850816968598346 0.0034242379637804293 0.0029113609054608313 0.0034683499381630021 0.00290564512352663 0.0028412145366576175 0.0035323522406567349 0.0034175169589995488 0.0032726967826952587 0.0039443727807583267 0.0037701796038128932 0.0034302335828081182 0.003976201287572736 0.0033137237015397605 0.0034189007766156103 0.0033381277535896809 0.0040722339171486302 0.0033564134843249134 0.0040174862343059364 0.0039198064764451139 0.0028997590094952683 0.0028997725435708612 0.0035736983418583864 0.0035302865498508416 0.0028368471448035198 0.0034507355761023532 0.0029035953704551511 0.0035003029011602561 0.0029060971100814412 0.0032700713368935055 0.003993666079931641 0.0040321209416883871 0.0049107901699779483 0.0046788635967617634 0.0037581727025038109 0.0047601384093546896 0.0038991755898390747 0.0038601937077771637 0.0043711408633332356 0.003836366375271477 0.0047189806527270749 0.0039198326659877127 0.0044517544000658837 0.0038208950178054858 0.00425877645990058 0.0046115495373215548 0.0050826617030279037 0.0045028364842785136 0.0054621375874772012 0.0049795936484773595 0.0044712718854794569 0.0052718509856915429 0.0054425496418962467 0.0047779628624688656 0.0053160160057729453 0.0045417425596071034 0.0063735071111380654 0.0050402761071649919 0.0057614894782408504 0.0064062294403239356 0.0052756470423521787 0.0051027003346492249 0.0062286996154870752 0.0060992276298256314 0.0075709578825969674 0.0064334377764701045 0.0051400523257909428 0.0063059565668968755 0.0062340718789254783 0.0056132242240309379 0.0067305714248894599 0.0073288745315449721 0.0074978737818984752 0.0059818158722608136 0.0073872774319585456 0.0060829722349074753 0.0065819541116199374 0.0071248283798952521 0.0084316337941231882 0.0072964446033022285 0.0070546556135594029 0.0078246722449776575 0.0083759120153974569 0.0087173811001615732 0.0086743349064136097 0.0071078371551522961 0.0087453609931868945 0.0071515261066992641 0.0083066345699050297 0.0065204016773331873 0.0062223354661404091 0.0072913189054470669 0.0061189349428964488 0.0074838816867137973 0.0072180208441964501 0.0088014197759594646 0.0069922842730291302 0.0072615590885944624 0.0087735958731418439 0.0078433287685092182 0.0069313186622319035 0.0091613802168005135 0.0074788494564744425 0.0077737973812592575 0.0090891433058528405 0.0076606013332320179 0.0086066727269178619 0.0062887917097536015 0.0080074668535299511 0.0077171284354963267 0.0063585516069662677 0.0071418514102016984 0.0080402701341963662 0.00558795181754856 0.0055270140787682439 0.0067278340265774211 0.0066747226994876225 0.0054445756676211009 0.0063803570191691044 0.0064903503201923741 0.0055911933989686077 0.0052148521395156107 0.0048703654062192646 0.0053575676229490714 0.0057300752293210399 0.0049026945300139641 0.0057456194028488432 0.0050980417913259399 0.0049130144380046493 0.0050979171131192201 0.0057881436889578907 0.005735839697798493 0.0050196792913032359 0.005675510970011656 0.0060548357711925245 0.0048294925047751829 0.0057056719862689986 0.0058939962232178247 0.0055453766512856889 0.0066960137697994818 0.0057518590137281 0.0065636661527058038 0.0071692258434485501 0.0070008143503133349 0.0063908025837363033 0.0077832252414988951 0.0084611465499221505 0.0068278055115697581 0.0076098436982654626 0.0082757330595082512 0.0074189738250924481 0.0091193502736753862 0.0097559574399427133 0.0087106645989279245 0.010591439422900157 0.0080640414132623697 0.0089188137937879428 0.0099529263902450957 0.011689427282765657 0.0095180009816828743 0.010356571554375719 0.013624325468878167 0.01108677278090818 0.013128337596091602 0.013348757305596341 0.012847975645731502 0.01475606780664635 0.011561398247616707 0.014534003044013892 0.013017031691196267 0.014313216985952823 0.014720128504195691 0.012761538790440938 0.012253678964749255 0.014039882706579689 0.011657552933787113 0.011453411858525114 0.013889578364895313 0.01446005543065825 0.012517971998810275 0.011928683459852854 0.010592352303655772 0.01125088843258989 0.011845741250628473 0.01325957286796656 0.011497162556320507 0.010148225333174436 0.012085654113153755 0.01218316268135745 0.010311295059830028 0.0098424526911748151 0.0086759374319588904 0.010124142940481244 0.010586665435720483 0.0088774189544569976 0.008389975317826405 0.010281907166833136 0.0082997462529621705 0.0096816831590238895 0.010218198286286891 0.010005397606034437 0.0094617279206989525 0.011016498252096569 0.012133035137701866 0.0097786155291517511 0.010814395530004991 0.010375245964941895 0.012057352470575324 0.010752051443545855 0.0092709941507646068 0.010717471901303576 0.0095506548293373163 0.010587629062531741 0.010960482144367539 0.0094004146107876385 0.009459260032139977 0.0097361103978664282 0.008400553175305147 0.0084547014334469348 0.0084983185649514115 0.0098121903671654909 0.0088891043859036269 0.010809765081579818 0.009296661345832978 0.0081052777435967789 0.0095780196457011385 0.0085514454657305786 0.0091162967039790758 0.0095192863285714132 0.0080350671618540006 0.010682833178976291 0.010636756871162115 0.0091479091370313993 0.010451524484392884 0.012065647613782905 0.010404829969837173 0.010260462002025733 0.012713781463436748 0.011891105774553677 0.013742861511830275 0.011623981094329321 0.012449176522173686 0.013747189333773686 0.012248943398028983 0.011651546280306461 0.012493307849983648 0.010578317477253857 0.011896861775359369 0.015660728886335594 0.013616335976240445 0.013308009042901485 0.013584217388257321 0.013889605651985645 0.012067761350631132 0.014935926641449972 0.013494597273181416 0.012186677510041807 0.013248489157505986 0.014710290266961714 0.015337672020374928 0.014387237316124481 0.017329098450754195 0.015037729078259385 0.01523889894349402 0.014955750925853335 0.017287849809067609 0.015546481864856732 0.013152214283150783 0.015266403985292734 0.01500077075328941 0.01706808826078365 0.01803156034566265 0.015031383679054187 0.018041376364352744 0.016745119188670884 0.016392059263302283 0.020366555745919852 0.020338880877064688 0.023623363303099765 0.019829432742029703 0.019857593379287091 0.023459424099431837 0.022510292103788715 0.019591879339562655 0.02530568821415112 0.021336705549728704 0.022260674717791286 0.019758316435690336 0.022642051028039969 0.021741352993961099 0.016660374558854042 0.020512556289512714 0.017635827093738926 0.020029157181574789 0.021993182721962542 0.018921067687131695 0.017411358308095364 0.0203531619617646 0.019254580454960857 0.019655801883780522 0.018963419002429309 0.02203114149381372 0.016191603680537629 0.019382475383405831 0.020065887994549798 0.022844675790921854 0.021355249783543674 0.024784855982779179 0.021277419252862015 0.019398804866565894 0.02324639998684596 0.019342347120762472 0.021741629326572681 0.02321292507471822 0.016454841863258258 0.020255464079646558 0.016359444186899483 0.016409782689717128 0.017721057575327454 0.01953229975207214 0.015391298028383738 0.017079560608563124 0.013302758738408804 0.017148752317187141 0.01403657809222832 0.01345680644984526 0.016984378180614983 0.014402118813768029 0.013991319221474516 0.016930396144181226 0.016836496369283555 0.013744586563143653 0.013111223082832094 0.01451372459578772 0.015985023915999513 0.015718458447152625 0.014226311237181995 0.016837575909977379 0.015384599630902614 0.016515375271047534 0.01864582414746364 0.020166283332502768 0.018313245195195865 0.016153481078630516 0.021640430961876626 0.017908774051882712 0.019786491692104387 0.020866895513038573 0.022862628145344534 0.025092519727296026 0.010429439194881544 0.012754174489686613 0.010463372704856462 0.011717655408010194 0.010322250042813291 0.012654748160417196 0.011478715048892122 0.014001335139034175 0.01206324098150985 0.012337965465009929 0.010423458884381972 0.011760340094184203 0.011428535017653235 0.012378444293268667 0.013988292323337646 0.015209910739241956 0.013708031170945302 0.012077166838954611 0.012648963386808064 0.015271779995300994 0.012184239502860853 0.012417967256176821 0.014891885017758035 0.015093164367982165 0.012551105640886838 0.013505644487021672 0.015005607891968706 0.012841920508496765 0.011280521117289158 0.013787131984382282 0.013883477485467515 0.011410041723019747 0.011406488434698331 0.011697308942838531 0.011700250199058166 0.010145313583736647 0.013032090777481438 0.012575251850977616 0.010199558897037131 0.013092478927380739 0.010301713477962118 0.011557871749553365 0.010762211760529342 0.0088860951542875724 0.010471964836780003 0.010534935186659282 0.010240912907589434 0.01177920773501456 0.011849301461111227 0.010315494048195106 0.0096654712377131045 0.0081665720213082282 0.01008076582538951 0.0091571874396089749 0.0089612166002388978 0.0098937026443279702 0.010539555400620152 0.0089795015362100113 0.0076924800766414352 0.0092982570143383403 0.010883026545712346 0.0087186538720739181 0.0090430515781449571 0.0086999032496231071 0.010873698872759562 0.0095512482074809803 0.010758599380474231 0.010792255460297549 0.0085614489772160886 0.010518716221533581 0.011885758733656868 0.010608065749744156 0.010718614680640139 0.010807185517686673 0.0093666963995995989 0.0089456069178471039 0.0097863579546055724 0.0078850751390546776 0.0095412300581464611 0.010923725355565524 0.0089354050433039251 0.0097824929024161126 0.0091856597021155156 0.0078561087872841898 0.0088569091607445995 0.0090617649373545568 0.010097157527145245 0.010732173613418775 0.0087054206833432641 0.0099628813986445876 0.010511677952618627 0.0097327317221875716 0.011544653004232335 0.0097245877438679341 0.01068464098834776 0.011539611681052657 0.0099413119894797217 0.0088827169189008449 0.010890172261424417 0.0089328440329680212 0.009036349744641934 0.010844578680395558 0.0092016643606333045 0.0075156769966809572 0.0093035816769417752 0.010791670100657673 0.0090625327461532693 0.008804206916108526 0.010721262189020239 0.0088847114250611009 0.010655558822924478 0.010468807351473116 0.01040229908105833 0.012087396728111925 0.010261282734730938 0.011914428919490192 0.012732620313196365 0.012482194634959294 0.011652335925296386 0.013591469552608705 0.012346568874047352 0.013602943852709248 0.011661796508176595 0.010208803212835611 0.012603738501804795 0.011928120542895986 0.012088144293942771 0.014924456571556662 0.013356968038804703 0.014798235021972285 0.013137778768766394 0.014732271659835386 0.01496937844508643 0.01222044514112868 0.013344017353265696 0.013675899742708931 0.011084853803121825 0.012123820496139685 0.012367910434039758 0.011342490426730205 0.01046623406868415 0.013658844497426078 0.012391654991614326 0.01104408332208987 0.010275822465772699 0.011319752279246866 0.012642473699578261 0.013441027559971248 0.014013261813994902 0.012156739955075387 0.012021539446295849 0.013893151705592788 0.014900059263379756 0.015459780930880122 0.01376803550937206 0.013175557363417335 0.01348131953780814 0.011893064992991614 0.013864675530385659 0.013214623416532553 0.013601641321871437 0.015357593183298674 0.015351905399772953 0.01304678925491071 0.015248580174865755 0.015033761437923104 0.014929160919029072 0.017310550360719001 0.015365771532091401 0.014654816364461731 0.013635930928196838 0.014373153189244148 0.015089240536240632 0.017323559709657807 0.016854814438056302 0.019015454119771548 0.016819576950253243 0.017160527982656985 0.017125530923054844 0.014851293079743869 0.014454200840651948 0.01438776241130384 0.017682352908589407 0.016718822372079563 0.020337058598945749 0.017045191238178235 0.014143171583836187 0.017172127012012525 0.017493915763191939 0.017061626574485535 0.020566664192617826 0.016690796529376321 0.014183515101669396 0.017523801621682347 0.017158094106656321 0.016740123223499791 0.020104353761641814 0.020341162382415772 0.023118207894916181 0.024039490100185933 0.019274436059416391 0.01981190449122771 0.019572046754114572 0.024227417329941315 0.023367348255587981 0.019478355043229742 0.0239965802197133 0.021468087806359861 0.018478886244755858 0.0191749739959968 0.019520252674781552 0.018830716667082976 0.01662893814099985 0.018457912298048443 0.020904398630511994 0.019934158432150406 0.016542981939786591 0.018776801637056223 0.020235914069340111 0.021352947701915807 0.020782280318615426 0.018326427570934209 0.023339999904985066 0.019551248146049575 0.020576150057324858 0.021008666290431671 0.023231554012795943 0.020432572261821259 0.02077558854698