<?xml version="1.0"?>
<VTKFile type="UnstructuredGrid" version="0.1" byte_order="LittleEndian">
<UnstructuredGrid>
<Piece NumberOfPoints="3918" NumberOfCells="1306">
<Points>
<DataArray type="Float64" NumberOfComponents="3" format="ascii">
0 0 0 0.082799035591426873 0.082799035591510806 0 0 0.10000000000041601 0 0 0 0 0.099999999999928008 0 0 0.082799035591426873 0.082799035591510806 0 0 0.20000000000083221 0 0 0.10000000000041601 0 0.066361468125430589 0.15903440181097661 0 0.082799035591426873 0.082799035591510806 0 0.066361468125430589 0.15903440181097661 0 0 0.10000000000041601 0 0.082799035591426873 0.082799035591510806 0 0.140351188660986 0.16130415108589741 0 0.066361468125430589 0.15903440181097661 0 0.20669143849501961 0.085546078947938975 0 0.140351188660986 0.16130415108589741 0 0.082799035591426873 0.082799035591510806 0 0.099999999999928008 0 0 0.20669143849501961 0.085546078947938975 0 0.082799035591426873 0.082799035591510806 0 0.099999999999928008 0 0 0.19999999999983389 0 0 0.20669143849501961 0.085546078947938975 0 0.20669143849501961 0.085546078947938975 0 0.21725788110387281 0.17316968768743621 0 0.140351188660986 0.16130415108589741 0 0.20669143849501961 0.085546078947938975 0 0.29145143692666958 0.13500804559578439 0 0.21725788110387281 0.17316968768743621 0 0.29999999999973409 0 0 0.29145143692666958 0.13500804559578439 0 0.20669143849501961 0.085546078947938975 0 0.29999999999973409 0 0 0.20669143849501961 0.085546078947938975 0 0.19999999999983389 0 0 0.34318159319555042 0.3314386771104964 0 0.24783073444672249 0.24783073444648379 0 0.33604819894646598 0.23280286076243209 0 0.29145143692666958 0.13500804559578439 0 0.24783073444672249 0.24783073444648379 0 0.21725788110387281 0.17316968768743621 0 0.29145143692666958 0.13500804559578439 0 0.33604819894646598 0.23280286076243209 0 0.24783073444672249 0.24783073444648379 0 0.21725788110387281 0.17316968768743621 0 0.17318221359491059 0.27409688392309489 0 0.140351188660986 0.16130415108589741 0 0.21725788110387281 0.17316968768743621 0 0.24783073444672249 0.24783073444648379 0 0.17318221359491059 0.27409688392309489 0 0.2371857680100064 0.35865548441110112 0 0.17318221359491059 0.27409688392309489 0 0.24783073444672249 0.24783073444648379 0 0.13897501191807771 0.34545639364066222 0 0.089078158003765312 0.2493007687782936 0 0.17318221359491059 0.27409688392309489 0 0.089078158003765312 0.2493007687782936 0 0.140351188660986 0.16130415108589741 0 0.17318221359491059 0.27409688392309489 0 0.089078158003765312 0.2493007687782936 0 0.066361468125430589 0.15903440181097661 0 0.140351188660986 0.16130415108589741 0 0 0.20000000000083221 0 0.066361468125430589 0.15903440181097661 0 0.089078158003765312 0.2493007687782936 0 0 0.30000000000124832 0 0.089078158003765312 0.2493007687782936 0 0.0632094674441709 0.3449112819864934 0 0 0.20000000000083221 0 0.089078158003765312 0.2493007687782936 0 0 0.30000000000124832 0 0.083393126324559225 0.42307471369029392 0 0 0.40000000000166441 0 0.0632094674441709 0.3449112819864934 0 0 0.30000000000124832 0 0.0632094674441709 0.3449112819864934 0 0 0.40000000000166441 0 0 0.50000000000205869 0 0 0.40000000000166441 0 0.083393126324559225 0.42307471369029392 0 0.083393126324559225 0.42307471369029392 0 0.13897501191807771 0.34545639364066222 0 0.16486701364709541 0.41592657376307979 0 0.083393126324559225 0.42307471369029392 0 0.16486701364709541 0.41592657376307979 0 0.12353277228144981 0.51086097771927308 0 0.083393126324559225 0.42307471369029392 0 0.0632094674441709 0.3449112819864934 0 0.13897501191807771 0.34545639364066222 0 0.13897501191807771 0.34545639364066222 0 0.0632094674441709 0.3449112819864934 0 0.089078158003765312 0.2493007687782936 0 0 0.60000000000138687 0 0.070553891733833127 0.57745844360881338 0 0.079752623936563252 0.65630726580969023 0 0 0.60000000000138687 0 0 0.50000000000205869 0 0.070553891733833127 0.57745844360881338 0 0 0.50000000000205869 0 0.083393126324559225 0.42307471369029392 0 0.12353277228144981 0.51086097771927308 0 0 0.50000000000205869 0 0.12353277228144981 0.51086097771927308 0 0.070553891733833127 0.57745844360881338 0 0.12353277228144981 0.51086097771927308 0 0.16324260003398389 0.62262730759772122 0 0.070553891733833127 0.57745844360881338 0 0.079752623936563252 0.65630726580969023 0 0.070553891733833127 0.57745844360881338 0 0.16324260003398389 0.62262730759772122 0 0.12353277228144981 0.51086097771927308 0 0.1946526892501724 0.54636184660733622 0 0.16324260003398389 0.62262730759772122 0 0.27661118526457179 0.58730386222759956 0 0.16324260003398389 0.62262730759772122 0 0.1946526892501724 0.54636184660733622 0 0.1946526892501724 0.54636184660733622 0 0.21928696632013719 0.4676461135047027 0 0.27220668248394869 0.50912429725145214 0 0.12353277228144981 0.51086097771927308 0 0.21928696632013719 0.4676461135047027 0 0.1946526892501724 0.54636184660733622 0 0.27661118526457179 0.58730386222759956 0 0.27220668248394869 0.50912429725145214 0 0.34793494568226019 0.52426775179830853 0 0.34793494568226019 0.52426775179830853 0 0.27220668248394869 0.50912429725145214 0 0.29987747321592639 0.43430880093746571 0 0.29987747321592639 0.43430880093746571 0 0.27220668248394869 0.50912429725145214 0 0.21928696632013719 0.4676461135047027 0 0.27661118526457179 0.58730386222759956 0 0.1946526892501724 0.54636184660733622 0 0.27220668248394869 0.50912429725145214 0 0.13897501191807771 0.34545639364066222 0 0.2371857680100064 0.35865548441110112 0 0.16486701364709541 0.41592657376307979 0 0.13897501191807771 0.34545639364066222 0 0.17318221359491059 0.27409688392309489 0 0.2371857680100064 0.35865548441110112 0 0.2371857680100064 0.35865548441110112 0 0.21928696632013719 0.4676461135047027 0 0.16486701364709541 0.41592657376307979 0 0.12353277228144981 0.51086097771927308 0 0.16486701364709541 0.41592657376307979 0 0.21928696632013719 0.4676461135047027 0 0.2371857680100064 0.35865548441110112 0 0.29987747321592639 0.43430880093746571 0 0.21928696632013719 0.4676461135047027 0 0.2371857680100064 0.35865548441110112 0 0.34318159319555042 0.3314386771104964 0 0.29987747321592639 0.43430880093746571 0 0.34318159319555042 0.3314386771104964 0 0.2371857680100064 0.35865548441110112 0 0.24783073444672249 0.24783073444648379 0 0.38593969585746768 0.44843324941957241 0 0.34318159319555042 0.3314386771104964 0 0.42544665781957403 0.3726599289372452 0 0.38593969585746768 0.44843324941957241 0 0.29987747321592639 0.43430880093746571 0 0.34318159319555042 0.3314386771104964 0 0.38593969585746768 0.44843324941957241 0 0.42544665781957403 0.3726599289372452 0 0.47711113382803011 0.43513410852522788 0 0.47711113382803011 0.43513410852522788 0 0.42544665781957403 0.3726599289372452 0 0.49272830291620878 0.32528628960011152 0 0.42544665781957403 0.3726599289372452 0 0.41589935411558732 0.26752529264016389 0 0.49272830291620878 0.32528628960011152 0 0.42544665781957403 0.3726599289372452 0 0.34318159319555042 0.3314386771104964 0 0.41589935411558732 0.26752529264016389 0 0.27661118526457179 0.58730386222759956 0 0.34793494568226019 0.52426775179830853 0 0.38240158409674341 0.60644575028138747 0 0.27661118526457179 0.58730386222759956 0 0.38240158409674341 0.60644575028138747 0 0.32437633398017029 0.65970549827478953 0 0.38593969585746768 0.44843324941957241 0 0.34793494568226019 0.52426775179830853 0 0.29987747321592639 0.43430880093746571 0 0.38593969585746768 0.44843324941957241 0 0.47711113382803011 0.43513410852522788 0 0.45232393232070839 0.53082724112931345 0 0.38593969585746768 0.44843324941957241 0 0.45232393232070839 0.53082724112931345 0 0.34793494568226019 0.52426775179830853 0 0.38240158409674341 0.60644575028138747 0 0.34793494568226019 0.52426775179830853 0 0.45232393232070839 0.53082724112931345 0 0.38240158409674341 0.60644575028138747 0 0.45232393232070839 0.53082724112931345 0 0.46433624429412901 0.61260020600107856 0 0.56379254693201075 0.58472273515948836 0 0.46433624429412901 0.61260020600107856 0 0.45232393232070839 0.53082724112931345 0 0.5174764925733939 0.65338828204098198 0 0.46433624429412901 0.61260020600107856 0 0.56379254693201075 0.58472273515948836 0 0.55763912874459476 0.49619993861770217 0 0.45232393232070839 0.53082724112931345 0 0.47711113382803011 0.43513410852522788 0 0.55763912874459476 0.49619993861770217 0 0.56379254693201075 0.58472273515948836 0 0.45232393232070839 0.53082724112931345 0 0.64897033023755402 0.45530630145656431 0 0.66278242936710119 0.53985356489900171 0 0.55763912874459476 0.49619993861770217 0 0.56379254693201075 0.58472273515948836 0 0.55763912874459476 0.49619993861770217 0 0.66278242936710119 0.53985356489900171 0 0.65500944633069913 0.60601350811213128 0 0.59670004617370476 0.65981579440137683 0 0.56379254693201075 0.58472273515948836 0 0.56509579243166053 0.39588847936247551 0 0.47711113382803011 0.43513410852522788 0 0.49272830291620878 0.32528628960011152 0 0.56509579243166053 0.39588847936247551 0 0.55763912874459476 0.49619993861770217 0 0.47711113382803011 0.43513410852522788 0 0.56509579243166053 0.39588847936247551 0 0.65823561246403328 0.35502292901158627 0 0.64897033023755402 0.45530630145656431 0 0.56509579243166053 0.39588847936247551 0 0.64897033023755402 0.45530630145656431 0 0.55763912874459476 0.49619993861770217 0 0.56509579243166053 0.39588847936247551 0 0.49272830291620878 0.32528628960011152 0 0.58612580217118482 0.27813894450229909 0 0.56509579243166053 0.39588847936247551 0 0.58612580217118482 0.27813894450229909 0 0.65823561246403328 0.35502292901158627 0 0.49272830291620878 0.32528628960011152 0 0.49255105193724569 0.22337579986912359 0 0.58612580217118482 0.27813894450229909 0 0.49255105193724569 0.22337579986912359 0 0.50264032148191051 0.12292784096123539 0 0.5565830077206213 0.19095699352548859 0 0.49255105193724569 0.22337579986912359 0 0.5565830077206213 0.19095699352548859 0 0.58612580217118482 0.27813894450229909 0 0.64669101990832323 0.1799054750174742 0 0.58612580217118482 0.27813894450229909 0 0.55658
[...]
<PointData Scalars="A_conc," Vectors="" Tensors="">
<DataArray type="Float64" Name="A_conc" format="ascii">
2.6811486559595004e-05 2.181421359003684e-05 1.2899558626675919e-05 2.5029900222691595e-05 3.4463691967776263e-05 1.9976543467035395e-05 1.700395763395684e-05 1.5401051657428823e-05 2.1810755900830041e-05 2.1355420199120814e-05 2.0904645399309417e-05 1.4521557090756611e-05 1.9628816408108109e-05 2.634652621805592e-05 1.9142751742102613e-05 3.0923775379393072e-05 2.4499028067804693e-05 1.7623688128245046e-05 3.2412639578873052e-05 3.1278689655635606e-05 1.8054610715014123e-05 2.9857727565524784e-05 4.1484042747288068e-05 2.906456093474103e-05 2.9051719906015914e-05 3.1939699409028387e-05 2.2372688222407383e-05 2.6547525978105087e-05 3.7591334527274425e-05 2.9487077728166091e-05 5.0194517899292564e-05 3.3499434607052683e-05 2.6349723556430335e-05 5.1109778087533384e-05 2.6273971808773784e-05 3.7886146782206421e-05 4.548089367765032e-05 2.9604632603526667e-05 4.4385253388538046e-05 3.9097929459958613e-05 3.3927708327336905e-05 2.8728468546165469e-05 3.6665700777702749e-05 4.537429214364754e-05 3.1380034298128134e-05 3.2655005892572134e-05 2.8040317736306832e-05 2.3141898349155015e-05 3.0911264391227298e-05 3.5802816668914135e-05 2.5985693246078601e-05 3.3903837118863768e-05 2.5277323864880439e-05 3.5306880359111643e-05 2.564847788228258e-05 2.0469515783484323e-05 2.9502855837900745e-05 2.0454179916362656e-05 2.5061612849571448e-05 2.9835617753521461e-05 2.2123858566229022e-05 1.9209574506863894e-05 2.6565083060872559e-05 1.5527346766844418e-05 2.0936226382096934e-05 2.3778038786777262e-05 1.5812014100718149e-05 2.3734899357965901e-05 2.1298369901769129e-05 1.6441334299748617e-05 2.4295962798542868e-05 1.6831333078129106e-05 2.289375696671973e-05 1.5741140872359327e-05 2.1528758172586539e-05 1.703604449723051e-05 2.230935399953063e-05 1.6842707299762446e-05 1.650033319399588e-05 1.6660484898430368e-05 2.3612283680175776e-05 1.975326042225723e-05 2.6013818548897341e-05 2.8448672757501803e-05 2.0146790567173185e-05 2.8749833425905853e-05 2.4162454935626111e-05 2.116113385208411e-05 1.9757289835906754e-05 2.7251782873730057e-05 2.7085619682843531e-05 1.9546485053538671e-05 2.2047449907798839e-05 1.5763313076690588e-05 2.1950211661373187e-05 2.269804933768123e-05 1.688838400370036e-05 1.6624340807964774e-05 2.2657566154834213e-05 1.4886490011133821e-05 2.22953140823835e-05 2.6144799532886846e-05 1.5119948974559875e-05 2.6220000123123916e-05 2.1253003068075794e-05 2.4272714020713893e-05 2.8941011005618725e-05 1.9085449718573719e-05 2.0644506201558312e-05 1.9876474235287227e-05 2.9266521313483227e-05 2.2443137066370567e-05 3.077746808185799e-05 2.7240489978409646e-05 3.9466467733208086e-05 2.4597920908905775e-05 2.8228244160194268e-05 2.7410330855894497e-05 3.057344449992216e-05 3.8111308286296395e-05 2.1445694247910261e-05 3.302862906222324e-05 2.9956526884636272e-05 3.475610058868484e-05 3.4103365548891946e-05 4.6495230831062111e-05 4.6188624452924068e-05 3.3527464554429754e-05 3.787341228332967e-05 4.0484578278285528e-05 3.6241649777836518e-05 2.8418187768513321e-05 3.7800878477143524e-05 2.6075317905473312e-05 3.7165785149301762e-05 2.3619285072088174e-05 3.5428248560521571e-05 2.610613412211507e-05 2.3379014758450946e-05 2.7188446064141263e-05 3.5549825518846377e-05 3.4364156758551023e-05 3.1705582637353364e-05 2.4803972638486732e-05 2.2084812318718761e-05 2.6802509120015432e-05 3.340287277791567e-05 3.1935915521065756e-05 4.1062615956124567e-05 2.9217759701149043e-05 2.9167989767801166e-05 4.6417375028190949e-05 3.8651847331911029e-05 4.7172368893502003e-05 3.0580988327687074e-05 3.2019679187366334e-05 4.7920854647066735e-05 4.0076261374342614e-05 5.6499373482763673e-05 5.0952555061631975e-05 3.5301152578974269e-05 4.3325337013818568e-05 4.4182071197418822e-05 5.2888079286187491e-05 6.4736382035707321e-05 6.1710646809903167e-05 4.9443870966350095e-05 6.6347242519318369e-05 5.1570722092504317e-05 4.9792368004984179e-05 6.8041604850272794e-05 5.5845435669817922e-05 3.8896422254587051e-05 5.4115001780529208e-05 3.2055729198551921e-05 4.4109629485605216e-05 5.1078056598010087e-05 3.2855543356852577e-05 5.1338514140498759e-05 4.0687668539155484e-05 5.0779327776506345e-05 4.3703729697463272e-05 3.5190223454346057e-05 4.3169466046282166e-05 6.410563575249909e-05 5.8053135143385816e-05 4.6984364875783758e-05 6.1371293756029341e-05 3.9749434005447712e-05 4.6897924935762172e-05 3.9691016105041207e-05 6.1174803673195302e-05 4.3401487133569756e-05 5.8169305717628721e-05 6.2092745847814487e-05 8.2701119965252677e-05 5.6347104392689108e-05 5.2314410201706777e-05 6.7485738482332396e-05 5.3293049872765619e-05 8.1248584578152031e-05 8.0660764308907129e-05 5.2451570597960906e-05 5.8688074276553716e-05 7.794384202660241e-05 8.005708831957043e-05 4.848541242534959e-05 9.7616435391129964e-05 0.00010264709561032143 6.4993202368437335e-05 7.1853186033223634e-05 6.9662885188469302e-05 0.00010558096339369807 0.00010224309227630909 8.1268299344097072e-05 7.0613036196656481e-05 8.1677086949739615e-05 5.6897253134203818e-05 6.1629921224901689e-05 7.9555431562684467e-05 7.7215385246903225e-05 5.4102452230086391e-05 6.7573907568474446e-05 0.00010149750027722463 9.7128250393909094e-05 7.2729894037822359e-05 0.00010126301608779559 7.0321698153691264e-05 7.7954322777652933e-05 5.6917588145060361e-05 8.5507167420558895e-05 7.102846558838318e-05 7.8798334714798304e-05 0.00010389417517143316 6.0448460720548681e-05 5.9915716007368899e-05 8.7512604944018258e-05 6.1009988021094584e-05 6.2344152630875384e-05 7.8725136925891201e-05 5.6963949562536257e-05 7.5516775518632602e-05 8.5807178468044434e-05 9.9652242240618028e-05 7.9727480183215257e-05 6.9175165716789684e-05 7.4028139796497691e-05 9.9878815801963169e-05 7.008226229066511e-05 9.2106094308963473e-05 9.9348931109128247e-05 6.9481858289842662e-05 6.9356005648409872e-05 9.8360969562852856e-05 7.3525269462296387e-05 7.0785322094691014e-05 7.9681325448109459e-05 5.6984178076896337e-05 7.5393208275582248e-05 6.1734395227836639e-05 4.9759754639526035e-05 7.9890506651740536e-05 7.6046296438568825e-05 5.9161112302330628e-05 4.615388847320617e-05 5.1624084460672742e-05 6.7113337133827819e-05 5.5607344753453993e-05 5.024921575868626e-05 3.9989317293900375e-05 5.6405272630643971e-05 7.7950576383921085e-05 5.0275827670394354e-05 6.1277289095362466e-05 5.5084947026001215e-05 3.9721328912139923e-05 6.4361248031244336e-05 4.0823306437140337e-05 4.7216318753394126e-05 4.7296159395575124e-05 4.5059660071928448e-05 3.0380102297256783e-05 5.3590138406395218e-05 3.2403055368352062e-05 4.3637311589042337e-05 5.4074504346975849e-05 4.2074914448211798e-05 3.3120348679737808e-05 3.8441125729389499e-05 5.1323126615366042e-05 5.502115110285496e-05 4.0435192033749682e-05 5.6173025546402476e-05 4.1566159873670707e-05 6.5861659466518677e-05 6.6380844908119703e-05 4.7094590556984086e-05 4.3856153828134673e-05 6.7359310238514528e-05 6.6072553817126545e-05 6.8293707486033033e-05 5.0653671113928398e-05 4.6857346221431484e-05 2.9059165016821965e-05 1.1842297071971687e-05 2.0782366834884712e-05 3.717649422245735e-05 2.7869933297490103e-05 1.8698593958470331e-05 3.5917625491844709e-05 1.7692238203823693e-05 2.7921601573891032e-05 3.3675046231895257e-05 2.5544006989809771e-05 4.4002642273436011e-05 4.258540472267932e-05 2.563199353490122e-05 2.7079138145323234e-05 5.2767449815164023e-05 3.9456078732027513e-05 2.3928764919211527e-05 5.1124900493475319e-05 2.3247156335972423e-05 3.6480436089095847e-05 2.8656857722941424e-05 3.0799295176031954e-05 4.2059943466778584e-05 2.6317793250420468e-05 4.0662205877455422e-05 4.1539383225402173e-05 3.1292481380075901e-05 2.4236994343957863e-05 3.3428361679453218e-05 3.2666062369645759e-05 2.2232498854820489e-05 2.5844007400587144e-05 2.9673534834489649e-05 2.6014085078073857e-05 2.0063904510324456e-05 1.9455369925327911e-05 2.2083172046394948e-05 2.7970646275300076e-05 1.9093588259683307e-05 2.0116185615272974e-05 2.4290197316886737e-05 2.068552744036212e-05 1.4479927968087708e-05 2.1704635244099193e-05 1.7152456081233297e-05 2.2631542249009414e-05 1.514836567981771e-05 1.5647759369191328e-05 2.3835371388476699e-05 2.2132584330777813e-05 1.9209859863393492e-05 2.7978089696757843e-05 2.4428955561551412e-05 2.1915759276486396e-05 2.8599814455377704e-05 2.0170540642087687e-05 2.1391618150131985e-05 2.0421775888694388e-05 2.9354781871670486e-05 2.0263413658030632e-05 2.8248952127678178e-05 2.7604851913263839e-05 1.6816234927500216e-05 1.6574062760946814e-05 2.4388019928949229e-05 2.3487351456242599e-05 1.5490678608497038e-05 2.2546406947111216e-05 1.6682320102450525e-05 2.3422571902744617e-05 1.6736087529581331e-05 1.912035709577369e-05 2.8034153368634713e-05 2.8647664263484437e-05 3.8686417681171248e-05 3.5551656046811967e-05 2.3093408332928956e-05 3.7249447519004271e-05 2.5918850256146297e-05 2.5287051446490416e-05 3.1695478412745733e-05 2.4640437029034626e-05 3.6444001630317021e-05 2.6263985593699328e-05 3.3586373942266583e-05 2.5591341116957495e-05 2.9222010594066185e-05 3.4108514123089255e-05 4.0708405740310521e-05 3.1591371371053771e-05 4.5443060465757e-05 3.8352940793730627e-05 3.0811106554752313e-05 4.2480779239297003e-05 4.4950381679587954e-05 3.5732556036667782e-05 4.3531602516389381e-05 3.2479706261579261e-05 5.7720927858331891e-05 3.6814552438322251e-05 4.7855397150759113e-05 5.8456203939797935e-05 4.0856339835947228e-05 3.8320347889387097e-05 5.243629641460215e-05 5.038248622967634e-05 7.5413103449475146e-05 5.798667237301072e-05 3.7417199109932498e-05 5.5996395988662451e-05 5.4141523502979487e-05 4.397874705566307e-05 6.2187540585685231e-05 7.0414055979634143e-05 7.3377238912039402e-05 4.7039498453001945e-05 7.2126316665107514e-05 4.9938995484476788e-05 5.8113223602929294e-05 6.4356345775885807e-05 8.8479743702415208e-05 6.7414897822669334e-05 6.2407622677471597e-05 7.6549961441866322e-05 8.6935929770260247e-05 9.2288430478451599e-05 9.1205056053603997e-05 6.154738711768952e-05 9.3108863678932399e-05 6.2846544273896719e-05 8.463401961457093e-05 5.6904348279562385e-05 5.2278544430264939e-05 7.0480772467682189e-05 4.9327899655189373e-05 7.3109174127707229e-05 6.8395706979245693e-05 9.5062696130017893e-05 6.1631323779195261e-05 6.6470591086951499e-05 9.4145550945496406e-05 7.6310950564410855e-05 5.97485179616177e-05 9.9804008947241299e-05 6.7493122462715152e-05 7.4303355546004324e-05 9.830496250801803e-05 7.0449503414969462e-05 8.8926355820250741e-05 5.0009102404718103e-05 8.1469199069368779e-05 7.4844193266943224e-05 5.2209896073379656e-05 6.6197178980766463e-05 8.2275768493987042e-05 4.1891242176900572e-05 4.4504543761359418e-05 6.125137983443402e-05 6.111856997608046e-05 4.1326445788333904e-05 5.6619940522444941e-05 5.9418327350558463e-05 4.5133808323596659e-05 3.9399631517253699e-05 3.5718678117485015e-05 4.3006192689700744e-05 4.8620176199202383e-05 3.6796238797779359e-05 4.9473663078095095e-05 3.880547285394911e-05 4.7877186049199751e-05 3.3207699931728613e-05 4.6374178923877186e-05 4.566644134225924e-05 3.6458507853656449e-05 4.8287576853187634e-05 6.4483731981527067e-05 4.7989247516719635e-05 4.3217956240686599e-05 6.0342217550333013e-05 4.1828640069731883e-05 5.6206897483541718e-05 5.6022063761296359e-05 5.2128041697048984e-05 7.7724080335785255e-05 7.2793739557385702e-05 4.9340617184505649e-05 7.5844764577999953e-05 9.6358852142430107e-05 6.9700331065793879e-05 6.9599652481329324e-05 8.9934075555424001e-05 6.6590172790768955e-05 9.6686202851084212e-05 0.0001116000102638187 8.4311539709841095e-05 0.00012448230332232855 8.2678446611129803e-05 8.9841190345065714e-05 0.00011881584973255046 0.00014947109773933158 0.00010292699357682475 0.00011557205679479647 0.00018738282934191734 0.00012548198798718795 0.00017221959361226366 0.00017501728847058322 0.00016072206710583356 0.00021100607438384437 0.00013145539414441155 0.00020695292781010253 0.00016831906501739232 0.00019720332699276789 0.00020900696956809776 0.0001568133769750149 0.00015139361857008488 0.00019633117445070277 0.00013608560087967781 0.00012710019206845429 0.00018989719918510704 0.0002039872779603016 0.00016248010585611126 0.00014755015881217262 0.00011672452034730869 0.0001316494513324381 0.00014289226989370191 0.00017819882468118043 0.00014171850717486378 0.00010886953309437622 0.00015263692172887901 0.00015666752302103846 0.00011476479473752807 0.00010402727458271496 8.4248916182561332e-05 0.00011457941857001357 0.00012501207192597321 9.1165349278208175e-05 8.1574112024383478e-05 0.00012023077601158453 7.8588328210103017e-05 0.00010728106336519615 0.00011838584594519227 0.00011075552165739971 9.9327018879696112e-05 0.00013330451282719027 0.00015560063574482952 0.00010209538116261272 0.00012565850924767716 0.00011509901630409096 0.00015389145872137831 0.00012323104967006075 9.6870766521005956e-05 0.00012795863663633795 0.00010248643996725987 0.00012332689262504342 0.00013127920480226864 9.7021784586182025e-05 0.00010360451431269694 0.00010910257566731765 8.1722107897190844e-05 8.3985699869852166e-05 8.5101655299139954e-05 0.0001116992950427608 8.9410022686660072e-05 0.00013003797051105222 9.8089667828297954e-05 7.8044835651956419e-05 0.00010756463058064308 8.680459068660727e-05 9.7341323816387308e-05 0.00010581232555143918 7.5885228299067919e-05 0.0001254790227129272 0.00012511435462891291 9.2537208832276353e-05 0.00011665165887424442 0.00015426580137020896 0.00011627732574307742 0.00010898341910202256 0.00016679142844689256 0.000147475055503326 0.00018912536201968984 0.00013616841634139744 0.00015577754048379223 0.00018925210324282704 0.00015135097896658593 0.00013724073461355139 0.00016157843232020747 0.00011625981828506028 0.00014760451643423426 0.00023297788658586499 0.00017748143582832303 0.00016967114996082553 0.00018237216296854345 0.00019002103705796622 0.00014344693377921124 0.00021559057054099183 0.00017831641112846274 0.00014415177690856539 0.00016677563102927069 0.00020522336202503333 0.00022343498313362632 0.00018951310520731577 0.00027418667663156127 0.00020881401636328902 0.0002125576283328785 0.00020478930255532311 0.00027215260166465967 0.00022773052644872179 0.00016231762882917318 0.00022014626827451296 0.00020003914318978414 0.00026084295321529246 0.00029030088262172913 0.00020166531681860831 0.00029083333236114257 0.00025171764712364535 0.00022339861721191887 0.00035144400702482215 0.00035109428822149955 0.00045295266994643981 0.00032020283129620414 0.00032056783448959782 0.0004430787171921406 0.00040884646338768124 0.00030512372817610288 0.00050436719305283623 0.0003575589170860189 0.00039204524842155388 0.00031555093725750788 0.00041705105760383933 0.00038406307338575561 0.00023836771693442027 0.0003605101721041645 0.00026866204707204046 0.00033270793964934202 0.00039969484609879885 0.00029548756503440624 0.00025609659429015337 0.00035197700322226225 0.00031548820086703074 0.00031981282459792276 0.00029808632220070235 0.00040213362556632275 0.00022114511702096042 0.00032282597385465073 0.00034390085716816046 0.00041201966941849455 0.00035879005888191377 0.00048522869242864517 0.00036983073170794632 0.0003032570989813506 0.00043808012233961607 0.00030001816354323347 0.00038425119419191266 0.0004359669882860225 0.0002356241791000831 0.0003537929938325691 0.00023345658071899827 0.00023347369206706641 0.00027364150530133358 0.00033109088426528895 0.00022004521904882594 0.00026844957902956955 0.0001623089738892795 0.00027130261899236492 0.00018423086138576503 0.0001696208101783417 0.00026609927556067714 0.0001937414760667735 0.00018169854985718471 0.000260891347556835 0.00025878846641747639 0.00016988870742288387 0.00016365064844331935 0.00019982054771305806 0.00024192273181405046 0.00022918282196695807 0.00018577664229305269 0.00025979192934317896 0.00021176924312328761 0.0002431367771688716 0.00030950419528484163 0.00034916332337593502 0.00029145919357698294 0.00022306728759899846 0.00039205721554640919 0.00026783640962936117 0.00032739148824312975 0.00034281195852654855 0.0004132713808865958 0.00049838712973365544 0.00011430376785077432 0.00016928048812688264 0.00011628120400187256 0.00014402184345687111 0.00011061608985150139 0.00016536214807841458 0.00013348347552622394 0.00019598616451675392 0.000147052772053683 0.00015857439426020752 0.00011354345968753521 0.00014534763289075948 0.00013170309862318259 0.00015367482064562648 0.00019576761356799349 0.00022195342451360528 0.00018369879292143577 0.00014037436350881869 0.00015589771486356456 0.00022473421050137147 0.00014555409911398389 0.00014547661509183181 0.00021067750865463912 0.00021718047470121679 0.00015000612867481329 0.00018146284816792662 0.00021558037013881437 0.00016289666338445221 0.00012653708228802573 0.00019364012481907629 0.00019680650375046438 0.0001305674145002479 0.00013674870848433843 0.00014922033190180209 0.0001431218153985855 0.00010832297185806847 0.00017242412233839835 0.00016245281261198901 0.00010506167906751721 0.000174309405406218 0.00010918675267340195 0.0001385339989054055 0.00012673202359863046 8.7004756841984194e-05 0.00012128963843375141 0.00011824518224252026 0.00011266609491232166 0.00014708093262870127 0.00015485886937070567 0.0001130705441223466 0.00010736704973306684 8.492749894531659e-05 0.00012246236593073208 9.2589671458964484e-05 8.7565732097299212e-05 0.00011598501769262865 0.00012242720629551188 9.5688972092387132e-05 6.9163536907918896e-05 0.00010107631245112822 0.00013121418635687418 8.6483852513196015e-05 9.2461779939167918e-05 8.521512212716895e-05 0.00013151593387115797 0.00010335589183022983 0.00012690110241083853 0.00012881384571346725 8.0499470857262322e-05 0.00011822510771712809 0.00015035626102641902 0.00012078557913552276 0.00012594856503783257 0.00012845557322314788 9.6530602569718866e-05 9.3814736773771882e-05 0.00011142851856420002 7.3328423432352061e-05 0.00010280378403975857 0.0001325247382797997 8.9835338440426966e-05 0.00011121588439775414 9.8657765753437955e-05 7.2270358695844997e-05 9.0125727553809254e-05 9.4625132050185249e-05 0.00011606878675480753 0.00012797818539351835 8.4778348211167427e-05 0.00011137341436190769 0.00011984295439388914 0.00010278805969429219 0.00014340135996935197 0.00010229100178355956 0.00012394522089788823 0.00014307373809114538 0.00011040391679067009 8.8140480638370717e-05 0.00013151543827153798 9.0795505804933555e-05 9.2557604418833141e-05 0.00013113213409302575 0.00010007090243656372 6.6684627541278965e-05 0.00010177860255452774 0.00012995453907847315 9.3418042789447013e-05 8.8221767173599097e-05 0.00012687639640076594 8.7018305212451354e-05 0.0001251844285812565 0.00011731576740541661 0.00011557684746823347 0.00015441972121988602 0.00010900426052467497 0.00014753771187988774 0.00016747844170188187 0.00015718655538259112 0.00013661631321426295 0.00018479657591244505 0.00015373154656551013 0.00018530262355864039 0.00013708622989548589 0.00010792940839014358 0.0001643477249433729 0.00014818374516157554 0.00014225913640535323 0.00021554779120977423 0.00017452254966569562 0.00020933302159568249 0.00016452180286264162 0.00020699106427999478 0.00021685956617911023 0.00014547602450538477 0.00017389484951506123 0.00018812843704026118 0.00012467636849769015 0.00014980177160911389 0.00015980644466660404 0.00013536329508774289 0.0001153376639775887 0.00018759447285593585 0.0001554974498911875 0.00012320070072696445 0.00011054974983200417 0.00013465446421493001 0.00016579454686207614 0.00017834601005171631 0.00019305370981847738 0.00014528771903884183 0.0001393144647414275 0.00018777424679774276 0.00021453905005630646 0.00022740258753510789 0.00018183135102073079 0.00016626270807461145 0.00017986927400983024 0.00013977923560732364 0.00019042519623758955 0.00016770603462311194 0.00017848996102696015 0.00022540559729257139 0.00022242345783353432 0.00016006250417382943 0.00022040480017728812 0.00020673751722867278 0.00020466617646591544 0.00027307556329919002 0.00022314169877262093 0.00020328333813766453 0.00017580837526355234 0.00018933683805938596 0.00020951780944572653 