<?xml version="1.0"?>
<VTKFile type="UnstructuredGrid" version="0.1" byte_order="LittleEndian">
<UnstructuredGrid>
<Piece NumberOfPoints="3918" NumberOfCells="1306">
<Points>
<DataArray type="Float64" NumberOfComponents="3" format="ascii">
0 0 0 0.099999999999928008 0 0 0.082799035591426873 0.082799035591510806 0 0 0 0 0.082799035591426873 0.082799035591510806 0 0 0.10000000000041601 0 0.099999999999928008 0 0 0.20669143849501961 0.085546078947938975 0 0.082799035591426873 0.082799035591510806 0 0.20669143849501961 0.085546078947938975 0 0.140351188660986 0.16130415108589741 0 0.082799035591426873 0.082799035591510806 0 0.082799035591426873 0.082799035591510806 0 0.140351188660986 0.16130415108589741 0 0.066361468125430589 0.15903440181097661 0 0.082799035591426873 0.082799035591510806 0 0.066361468125430589 0.15903440181097661 0 0 0.10000000000041601 0 0 0.20000000000083221 0 0 0.10000000000041601 0 0.066361468125430589 0.15903440181097661 0 0 0.20000000000083221 0 0.066361468125430589 0.15903440181097661 0 0.089078158003765312 0.2493007687782936 0 0 0.20000000000083221 0 0.089078158003765312 0.2493007687782936 0 0 0.30000000000124832 0 0 0.30000000000124832 0 0.089078158003765312 0.2493007687782936 0 0.0632094674441709 0.3449112819864934 0 0.13897501191807771 0.34545639364066222 0 0.089078158003765312 0.2493007687782936 0 0.17318221359491059 0.27409688392309489 0 0.089078158003765312 0.2493007687782936 0 0.140351188660986 0.16130415108589741 0 0.17318221359491059 0.27409688392309489 0 0.089078158003765312 0.2493007687782936 0 0.066361468125430589 0.15903440181097661 0 0.140351188660986 0.16130415108589741 0 0.21725788110387281 0.17316968768743621 0 0.24783073444672249 0.24783073444648379 0 0.17318221359491059 0.27409688392309489 0 0.21725788110387281 0.17316968768743621 0 0.17318221359491059 0.27409688392309489 0 0.140351188660986 0.16130415108589741 0 0.2371857680100064 0.35865548441110112 0 0.17318221359491059 0.27409688392309489 0 0.24783073444672249 0.24783073444648379 0 0.34318159319555042 0.3314386771104964 0 0.24783073444672249 0.24783073444648379 0 0.33604819894646598 0.23280286076243209 0 0.29145143692666958 0.13500804559578439 0 0.24783073444672249 0.24783073444648379 0 0.21725788110387281 0.17316968768743621 0 0.29145143692666958 0.13500804559578439 0 0.33604819894646598 0.23280286076243209 0 0.24783073444672249 0.24783073444648379 0 0.20669143849501961 0.085546078947938975 0 0.29145143692666958 0.13500804559578439 0 0.21725788110387281 0.17316968768743621 0 0.20669143849501961 0.085546078947938975 0 0.21725788110387281 0.17316968768743621 0 0.140351188660986 0.16130415108589741 0 0.099999999999928008 0 0 0.19999999999983389 0 0 0.20669143849501961 0.085546078947938975 0 0.29999999999973409 0 0 0.20669143849501961 0.085546078947938975 0 0.19999999999983389 0 0 0.29999999999973409 0 0 0.29145143692666958 0.13500804559578439 0 0.20669143849501961 0.085546078947938975 0 0.29999999999973409 0 0 0.35933948296838258 0.073809900849860513 0 0.29145143692666958 0.13500804559578439 0 0.39999999999966429 0 0 0.35933948296838258 0.073809900849860513 0 0.29999999999973409 0 0 0.40428440976105728 0.1643886070295453 0 0.29145143692666958 0.13500804559578439 0 0.35933948296838258 0.073809900849860513 0 0.43504744109702559 0.077628892606360606 0 0.40428440976105728 0.1643886070295453 0 0.35933948296838258 0.073809900849860513 0 0.40428440976105728 0.1643886070295453 0 0.43504744109702559 0.077628892606360606 0 0.50264032148191051 0.12292784096123539 0 0.39999999999966429 0 0 0.49999999999959438 0 0 0.43504744109702559 0.077628892606360606 0 0.39999999999966429 0 0 0.43504744109702559 0.077628892606360606 0 0.35933948296838258 0.073809900849860513 0 0.49999999999959438 0 0 0.50264032148191051 0.12292784096123539 0 0.43504744109702559 0.077628892606360606 0 0.49999999999959438 0 0 0.57505385014294308 0.072457888465917331 0 0.50264032148191051 0.12292784096123539 0 0.49999999999959438 0 0 0.59999999999951659 0 0 0.57505385014294308 0.072457888465917331 0 0.59999999999951659 0 0 0.66267222434682926 0.078497159578092612 0 0.57505385014294308 0.072457888465917331 0 0.57505385014294308 0.072457888465917331 0 0.64669101990832323 0.1799054750174742 0 0.5565830077206213 0.19095699352548859 0 0.57505385014294308 0.072457888465917331 0 0.5565830077206213 0.19095699352548859 0 0.50264032148191051 0.12292784096123539 0 0.49255105193724569 0.22337579986912359 0 0.5565830077206213 0.19095699352548859 0 0.58612580217118482 0.27813894450229909 0 0.49255105193724569 0.22337579986912359 0 0.50264032148191051 0.12292784096123539 0 0.5565830077206213 0.19095699352548859 0 0.64669101990832323 0.1799054750174742 0 0.58612580217118482 0.27813894450229909 0 0.5565830077206213 0.19095699352548859 0 0.49272830291620878 0.32528628960011152 0 0.49255105193724569 0.22337579986912359 0 0.58612580217118482 0.27813894450229909 0 0.49255105193724569 0.22337579986912359 0 0.49272830291620878 0.32528628960011152 0 0.41589935411558732 0.26752529264016389 0 0.49255105193724569 0.22337579986912359 0 0.41589935411558732 0.26752529264016389 0 0.40428440976105728 0.1643886070295453 0 0.40428440976105728 0.1643886070295453 0 0.50264032148191051 0.12292784096123539 0 0.49255105193724569 0.22337579986912359 0 0.33604819894646598 0.23280286076243209 0 0.40428440976105728 0.1643886070295453 0 0.41589935411558732 0.26752529264016389 0 0.40428440976105728 0.1643886070295453 0 0.33604819894646598 0.23280286076243209 0 0.29145143692666958 0.13500804559578439 0 0.33604819894646598 0.23280286076243209 0 0.41589935411558732 0.26752529264016389 0 0.34318159319555042 0.3314386771104964 0 0.38593969585746768 0.44843324941957241 0 0.34318159319555042 0.3314386771104964 0 0.42544665781957403 0.3726599289372452 0 0.38593969585746768 0.44843324941957241 0 0.29987747321592639 0.43430880093746571 0 0.34318159319555042 0.3314386771104964 0 0.38593969585746768 0.44843324941957241 0 0.42544665781957403 0.3726599289372452 0 0.47711113382803011 0.43513410852522788 0 0.47711113382803011 0.43513410852522788 0 0.42544665781957403 0.3726599289372452 0 0.49272830291620878 0.32528628960011152 0 0.42544665781957403 0.3726599289372452 0 0.41589935411558732 0.26752529264016389 0 0.49272830291620878 0.32528628960011152 0 0.42544665781957403 0.3726599289372452 0 0.34318159319555042 0.3314386771104964 0 0.41589935411558732 0.26752529264016389 0 0.56509579243166053 0.39588847936247551 0 0.47711113382803011 0.43513410852522788 0 0.49272830291620878 0.32528628960011152 0 0.56509579243166053 0.39588847936247551 0 0.58612580217118482 0.27813894450229909 0 0.65823561246403328 0.35502292901158627 0 0.56509579243166053 0.39588847936247551 0 0.49272830291620878 0.32528628960011152 0 0.58612580217118482 0.27813894450229909 0 0.56509579243166053 0.39588847936247551 0 0.64897033023755402 0.45530630145656431 0 0.55763912874459476 0.49619993861770217 0 0.56509579243166053 0.39588847936247551 0 0.65823561246403328 0.35502292901158627 0 0.64897033023755402 0.45530630145656431 0 0.56509579243166053 0.39588847936247551 0 0.55763912874459476 0.49619993861770217 0 0.47711113382803011 0.43513410852522788 0 0.55763912874459476 0.49619993861770217 0 0.45232393232070839 0.53082724112931345 0 0.47711113382803011 0.43513410852522788 0 0.55763912874459476 0.49619993861770217 0 0.56379254693201075 0.58472273515948836 0 0.45232393232070839 0.53082724112931345 0 0.56379254693201075 0.58472273515948836 0 0.55763912874459476 0.49619993861770217 0 0.66278242936710119 0.53985356489900171 0 0.64897033023755402 0.45530630145656431 0 0.66278242936710119 0.53985356489900171 0 0.55763912874459476 0.49619993861770217 0 0.65500944633069913 0.60601350811213128 0 0.59670004617370476 0.65981579440137683 0 0.56379254693201075 0.58472273515948836 0 0.56379254693201075 0.58472273515948836 0 0.46433624429412901 0.61260020600107856 0 0.45232393232070839 0.53082724112931345 0 0.5174764925733939 0.65338828204098198 0 0.46433624429412901 0.61260020600107856 0 0.56379254693201075 0.58472273515948836 0 0.38240158409674341 0.60644575028138747 0 0.34793494568226019 0.52426775179830853 0 0.45232393232070839 0.53082724112931345 0 0.38240158409674341 0.60644575028138747 0 0.45232393232070839 0.53082724112931345 0 0.46433624429412901 0.61260020600107856 0 0.38593969585746768 0.44843324941957241 0 0.45232393232070839 0.53082724112931345 0 0.34793494568226019 0.52426775179830853 0 0.38593969585746768 0.44843324941957241 0 0.47711113382803011 0.43513410852522788 0 0.45232393232070839 0.53082724112931345 0 0.38593969585746768 0.44843324941957241 0 0.34793494568226019 0.52426775179830853 0 0.29987747321592639 0.43430880093746571 0 0.27661118526457179 0.58730386222759956 0 0.38240158409674341 0.60644575028138747 0 0.32437633398017029 0.65970549827478953 0 0.27661118526457179 0.58730386222759956 0 0.34793494568226019 0.52426775179830853 0 0.38240158409674341 0.60644575028138747 0 0.27661118526457179 0.58730386222759956 0 0.1946526892501724 0.54636184660733622 0 0.27220668248394869 0.50912429725145214 0 0.27661118526457179 0.58730386222759956 0 0.16324260003398389 0.62262730759772122 0 0.1946526892501724 0.54636184660733622 0 0.12353277228144981 0.51086097771927308 0 0.1946526892501724 0.54636184660733622 0 0.16324260003398389 0.62262730759772122 0 0.12353277228144981 0.51086097771927308 0 0.21928696632013719 0.4676461135047027 0 0.1946526892501724 0.54636184660733622 0 0.1946526892501724 0.54636184660733622 0 0.21928696632013719 0.4676461135047027 0 0.27220668248394869 0.50912429725145214 0 0.29987747321592639 0.43430880093746571 0 0.27220668248394869 0.50912429725145214 0 0.21928696632013719 0.4676461135047027 0 0.27661118526457179 0.58730386222759956 0 0.27220668248394869 0.50912429725145214 0 0.34793494568226019 0.52426775179830853 0 0.34793494568226019 0.52426775179830853 0 0.27220668248394869 0.50912429725145214 0 0.29987747321592639 0.43430880093746571 0 0.2371857680100064 0.35865548441110112 0 0.29987747321592639 0.43430880093746571 0 0.21928696632013
[...]
<PointData Scalars="A_conc," Vectors="" Tensors="">
<DataArray type="Float64" Name="A_conc" format="ascii">
0.00021493173792084972 0.00029898307688719188 0.0002610847813686032 0.00022662780112838062 0.00027051446289011395 0.00020137246429626854 0.000279983231754563 0.00036085499776462507 0.00024171757771208191 0.00035644839171626466 0.00029050262877477963 0.00023586728254078516 0.00025118840875431963 0.00030478645945950834 0.00023876103610482371 0.00026424683927049294 0.00025210217416369836 0.00019800384735516738 0.00020966966081203346 0.00020557085651861848 0.0002591408309774032 0.00019991271385936144 0.00025176255289600626 0.00027466637719495557 0.00020696839848486834 0.00027907508940190953 0.00020943145736921042 0.0002018414761192235 0.00027452830209950921 0.00025326819103216818 0.00029745964605714498 0.00024976199766809845 0.00033106979208052787 0.00024968615456544171 0.00029406562754013291 0.00033278960282179709 0.00026182048740684038 0.00023845165705827106 0.00030517640711723402 0.0003495353489769361 0.00038995935262740671 0.00030512009970637204 0.00036229663566169121 0.00031929926303915875 0.00027979208403430009 0.00037513629105347525 0.00030039511667419761 0.00038691899597100216 0.00047942670003742075 0.000346987943387753 0.00046992564165362135 0.00042374224388479843 0.0003760019054528827 0.00033400864937597135 0.00040686028695393006 0.00047583199140072591 0.00035835237183215566 0.00032424870925734856 0.00042452187034869608 0.0003399766302990344 0.00034293031292195151 0.00035829173880574629 0.00027502805249384659 0.00026432010453942661 0.00036888875937760013 0.00034820265723037877 0.00046463339710682946 0.00032424405460959805 0.00034417265414305619 0.00045653065297978908 0.000408648184410104 0.00031440499348434883 0.00043522277296480108 0.00049333863474407432 0.00038655606110139405 0.0005713418546598461 0.00047370406123904793 0.00041891286978055836 0.00054920484115021932 0.00037811542712639322 0.00047772010377773602 0.00057873589124114852 0.00052627598109617987 0.00045300573668361887 0.00049934116136431529 0.00055242378734656557 0.0006759603921191249 0.0005218191074997917 0.0007057469342990686 0.00055096044257122324 0.00055124425265899691 0.00057961541447214737 0.00045378631098004084 0.00069015176008628543 0.00065137380052157135 0.00053434326012913617 0.00066005371920944381 0.00078838334795594024 0.0006208551223704545 0.00063760773296280774 0.00086807397105407495 0.00076191570451373592 0.00083078745823380652 0.00094818594266733898 0.00072536902036780208 0.000742875628087116 0.00092607840203385336 0.00070566782505757726 0.00077851125131019473 0.00074192704653637585 0.00061872953974526741 0.00060095866779796066 0.00074116207435695632 0.00081703112136938705 0.00062514185302914782 0.00063819790027701837 0.00075981007301885862 0.00092668873377262637 0.00077980404457228005 0.00070252733782222971 0.00062346344338713852 0.00061958524493283104 0.00082817760976881122 0.00065699390094997763 0.00066081424624610892 0.00051097579383797777 0.00067240234526209865 0.00053393622341945215 0.0005046848848355793 0.00048533199822764809 0.00066995937370217698 0.00065724075112146571 0.00042938836011823011 0.00053392610234344134 0.00056263034867505568 0.00055270314732485336 0.00045276001995979588 0.00038268023950746832 0.00044308937628579877 0.00057062654095237889 0.00045281563372969933 0.0005067656988250838 0.00044258746429331423 0.00057519277518594623 0.00052719854224771937 0.00039872418655243305 0.00046434574667729759 0.00048213409142055369 0.0005512035594506335 0.00064476051487002105 0.00062508390402504549 0.00052901612659761444 0.00066021314336241102 0.00054306681703505 0.00052843230181310057 0.00067155821388901191 0.00057101677257233145 0.00043486746095627025 0.00055667529553110064 0.00078330117812276667 0.00059464625216357171 0.00063030897382256685 0.0007181030603988142 0.00077445869995967844 0.00095830609562313205 0.00076013838565657801 0.00060113785421354643 0.00081533782700792684 0.00072788341908796238 0.00093792026621037283 0.00070996349510236197 0.00069695842856734949 0.00094354045118136103 0.00091284634882674042 0.00076971576352942667 0.00075216784211798525 0.00057692470808750642 0.00077409933256825266 0.00055735808152493924 0.00060578004088322388 0.00075676099520599702 0.00077236900860061172 0.00053226650904826653 0.00072197547910892389 0.00070594900922572867 0.000970161752644723 0.00091577202877388402 0.00095230386399368751 0.00067781021808723375 0.00094660482788565422 0.00079343391936188953 0.00071486720574647888 0.000789509356418771 0.00058687479863161443 0.0005563417061339507 0.00067592879475726468 0.00056722259212234837 0.00078009068179275137 0.00049892604187737766 0.00044108259620851309 0.00061372702110364271 0.00047615780031078851 0.000593802690130746 0.00062372544125042281 0.00050030217980331047 0.00061515282413614539 0.00044155483830363455 0.00047538054509110817 0.00064051686444009182 0.00059315665594418662 0.00052582174973833499 0.00046792253124060572 0.00039779447245101227 0.00037625143225288829 0.00052904252960150801 0.00044154399062746696 0.00037064126275635422 0.00047075991208036475 0.00052717709730923986 0.0004103909885120313 0.00031016065893951501 0.00040511824360942874 0.00042263640584902523 0.00029353776536374283 0.00032564839264201314 0.00027045904919181357 0.00034418924938042333 0.00031272201790351779 0.00026312621007584509 0.00036508219316974471 0.00033813889877249543 0.00031972377633643015 0.00034725952543874502 0.00041186606905752537 0.00043434861882337935 0.00039845960744169676 0.00033192017457378629 0.00038901110983431556 0.00038362742493609422 0.00048718405679127697 0.00048501094054955644 0.00037956681919507095 0.00041610131840016918 0.00036072439725355181 0.00043859029018044937 0.00033767744814078873 0.00034143576014435557 0.00048575965758930413 0.00042172628984697892 0.0004913622639671491 0.00035168326967561261 0.00036369015401944781 0.00028056910598517663 0.00031414302254874219 0.00038716328148944985 0.0002822765372409545 0.00038611865430709729 0.00030465577507496111 0.00037810821387290478 0.00035543873617600483 0.00029523088527800819 0.0002678489200674228 0.00030982322173040035 0.00036790562915223099 0.00024691458097503212 0.00032432849774511669 0.00028322395143461776 0.00024388792990389204 0.00029988417151191311 0.00032196884599113907 0.00030826437423872821 0.0002398410106643688 0.00026153423428908093 0.00025447201567656578 0.00024123844281689801 0.00030932894182510477 0.00026774324441289127 0.0002012471766217354 0.00025478785743107625 0.00021154386787574728 0.0002610276002289432 0.00021001560268549336 0.00020705682941807345 0.00020844750383135192 0.00027349127610141978 0.00019457151183994694 0.00026323957047260564 0.00029841205075157153 0.00019638200271653825 0.00029899904213153599 0.00025330184740491972 0.00025010305482806716 0.00024293053528150595 0.00032805852999794543 0.00028407386740144546 0.00032548185613835462 0.00023686630078700529 0.00020139999307055586 0.00025878092230677383 0.00026581275630546436 0.00021016862582766454 0.00020802402723013157 0.00026428121356039577 0.00020858976245659246 0.00027158275604214743 0.00020908872200266183 0.00027325775566473012 0.00019936575950404002 0.00026475695112489623 0.00020808079321911775 0.00020813361706373658 0.00027931061547562425 0.00024823559702208951 0.00032153401551520604 0.00031099423034448219 0.000257260364959377 0.00024856221817158829 0.00032939359311654403 0.00023864101266384187 0.00031865411340901729 0.00032367588362838655 0.0004024402000603079 0.00030363375363206613 0.00029850325393978628 0.00041699715851651904 0.00039006447896163378 0.00028271587805460695 0.00039604909036706582 0.00046125927780380849 0.00036835746332112174 0.00035681401520582835 0.00045407747548484052 0.00047457649637173971 0.00033785706184039744 0.00037964974967353492 0.00043539901691854913 0.00036212727546029678 0.00047786257082314126 0.00041889568030520482 0.00035546269818663206 0.00029417120251946601 0.00039637538566277962 0.00030692550071635325 0.00036787612091634112 0.00029617739757298284 0.00037219216260777954 0.00027744654619634628 0.00029832083658830609 0.00036279039548771472 0.00028732176518154166 0.00036283206446417022 0.00032936516834060288 0.00042841957510556975 0.00045018796183283913 0.00034415665046112396 0.00034415873709882621 0.00044009181477248287 0.00043934828996351766 0.00032701967143132011 0.00044658907872345278 0.00036940543476147455 0.00029374728436043582 0.00027610781076142224 0.00024134691835579373 0.0002925485509871596 0.00030994783081054778 0.00024835409664983484 0.00024873209809291545 0.00030050781367792982 0.00025916198080083594 0.00031911918999762167 0.00024610418070248284 0.00024006986492279585 0.00031458656868273973 0.00029408889826769451 0.00019986091387278929 0.00027377340371836906 0.00026098752933662099 0.00020969506085069005 0.00026760023903225915 0.00020740962953858121 0.00026092709149006573 0.00020004161422236403 0.00026130620321756641 0.00029589767199846999 0.00021349357005111898 0.00025692678762760218 0.00022267787932092855 0.00020459908177694491 0.00026599965883943066 0.00028258315790956416 0.00024353184221911998 0.00031259853670834761 0.00026875104613914536 0.00029918561044834806 0.00036718079453444246 0.00035390287616050094 0.00028647192274801125 0.00036199039542249289 0.00045406242758483378 0.00033405718310218263 0.00034258894571251574 0.00055565114350938059 0.00040483795794265913 0.00049849314509815628 0.00052810870428146193 0.00047278420287189687 0.00061699860647717697 0.00050275711022930935 0.00059355567125405674 0.0006870151330944425 0.0006565719072350938 0.00056350844514081451 0.00075318168280369977 0.00081281242342642185 0.00068589860323717722 0.0009245308276980606 0.00084866575335814526 0.00062596274639588985 0.00072068948740380606 0.00093339109694550305 0.0006960013440265552 0.00073774906755728485 0.00092030017729870294 0.00071595344751471145 0.00085049464082408426 0.00088784581768412945 0.00063742879041321198 0.0006739794670612148 0.00088243748856664105 0.0007513693164623703 0.00062588690501982544 0.00053252512716646296 0.00071536539857731452 0.00067951130381129258 0.00058991427885238311 0.00055097066528005405 0.00069265396212923956 0.00054742082939967748 0.00078197688359873485 0.00074122117275301645 0.00056033738882842893 0.00066540629035541105 0.00078801500105519649 0.0004787756339817321 0.00047331894992911619 0.00062523273093222477 0.00041701376318432535 0.00042480948310423414 0.000512576806823016 0.0005040424466852655 0.00041594639840978448 0.00049870488936284226 0.00059793314024393521 0.00048352535424700906 0.00043671163203280489 0.00040629514123747624 0.00050990093083143968 0.0004293375823461482 0.00040089107831824312 0.0004608819607238083 0.00050696470173393219 0.00061721086568264523 0.00045842473048647483 0.00057899423524862353 0.00058838534447865163 0.00042374902948368921 0.00057258486233962972 0.00055230151625379888 0.00053612064059098321 0.00073059888703154408 0.00058930642661919944 0.00044676271905234606 0.00042585132849752095 0.00058411185633654844 0.00041550021908086745 0.00050540217647525017 0.00056026836339688306 0.00047981434135354879 0.00062410772143311598 0.0007057185171453009 0.00053326386258113452 0.00059773733133233493 0.00069502878981224619 0.00071754352761081448 0.00051480581520467982 0.00087122714626157926 0.00086394542783473625 0.00064428395270543564 0.00087646726659152232 0.00065244845943535459 0.00081433308582674511 0.00064452207692627386 0.00075078960016680826 0.00082789081125768827 0.0006571852417225245 0.00083798446999784344 0.0006802403219516893 0.00091711216553852721 0.00097714774922355889 0.00076151261425021861 0.00087096810680382291 0.0011574268091538752 0.0009320791598185238 0.00077487233550013832 0.00098818095253630435 0.00083861156566599057 0.00096470564723229874 0.00100418437519391 0.00080854378007910819 0.00082081772812812133 0.00082825390642744627 0.0010193757893551686 0.00092592775915700137 0.0011435214241734533 0.00096603138281578949 0.0011168387563953732 0.0011722103880316317 0.00093481419876124115 0.0010710831681819892 0.0013342110008933178 0.0011273764666947016 0.001081771555843349 0.0013360827987148628 0.0010775697240585375 0.001131169177500013 0.0011270550112628627 0.00090071249513109489 0.0010398633113154014 0.0014282237295587903 0.0012983794608512264 0.0015844056468652145 0.0012379396687707777 0.0013688268708365199 0.0017671703522739565 0.0015273061446303999 0.0013079291381420078 0.001883387516627442 0.0015332807706500786 0.0014828016379227647 0.0015483094009283533 0.001598024631213656 0.001296506271059374 0.0015851668443029555 0.0013381598231705628 0.0012439411258735988 0.0013931293226151563 0.0010892606019852168 0.001299428112891477 0.0013981546944619179 0.0013016212428996019 0.0010919742700137237 0.0011931357356676309 0.0015974812592032292 0.0016912270645755749 0.0013386103190130027 0.0016318228286692524 0.0012402917638032851 0.0012172910526521248 0.0017078560646507919 0.0014558500140543435 0.001656829816999118 0.0017272725936281819 0.0013960358443931612 0.0011886124777233324 0.0012815220906137513 0.0015108237516535605 0.0012433896771154597 0.0010312634984183996 0.0013346522482045977 0.0013553142356015487 0.001065519295834084 0.00099292996090134139 0.0013460356576458477 0.00098046337456040699 0.0011407578067126065 0.0010288913608098498 0.00094765637437039846 0.0011837800640017886 0.00078946369763271029 0.00099321852204690194 0.0010727785744953761 0.00087807903606705378 0.0008071464646617415 0.0010848349906584058 0.00083728562414968192 0.0010525615752444749 0.0011236329495431076 0.00077084045964610163 0.00088504021919883391 0.0010435403416254757 0.0010032887677041281 0.00084399445217478008 0.0011246416501426556 0.0012849576641723944 0.00095344534172467875 0.0010756248553113166 0.0015648021530421663 0.001152592387870708 0.0014811501605907305 0.0015008513067766628 0.0014168150622158194 0.001736669929767965 0.0014437362546695295 0.0016791948785148539 0.001935501930081632 0.0018704736032775569 0.0016086944156809076 0.0020672748167571628 0.0017857314180302151 0.0019859080931872324 0.0023743709538659751 0.0026361483070744024 0.0022873145057269706 0.0018902288654874763 0.0028916501929446389 0.0021779674051030525 0.0025345275151490284 0.0026714591001758795 0.0030723264758109581 0.0035254938031528426 0.002409282591276781 0.0028803066908031118 0.0031722477615969101 0.0027900475265496736 0.0024252187690137097 0.0031820712029089946 0.003066189649861782 0.0027682697409001185 0.0034623770266707437 0.0024981049852547325 0.002368530083318842 0.0029614573926075014 0.0018868954620590008 0.0024826496996998128 0.0026097349365673214 0.001955927146262582 0.002658170155069093 0.0019419781062040204 0.0020783061151150462 0.0020646961846690357 0.0015180686811535292 0.0021010139437155021 0.0016499392830417474 0.0015784287400127878 0.0018178898486112273 0.0021154197770376719 0.0014567606137852016 0.0021311616365353582 0.0015899548430690013 0.001493761042807924 0.0019448462880163556 0.0021847994996562277 0.0025222279128931011 0.0017273986170709089 0.0022676878329144761 0.0020321922727356617 0.0017195643266167543 0.002089125584650766 0.002265224037209359 0.0018562912649772781 0.0014452661884268422 0.0018085782487796086 0.0017804100291633654 0.0017318624750313548 0.0021446825057218058 0.0014682976070432784 0.0017136108598590873 0.0018255673324443266 0.0016345473602633017 0.0021548369454095131 0.0017520922364737468 0.0019111118287194685 0.0026583398786826379 0.0026548356542583297 0.0019820866107355881 0.0027001640628109519 0.002161754722057675 0.0025701544191099198 0.0029508002881188113 0.0023567916372750739 0.0021022764981869419 0.0026589538158032387 0.002448576678843648 0.0024932525390293646 0.0030622469397493545 0.0028800766343269712 0.0035681028226061582 0.0027630149369409075 0.0029518801023988594 0.0032600882188720684 0.0025136907077956379 0.0025172991805125634 0.0032147294436367445 0.0030251493019921986 0.0024462142382776558 0.0031883456044894715 0.002410548156994638 0.0033103000121492599 0.0025054077236542627 0.002458356966082684 0.0033748149683221389 0.0019735928482935224 0.0026065233497894105 0.0026526003711177595 0.0031386986040182275 0.003322626291029719 0.0023736946030992736 0.0032014954124192523 0.0024533442070048647 0.0026576659865170803 0.0027324911058080842 0.0031717700721193925 0.002618244815620768 0.0026644650788918917 0.0032391176872402627 0.0031096014228482521 0.0026929117853846055 0.0029026048655278625 0.0032573347527659587 0.0025151276597799917 0.00238103528759996 0.0019739378009704556 0.002859371811397607 0.0022856063803974791 0.0024218024425103953 0.0019516839654756778 0.0023676464273251915 0.0026413390871085339 0.0028291800372846521 0.0027167042882010857 0.0022451036646486794 0.0022809643750665654 0.0027499088555955598 0.0025599091710866539 0.0020340240838997749 0.0024302942475757454 0.0020245711471794272 0.0021128980207499237 0.0021035813068898453 0.0016987324120420629 0.0018227865549137736 0.0014292470170221218 0.0018082070915743619 0.0017443020508697586 0.0017294394505976947 0.0021496993577521666 0.0016329725462157253 0.0017582065768654768 0.0021526458464784675 0.0018264071324289187 0.0017026126464102069 0.0015290590475489708 0.0019976086953359899 0.0026674600202349287 0.0020549822331028798 0.0015758094954626827 0.0021151358231814633 0.0021712303421023552 0.0015830418224465955 0.0021777632842816357 0.0021126621400162386 0.0020576640226128273 0.0027110639904792616 0.0019910896067907111 0.0016502700903147968 0.0016366114317448428 0.0022169773177724752 0.001774405652566619 0.0013153064397674378 0.0015000125279286593 0.0017348208608882856 0.0014514866945628563 0.0017213323729354188 0.0012937862124417013 0.00176619408617187 0.0015032049394201139 0.0013538558088361924 0.0015600103783425718 0.0012436890754491305 0.0010322057192041778 0.0014112984873008317 0.0013034528168708941 0.001040044821477645 0.0013000845433947862 0.0014322197576410321 0.0013764440389861126 0.0012412954850594723 0.0015573477249172158 0.00093373456123429111 0.00069109957157865195 0.00094684162969120664 0.0008794709017382401 0.00089289188424793229 0.0011641942515645616 0.0011559970605918796 0.00089810254923270837 0.00086068881442690425 0.0010855933072709723 0.0010743087267505544 0.0013379583193332794 0.0011392962489299256 0.00086136250531824695 0.0011282303716308043 0.0010979642240839553 0.00097972906218325305 0.0012588098957595937 0.0011442104260842429 0.00084065260163790649 0.0010282595922179645 0.0008715927155229352 0.00090295018113493346 0.0010555430921080574 0.00097734431902751946 0.0011257583883031198 0.0012572567456573523 0.0010231127917642302 0.00086579285558610239 0.0011688054216521036 0.0013780113119263792 0.0012145335219733641 0.0010782753132045622 0.0015758973313645139 0.0011568931641037345 0.0013237299721890426 0.0015726298995021365 0.0013636521720134761 0.0011484783541058055 0.0010466975040030794 0.001210245646850253 0.0014195112696438633 0.0015231999967877099 0.0016182412398121218 0.0013097124424358642 0.0012783706433963336 0.0015904605459047859 0.0017607512747184278 0.0018485079699195968 0.0015602281568189507 0.0014605778033550127 0.0014687750902873404 0.0015362414096031932 0.0018339601384488526 0.0015317207644847365 0.0012707652553550213 0.0015981638390773422 0.0013834948515054608 0.0018244199459480942 0.0013123655049512154 0.001809833883112399 0.0015626990574500832 0.0012861176639112483 0.001070906139365266 0.0014402258756790727 0.0010813193611192216 0.0012734955997409498 0.0010501497339386768 0.0014184146001410575 0.0012077596061354369 0.0013558029172927857 0.0016266958797930492 0.0012180411000129378 0.0016284642185108106 0.001309371979222452 0.0013712774313652818 0.0010685888835778813 0.0012816397850408648 0.001135548930880956 0.0011516054690602299 0.00093100049032446199 0.0010925481818413294 0.0013090935057413458 0.00110884577931428 0.00089186456810643518 0.001017117129218403 0.00074194463359764681 0.001016074660177722 0.00092707159365210286 0.00073579601724609283 0.00096708262451515939 0.0011751743647628323 0.0008759686586388342 0.00084193912141021423 0.0011676174078860809 0.0