<?xml version="1.0"?>
<VTKFile type="UnstructuredGrid" version="0.1" byte_order="LittleEndian">
<UnstructuredGrid>
<Piece NumberOfPoints="3918" NumberOfCells="1306">
<Points>
<DataArray type="Float64" NumberOfComponents="3" format="ascii">
0 0 0 0.099999999999928008 0 0 0.082799035591426873 0.082799035591510806 0 0 0 0 0.082799035591426873 0.082799035591510806 0 0 0.10000000000041601 0 0.099999999999928008 0 0 0.20669143849501961 0.085546078947938975 0 0.082799035591426873 0.082799035591510806 0 0.20669143849501961 0.085546078947938975 0 0.140351188660986 0.16130415108589741 0 0.082799035591426873 0.082799035591510806 0 0.082799035591426873 0.082799035591510806 0 0.140351188660986 0.16130415108589741 0 0.066361468125430589 0.15903440181097661 0 0.082799035591426873 0.082799035591510806 0 0.066361468125430589 0.15903440181097661 0 0 0.10000000000041601 0 0 0.20000000000083221 0 0 0.10000000000041601 0 0.066361468125430589 0.15903440181097661 0 0 0.20000000000083221 0 0.066361468125430589 0.15903440181097661 0 0.089078158003765312 0.2493007687782936 0 0 0.20000000000083221 0 0.089078158003765312 0.2493007687782936 0 0 0.30000000000124832 0 0 0.30000000000124832 0 0.089078158003765312 0.2493007687782936 0 0.0632094674441709 0.3449112819864934 0 0.13897501191807771 0.34545639364066222 0 0.089078158003765312 0.2493007687782936 0 0.17318221359491059 0.27409688392309489 0 0.089078158003765312 0.2493007687782936 0 0.140351188660986 0.16130415108589741 0 0.17318221359491059 0.27409688392309489 0 0.089078158003765312 0.2493007687782936 0 0.066361468125430589 0.15903440181097661 0 0.140351188660986 0.16130415108589741 0 0.21725788110387281 0.17316968768743621 0 0.24783073444672249 0.24783073444648379 0 0.17318221359491059 0.27409688392309489 0 0.21725788110387281 0.17316968768743621 0 0.17318221359491059 0.27409688392309489 0 0.140351188660986 0.16130415108589741 0 0.2371857680100064 0.35865548441110112 0 0.17318221359491059 0.27409688392309489 0 0.24783073444672249 0.24783073444648379 0 0.34318159319555042 0.3314386771104964 0 0.24783073444672249 0.24783073444648379 0 0.33604819894646598 0.23280286076243209 0 0.29145143692666958 0.13500804559578439 0 0.24783073444672249 0.24783073444648379 0 0.21725788110387281 0.17316968768743621 0 0.29145143692666958 0.13500804559578439 0 0.33604819894646598 0.23280286076243209 0 0.24783073444672249 0.24783073444648379 0 0.20669143849501961 0.085546078947938975 0 0.29145143692666958 0.13500804559578439 0 0.21725788110387281 0.17316968768743621 0 0.20669143849501961 0.085546078947938975 0 0.21725788110387281 0.17316968768743621 0 0.140351188660986 0.16130415108589741 0 0.099999999999928008 0 0 0.19999999999983389 0 0 0.20669143849501961 0.085546078947938975 0 0.29999999999973409 0 0 0.20669143849501961 0.085546078947938975 0 0.19999999999983389 0 0 0.29999999999973409 0 0 0.29145143692666958 0.13500804559578439 0 0.20669143849501961 0.085546078947938975 0 0.29999999999973409 0 0 0.35933948296838258 0.073809900849860513 0 0.29145143692666958 0.13500804559578439 0 0.39999999999966429 0 0 0.35933948296838258 0.073809900849860513 0 0.29999999999973409 0 0 0.40428440976105728 0.1643886070295453 0 0.29145143692666958 0.13500804559578439 0 0.35933948296838258 0.073809900849860513 0 0.43504744109702559 0.077628892606360606 0 0.40428440976105728 0.1643886070295453 0 0.35933948296838258 0.073809900849860513 0 0.40428440976105728 0.1643886070295453 0 0.43504744109702559 0.077628892606360606 0 0.50264032148191051 0.12292784096123539 0 0.39999999999966429 0 0 0.49999999999959438 0 0 0.43504744109702559 0.077628892606360606 0 0.39999999999966429 0 0 0.43504744109702559 0.077628892606360606 0 0.35933948296838258 0.073809900849860513 0 0.49999999999959438 0 0 0.50264032148191051 0.12292784096123539 0 0.43504744109702559 0.077628892606360606 0 0.49999999999959438 0 0 0.57505385014294308 0.072457888465917331 0 0.50264032148191051 0.12292784096123539 0 0.49999999999959438 0 0 0.59999999999951659 0 0 0.57505385014294308 0.072457888465917331 0 0.59999999999951659 0 0 0.66267222434682926 0.078497159578092612 0 0.57505385014294308 0.072457888465917331 0 0.57505385014294308 0.072457888465917331 0 0.64669101990832323 0.1799054750174742 0 0.5565830077206213 0.19095699352548859 0 0.57505385014294308 0.072457888465917331 0 0.5565830077206213 0.19095699352548859 0 0.50264032148191051 0.12292784096123539 0 0.49255105193724569 0.22337579986912359 0 0.5565830077206213 0.19095699352548859 0 0.58612580217118482 0.27813894450229909 0 0.49255105193724569 0.22337579986912359 0 0.50264032148191051 0.12292784096123539 0 0.5565830077206213 0.19095699352548859 0 0.64669101990832323 0.1799054750174742 0 0.58612580217118482 0.27813894450229909 0 0.5565830077206213 0.19095699352548859 0 0.49272830291620878 0.32528628960011152 0 0.49255105193724569 0.22337579986912359 0 0.58612580217118482 0.27813894450229909 0 0.49255105193724569 0.22337579986912359 0 0.49272830291620878 0.32528628960011152 0 0.41589935411558732 0.26752529264016389 0 0.49255105193724569 0.22337579986912359 0 0.41589935411558732 0.26752529264016389 0 0.40428440976105728 0.1643886070295453 0 0.40428440976105728 0.1643886070295453 0 0.50264032148191051 0.12292784096123539 0 0.49255105193724569 0.22337579986912359 0 0.33604819894646598 0.23280286076243209 0 0.40428440976105728 0.1643886070295453 0 0.41589935411558732 0.26752529264016389 0 0.40428440976105728 0.1643886070295453 0 0.33604819894646598 0.23280286076243209 0 0.29145143692666958 0.13500804559578439 0 0.33604819894646598 0.23280286076243209 0 0.41589935411558732 0.26752529264016389 0 0.34318159319555042 0.3314386771104964 0 0.38593969585746768 0.44843324941957241 0 0.34318159319555042 0.3314386771104964 0 0.42544665781957403 0.3726599289372452 0 0.38593969585746768 0.44843324941957241 0 0.29987747321592639 0.43430880093746571 0 0.34318159319555042 0.3314386771104964 0 0.38593969585746768 0.44843324941957241 0 0.42544665781957403 0.3726599289372452 0 0.47711113382803011 0.43513410852522788 0 0.47711113382803011 0.43513410852522788 0 0.42544665781957403 0.3726599289372452 0 0.49272830291620878 0.32528628960011152 0 0.42544665781957403 0.3726599289372452 0 0.41589935411558732 0.26752529264016389 0 0.49272830291620878 0.32528628960011152 0 0.42544665781957403 0.3726599289372452 0 0.34318159319555042 0.3314386771104964 0 0.41589935411558732 0.26752529264016389 0 0.56509579243166053 0.39588847936247551 0 0.47711113382803011 0.43513410852522788 0 0.49272830291620878 0.32528628960011152 0 0.56509579243166053 0.39588847936247551 0 0.58612580217118482 0.27813894450229909 0 0.65823561246403328 0.35502292901158627 0 0.56509579243166053 0.39588847936247551 0 0.49272830291620878 0.32528628960011152 0 0.58612580217118482 0.27813894450229909 0 0.56509579243166053 0.39588847936247551 0 0.64897033023755402 0.45530630145656431 0 0.55763912874459476 0.49619993861770217 0 0.56509579243166053 0.39588847936247551 0 0.65823561246403328 0.35502292901158627 0 0.64897033023755402 0.45530630145656431 0 0.56509579243166053 0.39588847936247551 0 0.55763912874459476 0.49619993861770217 0 0.47711113382803011 0.43513410852522788 0 0.55763912874459476 0.49619993861770217 0 0.45232393232070839 0.53082724112931345 0 0.47711113382803011 0.43513410852522788 0 0.55763912874459476 0.49619993861770217 0 0.56379254693201075 0.58472273515948836 0 0.45232393232070839 0.53082724112931345 0 0.56379254693201075 0.58472273515948836 0 0.55763912874459476 0.49619993861770217 0 0.66278242936710119 0.53985356489900171 0 0.64897033023755402 0.45530630145656431 0 0.66278242936710119 0.53985356489900171 0 0.55763912874459476 0.49619993861770217 0 0.65500944633069913 0.60601350811213128 0 0.59670004617370476 0.65981579440137683 0 0.56379254693201075 0.58472273515948836 0 0.56379254693201075 0.58472273515948836 0 0.46433624429412901 0.61260020600107856 0 0.45232393232070839 0.53082724112931345 0 0.5174764925733939 0.65338828204098198 0 0.46433624429412901 0.61260020600107856 0 0.56379254693201075 0.58472273515948836 0 0.38240158409674341 0.60644575028138747 0 0.34793494568226019 0.52426775179830853 0 0.45232393232070839 0.53082724112931345 0 0.38240158409674341 0.60644575028138747 0 0.45232393232070839 0.53082724112931345 0 0.46433624429412901 0.61260020600107856 0 0.38593969585746768 0.44843324941957241 0 0.45232393232070839 0.53082724112931345 0 0.34793494568226019 0.52426775179830853 0 0.38593969585746768 0.44843324941957241 0 0.47711113382803011 0.43513410852522788 0 0.45232393232070839 0.53082724112931345 0 0.38593969585746768 0.44843324941957241 0 0.34793494568226019 0.52426775179830853 0 0.29987747321592639 0.43430880093746571 0 0.27661118526457179 0.58730386222759956 0 0.38240158409674341 0.60644575028138747 0 0.32437633398017029 0.65970549827478953 0 0.27661118526457179 0.58730386222759956 0 0.34793494568226019 0.52426775179830853 0 0.38240158409674341 0.60644575028138747 0 0.27661118526457179 0.58730386222759956 0 0.1946526892501724 0.54636184660733622 0 0.27220668248394869 0.50912429725145214 0 0.27661118526457179 0.58730386222759956 0 0.16324260003398389 0.62262730759772122 0 0.1946526892501724 0.54636184660733622 0 0.12353277228144981 0.51086097771927308 0 0.1946526892501724 0.54636184660733622 0 0.16324260003398389 0.62262730759772122 0 0.12353277228144981 0.51086097771927308 0 0.21928696632013719 0.4676461135047027 0 0.1946526892501724 0.54636184660733622 0 0.1946526892501724 0.54636184660733622 0 0.21928696632013719 0.4676461135047027 0 0.27220668248394869 0.50912429725145214 0 0.29987747321592639 0.43430880093746571 0 0.27220668248394869 0.50912429725145214 0 0.21928696632013719 0.4676461135047027 0 0.27661118526457179 0.58730386222759956 0 0.27220668248394869 0.50912429725145214 0 0.34793494568226019 0.52426775179830853 0 0.34793494568226019 0.52426775179830853 0 0.27220668248394869 0.50912429725145214 0 0.29987747321592639 0.43430880093746571 0 0.2371857680100064 0.35865548441110112 0 0.29987747321592639 0.43430880093746571 0 0.21928696632013
[...]
<PointData Scalars="A_conc," Vectors="" Tensors="">
<DataArray type="Float64" Name="A_conc" format="ascii">
0.0017564643770618615 0.0022735212831007062 0.0021217329520895555 0.0018122211060359243 0.0021653489282421586 0.0017459346710316131 0.0021772545909842156 0.0027407138209842772 0.0020233887853120178 0.0027195314631137391 0.0023184088214793144 0.0019928784169453389 0.0020673429141114708 0.0023883093160534099 0.0019841288513539842 0.0021322184813470325 0.0020503277014286038 0.0017165128748514559 0.0017695735611440743 0.001755720224247742 0.0020860661334024702 0.0017219458800119998 0.0020489633979991484 0.0021824295606750655 0.0017579531104322667 0.0022058927128174675 0.0017696672362625052 0.0017321066282393435 0.0021823234953464504 0.0020530251594366336 0.0023506032574561646 0.0020608566036474109 0.0025502740865245331 0.0020603280068074645 0.0023363149613954159 0.0025570406092259843 0.0021181753284773264 0.0019827287072186964 0.0023896199191149087 0.00269343461317503 0.0029202702454339409 0.0024265548594855748 0.0027530456017627741 0.0024917178710636579 0.0022677538208110545 0.0028397896287117416 0.0024057689368082317 0.002907127574050841 0.0034679415392423947 0.0027265697461296948 0.0034134018061665115 0.0031394292909956295 0.0028540642657723121 0.002621255405823301 0.0030636229085323802 0.0034380314328689931 0.0027749473622319817 0.0025669923052116174 0.0031510664382969266 0.0026483960688103059 0.0026547380647070008 0.0027348671659415693 0.0022447482932124083 0.0021058658642316764 0.0027247909054605112 0.0026831962224289872 0.0033054509024515594 0.0025699194614049086 0.0026104834044251295 0.0032638599320691164 0.0030897965248908249 0.0025170115935946088 0.0031668556720690789 0.0035636461274020093 0.0029904890773307224 0.003928705048786332 0.0034840370625300486 0.0030894097265883411 0.0038752697697306349 0.0029353094407314623 0.0034926445880968816 0.0040653437925953061 0.0037749869218813722 0.0033854165535641347 0.0036605096593875673 0.0039537840510178845 0.00460953401286999 0.0037194088876553394 0.0046935321952263822 0.0039534429644435777 0.0038392784136697332 0.0040697606155661488 0.003390083962021583 0.0046239392173634108 0.004519244614205044 0.003874467177599707 0.0045002542895994143 0.0052340809731778268 0.0043948230903299258 0.0044051909675300845 0.0055682868458890302 0.0051405245516426487 0.005418494971914818 0.006089304794142757 0.0049879387475659344 0.0050464400104798281 0.0059414936879209762 0.0048437729647333727 0.0051864289475528321 0.0049861380486195721 0.0043689942859294652 0.0042737815404277372 0.0049876219288280382 0.0053608506768220788 0.0043678116791589323 0.0044479083299992722 0.0050602140095347874 0.0059459854601879277 0.005213869899104405 0.0048357639746577502 0.0043672133243830421 0.0043494849737934172 0.0054081181593931479 0.0045011462837807326 0.0045186730738933966 0.0037367368997052062 0.0045649168844702128 0.003831348215018667 0.00368546691323991 0.0036038675978237933 0.0045778110455830115 0.0044991892303346452 0.0032352159339386691 0.0038090260747228434 0.0039529878062809056 0.0038907686085632113 0.0033344115212005287 0.002956282436524859 0.0032957882323577797 0.0039892971020361627 0.0033512573038356067 0.0036594674258088713 0.0033059096188790783 0.0040256061122456756 0.003748205875744376 0.0030397472091146772 0.0033999307165144973 0.003554603742090527 0.0039228215143387426 0.0044192604327444596 0.0043369551551209924 0.0038306561040830633 0.0045149338245807618 0.0038907450451145745 0.003809398607585758 0.0045637342861493541 0.0040085381363949412 0.0032735125790737231 0.0039283766006767869 0.0051781424529963576 0.0042128724972041523 0.0043927630909148729 0.0049211989212837506 0.0051949473709593649 0.006101907249896581 0.0050856077832522805 0.0042764261417872328 0.0053553761949765247 0.0049568176370475376 0.0059969429743073214 0.0048676130189468196 0.004837417757877804 0.0060431438254938017 0.0058993015244241083 0.0051219392743862991 0.0050340501962560479 0.004140201267938585 0.0051238736467070448 0.0040049510285401369 0.0042572260887854801 0.0050528114289405636 0.005130226538439313 0.0039026765026224852 0.004930882582055829 0.0048520034289126351 0.0061592694700353789 0.0059104072624641827 0.0060893029393637348 0.00474263495071815 0.0060474470277355648 0.0052953000742013224 0.0049047564195863359 0.0052017376222016987 0.0041541836549882699 0.0040006518374253895 0.0046330584891610951 0.004072726706656659 0.0051624635186631549 0.0036192848635127218 0.0033077223605489153 0.004240013250245785 0.0035236658671961114 0.004155171484246334 0.0043065286178204923 0.0036305794975856386 0.0042463680664703947 0.0033098317612280607 0.0035254456253111053 0.0044007504969366595 0.0041524475267733976 0.0037411952376619284 0.0034233060199916681 0.0030346984995348316 0.0029030922586709314 0.0037512518806129139 0.0032685010781163129 0.0028775238465785918 0.0034364505521551451 0.0037424821589311401 0.003055160998539328 0.0024796945436671787 0.003025180104505123 0.003113220796358548 0.0023609608775239776 0.0025518780590837848 0.0022010669370673436 0.0026388563706089547 0.0024509293895036734 0.00216609873202963 0.002768048456142461 0.0026099748731423719 0.0025239340152036502 0.0026845239500315871 0.0030562212414295378 0.003197665686862089 0.0029941372935880042 0.002613989622178309 0.002958240270327245 0.0029278053361225086 0.0035092155317787361 0.0034991145826107823 0.0029092156960489773 0.0031153829726755645 0.0027717170885058801 0.0032177766230727235 0.0026408297452784227 0.0026849963060160366 0.0034956992063193727 0.0031417911767008177 0.0035223026918427946 0.0027329482382941984 0.0028012152300146489 0.0022701141549646797 0.0024698104320059972 0.0028965630005900024 0.0022778262681488579 0.002891002897573229 0.0024143845266188495 0.0028520804628437532 0.0027227418107055221 0.0023700008761602218 0.0021886174490874425 0.0024387797529630884 0.0027817788621170691 0.002041204213964806 0.0025085802278375195 0.0022621979575351736 0.0020264236510865968 0.0023614374588915962 0.0024969033012641065 0.0024032687923407456 0.0019865521567831224 0.002117780487211493 0.0020780726985765961 0.001992967707461866 0.0024081192118907582 0.0021436681605052983 0.0017286401962016184 0.0020598907090957773 0.0017815009347916691 0.0020920571739135685 0.0017737555854006807 0.0017574723210297114 0.0017649446212842442 0.002173052735124617 0.0016949931125687704 0.0021214199027598853 0.0023373339430289206 0.001704107263752135 0.0023404017233213032 0.0020588747200343963 0.0020530376333148829 0.0020085015673797679 0.0025258709521773499 0.0022665961337341558 0.0025127828510831209 0.001978247378463235 0.0017296918899588221 0.0020868054256722997 0.0021306986568383961 0.0017738954794567067 0.001762450512798774 0.00211436143520704 0.0017661972685232537 0.0021601125961549332 0.0017681743525536477 0.0021780037210428521 0.001719374653924576 0.0021253387463516702 0.0017633431693583907 0.0017636597964284678 0.0022083927533935346 0.002054779969478266 0.0024957578079164038 0.0024305009167629016 0.0020991516100534271 0.0020456005658058838 0.0025344631827743354 0.0019972539519891052 0.0024794439650053356 0.0025060758039106845 0.0029891328017174774 0.002411004611691075 0.0023839658582374139 0.0030870056250359669 0.0029308832334922503 0.0023106219060903825 0.0029911205888186881 0.0033564965786476372 0.0028318227712473406 0.0027805404173191989 0.0033244296509620831 0.0034401192588568259 0.0026440913936241466 0.0028824733501779934 0.0032008685638852423 0.002803648846921919 0.0034544268658505228 0.0031262310797679463 0.0027250938610624315 0.0023660725709744924 0.0029598244024899092 0.002426037280242775 0.0027828066419101072 0.0023598646835240786 0.0028141620070563996 0.0022522256490393865 0.0023699453600983899 0.0027696578364064962 0.0023186059015012374 0.0027572259887623375 0.0026174776359688318 0.0031662025153623668 0.0032972664938923381 0.0026835988356876247 0.0026709592252943185 0.0032203995483491119 0.0031764115891365144 0.0026181237778599709 0.0032998635001348546 0.0028129033102620802 0.0023357586923480121 0.0022560591360528703 0.0020055842623007175 0.0023354069402705398 0.0024141273883255408 0.0020467236575944883 0.002045336996013065 0.0023688443111396337 0.0021071513006926819 0.0024705128159741522 0.0020297351163988853 0.0020007608763031137 0.0024480840483636474 0.0023319588762260404 0.0017222157228841037 0.0021793831099069143 0.0021031794708902037 0.001771438160779655 0.0021388690223722614 0.0017676249046674219 0.002109255931079065 0.0017290957062924394 0.0021078861742285064 0.0022435193654097491 0.001732973804565865 0.0020938605075678574 0.0017800720831787189 0.0017676716674069211 0.0021367179256154513 0.0021759773147312267 0.0020245074226355455 0.0024282823577075874 0.0021102289634872787 0.0023652050626158183 0.0027044745860146054 0.0026404790329717636 0.0022976654746403053 0.0027829406720676917 0.0032445183996327553 0.0025495871836392612 0.0026941397566549595 0.0038524585511200424 0.0030156393632673004 0.0036135407855811246 0.0037345558101733473 0.0034954351722005983 0.0042860123414257588 0.0036295427577148261 0.0041884243035490223 0.0046077347299434751 0.0044829419636562432 0.0040595375637887841 0.0050260485597501845 0.0053532796779650407 0.0047529294290209727 0.0059448866724038677 0.0054923743186669829 0.004353406514116304 0.0048970415193012968 0.0059758519134474114 0.0047973696177484159 0.0050031678621442312 0.0059216311905451683 0.0049181648204067209 0.0055818471011235479 0.0057282764998640304 0.0044660466075774636 0.004652957980178481 0.0057073115491343522 0.0050558499837555209 0.0044203247030111057 0.0038732315096939316 0.0048191125927471695 0.0046347869402571249 0.0041555151624763555 0.0039497689155177903 0.0046890967834689479 0.0039831545640130542 0.0051784114407219996 0.0049761598575404232 0.0040350563938159932 0.0045778768370942765 0.0052029654951436712 0.003526311729913151 0.0034837951863202292 0.0043086347743058247 0.0030769219527321144 0.0032028212149706166 0.0036733414821270719 0.0036348801583520165 0.0031455233180154229 0.0035928258085762103 0.0041475594359281298 0.0035309350418913183 0.0032738816569105452 0.0030700071218532814 0.0036439071853781369 0.0032026603270499448 0.0030466526565209283 0.0033784429326792834 0.0036326211606238128 0.0042696152940168508 0.0034232969429302193 0.0040666588857423101 0.004105955140106754 0.0032188403315937027 0.0040189861825761187 0.0039546900985003011 0.0038662295041113652 0.0048833973641189063 0.0040922329546356469 0.0033182403724062075 0.0032008745702177665 0.0040685647589724944 0.003155327220553463 0.0036478512989441903 0.0039661828138488038 0.003538804059919274 0.0043074100833620241 0.0047557614146758092 0.0038542323553838308 0.0041974483906269356 0.0047123059571478037 0.0048292544611288207 0.0037789352922500434 0.0056644692186162632 0.0056330807772826527 0.0045372275583662608 0.0056854295496173374 0.0045699297714242842 0.005377859461229594 0.0045077653759699795 0.0050447567691728956 0.0054301018183628052 0.0045599424210878764 0.0054715917279796362 0.0046788971730911877 0.0059333939824671635 0.0062188421397766907 0.005173010470608942 0.0057604912269970318 0.0071210571535879549 0.0060495365317574344 0.0052257677304172198 0.0062628821364274579 0.0055390663138644314 0.0061730250455211714 0.0063672672227163976 0.0054246804526631434 0.0054671110510001626 0.0054989625148276948 0.0064249619595053639 0.006029331050090082 0.0070557582881925259 0.0062257492434338157 0.0069567043202449844 0.0072204992513097161 0.0061108778913354523 0.006793075421614528 0.0079962221038053331 0.0070599614629456011 0.0068461778321286222 0.008002660989547182 0.0068159742849667306 0.0070240600126144992 0.0069942998604397288 0.0059354506468029351 0.0066984577841590568 0.0084575576015360806 0.0078681008196845193 0.0091895005281260097 0.0076601997300176101 0.0082519028196055937 0.010039414153211697 0.0089955935882205726 0.0080465465187490922 0.010560803521605303 0.0090712735972446664 0.0088487106106172504 0.0090658210761787664 0.009286034836205128 0.0079679053022155104 0.0091926777379528687 0.008109367959359565 0.007681505284108759 0.0082993491924419679 0.0069256244755095675 0.0078724176022829488 0.0083181942339955461 0.0078925656757675225 0.0069362502808069009 0.0075219772576330095 0.0092856762496198331 0.0096978219489960125 0.0081126561546633977 0.0094028943067431953 0.0076815514726379271 0.0076059634424294007 0.0097554703287830134 0.0086565829294148588 0.0095828935741467634 0.0098794000601167813 0.0084563222674703519 0.0073994988456979084 0.0078276423407827971 0.0088457252584085641 0.0075905217825922959 0.0066262971025885086 0.0080135703393219068 0.0080881502874836295 0.0067513572457914509 0.0064170983370229889 0.008050323435497846 0.0063687552014621788 0.0071080085731799539 0.0065431554217237654 0.0061578421525771785 0.0072633211605154825 0.0053492889603971262 0.0063259241609882888 0.0067056297139009655 0.005761099113045595 0.0054174532150179583 0.0067535291217660299 0.005607854345552222 0.0066333553609398818 0.0069626358562930235 0.0051931099778406891 0.005793386740650182 0.0065238628842529513 0.006374025564397489 0.0056349156692616347 0.0069669233189354994 0.0077385238124134271 0.0061916558317314241 0.0067873903232105529 0.009102044162785412 0.0072722863998089197 0.0087438739301922384 0.0088865458350371063 0.0085245186517008201 0.0099081731934878067 0.0086994636935046749 0.0097176654594605619 0.010792566230980113 0.010581634204859171 0.0094902604325580089 0.011402700233078497 0.010315513398980221 0.011146145501938664 0.01271672039687423 0.01382800360195607 0.012449727322492422 0.010855082448752931 0.014902984646942943 0.01212309303864322 0.013521926179801717 0.014271381038635664 0.015774839314484302 0.017454488696535507 0.01315963100352676 0.014956281638863863 0.016060731148369648 0.01460748467676316 0.013205902022632519 0.016088409112158947 0.015759295521416621 0.014639592223471238 0.017223783535015632 0.013415296502610183 0.012901793461335125 0.015191950475355886 0.01087508221439901 0.013240703562769686 0.013747074655876526 0.011086317844890468 0.013898532464808731 0.011018975283652178 0.011466557396804878 0.011400381081909916 0.0091331311391254708 0.011517435069546082 0.0096281160957977091 0.0093284437588084072 0.010347911897977874 0.0115850267366605 0.0088233097324190053 0.011638996575721271 0.0093643489842193395 0.0089447470408981888 0.011050678573504568 0.012018982109005696 0.013361197889350288 0.01006155553817371 0.012275396791113478 0.011319449230576054 0.010037113379430593 0.011556234708640556 0.012267611785347046 0.010470984295025092 0.0087258148078890353 0.010267177268728394 0.010227208449542981 0.010020932436006859 0.011731308505980221 0.0088017020888724543 0.0098619815938026587 0.010323289507159958 0.0096063800779666204 0.011763977263124949 0.010085935378508427 0.011013107908127633 0.013963888886110474 0.013944700971562363 0.011228897824128123 0.014084058035337891 0.011950144164069669 0.013693974849583776 0.015161040064996922 0.012867349384472031 0.011769552481333517 0.013956471367247352 0.013137751223027454 0.013472926040866754 0.015634825311103814 0.014955958438986623 0.017616739651549317 0.014624407773748471 0.015322343687533144 0.016373715189706997 0.013531044870415924 0.013550610943923824 0.016240594015698006 0.015527439974141109 0.013337161785136192 0.016165333073490554 0.013241671683299972 0.016635009759599334 0.013513905293547282 0.013334152086003146 0.016822891118477415 0.011268803774234363 0.013766791044300033 0.01394401049395614 0.015978071622647066 0.016670164832854453 0.01309121868910372 0.016158955990450349 0.013317722034308546 0.014088150134961355 0.014404031467465168 0.016071002640852906 0.013971733562629096 0.014212721389080914 0.016362290173393069 0.015894761526515894 0.014295802701854394 0.015083415724281502 0.016415708318055243 0.013348202763628346 0.01283265331052043 0.011203576060168799 0.014776824983369876 0.012548250828866053 0.013069277349883907 0.011134595262627237 0.012789827233264687 0.013872656460803575 0.014684374907070395 0.01425664728183041 0.012425545093874803 0.012531924948676816 0.014355471878819677 0.013628941053745297 0.011385401212839482 0.012981458838844622 0.011356806310441662 0.011629965185830871 0.01160160795313429 0.0099317282498501587 0.010328802480686843 0.0086505707571371531 0.010256428737956172 0.010076660134391282 0.010003286907583156 0.01174874391296192 0.0095968050326849692 0.010120793307135624 0.011758719570274977 0.010339968185653359 0.0098201429142667947 0.0090787073975666637 0.011275591977773657 0.013953586923257176 0.011514504486816513 0.0094142806938542697 0.011638592817315925 0.011873795070859042 0.0094441546585242696 0.011897004772472602 0.011628415757041523 0.011526684422371807 0.014124709023684276 0.011253929626266266 0.0096589901520889813 0.0096083566900950438 0.012022725872518238 0.010065276030985332 0.0080726844643983237 0.0088843088760222309 0.0099314543135973505 0.0087224917712662043 0.0098812393561240504 0.0079769813615014236 0.010031851417548546 0.0088945741237100168 0.0081792579064320029 0.0090868697766720366 0.0076867923324637592 0.0066617098343773763 0.0083789190507595791 0.0078937393552986554 0.0066991185269200618 0.0078828542554247039 0.0084720718863202545 0.0082777828439323138 0.0076792245973880627 0.0090778949513218282 0.0059978698119997065 0.0048120388026588736 0.0060676882390674931 0.0057935462363200478 0.0058645809059719783 0.0071473627234998763 0.0071094199043233936 0.0058844552315058798 0.0057025125226080062 0.0068596335993532393 0.0068110687429013914 0.0080166068468903295 0.0070536428321161119 0.0057486527266665212 0.0070057149821101785 0.0068953962303874199 0.0063417448403293051 0.0076337682750182998 0.0070643595160304138 0.0056273883685386637 0.0065182616234325981 0.0057427966465575294 0.0058888085370583567 0.0066204643876655572 0.0063349689691130145 0.0070200473594323109 0.0076294952457481519 0.0065012447232972951 0.0057519304602761945 0.0071774756493337317 0.0082137846659554158 0.0074774184156409657 0.0068514833163566356 0.0091432769009331515 0.0072773740545407327 0.0080244641456312833 0.0091304319185288186 0.0082140992005737597 0.0072462519930319071 0.0067133532696031428 0.0074603946755801348 0.0084086935991122824 0.0089607580988908461 0.0093751096213001046 0.0080307089275879814 0.0079249525075174368 0.0092811872110407662 0.010012891905249515 0.010413719145756473 0.0091824439187825225 0.008752316918418792 0.0087822852289750081 0.0090653984250130132 0.01034202659500707 0.0089916996811361394 0.0078443552255281837 0.0092718371938258232 0.0083800267758544714 0.010283690800342854 0.0080486315052124679 0.01023512751363018 0.0091499641029624875 0.0079639316167620759 0.0068233060500273853 0.0084915433669999416 0.0068523980444694854 0.0077460193059680112 0.0067430976642773675 0.0084146175876807679 0.0075207552829071236 0.0081994735678684785 0.0093685450769266775 0.0075590452387313146 0.009377791374824725 0.007976834032038185 0.0081904939034876667 0.0068181840767312461 0.00777816072460559 0.0070485355479855214 0.0071141987132941394 0.0060882161290767914 0.0068945859317381102 0.007875097953070483 0.0069609009501330563 0.0058125928265857496 0.0064082969346841278 0.0050697407744924551 0.0064051730317905686 0.0059822422915616746 0.0050474358970244732 0.0062215729926185809 0.0072027233142815516 0.005791605798899124 0.0056256294693685918 0.0071670156053619044 0.0062297267255917279 0.0070765206197803956 0.007105330183087461 0.0055204726928681771 0.0069033102895885087 0.0066995412156885103 0.0077957577900678223 0.0070777358776769163 0.005749763593995965 0.006876857871250054 0.0071708289007478927 0.0056408834353798036 0.0058686424408061254 0.0058390260914270896 0.0049340231662426248 0.0060624768551121354 0.005272118724362845 0.0066232595533430366 0.0059532461885699987 0.0058048742696000825 0.0064820087007008446 0.0069275015380935072 0.0078626857762429461 0.0067543722191691089 0.0063056879937839509 0.0093047192651216984 0.0075081357704206517 0.0075204597778915014 0.0077470433130621911 0.0077344054525661787 0.0066247370554579129 0.0086789485001062035