<?xml version="1.0"?>
<VTKFile type="UnstructuredGrid" version="0.1" byte_order="LittleEndian">
<UnstructuredGrid>
<Piece NumberOfPoints="3918" NumberOfCells="1306">
<Points>
<DataArray type="Float64" NumberOfComponents="3" format="ascii">
0 0 0 0 0.10000000000041601 0 0.082799035591426873 0.082799035591510806 0 0 0 0 0.082799035591426873 0.082799035591510806 0 0.099999999999928008 0 0 0 0.10000000000041601 0 0 0.20000000000083221 0 0.066361468125430589 0.15903440181097661 0 0 0.10000000000041601 0 0.082799035591426873 0.082799035591510806 0 0.066361468125430589 0.15903440181097661 0 0.082799035591426873 0.082799035591510806 0 0.140351188660986 0.16130415108589741 0 0.066361468125430589 0.15903440181097661 0 0.082799035591426873 0.082799035591510806 0 0.20669143849501961 0.085546078947938975 0 0.140351188660986 0.16130415108589741 0 0.082799035591426873 0.082799035591510806 0 0.099999999999928008 0 0 0.20669143849501961 0.085546078947938975 0 0.099999999999928008 0 0 0.19999999999983389 0 0 0.20669143849501961 0.085546078947938975 0 0.20669143849501961 0.085546078947938975 0 0.21725788110387281 0.17316968768743621 0 0.140351188660986 0.16130415108589741 0 0.20669143849501961 0.085546078947938975 0 0.29145143692666958 0.13500804559578439 0 0.21725788110387281 0.17316968768743621 0 0.20669143849501961 0.085546078947938975 0 0.29145143692666958 0.13500804559578439 0 0.29999999999973409 0 0 0.19999999999983389 0 0 0.20669143849501961 0.085546078947938975 0 0.29999999999973409 0 0 0.24783073444672249 0.24783073444648379 0 0.34318159319555042 0.3314386771104964 0 0.33604819894646598 0.23280286076243209 0 0.29145143692666958 0.13500804559578439 0 0.24783073444672249 0.24783073444648379 0 0.21725788110387281 0.17316968768743621 0 0.29145143692666958 0.13500804559578439 0 0.24783073444672249 0.24783073444648379 0 0.33604819894646598 0.23280286076243209 0 0.21725788110387281 0.17316968768743621 0 0.17318221359491059 0.27409688392309489 0 0.140351188660986 0.16130415108589741 0 0.24783073444672249 0.24783073444648379 0 0.21725788110387281 0.17316968768743621 0 0.17318221359491059 0.27409688392309489 0 0.24783073444672249 0.24783073444648379 0 0.17318221359491059 0.27409688392309489 0 0.2371857680100064 0.35865548441110112 0 0.17318221359491059 0.27409688392309489 0 0.089078158003765312 0.2493007687782936 0 0.13897501191807771 0.34545639364066222 0 0.17318221359491059 0.27409688392309489 0 0.089078158003765312 0.2493007687782936 0 0.140351188660986 0.16130415108589741 0 0.089078158003765312 0.2493007687782936 0 0.140351188660986 0.16130415108589741 0 0.066361468125430589 0.15903440181097661 0 0.089078158003765312 0.2493007687782936 0 0 0.20000000000083221 0 0.066361468125430589 0.15903440181097661 0 0.089078158003765312 0.2493007687782936 0 0 0.30000000000124832 0 0.0632094674441709 0.3449112819864934 0 0.089078158003765312 0.2493007687782936 0 0 0.20000000000083221 0 0 0.30000000000124832 0 0.0632094674441709 0.3449112819864934 0 0 0.40000000000166441 0 0.083393126324559225 0.42307471369029392 0 0 0.30000000000124832 0 0.0632094674441709 0.3449112819864934 0 0 0.40000000000166441 0 0 0.40000000000166441 0 0.083393126324559225 0.42307471369029392 0 0 0.50000000000205869 0 0.083393126324559225 0.42307471369029392 0 0.13897501191807771 0.34545639364066222 0 0.16486701364709541 0.41592657376307979 0 0.083393126324559225 0.42307471369029392 0 0.12353277228144981 0.51086097771927308 0 0.16486701364709541 0.41592657376307979 0 0.0632094674441709 0.3449112819864934 0 0.083393126324559225 0.42307471369029392 0 0.13897501191807771 0.34545639364066222 0 0.089078158003765312 0.2493007687782936 0 0.0632094674441709 0.3449112819864934 0 0.13897501191807771 0.34545639364066222 0 0.070553891733833127 0.57745844360881338 0 0 0.60000000000138687 0 0.079752623936563252 0.65630726580969023 0 0.070553891733833127 0.57745844360881338 0 0 0.60000000000138687 0 0 0.50000000000205869 0 0.083393126324559225 0.42307471369029392 0 0 0.50000000000205869 0 0.12353277228144981 0.51086097771927308 0 0.070553891733833127 0.57745844360881338 0 0 0.50000000000205869 0 0.12353277228144981 0.51086097771927308 0 0.070553891733833127 0.57745844360881338 0 0.12353277228144981 0.51086097771927308 0 0.16324260003398389 0.62262730759772122 0 0.070553891733833127 0.57745844360881338 0 0.16324260003398389 0.62262730759772122 0 0.079752623936563252 0.65630726580969023 0 0.12353277228144981 0.51086097771927308 0 0.16324260003398389 0.62262730759772122 0 0.1946526892501724 0.54636184660733622 0 0.16324260003398389 0.62262730759772122 0 0.1946526892501724 0.54636184660733622 0 0.27661118526457179 0.58730386222759956 0 0.1946526892501724 0.54636184660733622 0 0.27220668248394869 0.50912429725145214 0 0.21928696632013719 0.4676461135047027 0 0.12353277228144981 0.51086097771927308 0 0.1946526892501724 0.54636184660733622 0 0.21928696632013719 0.4676461135047027 0 0.27220668248394869 0.50912429725145214 0 0.27661118526457179 0.58730386222759956 0 0.34793494568226019 0.52426775179830853 0 0.27220668248394869 0.50912429725145214 0 0.29987747321592639 0.43430880093746571 0 0.34793494568226019 0.52426775179830853 0 0.27220668248394869 0.50912429725145214 0 0.21928696632013719 0.4676461135047027 0 0.29987747321592639 0.43430880093746571 0 0.1946526892501724 0.54636184660733622 0 0.27220668248394869 0.50912429725145214 0 0.27661118526457179 0.58730386222759956 0 0.13897501191807771 0.34545639364066222 0 0.16486701364709541 0.41592657376307979 0 0.2371857680100064 0.35865548441110112 0 0.17318221359491059 0.27409688392309489 0 0.13897501191807771 0.34545639364066222 0 0.2371857680100064 0.35865548441110112 0 0.16486701364709541 0.41592657376307979 0 0.21928696632013719 0.4676461135047027 0 0.2371857680100064 0.35865548441110112 0 0.12353277228144981 0.51086097771927308 0 0.16486701364709541 0.41592657376307979 0 0.21928696632013719 0.4676461135047027 0 0.21928696632013719 0.4676461135047027 0 0.29987747321592639 0.43430880093746571 0 0.2371857680100064 0.35865548441110112 0 0.29987747321592639 0.43430880093746571 0 0.2371857680100064 0.35865548441110112 0 0.34318159319555042 0.3314386771104964 0 0.24783073444672249 0.24783073444648379 0 0.2371857680100064 0.35865548441110112 0 0.34318159319555042 0.3314386771104964 0 0.34318159319555042 0.3314386771104964 0 0.38593969585746768 0.44843324941957241 0 0.42544665781957403 0.3726599289372452 0 0.29987747321592639 0.43430880093746571 0 0.34318159319555042 0.3314386771104964 0 0.38593969585746768 0.44843324941957241 0 0.38593969585746768 0.44843324941957241 0 0.42544665781957403 0.3726599289372452 0 0.47711113382803011 0.43513410852522788 0 0.42544665781957403 0.3726599289372452 0 0.49272830291620878 0.32528628960011152 0 0.47711113382803011 0.43513410852522788 0 0.42544665781957403 0.3726599289372452 0 0.49272830291620878 0.32528628960011152 0 0.41589935411558732 0.26752529264016389 0 0.34318159319555042 0.3314386771104964 0 0.42544665781957403 0.3726599289372452 0 0.41589935411558732 0.26752529264016389 0 0.27661118526457179 0.58730386222759956 0 0.38240158409674341 0.60644575028138747 0 0.34793494568226019 0.52426775179830853 0 0.27661118526457179 0.58730386222759956 0 0.38240158409674341 0.60644575028138747 0 0.32437633398017029 0.65970549827478953 0 0.29987747321592639 0.43430880093746571 0 0.38593969585746768 0.44843324941957241 0 0.34793494568226019 0.52426775179830853 0 0.38593969585746768 0.44843324941957241 0 0.45232393232070839 0.53082724112931345 0 0.47711113382803011 0.43513410852522788 0 0.38593969585746768 0.44843324941957241 0 0.34793494568226019 0.52426775179830853 0 0.45232393232070839 0.53082724112931345 0 0.38240158409674341 0.60644575028138747 0 0.34793494568226019 0.52426775179830853 0 0.45232393232070839 0.53082724112931345 0 0.38240158409674341 0.60644575028138747 0 0.45232393232070839 0.53082724112931345 0 0.46433624429412901 0.61260020600107856 0 0.45232393232070839 0.53082724112931345 0 0.46433624429412901 0.61260020600107856 0 0.56379254693201075 0.58472273515948836 0 0.46433624429412901 0.61260020600107856 0 0.56379254693201075 0.58472273515948836 0 0.5174764925733939 0.65338828204098198 0 0.45232393232070839 0.53082724112931345 0 0.55763912874459476 0.49619993861770217 0 0.47711113382803011 0.43513410852522788 0 0.45232393232070839 0.53082724112931345 0 0.55763912874459476 0.49619993861770217 0 0.56379254693201075 0.58472273515948836 0 0.55763912874459476 0.49619993861770217 0 0.64897033023755402 0.45530630145656431 0 0.66278242936710119 0.53985356489900171 0 0.55763912874459476 0.49619993861770217 0 0.56379254693201075 0.58472273515948836 0 0.66278242936710119 0.53985356489900171 0 0.56379254693201075 0.58472273515948836 0 0.59670004617370476 0.65981579440137683 0 0.65500944633069913 0.60601350811213128 0 0.49272830291620878 0.32528628960011152 0 0.47711113382803011 0.43513410852522788 0 0.56509579243166053 0.39588847936247551 0 0.55763912874459476 0.49619993861770217 0 0.47711113382803011 0.43513410852522788 0 0.56509579243166053 0.39588847936247551 0 0.56509579243166053 0.39588847936247551 0 0.65823561246403328 0.35502292901158627 0 0.64897033023755402 0.45530630145656431 0 0.55763912874459476 0.49619993861770217 0 0.56509579243166053 0.39588847936247551 0 0.64897033023755402 0.45530630145656431 0 0.49272830291620878 0.32528628960011152 0 0.56509579243166053 0.39588847936247551 0 0.58612580217118482 0.27813894450229909 0 0.56509579243166053 0.39588847936247551 0 0.58612580217118482 0.27813894450229909 0 0.65823561246403328 0.35502292901158627 0 0.49272830291620878 0.32528628960011152 0 0.58612580217118482 0.27813894450229909 0 0.49255105193724569 0.22337579986912359 0 0.49255105193724569 0.22337579986912359 0 0.5565830077206213 0.19095699352548859 0 0.50264032148191051 0.12292784096123539 0 0.58612580217118482 0.27813894450229909 0 0.49255105193724569 0.22337579986912359 0 0.5565830077206213 0.19095699352548859 0 0.58612580217118482 0.27813894450229909 0 0.5565830077206213 0.19095699352548859 0 0.64669
[...]
<PointData Scalars="A_conc," Vectors="" Tensors="">
<DataArray type="Float64" Name="A_conc" format="ascii">
0.0010648983249033741 0.0010105831811939008 0.001277383690964284 0.0010269267002583238 0.0012474527881374234 0.0013549744455188563 0.0010189868647989123 0.0010295873554089119 0.0012285068332452559 0.00099279433081239437 0.0012553403587832444 0.0012046169133610987 0.0012115004753180854 0.0014168561239117678 0.0011598685481418144 0.0011608763276047412 0.0016249038248294166 0.0013694168961734445 0.0011812911816335254 0.0012901482197423275 0.0016393017287522527 0.0012408541870917091 0.001637759774385043 0.0015995886320361078 0.001580689307187611 0.0016339883603221634 0.0013190489026661425 0.0015204975558193821 0.0018971521915783932 0.0015745995373130049 0.0014868130260630493 0.0018529197294179164 0.0019798142038776347 0.0015590023982575579 0.0015220284192966563 0.0020078535536907473 0.0016186283554041887 0.0021014388101664259 0.0020661285758590241 0.0018904915102510361 0.0017076945362983699 0.0015557913292456541 0.001837839235549281 0.0016527184270693543 0.0020835587425007298 0.0016464267871854623 0.0014798094020628649 0.0013346595992449483 0.0017530148739808864 0.0016054472614068234 0.0014348724478860165 0.0017437931986956378 0.0014203440628271196 0.0017002561265802181 0.0015194008574807977 0.0012068279511185309 0.001391525365454271 0.0015242658476769947 0.001206514167231618 0.001381413258437818 0.0012460292346577811 0.0014177712577445314 0.0011588401825304337 0.001289373942913471 0.00099723855937828383 0.0012035781532568331 0.0012891832237018263 0.0010039568269003486 0.0012069789077800369 0.0013049458777212432 0.0010213810494010577 0.0010293446576899953 0.0012117347283399998 0.0010016967365086829 0.0012641450682503567 0.0010371187589691268 0.001233249816325514 0.0010318954237797367 0.0010261367587185192 0.0012838629457328134 0.0010211639150362836 0.001184692160324557 0.0013990555214565025 0.0014850674882885848 0.0011947390760337496 0.0013354079192066457 0.0014929763286790651 0.0011664378359017415 0.0012197533085735134 0.0014306392039519255 0.0012455622889738476 0.0011620177370406202 0.0014272914027862952 0.0012283669039979074 0.0010023458244816147 0.0012561073960250767 0.001246940300790524 0.0010321007148545083 0.001024493345274588 0.0012491049468879246 0.00097903206037983038 0.0013862444857892021 0.0012096173809680796 0.00098516849178335972 0.0013882911517298709 0.0011549507427382375 0.0013383494084809678 0.0014961349594344387 0.0011753727236147636 0.0015049286368070413 0.0012035578421598324 0.0012936887262825784 0.0014540561155724941 0.0015743062824345011 0.0013922983675415499 0.0015146016786145309 0.0018769340562992277 0.0014954561491074599 0.0018391774732098858 0.0015988860306185592 0.0012698011934175399 0.0015545773998199455 0.0016562341407441021 0.0017502860044371401 0.0017700319598546311 0.0021286105817205914 0.0017374390605303601 0.0018714169458959951 0.0021216563415108114 0.0017964092789117293 0.0015502117310648082 0.0019285083072097119 0.00146497827243746 0.0018177591418259318 0.0018371826348178484 0.0013418535307003062 0.0014286661897424681 0.0017354508356590657 0.0014643703237770451 0.0013365038515570078 0.0017391535246854294 0.0013982486245337417 0.0016251416952619729 0.001708987655295404 0.00128518190181503 0.0014453975767399678 0.0016655670188542063 0.0015686578352252603 0.0019422705817919534 0.0016536054767324732 0.0018895330292727759 0.0015933863004169012 0.0021208605902840131 0.001670526561171305 0.0016263320018906229 0.0021390555990708827 0.0019882532704016648 0.0022194479830281279 0.0024608374212099627 0.0018184271872967793 0.0020542484687293668 0.0022816559175622094 0.0021455473152583067 0.0023885172407746872 0.0027165002680907286 0.0023231247489517632 0.0027773059134069506 0.0026582054534451355 0.0023654280241499205 0.0028116123923131605 0.0023123188391531817 0.0019653228510358518 0.0024486766247086588 0.0023964161751411648 0.0017136371150242784 0.0022788953548792479 0.0020778766384205367 0.0017313343116189296 0.0022849231431261523 0.0019692670063394761 0.0018150891886205157 0.0022769373772109185 0.0020688204366280461 0.0021250736199656521 0.0025389173697434294 0.0027035450607692953 0.0021993544386190917 0.0019890859882237531 0.002605064647297334 0.0021926323184400065 0.0019876160139524822 0.0026006392288870557 0.0021249956142725887 0.0025408341025908204 0.0026422340326453658 0.0024309919887828425 0.0025339977528692024 0.0032309345639745823 0.0024761644521218823 0.0032030935257158387 0.0028492245972110081 0.0024340367676551058 0.0031787761406422634 0.0026015474288716522 0.0023611002079445623 0.0031281696371029681 0.0031802460306957435 0.0029047148919186107 0.0036926042497422312 0.0038133458062361574 0.0029837374842216938 0.0030369029124291884 0.0038637983773150129 0.0030177448209993229 0.0032802488390568005 0.0037876771822072165 0.0026902236659893993 0.0025697118330459822 0.0032137372960704003 0.0031147854126205806 0.0025179781082439578 0.0031737972842551137 0.0029685723486190863 0.0037828715548233753 0.0036845067422868901 0.0029950068317532055 0.0030549973466382865 0.0037550363040124899 0.0026067525809150911 0.0031473851852491567 0.0033295852766080333 0.0030288037575844497 0.0032139743720016475 0.0038250654064883572 0.0026715688774217048 0.0033671405961717021 0.0026592489444818715 0.0026731333602739321 0.003134455998128307 0.0027243430517642302 0.0033337944588198651 0.0026052269737292712 0.0030820339519173736 0.003228061208510438 0.002972666883323513 0.0037197934901171664 0.0029792252431139355 0.0031127552334717437 0.0037169457996734821 0.0033709636832663717 0.0030689762319153846 0.0038108848105929778 0.0034784524328636845 0.0031771927392148873 0.0026998109394220514 0.0032463284531792 0.0027672370233723337 0.0026837454708978467 0.0028553127392512883 0.0027725034392451068 0.0023492136788458118 0.0030817926047451497 0.0032135913862924585 0.0026679665343946621 0.0028384106179354996 0.002404945333132227 0.0022128345546124114 0.0024836500445948088 0.0020365816187233945 0.0022936313682830655 0.0029040932894332495 0.0024031447633672126 0.0022607262266521456 0.002486093039631313 0.0023461409161302758 0.0020391967213723157 0.0018600442958157516 0.0024086346271419944 0.0021034719622404449 0.0017839626233610894 0.001912651100082742 0.002160563998714705 0.0017485991684352007 0.0021117849425946484 0.0023638251580563236 0.0017630629698860032 0.0020115710470149789 0.002374534150710852 0.001941637588442843 0.0024139267789370362 0.0023172413807271198 0.0020198624732955541 0.0019838912573234462 0.0024390683125507166 0.0027797385636246972 0.0027675891014680891 0.0022607974164320687 0.0027667320315245005 0.00281692150067303 0.0021723506814723217 0.0028128770754474708 0.0023281030278024502 0.0022299879863439437 0.0010441342422993238 0.0012596997896556091 0.0010249308855725986 0.0010127604307274135 0.0013360389886894891 0.0012306193468869331 0.0012904896780183406 0.0014430065776595868 0.0011840527910504887 0.0012457049978196689 0.001399956251851385 0.0016248693711181808 0.0013547080727197771 0.0015810154891258068 0.0016619229367684132 0.0015183597904290479 0.0019668595346457587 0.0016007324580021196 0.0019196971403576287 0.0015487238235632422 0.0019907925542476971 0.0019452246631102618 0.001596218985603819 0.0015894659448150565 0.0019079099088479489 0.001550177442690974 0.0019921371081979859 0.0016555332150365175 0.0013662983831025906 0.0016489217323946794 0.001685971485881986 0.0013255345102910381 0.0014015462391321596 0.0013799595226838589 0.0016830447028493524 0.001326595324354753 0.0014333873531665133 0.0013807082184119461 0.0011722326275700186 0.0014041315324878052 0.0011991766338766065 0.0011992023726104773 0.0012414385361383313 0.0010010744419864284 0.0012414825704638408 0.0010268912971472927 0.00103073493941499 0.0012623864223074931 0.0009974920309588093 0.0012386762862564178 0.0012870761710666982 0.0013799577349605161 0.0011691678405576765 0.0014548667728255776 0.0011889619577117013 0.0014700692938179 0.0012382024170517702 0.0012325202230633026 0.0011984629873235887 0.0015102609978566589 0.0014429634956667338 0.0012024958034040497 0.0014840254304998837 0.0010252204788613918 0.0013064070785681371 0.0010251425094864057 0.0012859149134483031 0.00099540716947911436 0.0012524724166873345 0.0010268718996429987 0.0010282683086445812 0.0012758310440570888 0.0014735050450427694 0.0011656512307913042 0.0014910741541456977 0.0013576622447908119 0.0018589033133947772 0.0017581270270802471 0.0014081529610315648 0.0014260175175848573 0.0017980640708136061 0.0013952911602327358 0.0016264362488919947 0.0017780412603543416 0.0013946940140236077 0.001436393669725149 0.0016661517096883116 0.0019312801236074017 0.0015705415261840949 0.0017247314708110487 0.0018795452366154694 0.0016700185955848118 0.0020933244002356915 0.001653901636756972 0.0020081931338715598 0.0020833402323015733 0.001792646134165118 0.0016896257821065281 0.00203049521424844 0.0022125847837132615 0.0018899575554207639 0.0024899556369454372 0.0019217749580905286 0.0019981149116211809 0.002506314398079332 0.0023469260160694531 0.0030215599614784689 0.002405087178367665 0.0019283707630573621 0.0024550576642609588 0.0025121424041712652 0.0021357536325387724 0.0026429970186350915 0.0024179618947601077 0.0022847923757464274 0.0029054812896833291 0.0029831452201721387 0.0025650539350971814 0.0023384963676370539 0.0029364855682941704 0.0027964541443765882 0.0034070257674563113 0.002875575980740226 0.0031188107394037917 0.0027593439293632518 0.0033774853861058096 0.0035315937133531452 0.0027735853235363404 0.0035099046079923816 0.0033396604251028812 0.0035466848495594033 0.0027970471063215509 0.0028924820899570033 0.002538192682836293 0.0024015982266914833 0.0029760813558765385 0.002853711651009146 0.0023472195459950714 0.0028570922702639617 0.0027328226889206187 0.0035782385050703667 0.0027001854844202989 0.0035633798545344781 0.0031253741219991523 0.003087684114612836 0.0029477391402106716 0.003741335545682822 0.0034729738142428705 0.0030259124911246999 0.0037028992405175151 0.0032136453234138116 0.0024147106040461794 0.0030763296851498735 0.0028132361929980934 0.0032308831655159303 0.002452149558808835 0.0026454564989169911 0.0021036869236287993 0.0021290983217818514 0.0026190289259038343 0.0024844873593067398 0.0020602340516127395 0.0019670691585199889 0.0025413567504808409 0.0021359836380554502 0.001824089088972039 0.0020404381050631078 0.0022072791867220149 0.0018405389449908391 0.0022155921887434243 0.0019266025495907929 0.0018504732521557451 0.0022319274058191976 0.0019233181032902373 0.0021803592963812895 0.0022054354793166167 0.0018861726497540112 0.0018094293987598684 0.0021898188206558415 0.0023554657074966296 0.0026269927704167767 0.002108134034587197 0.0022721770077853993 0.0025579991103201419 0.002197797921059287 0.0028431997707370361 0.0024676692937136155 0.0027539263156511657 0.0031111103008547004 0.0026630577828431947 0.0034219850319429728 0.0030182192837968857 0.0033208490095799764 0.0029163307538480829 0.0037183663582828078 0.0039942768914450087 0.004399315758915682 0.0034937107345015955 0.0032047027353591011 0.0041039704867779627 0.0036086963271065309 0.0038606919076868071 0.0049181598492985239 0.0042675453396345837 0.0045711871320242032 0.0058392864719283991 0.0055950752428505978 0.0056772867215463749 0.0054305571952508822 0.0063946443536412965 0.0055289252024298989 0.0062960523520575089 0.0048011849584789395 0.0053782342143218909 0.0061666925245080365 0.0063724303046360934 0.0060531633083664447 0.0048578430431093448 0.0051566689217658153 0.006252705276710617 0.0059653661410157578 0.0047381416508164081 0.0050154492701668931 0.0043566516077877693 0.0053100604694568381 0.0046660590057514533 0.0056706656624348943 0.0049676740039952981 0.0048082549352462317 0.0051059086586125076 0.0041488429103621431 0.0051601660501330296 0.004241289107244548 0.0040133157788744154 0.0043968182240476565 0.003474023687786887 0.0041725943195160282 0.0033533846944691741 0.0035861961172903873 0.0042601221269319917 0.0033038203997844953 0.0042252777643622744 0.0039664652593546824 0.0045986866299548342 0.0041063316687008937 0.003843304917306666 0.0051322829134691564 0.0044841391924299451 0.0039776907005323004 0.0044487360275287362 0.0042670238093726652 0.0050942265751051496 0.0038931430336888589 0.0037605852951348249 0.0044604340194887848 0.0045673547910297417 0.0038089228233584953 0.0043879641944140164 0.0033576647785316369 0.0039967059307862169 0.0038657653993662776 0.003411719067013463 0.0033896711206824288 0.0040386122669938728 0.0037758690127565877 0.0035789830161982558 0.0045049699249335275 0.0032295115414729255 0.0034407922251930428 0.0039309474147584123 0.0031915661831133334 0.0038993342637220598 0.0037051563436570276 0.003691948421330131 0.0044155416429946005 0.0044338951884594757 0.0042840193696447948 0.0050990400300444799 0.00430267392056449 0.0049995241186913553 0.0041930793768695466 0.0054056099324903562 0.0048442442540834515 0.0059056762331416547 0.0052522577707949441 0.0048599928321287284 0.0051547085033463629 0.0059079067442414706 0.0043490733258393028 0.0050026034264743753 0.0052964568429079021 0.005803941623875878 0.0056493177279084289 0.0068479224301156629 0.0059659610520568177 0.0050486964275120476 0.0058131450946599088 0.0057603213449786009 0.0050980435910322752 0.0064875608799201097 0.0056136768267641343 0.0066799253511356429 0.0063536408532873598 0.006499581681479418 0.0076823099920020439 0.0061594513941660772 0.0064500982471944199 0.0065946720620506027 0.0076574652316223095 0.0055563152910233374 0.0066375355947668494 0.0067801849175661401 0.0064489193236281373 0.0080291465050918009 0.0075235150132036341 0.0064675800109101501 0.008034990760376207 0.0073567368452675062 0.0071043414835172559 0.0092015382786121546 0.0092142672139238768 0.0088787588854598327 0.0088917697332813669 0.010931111829718197 0.0087266747645574575 0.010310749961699827 0.01082724712292497 0.010148690062272554 0.0096405765671130766 0.011815029808894201 0.0088330584462544999 0.010394818427879605 0.0099016972112409389 0.0077844912393090979 0.0072710489732511017 0.0093088831694675637 0.0090064372680238747 0.0084123776734965645 0.010062204338852439 0.0076449346594699708 0.0092107859325462008 0.0086230642337297991 0.008438980351545106 0.010086042786312468 0.0088076011267352698 0.0087027038792288 0.0090654090701830642 0.0070141771615473084 0.009652121358744669 0.010465441590478941 0.011529305673586865 0.010724391215289611 0.0086438243554222451 0.0096448994644515174 0.0099016113591872349 0.010702574406809846 0.0086070700743201677 0.009181611749314731 0.0071316473773121569 0.0071774273954856183 0.007837815920676703 0.0087958041152123682 0.0071498232957279105 0.0056157541962938368 0.006686377286488591 0.0075592301312311172 0.0060006357814345558 0.0057075386225490408 0.0075999549651700219 0.0059735669176225661 0.0075132575342125845 0.0061817359140882745 0.0058244850299273175 0.007424566875890686 0.0074694735482625689 0.0055358164901518703 0.0070029394368451544 0.0062510167767300612 0.0074268016197948103 0.0068427758801868762 0.0060776720470301126 0.0072306927256876909 0.0066391285153158805 0.0083409619730091672 0.00912841692914226 0.0070056352087596273 0.0081348785173091555 0.0088915519227894483 0.0078815178617753119 0.0098762738733389321 0.010478287937125803 0.0093805032437310285 0.011691570308092189 0.0054327120703206236 0.0042820224865521101 0.0043053216867132618 0.0053756095911431101 0.0049171644094486017 0.0042241161334020888 0.00477669039473003 0.006037692883314673 0.0050638954932678238 0.0049402761288188293 0.0042776667126580101 0.0052233396441041316 0.0052148366489074812 0.0047487171899687807 0.0060314774474898762 0.0050380956683169715 0.005867899939063833 0.0066218948846825014 0.0051024536308290321 0.0053296029575780404 0.0066585718992838491 0.0051930279898803255 0.0065542228835985088 0.0064487783225245822 0.0052665933822065546 0.0057772750706600847 0.0065156761798153733 0.0054376007495965913 0.0059420825131318187 0.0046670378419368013 0.0059945914822379159 0.0047397826785364177 0.0047589846755344912 0.0049091495035443839 0.0049284466381816581 0.0041480043612509548 0.0053309947985915535 0.0055534197588620682 0.0041499476216715426 0.0055858697216065126 0.0048287484504278061 0.0042079972006856129 0.0044689113735433324 0.0043348647142572748 0.0035654059331087498 0.0049552865113199436 0.0043405260044800395 0.0042043590421939371 0.0050128005523831301 0.0042425742010833425 0.003945981737474057 0.0032635865277263996 0.0041790598279154174 0.0037110188371293172 0.0043710265943318815 0.0040766211380909015 0.0036038439066931249 0.003031416664622321 0.0037930817961351459 0.0036431041446331634 0.004537556158915739 0.0036519907591280529 0.0034987134605728547 0.003486582569099431 0.0045366714492780548 0.0038984456892396492 0.0044688901490926589 0.0034100899833945713 0.0044918762199381351 0.0050121785799756829 0.0043361078669955149 0.0043834565366790475 0.0044498544218311009 0.0044966781020685338 0.0037943821900808024 0.0031233326054028688 0.0036230172171127306 0.0040284801248047404 0.0045612289057469189 0.0038920389237031838 0.0035989888442154701 0.0031068541975713976 0.0040260249318184284 0.0037382790687052756 0.0036706885511430974 0.0035706811269479262 0.0041673524611191377 0.0034863654874873811 0.0040927742080903058 0.0044652484071342688 0.0039629017653607258 0.0043410857801483458 0.0048483300894812467 0.0044274002981761883 0.0039575274217478621 0.0048449248972715058 0.0045430605961718426 0.0035703277511669306 0.0040798849878838804 0.0036028710282739584 0.0036497474912417817 0.0045240036904613196 0.0029508192510001299 0.0037517816946375567 0.0037977898846718473 0.0035411835681969433 0.0036641969869750692 0.004497978638364218 0.0035647368183306816 0.0044222212492503873 0.0044556681792638246 0.0042787172685816999 0.0043126725511024033 0.0051076195648519116 0.004193566262354423 0.0054163094374077994 0.005008419346940636 0.0052716636297266885 0.0048566119960543374 0.0058267272630426166 0.0048623997220985839 0.0058334591481225958 0.0052030549991539205 0.0041680820824722218 0.0050167013881617355 0.0053517818503845691 0.0056891746656520864 0.0050510800957983522 0.0064829700770621885 0.0055594906699787819 0.0064062545306251628 0.0063696908991194784 0.0051174101434604867 0.005681374713021891 0.0065067095741810875 0.0045833129316102429 0.0050998350763696385 0.0058753939317626354 0.0043025599643942043 0.0047323868760588486 0.0052407289633378566 0.0045605084823756321 0.0052288347493916268 0.0058661076584699719 0.0042062799319110174 0.0047201204260622961 0.0053737136493674145 0.0050914166549717952 0.006027823361812598 0.0057392792687101608 0.0050120010418018262 0.0059573292018769083 0.0064688684323940381 0.0058825145700811448 0.0055821623399251461 0.0067447202670243558 0.0059588706999718988 0.004964886014513341 0.0057621059833725804 0.0058033403594459996 0.0056042502545863519 0.0066963868778869701 0.0055049717131107527 0.0066318634331501971 0.0066805505986899079 0.0064392356889242594 0.0064886589106750419 0.0076705843941810622 0.005804339093923392 0.0066891615929376962 0.0063233973758001754 0.0065223727585006124 0.0076779849119025878 0.0061533430711550588 0.0073701214384197453 0.0073923502639346838 0.0085275982781179462 0.0063780724929028672 0.0075582813694969496 0.0075802966814652343 0.0061990639153745881 0.0061621630250819747 0.0078648088856013883 0.0073072441185751437 0.0074754757121880192 0.0092158291435612411 0.007586499921944421 0.0060142197315476873 0.0077518283004831606 0.0072908480957240025 0.007484098923493665 0.0093383905356748294 0.0075791312449233657 0.0060353461661964512 0.0077690864765671136 0.0072853402566113827 0.0091994107826193425 0.0090718260984521057 0.0085432190727435485 0.01063268616534712 0.011133793996498597 0.0088635037114019218 0.0087338795282777461 0.011253083165391621 0.0086498697440447678 0.011106200268346701 0.010768088692060583 0.0081915099569829699 0.0097920819264949114 0.0085672529383909665 0.0072517056600441433 0.0084124148722354714 0.0087837494326442316 0.0089644