<?xml version="1.0"?>
<VTKFile type="UnstructuredGrid" version="0.1" byte_order="LittleEndian">
<UnstructuredGrid>
<Piece NumberOfPoints="3918" NumberOfCells="1306">
<Points>
<DataArray type="Float64" NumberOfComponents="3" format="ascii">
0 0 0 0.082799035591426873 0.082799035591510806 0 0 0.10000000000041601 0 0 0 0 0.099999999999928008 0 0 0.082799035591426873 0.082799035591510806 0 0 0.20000000000083221 0 0 0.10000000000041601 0 0.066361468125430589 0.15903440181097661 0 0.082799035591426873 0.082799035591510806 0 0.066361468125430589 0.15903440181097661 0 0 0.10000000000041601 0 0.082799035591426873 0.082799035591510806 0 0.140351188660986 0.16130415108589741 0 0.066361468125430589 0.15903440181097661 0 0.20669143849501961 0.085546078947938975 0 0.140351188660986 0.16130415108589741 0 0.082799035591426873 0.082799035591510806 0 0.099999999999928008 0 0 0.20669143849501961 0.085546078947938975 0 0.082799035591426873 0.082799035591510806 0 0.099999999999928008 0 0 0.19999999999983389 0 0 0.20669143849501961 0.085546078947938975 0 0.20669143849501961 0.085546078947938975 0 0.21725788110387281 0.17316968768743621 0 0.140351188660986 0.16130415108589741 0 0.20669143849501961 0.085546078947938975 0 0.29145143692666958 0.13500804559578439 0 0.21725788110387281 0.17316968768743621 0 0.29999999999973409 0 0 0.29145143692666958 0.13500804559578439 0 0.20669143849501961 0.085546078947938975 0 0.29999999999973409 0 0 0.20669143849501961 0.085546078947938975 0 0.19999999999983389 0 0 0.34318159319555042 0.3314386771104964 0 0.24783073444672249 0.24783073444648379 0 0.33604819894646598 0.23280286076243209 0 0.29145143692666958 0.13500804559578439 0 0.24783073444672249 0.24783073444648379 0 0.21725788110387281 0.17316968768743621 0 0.29145143692666958 0.13500804559578439 0 0.33604819894646598 0.23280286076243209 0 0.24783073444672249 0.24783073444648379 0 0.21725788110387281 0.17316968768743621 0 0.17318221359491059 0.27409688392309489 0 0.140351188660986 0.16130415108589741 0 0.21725788110387281 0.17316968768743621 0 0.24783073444672249 0.24783073444648379 0 0.17318221359491059 0.27409688392309489 0 0.2371857680100064 0.35865548441110112 0 0.17318221359491059 0.27409688392309489 0 0.24783073444672249 0.24783073444648379 0 0.13897501191807771 0.34545639364066222 0 0.089078158003765312 0.2493007687782936 0 0.17318221359491059 0.27409688392309489 0 0.089078158003765312 0.2493007687782936 0 0.140351188660986 0.16130415108589741 0 0.17318221359491059 0.27409688392309489 0 0.089078158003765312 0.2493007687782936 0 0.066361468125430589 0.15903440181097661 0 0.140351188660986 0.16130415108589741 0 0 0.20000000000083221 0 0.066361468125430589 0.15903440181097661 0 0.089078158003765312 0.2493007687782936 0 0 0.30000000000124832 0 0.089078158003765312 0.2493007687782936 0 0.0632094674441709 0.3449112819864934 0 0 0.20000000000083221 0 0.089078158003765312 0.2493007687782936 0 0 0.30000000000124832 0 0.083393126324559225 0.42307471369029392 0 0 0.40000000000166441 0 0.0632094674441709 0.3449112819864934 0 0 0.30000000000124832 0 0.0632094674441709 0.3449112819864934 0 0 0.40000000000166441 0 0 0.50000000000205869 0 0 0.40000000000166441 0 0.083393126324559225 0.42307471369029392 0 0.083393126324559225 0.42307471369029392 0 0.13897501191807771 0.34545639364066222 0 0.16486701364709541 0.41592657376307979 0 0.083393126324559225 0.42307471369029392 0 0.16486701364709541 0.41592657376307979 0 0.12353277228144981 0.51086097771927308 0 0.083393126324559225 0.42307471369029392 0 0.0632094674441709 0.3449112819864934 0 0.13897501191807771 0.34545639364066222 0 0.13897501191807771 0.34545639364066222 0 0.0632094674441709 0.3449112819864934 0 0.089078158003765312 0.2493007687782936 0 0 0.60000000000138687 0 0.070553891733833127 0.57745844360881338 0 0.079752623936563252 0.65630726580969023 0 0 0.60000000000138687 0 0 0.50000000000205869 0 0.070553891733833127 0.57745844360881338 0 0 0.50000000000205869 0 0.083393126324559225 0.42307471369029392 0 0.12353277228144981 0.51086097771927308 0 0 0.50000000000205869 0 0.12353277228144981 0.51086097771927308 0 0.070553891733833127 0.57745844360881338 0 0.12353277228144981 0.51086097771927308 0 0.16324260003398389 0.62262730759772122 0 0.070553891733833127 0.57745844360881338 0 0.079752623936563252 0.65630726580969023 0 0.070553891733833127 0.57745844360881338 0 0.16324260003398389 0.62262730759772122 0 0.12353277228144981 0.51086097771927308 0 0.1946526892501724 0.54636184660733622 0 0.16324260003398389 0.62262730759772122 0 0.27661118526457179 0.58730386222759956 0 0.16324260003398389 0.62262730759772122 0 0.1946526892501724 0.54636184660733622 0 0.1946526892501724 0.54636184660733622 0 0.21928696632013719 0.4676461135047027 0 0.27220668248394869 0.50912429725145214 0 0.12353277228144981 0.51086097771927308 0 0.21928696632013719 0.4676461135047027 0 0.1946526892501724 0.54636184660733622 0 0.27661118526457179 0.58730386222759956 0 0.27220668248394869 0.50912429725145214 0 0.34793494568226019 0.52426775179830853 0 0.34793494568226019 0.52426775179830853 0 0.27220668248394869 0.50912429725145214 0 0.29987747321592639 0.43430880093746571 0 0.29987747321592639 0.43430880093746571 0 0.27220668248394869 0.50912429725145214 0 0.21928696632013719 0.4676461135047027 0 0.27661118526457179 0.58730386222759956 0 0.1946526892501724 0.54636184660733622 0 0.27220668248394869 0.50912429725145214 0 0.13897501191807771 0.34545639364066222 0 0.2371857680100064 0.35865548441110112 0 0.16486701364709541 0.41592657376307979 0 0.13897501191807771 0.34545639364066222 0 0.17318221359491059 0.27409688392309489 0 0.2371857680100064 0.35865548441110112 0 0.2371857680100064 0.35865548441110112 0 0.21928696632013719 0.4676461135047027 0 0.16486701364709541 0.41592657376307979 0 0.12353277228144981 0.51086097771927308 0 0.16486701364709541 0.41592657376307979 0 0.21928696632013719 0.4676461135047027 0 0.2371857680100064 0.35865548441110112 0 0.29987747321592639 0.43430880093746571 0 0.21928696632013719 0.4676461135047027 0 0.2371857680100064 0.35865548441110112 0 0.34318159319555042 0.3314386771104964 0 0.29987747321592639 0.43430880093746571 0 0.34318159319555042 0.3314386771104964 0 0.2371857680100064 0.35865548441110112 0 0.24783073444672249 0.24783073444648379 0 0.38593969585746768 0.44843324941957241 0 0.34318159319555042 0.3314386771104964 0 0.42544665781957403 0.3726599289372452 0 0.38593969585746768 0.44843324941957241 0 0.29987747321592639 0.43430880093746571 0 0.34318159319555042 0.3314386771104964 0 0.38593969585746768 0.44843324941957241 0 0.42544665781957403 0.3726599289372452 0 0.47711113382803011 0.43513410852522788 0 0.47711113382803011 0.43513410852522788 0 0.42544665781957403 0.3726599289372452 0 0.49272830291620878 0.32528628960011152 0 0.42544665781957403 0.3726599289372452 0 0.41589935411558732 0.26752529264016389 0 0.49272830291620878 0.32528628960011152 0 0.42544665781957403 0.3726599289372452 0 0.34318159319555042 0.3314386771104964 0 0.41589935411558732 0.26752529264016389 0 0.27661118526457179 0.58730386222759956 0 0.34793494568226019 0.52426775179830853 0 0.38240158409674341 0.60644575028138747 0 0.27661118526457179 0.58730386222759956 0 0.38240158409674341 0.60644575028138747 0 0.32437633398017029 0.65970549827478953 0 0.38593969585746768 0.44843324941957241 0 0.34793494568226019 0.52426775179830853 0 0.29987747321592639 0.43430880093746571 0 0.38593969585746768 0.44843324941957241 0 0.47711113382803011 0.43513410852522788 0 0.45232393232070839 0.53082724112931345 0 0.38593969585746768 0.44843324941957241 0 0.45232393232070839 0.53082724112931345 0 0.34793494568226019 0.52426775179830853 0 0.38240158409674341 0.60644575028138747 0 0.34793494568226019 0.52426775179830853 0 0.45232393232070839 0.53082724112931345 0 0.38240158409674341 0.60644575028138747 0 0.45232393232070839 0.53082724112931345 0 0.46433624429412901 0.61260020600107856 0 0.56379254693201075 0.58472273515948836 0 0.46433624429412901 0.61260020600107856 0 0.45232393232070839 0.53082724112931345 0 0.5174764925733939 0.65338828204098198 0 0.46433624429412901 0.61260020600107856 0 0.56379254693201075 0.58472273515948836 0 0.55763912874459476 0.49619993861770217 0 0.45232393232070839 0.53082724112931345 0 0.47711113382803011 0.43513410852522788 0 0.55763912874459476 0.49619993861770217 0 0.56379254693201075 0.58472273515948836 0 0.45232393232070839 0.53082724112931345 0 0.64897033023755402 0.45530630145656431 0 0.66278242936710119 0.53985356489900171 0 0.55763912874459476 0.49619993861770217 0 0.56379254693201075 0.58472273515948836 0 0.55763912874459476 0.49619993861770217 0 0.66278242936710119 0.53985356489900171 0 0.65500944633069913 0.60601350811213128 0 0.59670004617370476 0.65981579440137683 0 0.56379254693201075 0.58472273515948836 0 0.56509579243166053 0.39588847936247551 0 0.47711113382803011 0.43513410852522788 0 0.49272830291620878 0.32528628960011152 0 0.56509579243166053 0.39588847936247551 0 0.55763912874459476 0.49619993861770217 0 0.47711113382803011 0.43513410852522788 0 0.56509579243166053 0.39588847936247551 0 0.65823561246403328 0.35502292901158627 0 0.64897033023755402 0.45530630145656431 0 0.56509579243166053 0.39588847936247551 0 0.64897033023755402 0.45530630145656431 0 0.55763912874459476 0.49619993861770217 0 0.56509579243166053 0.39588847936247551 0 0.49272830291620878 0.32528628960011152 0 0.58612580217118482 0.27813894450229909 0 0.56509579243166053 0.39588847936247551 0 0.58612580217118482 0.27813894450229909 0 0.65823561246403328 0.35502292901158627 0 0.49272830291620878 0.32528628960011152 0 0.49255105193724569 0.22337579986912359 0 0.58612580217118482 0.27813894450229909 0 0.49255105193724569 0.22337579986912359 0 0.50264032148191051 0.12292784096123539 0 0.5565830077206213 0.19095699352548859 0 0.49255105193724569 0.22337579986912359 0 0.5565830077206213 0.19095699352548859 0 0.58612580217118482 0.27813894450229909 0 0.64669101990832323 0.1799054750174742 0 0.58612580217118482 0.27813894450229909 0 0.55658
[...]
<PointData Scalars="A_conc," Vectors="" Tensors="">
<DataArray type="Float64" Name="A_conc" format="ascii">
0.00031978129892045376 0.00037995939479000719 0.00028638780685818344 0.00030455638410119702 0.00041817619986795512 0.00036765932648695596 0.00029731915517194256 0.00029185275665272214 0.00036451167530077508 0.00037166981562991976 0.00035529187392610757 0.00028188113875420121 0.00035452112017934326 0.00042701141837947639 0.00033777687345413186 0.00049705199729632645 0.00040831328707875909 0.00033448573993075928 0.00039318809391260723 0.00050277200899015678 0.00034224951098749774 0.00037286018275189579 0.0005132666354101085 0.00048633869973077571 0.00047938815889613494 0.00050002295343040844 0.00038812376650679313 0.00045510528585962929 0.00058954035760332461 0.00047610056253032985 0.00063131381741367385 0.00056909107491654256 0.00044249007942059589 0.00064209538227339759 0.00045528346052911805 0.0004811226362868502 0.00066344503478899322 0.00048691188672650291 0.00065073010387255517 0.00058859528739246131 0.00052431068933163555 0.00046841380894037019 0.00056677091164835714 0.00065829061874734141 0.00050150095421273931 0.00050518943823643755 0.0004471353722513956 0.00039437696628684123 0.00048859250847194178 0.00054249941572548496 0.00042874061455164578 0.00052283721697639048 0.00042264067613701102 0.00053857997739331306 0.00041738182126599573 0.00035299151122571777 0.00046258291551161792 0.00035288735294411878 0.00041301574715191887 0.00046477489316121821 0.0003687159748218067 0.00033740292620738482 0.00042752137916929708 0.000284483891425447 0.00035487893754297168 0.0003855961167706804 0.00028704030458477322 0.00038543032777153916 0.0003567491696783366 0.00029378786155071987 0.00039144377445294941 0.00029699853547105652 0.00037634195845452813 0.00028622355947364211 0.00035871601925722133 0.00029982455448797053 0.00036695076032581501 0.00029779570511964968 0.00029384074177798985 0.00029569502228958821 0.00038392332809021254 0.00034508142577096586 0.00042051582903958627 0.00045034360898992665 0.00034904664067811271 0.00045343935618556561 0.00039806333700315551 0.00035893401542623694 0.00034094563033494699 0.00043290233216955459 0.00043152325359371147 0.00033913372295260878 0.00036837326536548969 0.00028645131751278496 0.00036419539211384123 0.00037370455461590099 0.00029799117451332876 0.00029511919175887559 0.00037141819539112108 0.00027743647896738663 0.00037043936130809029 0.00041798866914490582 0.00027981932168112412 0.00041876990900260142 0.00035696701058864143 0.00039919209951086367 0.00045492605127484171 0.00033543499162406684 0.00035309928678253593 0.00034340747110525485 0.00045831425941259625 0.00038140788293709616 0.0004805875730384904 0.00043823876625668834 0.00058642299389085478 0.00041327430640273038 0.00045646126431510563 0.00044874226923098334 0.00048566574986093163 0.00057215357162667573 0.00037184214380547154 0.00050885515216325889 0.00047269074064818975 0.00054277736616429673 0.00053558059669706569 0.00067368215504953993 0.000670855540369932 0.0005303148227810327 0.00057906869510905709 0.00060267221134004839 0.00055474054657713378 0.00046576680507500205 0.00057045546663415101 0.00043632670440373826 0.00056339972688515072 0.00039756001551516579 0.00053710871733170739 0.00042775865133016936 0.0003953514889330812 0.00044050723283254261 0.00053850092293469018 0.00052662812719828057 0.00049629760224019373 0.00041549163420433177 0.00037799676318993867 0.00043449107451249769 0.00051254677420284789 0.00050405666072955366 0.0006082001712379208 0.00047324508033494384 0.00047911893731999284 0.00067160897661337803 0.00058638722317126885 0.00067890899981159884 0.00049245302131700546 0.0005084814459983167 0.00070128407675403145 0.00061597127029192858 0.0007918827937332801 0.00072756534280948545 0.00055671129046465893 0.00064393460290585825 0.00066970071988776091 0.00076108909112592186 0.00088477252470395057 0.00085960623296987772 0.00073274495299651245 0.00090574433896632831 0.00075077676930779757 0.00073129256003153008 0.00092031919440838984 0.00078656229547924956 0.00060609198878810099 0.0007674525465294975 0.00051911046142545365 0.00065249358385349797 0.00072735512280946697 0.00052638793348598937 0.0007297852003895725 0.0006133809439809757 0.00072575002867864761 0.00064880463048024451 0.00055547089402412249 0.00066102307507016661 0.00087931292217368912 0.00081680816165091491 0.0006929367804859079 0.00084502870092650428 0.00061493950468820497 0.00069099583453783859 0.00061433141444552095 0.00084319078139305547 0.00066186169077083097 0.000817637841952902 0.000856949146268728 0.0010767225406071916 0.00080990384238611014 0.0007698319291080725 0.0009278570930858572 0.00078479986087264127 0.0010646877576379224 0.0010564722001909245 0.000771132208828879 0.00083496544318139676 0.0010343708749027823 0.0010548040009842046 0.00073917312693034956 0.001245194387966326 0.0012929056326659663 0.00093435055244097038 0.00099089698806367407 0.00096994250168062728 0.0013155239751313351 0.0012849206321155699 0.0010847825073796204 0.00098199358699997512 0.0010688665840826953 0.00082083062118348967 0.00086763492198621735 0.0010515125984240318 0.0010285085343414628 0.00079824076417215869 0.00095941125275871421 0.0012813520244079734 0.0012415006179440332 0.00099848265982379822 0.0012732273437595083 0.00097501229850217126 0.0010394523540047246 0.00083059548112894457 0.0011115230618852167 0.0009862375946026443 0.0010597436930875487 0.0013001001963826239 0.00085903709001446484 0.0008539841157147593 0.0011279023012515244 0.00086086388416093621 0.00087858600617141906 0.0010380508377903473 0.00083027017439993799 0.0010144311248291014 0.0011136183166508596 0.0012587004975581728 0.001066426554796445 0.00096549001057795979 0.0010187287038735187 0.0012578672970304568 0.00096928613073867182 0.0011306169769124818 0.0012883791885794562 0.00099697743045218694 0.00087650400572160457 0.00117823530423214 0.0010433115878160466 0.00090490374067589375 0.0010765180706953242 0.00085714206905777922 0.0009432963566493994 0.00089601833723148986 0.00074035624527321576 0.0010638699170971535 0.0010152146899730563 0.00085378985617693293 0.00069302513751434843 0.00076355564336299468 0.00092695877669523978 0.00079725744341302722 0.00072760368375953711 0.00063047162189266417 0.00072167546969549134 0.00096377594753104293 0.00076136140050250096 0.00075916655597295629 0.00079785660512424943 0.0006311588277383807 0.00078534090389090737 0.00065646832276449981 0.00058350014484949582 0.00060372939481377315 0.00068196472302344631 0.00054054492784531545 0.00075712868568867644 0.00052964173153069091 0.00066225451838389595 0.00076158143911381486 0.00062846599586621581 0.00053556921964419699 0.00059849809920611049 0.0007374159135131481 0.00077505823569159874 0.00061616672048299436 0.00078541341727271529 0.00062916916042423591 0.00090161318326670867 0.00090657862808209524 0.00070898401626263497 0.00067518977654217461 0.00091908281100551762 0.00090178805873626839 0.00092129154188704552 0.00073828922166625506 0.00069996402963509773 0.00031511288694630355 0.00029049656274041178 0.00037382458181929893 0.00041469079024894896 0.0003030715604946859 0.00036194962122679448 0.00039721590317192556 0.00034432222294411287 0.00043761370973892806 0.00037912305880859459 0.00042013512248019382 0.00051172836765122731 0.00049439624124163759 0.00040352033322698863 0.00050462918475395403 0.00062925072914195269 0.00046862604843695788 0.00047942707691633684 0.00061015449779993551 0.00045929598317486517 0.00061888056120357215 0.0004819195737666436 0.00048205960696258313 0.00061042738830011231 0.00046269755860529633 0.00059533577742484586 0.00062415950116577554 0.00050611416406949334 0.00040493036033568237 0.00050630491971701138 0.00051837709669035287 0.00039103098926445887 0.00041924061132915232 0.00051440393634633931 0.00041280678645337675 0.00038907302594310767 0.00034144682600572982 0.00041053839272985792 0.00043396387486727546 0.0003505000405750526 0.00035128459123922863 0.00042104670213559864 0.00036699670158343097 0.00028458125848754274 0.00036778955151308941 0.0002976031704798097 0.00037609556412176564 0.00029426887572714036 0.00028459789357597259 0.00038463566009470072 0.0003674410207361896 0.0003399376070178448 0.00044048617879379224 0.00041274534640575847 0.00036546953578588982 0.00044648106800431386 0.00034792405379396711 0.00036290203099517422 0.00035105848835440494 0.0004600949178586441 0.00035112045507118458 0.00044976626326533828 0.00043585895091823886 0.00029545463638985917 0.00029527511963065419 0.0003919010993069342 0.00038387386877482385 0.00028376836422926757 0.00037228535949658732 0.00029591814302903967 0.00038129689387069365 0.00029653031609599295 0.00033810199036888287 0.00044597383305131663 0.00045260014707435839 0.00057910067070131408 0.00054295919147224971 0.00039920327839943978 0.00055907204545362272 0.00042647655101998763 0.00041971405164789913 0.0004965463925241235 0.00041416030760035638 0.00055113135551942017 0.00043070513918584696 0.00051275922024377949 0.00041653061529245926 0.00047370328687338812 0.00052940953157745675 0.00060414789255374931 0.00050675683331529819 0.00066118406149138543 0.00058279447570472353 0.00049994868663582237 0.00062955262309120712 0.00065695334648420379 0.00055194295148290086 0.00063883932763999552 0.00051483208801595629 0.0008034805737007813 0.00057988346054040226 0.00069934743844297356 0.00081020977115928389 0.0006211317153127638 0.00059320725807540154 0.00076369045564397234 0.00074202399542786055 0.0009986319343799786 0.00080985103856578587 0.00059157506799396918 0.00078866665796218532 0.00077286486375435543 0.00066653132242772313 0.00085739810953240148 0.00095223047678647302 0.00098194500870313209 0.00071487705084705058 0.00096585405064573363 0.0007383797296269261 0.00082368795463344893 0.00090411316918620607 0.0011412620141396585 0.00093450252454418915 0.00088797946600360994 0.0010274438830407155 0.0011284102498619166 0.0011859401499396314 0.0011767492754742315 0.00088896113240635732 0.0011925818867113396 0.00089931515084405549 0.001111258613730279 0.00081344320643191492 0.00076207642908537193 0.00094892345855422222 0.00073846721820305505 0.00097911899577757494 0.00093213144249447259 0.0012070916261834258 0.00087865295054209897 0.00092652364413769463 0.0012002928811698957 0.0010286641238808818 0.00086403413475029389 0.0012673002248975759 0.00095641226202000879 0.0010115832666301899 0.0012507544745815379 0.0009838740812455251 0.0011598246686861759 0.00075921540949950477 0.001067683407120573 0.0010137531751549073 0.00077574660799881396 0.00091420977679789643 0.0010752741539003957 0.00066421451097163804 0.00065764812945920794 0.00085847726235135338 0.00084835853690148932 0.00063835831669048352 0.00079793307573451536 0.00082217380466476412 0.00067063853643923644 0.00060817150543462451 0.00055958478660821586 0.0006392390708091102 0.00070077929999780015 0.00056666796383188656 0.00070462426825927888 0.00059727029895092544 0.00058132536726772117 0.00059075280970690054 0.00070743378595686235 0.00069665875425199979 0.00057991305644153085 0.00069024107810647882 0.00076600239275610867 0.00056619770986332844 0.00068910192989962552 0.00073040708390485049 0.00065656296413142668 0.00084725466254939878 0.00069800516454675645 0.00081725498766678246 0.00094063740364321502 0.0009015355835677336 0.00077944048023838807 0.0010286061131643419 0.0011546063590282198 0.00086309392279189617 0.00098705477015701912 0.0011088613566361764 0.00094354346008313026 0.0012558944089718642 0.0013608922031675989 0.001154396305364513 0.0015189603848724284 0.0010559301423341489 0.0012060484746370048 0.0014115695933649623 0.0017276554984423159 0.0012985875551896906 0.0014574548265979597 0.0020923913273641621 0.0015624259759147462 0.0019864744742930864 0.0020131312286678056 0.00190681298976239 0.0023163819336284443 0.0016487184711500348 0.0022784103649959361 0.0019548904050735046 0.0022152302457661933 0.0023047406952507159 0.0018809380904897316 0.0018032504559508159 0.0021799248911565918 0.0016770759226322871 0.001618643776526959 0.0021373334529566257 0.0022577134771737954 0.0018772186882670906 0.0017532208703311418 0.0014824070544430768 0.0016073727364303153 0.0017286225474465989 0.0020232179734197128 0.0016755327323312026 0.0014023170418131191 0.0017947589523657549 0.0018205394463382755 0.0014452583590730472 0.0013516949451468417 0.0011461436306283771 0.0014263344916193006 0.0015180292267446955 0.0011975309283328264 0.0011052019941321571 0.0014668613556621669 0.0010828179234553131 0.0013479420964681221 0.0014515287591477461 0.0013964327799093534 0.0012907772641553691 0.0015970195878084218 0.0018086651837862697 0.0013358669499474252 0.0015432120694507329 0.0014531830919455304 0.0017931441207400135 0.0015264481689516952 0.0012613304183178525 0.0015438427643278874 0.0013137880793079035 0.0015103295284502158 0.0015824562115351573 0.0012746521368912286 0.001310022348114364 0.0013617037882728983 0.0011068483730806531 0.0011222879787504173 0.0011316669502355605 0.0013808876460546851 0.0011896126453184329 0.0015619181970535196 0.0012689350825885915 0.0010614164146900149 0.0013396446522694597 0.0011447397832908524 0.0012476486454641735 0.0013256469006584814 0.0010445015575646982 0.0015289594274280416 0.0015231488611611424 0.0012296652571371076 0.001467201357417203 0.00179549533658283 0.0014612741759713783 0.0014149765979971499 0.0019160354763153602 0.0017484210126282442 0.0021186100866334469 0.0016733867419493529 0.0018422144388077081 0.0021195776196949222 0.0018025453413612383 0.0016808459738550368 0.0018708702711091852 0.0014789585348057724 0.0017497361117083726 0.0025051797356883672 0.002057926507228496 0.0019929280428249269 0.0020738052317142699 0.0021378716140001931 0.0017509406700222945 0.0023554472087371999 0.0020478512716215177 0.0017668351301015671 0.0019750959972772123 0.0022893212532319098 0.0024316912618388923 0.0021920720078502241 0.0028542871368474037 0.0023413357571729077 0.0023784823191176662 0.0023164708084416506 0.0028417980786657479 0.0024717251459064416 0.0019466991615219829 0.0024107276893177839 0.0023040386908464382 0.0027737265222704081 0.002996972830387531 0.002313611997505825 0.0029999866236845888 0.0027014415024414666 0.0025566939388521723 0.0035005883456921826 0.0034958541479436938 0.0042623808536062357 0.0033248051190466672 0.0033296719171957601 0.004207391096745703 0.0039697126923623179 0.003243291326300011 0.0046527976349633373 0.0036453879277843788 0.0038815347617047764 0.0033001597474565337 0.0040145813230492633 0.0037865064773769863 0.0026431755409194284 0.003551170606647132 0.0028707050304593029 0.0033930526851989763 0.003872101213477655 0.0031244482537483558 0.0027982686664133772 0.0035008011434557174 0.0032357599238196314 0.0033025854317884104 0.0031385994193412156 0.0038849490911505202 0.0025241898926290371 0.0032773743002264648 0.0034380826209640955 0.0040254265988269597 0.0036517071668658906 0.0045204878638838699 0.0036723260243403206 0.0032145757818494445 0.0041651809847902477 0.0031952194022970915 0.0037867104350055763 0.0041533371988906366 0.0026083827417881693 0.0034973749438208931 0.0025900676800703491 0.0025948206889885332 0.0028987113283001041 0.0033255450348670468 0.0024245464814793855 0.0028036120735371135 0.0019638102946098902 0.0028231380027319139 0.002132807443758624 0.0020094431583021787 0.0027847408971658073 0.0022095351830519424 0.0021187371084656109 0.0027580142397531488 0.0027401192630807465 0.002044423948663894 0.00194267149327426 0.0022454989385129647 0.0025714079314541182 0.0024914647661677227 0.0021585397565729841 0.0027428975217266365 0.0023877104562320187 0.0026432089976376623 0.0031349585947270243 0.0034704359615447032 0.0030286790745923126 0.0025265716945246279 0.0037953663335040157 0.0028958151991496997 0.0033467983130209588 0.0035293844254400686 0.0040327366278876424 0.004598499744009419 0.0014543271379756576 0.0019305899153561491 0.0014669291287724474 0.0017159514125859076 0.0014281182291408494 0.0019033923744564522 0.0016472887474336657 0.002175033207310521 0.0017652995331791305 0.0018421980567039549 0.0014516123563298427 0.0017262644031104163 0.0016343755901284912 0.0018256562979671054 0.0021726831714082981 0.00241054068321204 0.0020933200990758912 0.0017393839854562289 0.001863967899601473 0.0024285993372078784 0.0017716601244768485 0.0017968864693722643 0.0023308236299466279 0.0023781064681364424 0.0018301660341664069 0.0020616545026030525 0.0023634797466651476 0.0019137867942754087 0.0015966516110272827 0.0021417752896338393 0.0021652123928160264 0.0016299667191554531 0.0016494970067950235 0.0017317072047273508 0.0017123032566633885 0.0014014160455288428 0.0019726762765950204 0.0018827144789119133 0.0013913527268877967 0.001987009402419704 0.0014188871478929136 0.0016751916970390447 0.0015414142699089841 0.0011788369201447167 0.0014902889790288244 0.0014813104856257033 0.001429207696548081 0.0017350920379148715 0.0017705590223450994 0.0014442701932349932 0.0013359002983263511 0.0010805206209990219 0.0014444486171205156 0.0012416896443545697 0.0011940683596710002 0.0013978596087820168 0.001505714319728104 0.0012248754977523242 0.00098201259811507178 0.0012828689497424439 0.0015737394712372506 0.0011585874971486822 0.0012183719040771198 0.0011519667712104316 0.0015750277227975162 0.0013180761690062229 0.0015423414147162219 0.0015547019957062114 0.0011170118430655278 0.0014810561043330833 0.0017604873485453016 0.0015018452326455462 0.0015347700049001052 0.0015552688381968653 0.0012694486547698673 0.0012147470289910029 0.0013776322273710629 0.0010186913228312786 0.0013147314414131692 0.0015849199096377557 0.0011964531501253537 0.0013763573834024061 0.0012606874396833305 0.0010109782444896293 0.0011895155021338151 0.0012301840643300207 0.0014287798010910577 0.0015449625293385749 0.0011506308223422624 0.0013944693113274603 0.0014870157174316284 0.0013336997577560595 0.0016949995928903943 0.0013308080969131959 0.001522885151050076 0.0016931348213154182 0.0013881014944201919 0.0011835700927593199 0.0015768342876113796 0.0012003630607690982 0.0012180654856990445 0.00157048027051829 0.0012686649703906707 0.00095190788952554642 0.0012859758429870981 0.0015598447198124064 0.0012246402938002924 0.0011758338856808267 0.0015391321386655484 0.001178529727467692 0.0015249371961359845 0.0014719589790200922 0.0014574951102272341 0.0017981706537714801 0.0014152002344039181 0.0017509592280368078 0.0019210455597054052 0.0018516576064830236 0.0016778946084271139 0.0020842101708378183 0.0018226649517902533 0.0020875034145263066 0.0016808269950981261 0.0014049729112490558 0.0018941001617261296 0.001755102714040464 0.0017483221226576549 0.002354054399795033 0.0020171388516262677 0.0023154669017342519 0.0019532557569789158 0.0022985529849798808 0.0023644938520635556 0.0017760371899713714 0.0020132192041198097 0.0021073658237596255 0.0015681512007729944 0.0017830338430308663 0.0018505736865601793 0.0016398162050401963 0.001463645821712004 0.0021032121597353674 0.0018348819208503253 0.0015575837071117892 0.0014230567800907832 0.0016343594451889785 0.0019043783059937453 0.0020418553112828545 0.0021637475953580686 0.0017680299838653281 0.0017292293707170214 0.0021293443595555425 0.002347287365467696 0.0024607029231849503 0.0020920978195631784 0.0019644861338164264 0.0020525419983165771 0.0017173872194130471 0.0021373102583618947 0.0019747808796966655 0.0020607888171194047 0.0024416980665058156 0.0024289590408457392 0.001925927816937257 0.0024098941844753552 0.0023325125782234645 0.0023130975637819487 0.0028481041604245436 0.0024333814611236476 0.0022754883857708957 0.0020535985422454259 0.0021899324939172182 0.002349568208718835 0.0028517140102486895 0.0027064339067987228 0.0032085103592264246 0.0026948757165322196 0.0028028470009222751 0.0027914383824062753 0.00227660601699655 0.0022115156921801021 0.0021944030453986494 0.0029334734404291496 0.0026620784477355856 0.003509833179559863 0.0027350998224061765 0.0021197603425850554 0.0028056506743294402 0.0028771248187529457 0.0027386430135104517 0.0035648644731655489 0.0026540012772212893 0.00212