<?xml version="1.0"?>
<VTKFile type="UnstructuredGrid" version="0.1" byte_order="LittleEndian">
<UnstructuredGrid>
<Piece NumberOfPoints="3918" NumberOfCells="1306">
<Points>
<DataArray type="Float64" NumberOfComponents="3" format="ascii">
0 0 0 0 0.10000000000041601 0 0.082799035591426873 0.082799035591510806 0 0 0 0 0.082799035591426873 0.082799035591510806 0 0.099999999999928008 0 0 0 0.10000000000041601 0 0 0.20000000000083221 0 0.066361468125430589 0.15903440181097661 0 0 0.10000000000041601 0 0.082799035591426873 0.082799035591510806 0 0.066361468125430589 0.15903440181097661 0 0.082799035591426873 0.082799035591510806 0 0.140351188660986 0.16130415108589741 0 0.066361468125430589 0.15903440181097661 0 0.082799035591426873 0.082799035591510806 0 0.20669143849501961 0.085546078947938975 0 0.140351188660986 0.16130415108589741 0 0.082799035591426873 0.082799035591510806 0 0.099999999999928008 0 0 0.20669143849501961 0.085546078947938975 0 0.099999999999928008 0 0 0.19999999999983389 0 0 0.20669143849501961 0.085546078947938975 0 0.20669143849501961 0.085546078947938975 0 0.21725788110387281 0.17316968768743621 0 0.140351188660986 0.16130415108589741 0 0.20669143849501961 0.085546078947938975 0 0.29145143692666958 0.13500804559578439 0 0.21725788110387281 0.17316968768743621 0 0.20669143849501961 0.085546078947938975 0 0.29145143692666958 0.13500804559578439 0 0.29999999999973409 0 0 0.19999999999983389 0 0 0.20669143849501961 0.085546078947938975 0 0.29999999999973409 0 0 0.24783073444672249 0.24783073444648379 0 0.34318159319555042 0.3314386771104964 0 0.33604819894646598 0.23280286076243209 0 0.29145143692666958 0.13500804559578439 0 0.24783073444672249 0.24783073444648379 0 0.21725788110387281 0.17316968768743621 0 0.29145143692666958 0.13500804559578439 0 0.24783073444672249 0.24783073444648379 0 0.33604819894646598 0.23280286076243209 0 0.21725788110387281 0.17316968768743621 0 0.17318221359491059 0.27409688392309489 0 0.140351188660986 0.16130415108589741 0 0.24783073444672249 0.24783073444648379 0 0.21725788110387281 0.17316968768743621 0 0.17318221359491059 0.27409688392309489 0 0.24783073444672249 0.24783073444648379 0 0.17318221359491059 0.27409688392309489 0 0.2371857680100064 0.35865548441110112 0 0.17318221359491059 0.27409688392309489 0 0.089078158003765312 0.2493007687782936 0 0.13897501191807771 0.34545639364066222 0 0.17318221359491059 0.27409688392309489 0 0.089078158003765312 0.2493007687782936 0 0.140351188660986 0.16130415108589741 0 0.089078158003765312 0.2493007687782936 0 0.140351188660986 0.16130415108589741 0 0.066361468125430589 0.15903440181097661 0 0.089078158003765312 0.2493007687782936 0 0 0.20000000000083221 0 0.066361468125430589 0.15903440181097661 0 0.089078158003765312 0.2493007687782936 0 0 0.30000000000124832 0 0.0632094674441709 0.3449112819864934 0 0.089078158003765312 0.2493007687782936 0 0 0.20000000000083221 0 0 0.30000000000124832 0 0.0632094674441709 0.3449112819864934 0 0 0.40000000000166441 0 0.083393126324559225 0.42307471369029392 0 0 0.30000000000124832 0 0.0632094674441709 0.3449112819864934 0 0 0.40000000000166441 0 0 0.40000000000166441 0 0.083393126324559225 0.42307471369029392 0 0 0.50000000000205869 0 0.083393126324559225 0.42307471369029392 0 0.13897501191807771 0.34545639364066222 0 0.16486701364709541 0.41592657376307979 0 0.083393126324559225 0.42307471369029392 0 0.12353277228144981 0.51086097771927308 0 0.16486701364709541 0.41592657376307979 0 0.0632094674441709 0.3449112819864934 0 0.083393126324559225 0.42307471369029392 0 0.13897501191807771 0.34545639364066222 0 0.089078158003765312 0.2493007687782936 0 0.0632094674441709 0.3449112819864934 0 0.13897501191807771 0.34545639364066222 0 0.070553891733833127 0.57745844360881338 0 0 0.60000000000138687 0 0.079752623936563252 0.65630726580969023 0 0.070553891733833127 0.57745844360881338 0 0 0.60000000000138687 0 0 0.50000000000205869 0 0.083393126324559225 0.42307471369029392 0 0 0.50000000000205869 0 0.12353277228144981 0.51086097771927308 0 0.070553891733833127 0.57745844360881338 0 0 0.50000000000205869 0 0.12353277228144981 0.51086097771927308 0 0.070553891733833127 0.57745844360881338 0 0.12353277228144981 0.51086097771927308 0 0.16324260003398389 0.62262730759772122 0 0.070553891733833127 0.57745844360881338 0 0.16324260003398389 0.62262730759772122 0 0.079752623936563252 0.65630726580969023 0 0.12353277228144981 0.51086097771927308 0 0.16324260003398389 0.62262730759772122 0 0.1946526892501724 0.54636184660733622 0 0.16324260003398389 0.62262730759772122 0 0.1946526892501724 0.54636184660733622 0 0.27661118526457179 0.58730386222759956 0 0.1946526892501724 0.54636184660733622 0 0.27220668248394869 0.50912429725145214 0 0.21928696632013719 0.4676461135047027 0 0.12353277228144981 0.51086097771927308 0 0.1946526892501724 0.54636184660733622 0 0.21928696632013719 0.4676461135047027 0 0.27220668248394869 0.50912429725145214 0 0.27661118526457179 0.58730386222759956 0 0.34793494568226019 0.52426775179830853 0 0.27220668248394869 0.50912429725145214 0 0.29987747321592639 0.43430880093746571 0 0.34793494568226019 0.52426775179830853 0 0.27220668248394869 0.50912429725145214 0 0.21928696632013719 0.4676461135047027 0 0.29987747321592639 0.43430880093746571 0 0.1946526892501724 0.54636184660733622 0 0.27220668248394869 0.50912429725145214 0 0.27661118526457179 0.58730386222759956 0 0.13897501191807771 0.34545639364066222 0 0.16486701364709541 0.41592657376307979 0 0.2371857680100064 0.35865548441110112 0 0.17318221359491059 0.27409688392309489 0 0.13897501191807771 0.34545639364066222 0 0.2371857680100064 0.35865548441110112 0 0.16486701364709541 0.41592657376307979 0 0.21928696632013719 0.4676461135047027 0 0.2371857680100064 0.35865548441110112 0 0.12353277228144981 0.51086097771927308 0 0.16486701364709541 0.41592657376307979 0 0.21928696632013719 0.4676461135047027 0 0.21928696632013719 0.4676461135047027 0 0.29987747321592639 0.43430880093746571 0 0.2371857680100064 0.35865548441110112 0 0.29987747321592639 0.43430880093746571 0 0.2371857680100064 0.35865548441110112 0 0.34318159319555042 0.3314386771104964 0 0.24783073444672249 0.24783073444648379 0 0.2371857680100064 0.35865548441110112 0 0.34318159319555042 0.3314386771104964 0 0.34318159319555042 0.3314386771104964 0 0.38593969585746768 0.44843324941957241 0 0.42544665781957403 0.3726599289372452 0 0.29987747321592639 0.43430880093746571 0 0.34318159319555042 0.3314386771104964 0 0.38593969585746768 0.44843324941957241 0 0.38593969585746768 0.44843324941957241 0 0.42544665781957403 0.3726599289372452 0 0.47711113382803011 0.43513410852522788 0 0.42544665781957403 0.3726599289372452 0 0.49272830291620878 0.32528628960011152 0 0.47711113382803011 0.43513410852522788 0 0.42544665781957403 0.3726599289372452 0 0.49272830291620878 0.32528628960011152 0 0.41589935411558732 0.26752529264016389 0 0.34318159319555042 0.3314386771104964 0 0.42544665781957403 0.3726599289372452 0 0.41589935411558732 0.26752529264016389 0 0.27661118526457179 0.58730386222759956 0 0.38240158409674341 0.60644575028138747 0 0.34793494568226019 0.52426775179830853 0 0.27661118526457179 0.58730386222759956 0 0.38240158409674341 0.60644575028138747 0 0.32437633398017029 0.65970549827478953 0 0.29987747321592639 0.43430880093746571 0 0.38593969585746768 0.44843324941957241 0 0.34793494568226019 0.52426775179830853 0 0.38593969585746768 0.44843324941957241 0 0.45232393232070839 0.53082724112931345 0 0.47711113382803011 0.43513410852522788 0 0.38593969585746768 0.44843324941957241 0 0.34793494568226019 0.52426775179830853 0 0.45232393232070839 0.53082724112931345 0 0.38240158409674341 0.60644575028138747 0 0.34793494568226019 0.52426775179830853 0 0.45232393232070839 0.53082724112931345 0 0.38240158409674341 0.60644575028138747 0 0.45232393232070839 0.53082724112931345 0 0.46433624429412901 0.61260020600107856 0 0.45232393232070839 0.53082724112931345 0 0.46433624429412901 0.61260020600107856 0 0.56379254693201075 0.58472273515948836 0 0.46433624429412901 0.61260020600107856 0 0.56379254693201075 0.58472273515948836 0 0.5174764925733939 0.65338828204098198 0 0.45232393232070839 0.53082724112931345 0 0.55763912874459476 0.49619993861770217 0 0.47711113382803011 0.43513410852522788 0 0.45232393232070839 0.53082724112931345 0 0.55763912874459476 0.49619993861770217 0 0.56379254693201075 0.58472273515948836 0 0.55763912874459476 0.49619993861770217 0 0.64897033023755402 0.45530630145656431 0 0.66278242936710119 0.53985356489900171 0 0.55763912874459476 0.49619993861770217 0 0.56379254693201075 0.58472273515948836 0 0.66278242936710119 0.53985356489900171 0 0.56379254693201075 0.58472273515948836 0 0.59670004617370476 0.65981579440137683 0 0.65500944633069913 0.60601350811213128 0 0.49272830291620878 0.32528628960011152 0 0.47711113382803011 0.43513410852522788 0 0.56509579243166053 0.39588847936247551 0 0.55763912874459476 0.49619993861770217 0 0.47711113382803011 0.43513410852522788 0 0.56509579243166053 0.39588847936247551 0 0.56509579243166053 0.39588847936247551 0 0.65823561246403328 0.35502292901158627 0 0.64897033023755402 0.45530630145656431 0 0.55763912874459476 0.49619993861770217 0 0.56509579243166053 0.39588847936247551 0 0.64897033023755402 0.45530630145656431 0 0.49272830291620878 0.32528628960011152 0 0.56509579243166053 0.39588847936247551 0 0.58612580217118482 0.27813894450229909 0 0.56509579243166053 0.39588847936247551 0 0.58612580217118482 0.27813894450229909 0 0.65823561246403328 0.35502292901158627 0 0.49272830291620878 0.32528628960011152 0 0.58612580217118482 0.27813894450229909 0 0.49255105193724569 0.22337579986912359 0 0.49255105193724569 0.22337579986912359 0 0.5565830077206213 0.19095699352548859 0 0.50264032148191051 0.12292784096123539 0 0.58612580217118482 0.27813894450229909 0 0.49255105193724569 0.22337579986912359 0 0.5565830077206213 0.19095699352548859 0 0.58612580217118482 0.27813894450229909 0 0.5565830077206213 0.19095699352548859 0 0.64669
[...]
<PointData Scalars="A_conc," Vectors="" Tensors="">
<DataArray type="Float64" Name="A_conc" format="ascii">
0.0013978152811719149 0.0013361771783451655 0.0016726932178748595 0.0013515647667760816 0.0016363350923797313 0.0017657355177548969 0.0013455231971035322 0.0013579075101657315 0.0016102125891407338 0.0013133018756855677 0.0016455269733009863 0.0015808670980967353 0.001591880317743855 0.0018502560450168485 0.0015261182064226176 0.0015301268604843436 0.0021141220986095333 0.0017923373058541031 0.0015552333094120893 0.0016862729044235716 0.0021316493753946184 0.0016266014768627148 0.0021249432233692699 0.0020835695481618878 0.0020602804802045231 0.0021262038217136812 0.0017310655747250613 0.0019871999057770001 0.0024589016770847649 0.0020540760819146636 0.001946064746558277 0.0024064084126194226 0.0025565671496468162 0.0020294835895939881 0.0019893722003134868 0.0025909739341612413 0.0021132650236363455 0.0027148913293854227 0.002670752979763295 0.0024501671966131468 0.0022204380362550826 0.0020313582581447409 0.002386627133365174 0.0021541086061812138 0.0026915939474689448 0.0021412884998503511 0.0019313962724398592 0.0017501275024202343 0.002275534073506068 0.0020915733624795596 0.0018769767180879813 0.0022644585281497778 0.0018594995884645888 0.0022100294949258794 0.0019798349563868037 0.0015864806730056689 0.0018191557080593228 0.0019856015406168083 0.0015860756698835455 0.0018070748877270725 0.001634162931233152 0.0018513535888197645 0.0015249123831130931 0.0016872483136537849 0.001318391229140571 0.001579667972623561 0.0016870830152679608 0.0013266917803898392 0.0015834204160041438 0.0017064767637397578 0.0013480475895850828 0.0013577476450258308 0.0015891634347758087 0.0013238787645550971 0.0016558119485708563 0.0013674034849014524 0.0016156277591242757 0.0013610089482372196 0.001353844248397199 0.0016800257379469101 0.0013477011126474571 0.0015587292485332734 0.0018282363492712942 0.0019367972478814997 0.0015709879394368662 0.0017482967040332942 0.0019464654744821789 0.001533781990087364 0.0016015330338937912 0.0018668595053703415 0.0016337096980853047 0.0015284299831702589 0.001862808866056381 0.0016104378773885424 0.0013247019241854321 0.0016455294974119397 0.0016331932024728159 0.0013611813299885362 0.0013517986467486553 0.0016374136080147873 0.0012960931366450042 0.0018104644792969571 0.0015874163798610631 0.0013036175368508012 0.0018129866227593735 0.0015206384972825155 0.0017519182132161499 0.001950122901765018 0.0015456417239964539 0.0019609179016318277 0.0015812713272850957 0.0016975044374937173 0.00189880735690315 0.0020499908952744629 0.0018238355488887342 0.0019775097314641442 0.0024310413442559901 0.0019542450675739589 0.0023843937035863167 0.0020838586345596453 0.0016684341772327249 0.0020259813539026754 0.0021534705183444813 0.0022769388453983976 0.0023015750577052652 0.0027485600290679869 0.0022613894110942801 0.0024285326794282998 0.0027401233994044584 0.0023325626508259485 0.0020249262553481261 0.0024974666615756999 0.0019173143676286925 0.0023584637874793147 0.0023827156390324095 0.0017586758525305834 0.001868177857305173 0.0022527289782243425 0.0019129039256430098 0.0017522181602657259 0.0022572946347767693 0.0018312202479140059 0.0021157215727403505 0.0022204479631705086 0.0016871509647989314 0.0018885011488297731 0.002164858437802415 0.0020473077984236743 0.0025141974103898459 0.0021533475208251533 0.0024505299523738229 0.0020806644232843579 0.0027382519850463753 0.0021758587538491083 0.0021206441736954938 0.0027603742453598018 0.0025786930442632419 0.0028661919689783833 0.0031651215129858083 0.0023648601986720756 0.0026579146533773504 0.002940915432163794 0.0027776574584065859 0.0030784109124988345 0.0034841508884295397 0.0030003371671854136 0.0035608658719661944 0.0034144905385764942 0.0030510478595016368 0.0036020136856173375 0.0029849248205065897 0.0025512816674683591 0.0031506364725105221 0.0030855226981558589 0.0022337202579495443 0.0029368338900710718 0.002687455400913192 0.0022551198160139191 0.0029441595922975392 0.0025516192645727025 0.0023607305382558649 0.0029351240799729769 0.0026764704813335518 0.0027530799057022379 0.0032652635656166191 0.0034685791379228934 0.002841957104068463 0.0025808101660177813 0.0033445325374762578 0.0028331536340514179 0.0025790457734259919 0.0033392045510481682 0.0027522799978817562 0.0032675687106946344 0.003392115026407014 0.0031365538009114542 0.0032629766500008582 0.004122086434619433 0.003193956046564677 0.0040888279186679539 0.003653665873574268 0.0031401870207460095 0.0040580321017498477 0.0033468962587436288 0.0030533329765726636 0.0039977285043391545 0.0040615395163711441 0.0037329789798001608 0.0046973542643049416 0.0048450887765874358 0.0038264699047871747 0.0038915511594572356 0.0049048401293918667 0.003869057078326397 0.0041909663690242772 0.0048120751195472634 0.0034571367351737539 0.0033091098515179995 0.0041018603816945559 0.0039817878263261001 0.0032474467126630546 0.0040542032015558364 0.0038112095011237643 0.0048074082701231946 0.0046878076207331467 0.003839802838615433 0.0039133617065377083 0.0047712616429478839 0.0033580357196326786 0.0040230713888844555 0.0042459187917235769 0.0038826617057008041 0.0041089664553235292 0.0048574865467807425 0.0034351821831570912 0.004290679784914991 0.0034202959794763406 0.0034363470110936583 0.0040046189130455677 0.0035008207612337297 0.004250751824098618 0.0033559943004227389 0.0039425622977774747 0.0041253925765726198 0.0038129706652651986 0.0047286225194171933 0.0038202956210482393 0.0039857431719399561 0.0047250618110017987 0.0042967576489885079 0.0039347888976398859 0.0048436273597051091 0.0044244849795030223 0.0040638276475119649 0.0034680040412039571 0.0041447920591633864 0.0035483639318293963 0.0034541112055283584 0.003653330531701136 0.0035597924958869973 0.0030343459228940033 0.0039418098853609912 0.004105217223062404 0.0034337275783077248 0.0036373634948108358 0.0031012095154678001 0.0028625915406720256 0.0031954374939513249 0.0026410088770746727 0.0029593401421152028 0.0037120971042727941 0.0030997043164371452 0.0029165413372046292 0.0031984800410812635 0.0030182937363724604 0.0026443478645031453 0.0024116490117733844 0.0030935961562324576 0.0027222428664275622 0.0023231854658343431 0.0024753893538839015 0.0027902664387822735 0.0022789953860450005 0.0027313224359115521 0.0030437219378544526 0.0022965217239967607 0.0026047278504542463 0.0030566333602160579 0.0025209661878219302 0.0031064041115308394 0.0029878013040792765 0.002616769140734717 0.0025718424019021465 0.0031367939413283123 0.0035639002334359369 0.0035492082109879861 0.0029233999032205423 0.0035478657153308322 0.0036111145502933368 0.0028144144696625986 0.003603259982138206 0.0030036507083204406 0.0028833805098401662 0.0013716530101209141 0.001650044832679567 0.001353969783676709 0.0013330790327821384 0.0017416227655709471 0.0016145284764314774 0.001685818421488571 0.0018826521526826069 0.0015573806507851421 0.0016312719024062783 0.0018302527412341427 0.0021084741300503485 0.0017747400382160934 0.0020551193193031367 0.00216282578564506 0.0019792297978632476 0.0025405403304336566 0.0020886999947959065 0.0024834824088759803 0.0020255028274296458 0.0025775215014123805 0.0025172630980969065 0.0020819231270365465 0.0020726058471930396 0.0024720596232173158 0.0020263740435995433 0.0025776546798911676 0.0021537839173040095 0.0017905570000378841 0.0021446387814895362 0.0021908002707534571 0.0017381987789606601 0.0018333395345387364 0.0018057811401778552 0.0021881941703226463 0.0017402929550928104 0.0018708743409737831 0.001806207752897997 0.0015424076474210696 0.0018344122094764675 0.0015758428569684771 0.0015755762446360883 0.0016275538389154348 0.0013236018123487076 0.0016273089401366075 0.0013553511000896983 0.0013594809516141498 0.0016528962096412625 0.0013187363524844909 0.0016236346154194108 0.0016846227775000502 0.001804454203988894 0.0015387289273047595 0.0018982688349762299 0.0015628550092941275 0.0019168589407422621 0.0016248579224121447 0.0016180297317371201 0.0015750650873272501 0.0019676938884597203 0.0018837406685832544 0.0015813449418930264 0.0019356241603213069 0.001352716027948856 0.0017084247251044442 0.001352659191977304 0.001683296157395825 0.0013161822109455279 0.0016410735959783069 0.0013548041913978499 0.0013564555169857941 0.0016697510595882392 0.0019225029104373596 0.0015350154865810838 0.0019442250345124488 0.0017818371318053723 0.0024091777911888564 0.0022830227546066961 0.0018430531083503988 0.0018651225205429324 0.0023315296497256857 0.0018277548288310255 0.0021175147107648029 0.0023071363208365995 0.0018250086179499043 0.0018776600958741174 0.0021656965920645141 0.0025005334154610329 0.0020498371173956775 0.0022425462318161255 0.0024380381323430133 0.0021764997427387244 0.002704295931037964 0.002157123285439187 0.0025985464879826762 0.0026922913217327111 0.0023290101140226427 0.0022001727226392894 0.0026254419892600155 0.0028571818993974882 0.0024563355427919291 0.0032006517000889145 0.0024946246486521359 0.0025897900559494584 0.0032204322448869654 0.0030295447687167425 0.0038624657833481544 0.0031017298702397311 0.0025060660245363646 0.0031587960066040244 0.0032297054413714748 0.0027651260600771539 0.0033929567184352964 0.0031143082241474234 0.0029554996552325144 0.0037208021944030289 0.0038166119707173799 0.0032998526083181457 0.0030194562086504522 0.0037577150161452882 0.0035911909989466938 0.0043413022541385913 0.0036887154761930489 0.0039886654049116101 0.0035469468676261303 0.0043061000672994527 0.0044971679620452289 0.0035678291193974821 0.0044710431794585627 0.0042613928643656573 0.0045150804830781932 0.0035956964414517031 0.0037034440571976413 0.0032663584615945387 0.0030976256416005879 0.0038080695699480097 0.0036572019809492894 0.0030327084425800137 0.0036666727085812893 0.0035135715870571937 0.0045521521982991101 0.003474833235752514 0.0045345372422162557 0.0039974926237628184 0.0039529020431895842 0.0037815842581841227 0.0047542875379517121 0.0044274341452825812 0.0038798182915838865 0.0047084937225773463 0.0041023091049777116 0.0031194480325619613 0.0039340658358410002 0.0036090578670411417 0.0041228599123971713 0.0031639231056297887 0.0033950594939055425 0.0027231513365260107 0.0027556497596911088 0.0033629489498063847 0.0031966338163959204 0.0026713636736159221 0.0025524333716241449 0.0032648020189169611 0.0027621888257695908 0.0023712512184742192 0.0026405214321547376 0.0028478197088559918 0.0023910277602032732 0.0028576769631679304 0.0024984962266606384 0.0024000258847889904 0.0028791649745557295 0.0024961506871439072 0.0028151063261114399 0.00284720894459819 0.0024500259158148721 0.0023499290226122009 0.0028286020083944001 0.0030292919620388114 0.003373923425361568 0.0027300422989449315 0.0029294956947294769 0.0032914316404632151 0.0028406430031322288 0.0036390301185807764 0.0031832648605620174 0.0035326952030013924 0.0039755977709993373 0.0034240428272579847 0.0043580087456112412 0.003865295012924392 0.004238432053162427 0.0037439329380178181 0.0047272804870208034 0.0050718895360952398 0.0055657920901080061 0.004462036501566658 0.0041013176258627637 0.0052009046767318799 0.0045977078131073951 0.0049151031442464348 0.0062005186273415098 0.0054111152815384108 0.0057957374244008231 0.0073268185061023871 0.007031802444418883 0.0071388995776846924 0.0068407703650377582 0.0080011665323383874 0.0069551125877219538 0.0078787387228384086 0.0060769156626923077 0.006780448424997085 0.0077285683216676932 0.0079757689712893418 0.0075840312838635444 0.0061424923452791753 0.0065028713930587257 0.0078283372691339836 0.007482012311148349 0.0060035524569491102 0.0063258513580981167 0.0055275733896119582 0.0066814011841369531 0.0059063808143209381 0.0071198698081411226 0.0062704419272773312 0.0060721029868258756 0.0064316312499575687 0.005272159143577375 0.0064953420368197854 0.0053805089565789029 0.0051035443978931956 0.0055628044075985844 0.0044388329877593814 0.0052901761225738779 0.0042864365009999197 0.0045708528569272638 0.0053931733006436691 0.0042278916172120602 0.0053519117826945975 0.0050364797099232512 0.0058104969836864561 0.0052121309158541552 0.0048918137419209995 0.006462358766938835 0.0056763605804157624 0.0050615344864832594 0.0056349340930412217 0.0054135402243762057 0.0064163976868098459 0.0049503633943189726 0.0047881372073981911 0.0056401842119657569 0.0057736881089193491 0.0048514651376416118 0.0055549873892869663 0.004291841252417738 0.0050720955882981545 0.004911755163064602 0.0043555281005277597 0.0043289939604137934 0.0051215151208262423 0.0048058053676590532 0.0045660021309258053 0.0056944071317966017 0.0041312329064718016 0.0043898968990957344 0.004988710367211273 0.004086248770396636 0.0049511850973472217 0.0047145220851103776 0.0047074219378814399 0.0055873646693494301 0.0056109162662867449 0.0054333777282764015 0.0064219960563793336 0.0054572964643073395 0.0063056405574060644 0.0053293636910876794 0.0067974721560491403 0.0061249904173140031 0.0074056648774325218 0.0066189192687186333 0.0061433951427246518 0.0065003777923397189 0.007408338327758235 0.0055185953478477795 0.0063093063223524631 0.0066653772734908048 0.0072949874236111698 0.0071084800937793128 0.0085483531846986174 0.0074825306355644338 0.0063772536723963429 0.0072980954628188953 0.0072368679872266469 0.006439997153246526 0.0081126570524400216 0.0070673400190525201 0.0083476101035550171 0.0079576765882270473 0.008139607935203368 0.0095555590157433302 0.0077336881589440652 0.0080825866895235052 0.0082561546404627435 0.009526919678278678 0.0070010141117433176 0.0082985773732307463 0.0084699504765655114 0.0080888156506128614 0.0099757325907920413 0.0093729595251041097 0.0081102487501529333 0.0099824698915531845 0.0091733107784628346 0.0088932951459846036 0.011385221327930446 0.011400941571251533 0.011017899809245661 0.01103394854320768 0.013445204994603424 0.010845290375491453 0.012717123403825435 0.013326998189673433 0.012533852213256662 0.011935429343635491 0.014498694327941554 0.010966089593905357 0.012812624784523148 0.01223119442844498 0.0096955577388792916 0.0090839638295828438 0.01150817041440211 0.011162874124916245 0.0104586373015978 0.012413573321962627 0.0095359622789988156 0.011395697813034403 0.010698576844862818 0.010488950667300347 0.012440712039473832 0.010926935804802316 0.010789583464439777 0.011220907173229726 0.0087811677836900637 0.011948581831602806 0.012908389553990091 0.014161953029780202 0.013201777248036251 0.010740943639817339 0.011928149238565116 0.012231116690828308 0.013177124535988283 0.01069930003788977 0.011354300235308692 0.0089121328213234898 0.0089680389108394085 0.0097564147713081351 0.010896079913734974 0.0089362477577526311 0.0070778353159921675 0.0083618892828268739 0.0094064509158041602 0.007536851376776366 0.0071839376635843624 0.0094537549980696113 0.0075056946400765892 0.0093504742330959064 0.007755668813267242 0.0073338287658653561 0.0092481693185752015 0.0093030592608115362 0.0069753797430850799 0.0087368253620913466 0.0078348928941616592 0.0092501207723609639 0.0085520316335670737 0.0076350976754799849 0.0090246586888184637 0.0083180333204539558 0.010349668658860172 0.011292894663457334 0.0087672828536522682 0.010113757742733093 0.01102227814353302 0.009824621280426651 0.012191099132804594 0.012922617708494918 0.011628573914579143 0.014354032699946154 0.0068280260071555904 0.0054353385825696311 0.0054614826149875506 0.0067613842478758063 0.0062048405920736892 0.0053667674778584131 0.0060418822601814078 0.0075641744080493442 0.0063901435135651097 0.0062322318921124026 0.0054305529786170354 0.0065757151576378795 0.0065743871000510075 0.0060089845097107001 0.0075565429743206661 0.0063692527638388122 0.0073664288953234087 0.0082756435495564933 0.0064434735546541437 0.006719409317503592 0.0083181038748319485 0.0065611834085757322 0.0081968221646355442 0.0080712640066390173 0.0066479921251076822 0.0072533697224491057 0.0081488657074758331 0.0068463614169940856 0.0074447782119952521 0.0059128070808159572 0.0075069506408577766 0.0059982884292330459 0.0060145057864937172 0.0061950926114171271 0.0062115059545140008 0.0052711403576431509 0.0067089878414309028 0.00697946744633014 0.0052812121719987793 0.00701801607762291 0.0061007635060590874 0.0053491159027633491 0.0056546958881144279 0.0054893971747191793 0.0045532710521197801 0.0062486341063568967 0.0055042228913648218 0.0053364331518646032 0.0063108183472816394 0.0053825473681422169 0.0050151711215093162 0.0041707179268775053 0.0052887596384573491 0.004726442607444775 0.0055324655602456037 0.0051677624772110391 0.0045996533490738796 0.0038895723715561496 0.0048216645929344088 0.0046375867627324692 0.0057350222504283024 0.0046553787888695677 0.0044674938958036876 0.0044537730723862579 0.0057327651365289226 0.0049552356806405132 0.0056540632992488939 0.0043636038141271812 0.0056798906042114447 0.006316182155327481 0.0054977219032296921 0.0055540965328625003 0.0056307785760430452 0.0056865640571678059 0.0048332165917058722 0.0040018478322543525 0.0046143701887752389 0.0051084604358839466 0.0057625916310269625 0.0049479461611788749 0.0045911576411644959 0.0039825579962862144 0.0051056619544565711 0.0047550207933986415 0.0046750933715021146 0.0045535949990009386 0.0052811183615901498 0.0044544039299764544 0.0051933334159075693 0.0056467217517084363 0.0050410843930993659 0.0055010832398783528 0.0061163088772075809 0.0056053705044349349 0.0050350176469586951 0.0061124844195077225 0.0057410569712292607 0.0045572359298847462 0.0051784374587143644 0.0045942497403084377 0.0046522822711621212 0.0057169107969126803 0.0037898444850092954 0.0047696490396269744 0.0048266542042777784 0.0045189418716442397 0.0046693220107919039 0.0056853464093630313 0.00455246402126763 0.0055962190154780333 0.0056364249976261467 0.0054281669474496898 0.0054689514129982525 0.0064330341109184201 0.0053299304376785176 0.006809999396750953 0.0063172207134890119 0.0066414393766417602 0.0061404458355115016 0.0073113437249293506 0.0061470951526364425 0.0073191536610049688 0.006558849187073972 0.0052989093663584601 0.0063267631987434314 0.0067321099467493916 0.0071516769037479212 0.0063825660972956812 0.0081067564881198602 0.007001492081958615 0.0080184490581962885 0.0079754269052304226 0.0064626087078398023 0.0071426881721048992 0.0081350317636961003 0.0058073119623850986 0.0064317371131001741 0.0073681206810972252 0.0054595048957061633 0.0059809507812703007 0.0065959527571486706 0.0057805148661120411 0.0065889732733823382 0.0073571270783797217 0.0053435696049945547 0.0059663985149913962 0.0067578029562178604 0.0064293610904236857 0.0075571899968237474 0.0072096324199669055 0.0063372156641105272 0.0074753774159472802 0.0080903247496002251 0.0073889640961056933 0.0070276796393192254 0.0084246220083680455 0.0074722800038405281 0.0062749861504841891 0.007236376853790194 0.0072921238864616135 0.0070535767562504622 0.008365416912196378 0.0069385844358477635 0.0082907002644952953 0.0083504012489772506 0.0080686959685983845 0.0081292558740232723 0.0095422022269906568 0.0072984290159655314 0.0083602579667915611 0.0079219551228381264 0.0081680379234753599 0.0095508367470845228 0.0077260236138815067 0.0091971893422958789 0.0092225439288881224 0.010575417412650142 0.0080019710128961651 0.0094129579361521623 0.0094380877874948362 0.0077795757511285764 0.0077361803406358932 0.0097739998678878608 0.0091253568087826548 0.0093267927057093299 0.011397487090602763 0.0094454479493350785 0.0075658171304505018 0.0096435816617448499 0.0091063377017506896 0.0093371292849811112 0.011542968067164204 0.0094366537107213617 0.0075910378140312991 0.0096637115224884381 0.0091095204710422723 0.011383670473341547 0.011232609389826074 0.010631875679231274 0.013099992129322556 0.013691748085820441 0.0110015713755914 0.010848226221314667 0.013827448999551965 0.010759147036315257 0.013660462895414911 0.01325991636651095 0.010191827389338369 0.012089860396021262 0.010636440379919712 0.0090617781035898706 0.010443800457753689 0.010883475566194347 0.01111028933260865 0.010177704310811277 0.0117