<?xml version="1.0"?>
<VTKFile type="UnstructuredGrid" version="0.1" byte_order="LittleEndian">
<UnstructuredGrid>
<Piece NumberOfPoints="3918" NumberOfCells="1306">
<Points>
<DataArray type="Float64" NumberOfComponents="3" format="ascii">
0 0 0 0 0.10000000000041601 0 0.082799035591426873 0.082799035591510806 0 0 0 0 0.082799035591426873 0.082799035591510806 0 0.099999999999928008 0 0 0 0.10000000000041601 0 0 0.20000000000083221 0 0.066361468125430589 0.15903440181097661 0 0 0.10000000000041601 0 0.082799035591426873 0.082799035591510806 0 0.066361468125430589 0.15903440181097661 0 0.082799035591426873 0.082799035591510806 0 0.140351188660986 0.16130415108589741 0 0.066361468125430589 0.15903440181097661 0 0.082799035591426873 0.082799035591510806 0 0.20669143849501961 0.085546078947938975 0 0.140351188660986 0.16130415108589741 0 0.082799035591426873 0.082799035591510806 0 0.099999999999928008 0 0 0.20669143849501961 0.085546078947938975 0 0.099999999999928008 0 0 0.19999999999983389 0 0 0.20669143849501961 0.085546078947938975 0 0.20669143849501961 0.085546078947938975 0 0.21725788110387281 0.17316968768743621 0 0.140351188660986 0.16130415108589741 0 0.20669143849501961 0.085546078947938975 0 0.29145143692666958 0.13500804559578439 0 0.21725788110387281 0.17316968768743621 0 0.20669143849501961 0.085546078947938975 0 0.29145143692666958 0.13500804559578439 0 0.29999999999973409 0 0 0.19999999999983389 0 0 0.20669143849501961 0.085546078947938975 0 0.29999999999973409 0 0 0.24783073444672249 0.24783073444648379 0 0.34318159319555042 0.3314386771104964 0 0.33604819894646598 0.23280286076243209 0 0.29145143692666958 0.13500804559578439 0 0.24783073444672249 0.24783073444648379 0 0.21725788110387281 0.17316968768743621 0 0.29145143692666958 0.13500804559578439 0 0.24783073444672249 0.24783073444648379 0 0.33604819894646598 0.23280286076243209 0 0.21725788110387281 0.17316968768743621 0 0.17318221359491059 0.27409688392309489 0 0.140351188660986 0.16130415108589741 0 0.24783073444672249 0.24783073444648379 0 0.21725788110387281 0.17316968768743621 0 0.17318221359491059 0.27409688392309489 0 0.24783073444672249 0.24783073444648379 0 0.17318221359491059 0.27409688392309489 0 0.2371857680100064 0.35865548441110112 0 0.17318221359491059 0.27409688392309489 0 0.089078158003765312 0.2493007687782936 0 0.13897501191807771 0.34545639364066222 0 0.17318221359491059 0.27409688392309489 0 0.089078158003765312 0.2493007687782936 0 0.140351188660986 0.16130415108589741 0 0.089078158003765312 0.2493007687782936 0 0.140351188660986 0.16130415108589741 0 0.066361468125430589 0.15903440181097661 0 0.089078158003765312 0.2493007687782936 0 0 0.20000000000083221 0 0.066361468125430589 0.15903440181097661 0 0.089078158003765312 0.2493007687782936 0 0 0.30000000000124832 0 0.0632094674441709 0.3449112819864934 0 0.089078158003765312 0.2493007687782936 0 0 0.20000000000083221 0 0 0.30000000000124832 0 0.0632094674441709 0.3449112819864934 0 0 0.40000000000166441 0 0.083393126324559225 0.42307471369029392 0 0 0.30000000000124832 0 0.0632094674441709 0.3449112819864934 0 0 0.40000000000166441 0 0 0.40000000000166441 0 0.083393126324559225 0.42307471369029392 0 0 0.50000000000205869 0 0.083393126324559225 0.42307471369029392 0 0.13897501191807771 0.34545639364066222 0 0.16486701364709541 0.41592657376307979 0 0.083393126324559225 0.42307471369029392 0 0.12353277228144981 0.51086097771927308 0 0.16486701364709541 0.41592657376307979 0 0.0632094674441709 0.3449112819864934 0 0.083393126324559225 0.42307471369029392 0 0.13897501191807771 0.34545639364066222 0 0.089078158003765312 0.2493007687782936 0 0.0632094674441709 0.3449112819864934 0 0.13897501191807771 0.34545639364066222 0 0.070553891733833127 0.57745844360881338 0 0 0.60000000000138687 0 0.079752623936563252 0.65630726580969023 0 0.070553891733833127 0.57745844360881338 0 0 0.60000000000138687 0 0 0.50000000000205869 0 0.083393126324559225 0.42307471369029392 0 0 0.50000000000205869 0 0.12353277228144981 0.51086097771927308 0 0.070553891733833127 0.57745844360881338 0 0 0.50000000000205869 0 0.12353277228144981 0.51086097771927308 0 0.070553891733833127 0.57745844360881338 0 0.12353277228144981 0.51086097771927308 0 0.16324260003398389 0.62262730759772122 0 0.070553891733833127 0.57745844360881338 0 0.16324260003398389 0.62262730759772122 0 0.079752623936563252 0.65630726580969023 0 0.12353277228144981 0.51086097771927308 0 0.16324260003398389 0.62262730759772122 0 0.1946526892501724 0.54636184660733622 0 0.16324260003398389 0.62262730759772122 0 0.1946526892501724 0.54636184660733622 0 0.27661118526457179 0.58730386222759956 0 0.1946526892501724 0.54636184660733622 0 0.27220668248394869 0.50912429725145214 0 0.21928696632013719 0.4676461135047027 0 0.12353277228144981 0.51086097771927308 0 0.1946526892501724 0.54636184660733622 0 0.21928696632013719 0.4676461135047027 0 0.27220668248394869 0.50912429725145214 0 0.27661118526457179 0.58730386222759956 0 0.34793494568226019 0.52426775179830853 0 0.27220668248394869 0.50912429725145214 0 0.29987747321592639 0.43430880093746571 0 0.34793494568226019 0.52426775179830853 0 0.27220668248394869 0.50912429725145214 0 0.21928696632013719 0.4676461135047027 0 0.29987747321592639 0.43430880093746571 0 0.1946526892501724 0.54636184660733622 0 0.27220668248394869 0.50912429725145214 0 0.27661118526457179 0.58730386222759956 0 0.13897501191807771 0.34545639364066222 0 0.16486701364709541 0.41592657376307979 0 0.2371857680100064 0.35865548441110112 0 0.17318221359491059 0.27409688392309489 0 0.13897501191807771 0.34545639364066222 0 0.2371857680100064 0.35865548441110112 0 0.16486701364709541 0.41592657376307979 0 0.21928696632013719 0.4676461135047027 0 0.2371857680100064 0.35865548441110112 0 0.12353277228144981 0.51086097771927308 0 0.16486701364709541 0.41592657376307979 0 0.21928696632013719 0.4676461135047027 0 0.21928696632013719 0.4676461135047027 0 0.29987747321592639 0.43430880093746571 0 0.2371857680100064 0.35865548441110112 0 0.29987747321592639 0.43430880093746571 0 0.2371857680100064 0.35865548441110112 0 0.34318159319555042 0.3314386771104964 0 0.24783073444672249 0.24783073444648379 0 0.2371857680100064 0.35865548441110112 0 0.34318159319555042 0.3314386771104964 0 0.34318159319555042 0.3314386771104964 0 0.38593969585746768 0.44843324941957241 0 0.42544665781957403 0.3726599289372452 0 0.29987747321592639 0.43430880093746571 0 0.34318159319555042 0.3314386771104964 0 0.38593969585746768 0.44843324941957241 0 0.38593969585746768 0.44843324941957241 0 0.42544665781957403 0.3726599289372452 0 0.47711113382803011 0.43513410852522788 0 0.42544665781957403 0.3726599289372452 0 0.49272830291620878 0.32528628960011152 0 0.47711113382803011 0.43513410852522788 0 0.42544665781957403 0.3726599289372452 0 0.49272830291620878 0.32528628960011152 0 0.41589935411558732 0.26752529264016389 0 0.34318159319555042 0.3314386771104964 0 0.42544665781957403 0.3726599289372452 0 0.41589935411558732 0.26752529264016389 0 0.27661118526457179 0.58730386222759956 0 0.38240158409674341 0.60644575028138747 0 0.34793494568226019 0.52426775179830853 0 0.27661118526457179 0.58730386222759956 0 0.38240158409674341 0.60644575028138747 0 0.32437633398017029 0.65970549827478953 0 0.29987747321592639 0.43430880093746571 0 0.38593969585746768 0.44843324941957241 0 0.34793494568226019 0.52426775179830853 0 0.38593969585746768 0.44843324941957241 0 0.45232393232070839 0.53082724112931345 0 0.47711113382803011 0.43513410852522788 0 0.38593969585746768 0.44843324941957241 0 0.34793494568226019 0.52426775179830853 0 0.45232393232070839 0.53082724112931345 0 0.38240158409674341 0.60644575028138747 0 0.34793494568226019 0.52426775179830853 0 0.45232393232070839 0.53082724112931345 0 0.38240158409674341 0.60644575028138747 0 0.45232393232070839 0.53082724112931345 0 0.46433624429412901 0.61260020600107856 0 0.45232393232070839 0.53082724112931345 0 0.46433624429412901 0.61260020600107856 0 0.56379254693201075 0.58472273515948836 0 0.46433624429412901 0.61260020600107856 0 0.56379254693201075 0.58472273515948836 0 0.5174764925733939 0.65338828204098198 0 0.45232393232070839 0.53082724112931345 0 0.55763912874459476 0.49619993861770217 0 0.47711113382803011 0.43513410852522788 0 0.45232393232070839 0.53082724112931345 0 0.55763912874459476 0.49619993861770217 0 0.56379254693201075 0.58472273515948836 0 0.55763912874459476 0.49619993861770217 0 0.64897033023755402 0.45530630145656431 0 0.66278242936710119 0.53985356489900171 0 0.55763912874459476 0.49619993861770217 0 0.56379254693201075 0.58472273515948836 0 0.66278242936710119 0.53985356489900171 0 0.56379254693201075 0.58472273515948836 0 0.59670004617370476 0.65981579440137683 0 0.65500944633069913 0.60601350811213128 0 0.49272830291620878 0.32528628960011152 0 0.47711113382803011 0.43513410852522788 0 0.56509579243166053 0.39588847936247551 0 0.55763912874459476 0.49619993861770217 0 0.47711113382803011 0.43513410852522788 0 0.56509579243166053 0.39588847936247551 0 0.56509579243166053 0.39588847936247551 0 0.65823561246403328 0.35502292901158627 0 0.64897033023755402 0.45530630145656431 0 0.55763912874459476 0.49619993861770217 0 0.56509579243166053 0.39588847936247551 0 0.64897033023755402 0.45530630145656431 0 0.49272830291620878 0.32528628960011152 0 0.56509579243166053 0.39588847936247551 0 0.58612580217118482 0.27813894450229909 0 0.56509579243166053 0.39588847936247551 0 0.58612580217118482 0.27813894450229909 0 0.65823561246403328 0.35502292901158627 0 0.49272830291620878 0.32528628960011152 0 0.58612580217118482 0.27813894450229909 0 0.49255105193724569 0.22337579986912359 0 0.49255105193724569 0.22337579986912359 0 0.5565830077206213 0.19095699352548859 0 0.50264032148191051 0.12292784096123539 0 0.58612580217118482 0.27813894450229909 0 0.49255105193724569 0.22337579986912359 0 0.5565830077206213 0.19095699352548859 0 0.58612580217118482 0.27813894450229909 0 0.5565830077206213 0.19095699352548859 0 0.64669
[...]
<PointData Scalars="A_conc," Vectors="" Tensors="">
<DataArray type="Float64" Name="A_conc" format="ascii">
2.9495643130551149e-06 -1.1129112973512256e-06 -5.8222358074226365e-07 2.704714594128859e-06 -1.1025253539911171e-06 3.0463533244091261e-06 -1.3704561965784974e-07 1.6822192631908584e-07 1.1083737119501774e-07 -5.6156425803398088e-08 -1.5160305874051248e-07 2.0775948454391057e-07 -2.3070873276617871e-07 1.6212735978900556e-07 1.3288719900697545e-07 -1.2693128106561191e-07 -1.4509633441979777e-07 2.7202761548540966e-07 -7.1697641798501756e-07 3.3672034043078581e-06 -5.7416053337911101e-07 3.0148287584085484e-06 3.1318643462785922e-06 -1.010698090457035e-06 -2.7842119288301513e-07 2.4224638177100014e-07 1.4232072361746298e-07 -1.3120003975960839e-07 -2.6534672760383461e-07 3.9654676736344295e-07 6.2053418197793113e-08 -1.3632388046888217e-06 3.0752579423508916e-06 3.0145514925065178e-06 -7.9035090338317428e-07 2.8503865859868635e-06 1.6045697352338116e-07 3.1547485604643397e-07 3.1043621387539912e-07 2.264264984268897e-07 2.4756436449428478e-07 1.5200944683121177e-07 1.8826340887515539e-07 2.0932160605743378e-07 3.5215688127389267e-07 2.0181408008537161e-07 1.9850323271743268e-07 9.0485890596992347e-08 2.5447847187196383e-07 1.8212940495636135e-07 1.5314291874831412e-07 2.3220860149143218e-07 1.3641806101100363e-07 2.1561013008096505e-07 1.9082780687021735e-07 1.1822051592088429e-07 1.4256680743770279e-07 2.1485067444561835e-07 1.1719150763782978e-07 1.1043787183442206e-07 1.4593737942714624e-07 1.3459595150439275e-07 7.0641688138166199e-08 1.5975274741098472e-07 6.6023121318118494e-08 8.6862326281192113e-08 1.544906978691675e-07 7.6221045268792098e-08 1.1329865449538185e-07 1.5796593942689488e-07 7.615479079889788e-08 9.3793524449627554e-08 1.2195666868004003e-07 7.4641396035385774e-08 1.3507694269384237e-07 8.7454686089396344e-08 1.2864929964602168e-07 8.5769521638147147e-08 8.4292158388049578e-08 1.4184728832465785e-07 8.2841790527804786e-08 1.0009235697836283e-07 1.5404125923036748e-07 1.7716835525576595e-07 1.0388462598812507e-07 1.3924842364209521e-07 1.8000385934817172e-07 1.0269368095474863e-07 1.1637455538759606e-07 1.6790532049493733e-07 1.3759336952393646e-07 9.4998908650940479e-08 1.605322223549997e-07 1.2640117083963928e-07 7.4460331318046184e-08 1.3246271906119562e-07 1.3394204755487303e-07 8.6224467075576718e-08 8.4336653461013492e-08 1.277722901662695e-07 6.5432372541186422e-08 1.6086349162341642e-07 1.1906692615482512e-07 6.8008419272114463e-08 1.6166500704042791e-07 9.4975990975532272e-08 1.4058008685966295e-07 1.8175276626875813e-07 1.0366390027360861e-07 1.8534101795639721e-07 1.0998556598136014e-07 1.1948996137358098e-07 1.6248496926561742e-07 1.950071653211489e-07 1.3100916263531032e-07 1.6475196294633339e-07 2.7051494534069555e-07 1.5469414191380853e-07 2.5679425235139101e-07 1.8474611888671095e-07 1.0761040798080646e-07 1.8538549250446866e-07 2.1408159559202956e-07 2.0649233078800288e-07 2.1256482119933164e-07 3.3065606565316425e-07 1.9905807571976158e-07 2.4271476629174844e-07 3.2670490443167465e-07 2.3391746522008476e-07 1.5795814723911414e-07 2.7593918205043638e-07 1.3839722155619566e-07 2.4529657051243286e-07 2.5110590202965376e-07 1.2612247923174235e-07 1.50266514790501e-07 2.3521241790243079e-07 1.5997350194525403e-07 1.2325989568926874e-07 2.3528186710383845e-07 1.3386952498392481e-07 1.9872335256292225e-07 2.2333622881719255e-07 1.1508520491940675e-07 1.5768356290534965e-07 2.1831023424774989e-07 1.6806810418759435e-07 2.8270345447751889e-07 1.9357201106430192e-07 2.5240741372976389e-07 1.5824573921863247e-07 3.3002797554466724e-07 1.9150372782335161e-07 1.7429747995119442e-07 3.3749221485903516e-07 2.4554951755842698e-07 3.2927642861447688e-07 4.2071335333986488e-07 2.0814518969318433e-07 2.8995245358970686e-07 3.7002068225809085e-07 2.7628201087756401e-07 3.7058418805920842e-07 5.0206317817753723e-07 3.2047454139879287e-07 5.1125010693073446e-07 4.5918123064848946e-07 3.5093198179338666e-07 5.3414211056051555e-07 3.3034346785516701e-07 2.2938365641580983e-07 4.1148323837632983e-07 3.9174251652638043e-07 1.7660625192183109e-07 3.7158778859506953e-07 2.9987600375113777e-07 1.8687180805030309e-07 3.7518197578302237e-07 2.657008759535538e-07 2.0697930559392593e-07 3.6799966727270403e-07 2.9419853138536605e-07 2.6195873341817514e-07 4.2557582658781252e-07 4.9335137466726398e-07 3.1658481395214331e-07 2.3965005213981759e-07 4.7153665269500835e-07 3.1518090625890525e-07 2.394868849458709e-07 4.6943231916087314e-07 2.651899009609023e-07 4.2833110710017066e-07 4.7096596810296392e-07 3.4201091188085947e-07 3.866049885574684e-07 6.9070723766500695e-07 3.4259527529378641e-07 6.6990630803090087e-07 5.0782100188639137e-07 3.4272436023042258e-07 6.6846224201400397e-07 4.1384558356796622e-07 2.8307260377562026e-07 6.2850876035318183e-07 6.5272682160426071e-07 4.2119405942679961e-07 8.3332078563460242e-07 8.9608911562689649e-07 4.9772391873441405e-07 5.2340570900812135e-07 9.4301029214314388e-07 5.0162479554176285e-07 6.3448656310978753e-07 8.9774634449683964e-07 4.4059076990622079e-07 3.8674116914325316e-07 6.7631860331023177e-07 6.177504229722335e-07 3.4400951786756229e-07 6.4485831625030856e-07 4.5215685194678151e-07 8.8125625077912806e-07 8.2579434608473773e-07 5.0835490012724082e-07 5.3675206183319343e-07 8.9162628729908376e-07 3.6758948485992485e-07 6.1984126076964393e-07 7.0987483463106575e-07 5.0830805305139664e-07 6.0264547810413695e-07 9.1926871988821141e-07 4.2045462574284883e-07 7.3945249050402219e-07 4.1470631042495161e-07 4.659382800882547e-07 7.1086170981582905e-07 4.1804191635285092e-07 7.1464321388436471e-07 3.7027837266629473e-07 5.9223400926059354e-07 6.1794463754175261e-07 4.9037709445719865e-07 8.7017700105227554e-07 6.2497351544662142e-07 3.1144411826610403e-07 9.9537089268237028e-07 3.2529835596496283e-06 -5.3391031547711071e-07 -4.5083031300032038e-07 3.3033582105677359e-06 -1.6099371798848461e-06 3.8156854748342108e-06 -4.525990216674579e-07 2.8452417014562753e-06 -8.5491228308729103e-07 2.7916432530520025e-06 -8.6648181008974374e-07 2.489293405680406e-07 7.3778793135090437e-07 4.2618339976552785e-07 3.3924309665239327e-07 4.1333116453535256e-08 -2.8977207911963706e-08 4.4865202404939427e-07 7.9334801662207825e-09 -1.2284547243211839e-07 4.9542270313759154e-07 2.7972929240154156e-06 -8.6639883479068989e-07 3.3723953808568482e-06 -4.9200319018020641e-07 3.6969263410938935e-06 -5.3766715420508756e-07 4.0245851708888812e-06 3.6196033996762959e-06 -1.576093447932054e-06 -1.3507593610256623e-06 3.1612765862570081e-06 -6.0971991566323145e-07 1.4205398173643066e-07 -1.2943199921783664e-07 4.7484292454409823e-07 1.3447493379730154e-07 3.1873532900140142e-07 4.1855299059064311e-07 2.3184988952058292e-07 4.0222455157587827e-07 3.8520969928146647e-07 2.6369709857413886e-07 2.5821032831297778e-07 4.1956197352475728e-07 5.0969628385666491e-07 5.0430136913793484e-07 2.921091766195917e-07 5.4794054378975921e-07 5.0036200069330464e-07 2.6041548527500675e-07 5.5837975689063732e-07 3.3895464372839461e-07 3.2053669932667814e-07 3.8149851911731912e-06 -7.9886766803905469e-07 -1.5770577287327052e-06 3.6318885688038067e-06 4.0400686106911593e-06 -1.5463442968386605e-06 4.3928409660493272e-06 -3.181249744048749e-08 -1.0846429661354422e-06 4.0415366968359075e-06 -5.79377817278401e-07 3.938804324767031e-06 5.4359351369791179e-07 4.3182214464852877e-06 -2.1686378564832064e-06 3.9949315396751749e-06 3.9325706726051548e-06 -2.5700486518557281e-06 4.3517197720668473e-06 -1.6386770161856185e-06 -1.9026316885933402e-06 5.7979084710139978e-07 -3.1066302512883246e-07 4.4636682951666938e-07 7.0128667104312625e-07 -4.0102459538189695e-07 1.0111362213058881e-07 -2.513122065894507e-07 2.2972150246797267e-07 4.9491986582910123e-07 -1.3597268995951673e-07 -8.9085584849299337e-08 3.3918826735467283e-07 1.0058399018309088e-06 -7.6916467149174322e-07 -2.3667523033916547e-07 5.0264064593167495e-07 -7.2102163864456306e-07 2.1838099271288813e-07 -2.1340103853062323e-07 -7.1252383825914981e-08 2.8465342235653827e-07 -1.5979763965398191e-07 -3.2216378599539989e-08 1.9201401825352183e-07 -2.3648711437566897e-07 2.3089162677101954e-07 8.7471335872870576e-08 9.6726540831482099e-08 1.3068940882466009e-07 2.1768624003214078e-07 -1.2879934787192624e-07 7.1068480591573798e-08 2.9210182017902186e-07 9.9552218237105103e-08 2.8093840990107357e-07 1.8887493834564843e-07 1.123274051772888e-07 1.0796141531825028e-07 1.6828554834009983e-07 3.0566268743882739e-07 1.1493775636535016e-07 1.1186134048823965e-07 1.4661617151789633e-07 1.8125267083838099e-07 5.6344895716894444e-08 1.3364633910600098e-07 6.9018814616781524e-08 1.2966135662443264e-07 8.5693659694849959e-08 8.1579439979041573e-08 1.3932952205346557e-07 1.7218978747717866e-07 9.2785424429533024e-08 1.7732848286076493e-07 1.1301997141765907e-07 2.6126842507088746e-07 2.3104056831210113e-07 1.4001614059417313e-07 1.4542333186625183e-07 2.5104848095221263e-07 1.3055078099403386e-07 1.9902181743005974e-07 2.4119510398241564e-07 2.7807278737249375e-07 8.1802534151091234e-08 2.8228262497020477e-07 2.8094611410692507e-07 1.6796981604812117e-07 2.1217798434949133e-07 2.5146142538019506e-07 1.8007078031719718e-07 3.1944499642380745e-07 1.7118799218214015e-07 2.8814206626619219e-07 3.1388545948729658e-07 2.2467775969590379e-07 1.9263437606895636e-07 3.0228005799850915e-07 3.2902554363784652e-07 2.1302248456440685e-07 4.3475246022919169e-07 2.3258098527958187e-07 2.5942555833270048e-07 4.4395943373702779e-07 3.3026814301621294e-07 6.1452031044238687e-07 3.5459613000642909e-07 2.1186970037050415e-07 4.1108766001574215e-07 4.3425451199098791e-07 2.7453196547680188e-07 4.7411918540921943e-07 3.85434060926178e-07 2.8132002460158743e-07 5.4848049536789414e-07 5.8492463385986041e-07 4.1553203119073353e-07 3.2385605064096424e-07 5.7527926218356101e-07 4.5572095726891458e-07 7.4594097671740272e-07 4.940435147097155e-07 5.9777873234217077e-07 4.2839698893992968e-07 7.2522917107988759e-07 7.8035935467909937e-07 4.0039098888034319e-07 7.6555957332989077e-07 6.8534134099884387e-07 7.9211306932907863e-07 4.2056987898288766e-07 5.777641747072191e-07 3.5706783865322043e-07 3.7361476416183506e-07 5.831723338371937e-07 5.2610701168823878e-07 3.0759214399382239e-07 4.8107279438987235e-07 4.2153718443606188e-07 8.2505684504834451e-07 3.958136858197197e-07 8.1258060070936573e-07 5.6902767120034804e-07 7.7899789770589605e-07 7.6319134470325175e-09 5.5247903227694077e-07 7.36613479464383e-07 4.7955906038231527e-07 7.9501534208476595e-07 8.6145098484876523e-07 1.9332081125113663e-07 1.0384361605887069e-07 5.2077460223030862e-07 7.2665721545902249e-07 2.7524756828239252e-07 4.9326738137280699e-08 8.8468285565695053e-07 -6.3461415482425837e-07 4.2113054222989186e-07 4.3819305207266483e-07 2.5000657028231529e-07 2.3677258512356747e-07 4.5860161165738583e-07 3.0534707761694942e-07 2.16674217678887e-07 2.8664956431619152e-07 3.5310946583996137e-07 3.281805360891786e-07 5.7083069898707838e-07 1.358818229276913e-07 4.3218667309990486e-06 -1.0034055057489696e-06 -2.0345061451659231e-06 8.8348362930416075e-07 -6.2174638096951107e-07 2.5743952086406605e-08 4.8561178285788224e-06 -1.9174408380285909e-06 4.3677152530411741e-06 -1.9709604102157258e-06 -5.4380305838287622e-07 4.6110656846010142e-06 -2.445895522249382e-06 4.2107549544691845e-06 3.6962374246403617e-06 -1.3615528870557467e-06 3.7350769569397677e-06 -4.5741961597555364e-07 4.4259157112681454e-06 3.3243730603370624e-06 -1.3568378626750867e-06 3.0914534905340268e-06 1.8975887639626062e-07 -4.3502762126998826e-07 2.2149637516252165e-06 6.9153857994349977e-07 6.7072729933217733e-08 2.8413902938466584e-06 2.4459261082896116e-06 -7.249435591495862e-07 2.1179844233849068e-06 2.0292360706237895e-06 3.3380861574197196e-07 1.6781102789308624e-06 2.1701061767102169e-06 1.3054164630703947e-06 1.8084402643761685e-06 1.4386212052906799e-06 2.2736606932536021e-06 1.6334472017476808e-06 2.1918905773022664e-06 1.0410250803824633e-06 1.3908053229655641e-06 1.9846016167543298e-06 2.2360029798701825e-06 2.0853738085476265e-06 1.1467214284141811e-06 1.4012957888185011e-06 2.1445528801609095e-06 1.9630075744141286e-06 9.6349423826827336e-07 1.3748073303304086e-06 9.495691933772413e-07 1.6194677092091396e-06 1.5703349796333155e-06 1.636245182937202e-06 1.0638293576369992e-06 1.7404320032524372e-06 1.2355159425868216e-06 8.7751868302879782e-07 1.4300311041905407e-06 9.4628001285321191e-07 7.850712618959321e-07 1.1197265102342375e-06 5.791672156562109e-07 9.6588973677522274e-07 6.1431145315268386e-07 6.7630920755470423e-07 1.0778950377941099e-06 5.5183614281456001e-07 1.0714838897590586e-06 9.3549326984159353e-07 1.259244342451659e-06 9.3658364206450729e-07 7.9382766086192219e-07 1.5275860878799491e-06 1.1226479974704722e-06 7.7807575741018444e-07 1.0751586589216687e-06 9.5561816704413163e-07 1.5091525173668526e-06 8.4806422943626445e-07 7.6949624828782407e-07 1.1903851335940664e-06 1.2233008807059423e-06 7.4958702825906645e-07 1.1079561473122783e-06 6.0385691495207301e-07 9.6326988752581887e-07 8.8730959968288691e-07 6.6146176328150561e-07 6.4591798740026548e-07 1.007556534316734e-06 7.9605343037396583e-07 6.812397123318261e-07 1.2246941823650123e-06 5.7742232718753941e-07 6.8935686390125791e-07 9.5450972760112949e-07 5.4383006087479792e-07 9.2890153061351131e-07 8.1859999288145018e-07 6.9556056726696314e-07 1.1403936202793018e-06 1.1461550689787455e-06 9.7785059253149233e-07 1.5185159221596033e-06 9.8377913696234963e-07 1.3916624444666282e-06 8.3526612453133552e-07 1.6745213723940269e-06 1.1667765611008774e-06 1.9704773720278213e-06 1.4607155718493319e-06 1.1859272768075587e-06 1.3998675341605097e-06 1.9733426744753445e-06 9.4023116022044696e-07 1.3904468970372445e-06 1.5999974624532116e-06 1.6958961880207018e-06 1.5691241710572815e-06 2.588582149501823e-06 1.9593060107751453e-06 1.2369343306605169e-06 1.8367419057759512e-06 1.7509303059940196e-06 1.2202131596873721e-06 2.3390568445352261e-06 1.5042330358750803e-06 2.421045360632662e-06 2.1232759546293847e-06 2.0981448629244409e-06 3.2020676105497903e-06 1.7783500060142567e-06 2.011420125764487e-06 2.1428789130369267e-06 3.1567397889910799e-06 1.4125960071358821e-06 2.3530354078106126e-06 2.4793986466387889e-06 1.8502573867242048e-06 3.4201379917605788e-06 2.8988985369595952e-06 1.8876421018649961e-06 3.4346265049946099e-06 2.7556690844390996e-06 1.9951907468031626e-06 4.361066013757111e-06 4.3608755691383296e-06 3.564984920391054e-06 3.5648078677514842e-06 6.1764951272033123e-06 3.1613368466062729e-06 5.2306738444181464e-06 5.9280913773357736e-06 4.7594710449341853e-06 4.0651726936667043e-06 7.0768964329319054e-06 3.4333361668650789e-06 5.4443867072896023e-06 4.7893611103485896e-06 2.9043325441548255e-06 2.3580438445716222e-06 4.580808013181218e-06 3.8894288456221863e-06 3.1897717488130334e-06 5.1960897226206294e-06 2.5974392943656899e-06 4.3797809763153542e-06 3.7035128174316103e-06 3.2676980294895923e-06 5.2776611585902551e-06 3.5972441033878255e-06 3.8971376049467804e-06 4.208026848998342e-06 2.0151564605227318e-06 4.114047043059745e-06 5.095698795388131e-06 6.7093702578832619e-06 5.7875454845225764e-06 3.1087706058637743e-06 4.7359215076465716e-06 4.822926851270689e-06 5.7547414675540331e-06 3.0775869717782211e-06 4.4365375984123924e-06 2.3050122817986016e-06 2.3699056275774128e-06 3.0289980345845086e-06 4.083540984187907e-06 2.3175942384443091e-06 1.3621790778186409e-06 2.3074052257871032e-06 3.1284667615361899e-06 1.7228584845342938e-06 1.5290145405119809e-06 3.1757160646847649e-06 1.6499714612681651e-06 3.0648092165773629e-06 1.909123413108924e-06 1.4125996895002414e-06 2.892908707129116e-06 2.9554087489874825e-06 1.5379280210562129e-06 2.8375174063001904e-06 2.0191812597718215e-06 2.9321736862367878e-06 2.5812007316553517e-06 1.7230600007182931e-06 2.5282842025738937e-06 2.1593650263708336e-06 3.8998876168208576e-06 4.287928858478834e-06 2.0689094679054159e-06 3.5066608078569098e-06 3.7169947156597799e-06 2.8854214768180067e-06 5.2733148330793245e-06 5.0701905629643907e-06 3.9532291945111627e-06 7.1852677008132547e-06 1.7265380312704063e-06 9.4155960446496605e-07 9.6536415516223327e-07 1.6594504921962312e-06 1.3424635573011828e-06 8.6349225125388989e-07 1.130158422321944e-06 2.0732424482398375e-06 1.3351379558369302e-06 1.3638347087829508e-06 9.0718160649059212e-07 1.5604264629180533e-06 1.431177231513234e-06 1.0987593890779591e-06 2.0691911646695687e-06 1.1540438054549921e-06 1.8235055014890363e-06 2.4388309081967612e-06 1.2581038545044705e-06 1.4205619587708443e-06 2.4908287743290413e-06 1.198149726273436e-06 2.3399324735599771e-06 2.2395038582113162e-06 1.2565877837438294e-06 1.8856307857527374e-06 2.2827819836834314e-06 1.5192600339607816e-06 2.128309953131205e-06 1.0165977565693743e-06 2.3055550497930243e-06 7.091616427988282e-07 1.8877424799598744e-06 9.9039715876012794e-07 2.1561313982913346e-06 7.0210803603616804e-07 1.5980771285337144e-06 1.7512639352076971e-06 7.6137214062628004e-07 1.7605391716657061e-06 1.2484475851317777e-06 8.3729324690789827e-07 1.2362938222011324e-06 9.5104697355475948e-07 5.5326926942255792e-07 1.3536549083294193e-06 1.0822864022518299e-06 7.9143883502983346e-07 2.4003035709406417e-06 2.8725362333893959e-08 2.5423231212471639e-06 2.9171882534429413e-06 2.6778954955520623e-06 -8.2812433091507247e-07 5.0790463031980375e-07 2.5255716464452969e-06 -9.3766514937471111e-08 2.2531150788138713e-07 7.837253620166875e-07 9.6668482499192259e-07 1.2693116233674698e-06 6.8076257221092653e-07 6.7633439940214789e-07 6.2496537931087362e-07 1.243003243818262e-06 8.6212689131755816e-07 1.1733890835572674e-06 5.4304963573015223e-07 1.1957420764560292e-06 1.460179575356939e-06 1.0041602809369688e-06 1.0387589166218723e-06 1.1468389673969715e-06 1.1798662190793241e-06 7.4110106405530387e-07 5.1092657760175752e-07 7.7474007650864749e-07 9.9995660789964681e-07 1.2520737432551149e-06 8.5022428300372125e-07 6.8043072765164897e-07 4.9382873361544374e-07 9.9482201035017316e-07 8.3377902105605472e-07 7.6551594006220221e-07 7.0729950432319674e-07 1.0496349824009025e-06 6.132084664095738e-07 9.6763149549828731e-07 1.1952773748664348e-06 8.121702278995e-07 1.0499965984534068e-06 1.3789774053100386e-06 1.1022983541374813e-06 8.0248674879563334e-07 1.3722656594666855e-06 1.2378773268852188e-06 6.5114007798480625e-07 9.5035817843265316e-07 7.0148610234724408e-07 7.2691453792564362e-07 1.2398830586093681e-06 4.3805135907750387e-07 8.6003588027996107e-07 8.8424951674030149e-07 6.7316399004725872e-07 7.3933153929146829e-07 1.2269645312129117e-06 6.2632684122766414e-07 1.1454789337344856e-06 1.1670383326881293e-06 9.6950149072715269e-07 9.9209624330928034e-07 1.5212399731722831e-06 8.3416444548530613e-07 1.6842601138666515e-06 1.392085350450926e-06 1.4844463026444732e-06 1.1768506990651484e-06 1.9052333755376051e-06 1.1858945155681838e-06 1.9152021409618474e-06 1.4378045114229396e-06 8.239403182685664e-07 1.4039400264106733e-06 1.6439831337457036e-06 1.6959936589681693e-06 1.2010870841518302e-06 2.342650474413586e-06 1.4854808945135509e-06 2.2043299746765704e-06 2.1690669010933996e-06 1.2427353902284018e-06 1.6838036069452875e-06 2.3585374717783611e-06 1.019105924357666e-06 1.3882859073479765e-06 1.9658745272710858e-06 9.4009963555376786e-07 1.2288620148124186e-06 1.5821170779691544e-06 9.9150981857228679e-07 1.4709646900544388e-06 1.9573021838966291e-06 8.7416203782922182e-07 1.2158089634992457e-06 1.6693694148173752e-06 1.2632128981480745e-06 2.0039057670437389e-06 1.773931211604759e-06 1.1397901787240868e-06 1.8957697805130713e-06 2.3234412068588502e-06 1.7684974770169378e-06 1.5214473928437358e-06 2.5007579707991341e-06 1.9660343963577132e-06 1.1857296681745809e-06 1.804067400197752e-06 1.7169338366498296e-06 1.5490080530672826e-06 2.4720439756665999e-06 1.3864677451457498e-06 2.3641131642436158e-06 2.3980356404390327e-06 2.0156399953866025e-06 2.0509221337926139e-06 3.1750593549983406e-06 1.640987697415677e-06 2.41148