<?xml version="1.0"?>
<VTKFile type="UnstructuredGrid" version="0.1" byte_order="LittleEndian">
<UnstructuredGrid>
<Piece NumberOfPoints="3918" NumberOfCells="1306">
<Points>
<DataArray type="Float64" NumberOfComponents="3" format="ascii">
0 0 0 0.082799035591426873 0.082799035591510806 0 0 0.10000000000041601 0 0 0 0 0.099999999999928008 0 0 0.082799035591426873 0.082799035591510806 0 0 0.20000000000083221 0 0 0.10000000000041601 0 0.066361468125430589 0.15903440181097661 0 0.082799035591426873 0.082799035591510806 0 0.066361468125430589 0.15903440181097661 0 0 0.10000000000041601 0 0.082799035591426873 0.082799035591510806 0 0.140351188660986 0.16130415108589741 0 0.066361468125430589 0.15903440181097661 0 0.20669143849501961 0.085546078947938975 0 0.140351188660986 0.16130415108589741 0 0.082799035591426873 0.082799035591510806 0 0.099999999999928008 0 0 0.20669143849501961 0.085546078947938975 0 0.082799035591426873 0.082799035591510806 0 0.099999999999928008 0 0 0.19999999999983389 0 0 0.20669143849501961 0.085546078947938975 0 0.20669143849501961 0.085546078947938975 0 0.21725788110387281 0.17316968768743621 0 0.140351188660986 0.16130415108589741 0 0.20669143849501961 0.085546078947938975 0 0.29145143692666958 0.13500804559578439 0 0.21725788110387281 0.17316968768743621 0 0.29999999999973409 0 0 0.29145143692666958 0.13500804559578439 0 0.20669143849501961 0.085546078947938975 0 0.29999999999973409 0 0 0.20669143849501961 0.085546078947938975 0 0.19999999999983389 0 0 0.34318159319555042 0.3314386771104964 0 0.24783073444672249 0.24783073444648379 0 0.33604819894646598 0.23280286076243209 0 0.29145143692666958 0.13500804559578439 0 0.24783073444672249 0.24783073444648379 0 0.21725788110387281 0.17316968768743621 0 0.29145143692666958 0.13500804559578439 0 0.33604819894646598 0.23280286076243209 0 0.24783073444672249 0.24783073444648379 0 0.21725788110387281 0.17316968768743621 0 0.17318221359491059 0.27409688392309489 0 0.140351188660986 0.16130415108589741 0 0.21725788110387281 0.17316968768743621 0 0.24783073444672249 0.24783073444648379 0 0.17318221359491059 0.27409688392309489 0 0.2371857680100064 0.35865548441110112 0 0.17318221359491059 0.27409688392309489 0 0.24783073444672249 0.24783073444648379 0 0.13897501191807771 0.34545639364066222 0 0.089078158003765312 0.2493007687782936 0 0.17318221359491059 0.27409688392309489 0 0.089078158003765312 0.2493007687782936 0 0.140351188660986 0.16130415108589741 0 0.17318221359491059 0.27409688392309489 0 0.089078158003765312 0.2493007687782936 0 0.066361468125430589 0.15903440181097661 0 0.140351188660986 0.16130415108589741 0 0 0.20000000000083221 0 0.066361468125430589 0.15903440181097661 0 0.089078158003765312 0.2493007687782936 0 0 0.30000000000124832 0 0.089078158003765312 0.2493007687782936 0 0.0632094674441709 0.3449112819864934 0 0 0.20000000000083221 0 0.089078158003765312 0.2493007687782936 0 0 0.30000000000124832 0 0.083393126324559225 0.42307471369029392 0 0 0.40000000000166441 0 0.0632094674441709 0.3449112819864934 0 0 0.30000000000124832 0 0.0632094674441709 0.3449112819864934 0 0 0.40000000000166441 0 0 0.50000000000205869 0 0 0.40000000000166441 0 0.083393126324559225 0.42307471369029392 0 0.083393126324559225 0.42307471369029392 0 0.13897501191807771 0.34545639364066222 0 0.16486701364709541 0.41592657376307979 0 0.083393126324559225 0.42307471369029392 0 0.16486701364709541 0.41592657376307979 0 0.12353277228144981 0.51086097771927308 0 0.083393126324559225 0.42307471369029392 0 0.0632094674441709 0.3449112819864934 0 0.13897501191807771 0.34545639364066222 0 0.13897501191807771 0.34545639364066222 0 0.0632094674441709 0.3449112819864934 0 0.089078158003765312 0.2493007687782936 0 0 0.60000000000138687 0 0.070553891733833127 0.57745844360881338 0 0.079752623936563252 0.65630726580969023 0 0 0.60000000000138687 0 0 0.50000000000205869 0 0.070553891733833127 0.57745844360881338 0 0 0.50000000000205869 0 0.083393126324559225 0.42307471369029392 0 0.12353277228144981 0.51086097771927308 0 0 0.50000000000205869 0 0.12353277228144981 0.51086097771927308 0 0.070553891733833127 0.57745844360881338 0 0.12353277228144981 0.51086097771927308 0 0.16324260003398389 0.62262730759772122 0 0.070553891733833127 0.57745844360881338 0 0.079752623936563252 0.65630726580969023 0 0.070553891733833127 0.57745844360881338 0 0.16324260003398389 0.62262730759772122 0 0.12353277228144981 0.51086097771927308 0 0.1946526892501724 0.54636184660733622 0 0.16324260003398389 0.62262730759772122 0 0.27661118526457179 0.58730386222759956 0 0.16324260003398389 0.62262730759772122 0 0.1946526892501724 0.54636184660733622 0 0.1946526892501724 0.54636184660733622 0 0.21928696632013719 0.4676461135047027 0 0.27220668248394869 0.50912429725145214 0 0.12353277228144981 0.51086097771927308 0 0.21928696632013719 0.4676461135047027 0 0.1946526892501724 0.54636184660733622 0 0.27661118526457179 0.58730386222759956 0 0.27220668248394869 0.50912429725145214 0 0.34793494568226019 0.52426775179830853 0 0.34793494568226019 0.52426775179830853 0 0.27220668248394869 0.50912429725145214 0 0.29987747321592639 0.43430880093746571 0 0.29987747321592639 0.43430880093746571 0 0.27220668248394869 0.50912429725145214 0 0.21928696632013719 0.4676461135047027 0 0.27661118526457179 0.58730386222759956 0 0.1946526892501724 0.54636184660733622 0 0.27220668248394869 0.50912429725145214 0 0.13897501191807771 0.34545639364066222 0 0.2371857680100064 0.35865548441110112 0 0.16486701364709541 0.41592657376307979 0 0.13897501191807771 0.34545639364066222 0 0.17318221359491059 0.27409688392309489 0 0.2371857680100064 0.35865548441110112 0 0.2371857680100064 0.35865548441110112 0 0.21928696632013719 0.4676461135047027 0 0.16486701364709541 0.41592657376307979 0 0.12353277228144981 0.51086097771927308 0 0.16486701364709541 0.41592657376307979 0 0.21928696632013719 0.4676461135047027 0 0.2371857680100064 0.35865548441110112 0 0.29987747321592639 0.43430880093746571 0 0.21928696632013719 0.4676461135047027 0 0.2371857680100064 0.35865548441110112 0 0.34318159319555042 0.3314386771104964 0 0.29987747321592639 0.43430880093746571 0 0.34318159319555042 0.3314386771104964 0 0.2371857680100064 0.35865548441110112 0 0.24783073444672249 0.24783073444648379 0 0.38593969585746768 0.44843324941957241 0 0.34318159319555042 0.3314386771104964 0 0.42544665781957403 0.3726599289372452 0 0.38593969585746768 0.44843324941957241 0 0.29987747321592639 0.43430880093746571 0 0.34318159319555042 0.3314386771104964 0 0.38593969585746768 0.44843324941957241 0 0.42544665781957403 0.3726599289372452 0 0.47711113382803011 0.43513410852522788 0 0.47711113382803011 0.43513410852522788 0 0.42544665781957403 0.3726599289372452 0 0.49272830291620878 0.32528628960011152 0 0.42544665781957403 0.3726599289372452 0 0.41589935411558732 0.26752529264016389 0 0.49272830291620878 0.32528628960011152 0 0.42544665781957403 0.3726599289372452 0 0.34318159319555042 0.3314386771104964 0 0.41589935411558732 0.26752529264016389 0 0.27661118526457179 0.58730386222759956 0 0.34793494568226019 0.52426775179830853 0 0.38240158409674341 0.60644575028138747 0 0.27661118526457179 0.58730386222759956 0 0.38240158409674341 0.60644575028138747 0 0.32437633398017029 0.65970549827478953 0 0.38593969585746768 0.44843324941957241 0 0.34793494568226019 0.52426775179830853 0 0.29987747321592639 0.43430880093746571 0 0.38593969585746768 0.44843324941957241 0 0.47711113382803011 0.43513410852522788 0 0.45232393232070839 0.53082724112931345 0 0.38593969585746768 0.44843324941957241 0 0.45232393232070839 0.53082724112931345 0 0.34793494568226019 0.52426775179830853 0 0.38240158409674341 0.60644575028138747 0 0.34793494568226019 0.52426775179830853 0 0.45232393232070839 0.53082724112931345 0 0.38240158409674341 0.60644575028138747 0 0.45232393232070839 0.53082724112931345 0 0.46433624429412901 0.61260020600107856 0 0.56379254693201075 0.58472273515948836 0 0.46433624429412901 0.61260020600107856 0 0.45232393232070839 0.53082724112931345 0 0.5174764925733939 0.65338828204098198 0 0.46433624429412901 0.61260020600107856 0 0.56379254693201075 0.58472273515948836 0 0.55763912874459476 0.49619993861770217 0 0.45232393232070839 0.53082724112931345 0 0.47711113382803011 0.43513410852522788 0 0.55763912874459476 0.49619993861770217 0 0.56379254693201075 0.58472273515948836 0 0.45232393232070839 0.53082724112931345 0 0.64897033023755402 0.45530630145656431 0 0.66278242936710119 0.53985356489900171 0 0.55763912874459476 0.49619993861770217 0 0.56379254693201075 0.58472273515948836 0 0.55763912874459476 0.49619993861770217 0 0.66278242936710119 0.53985356489900171 0 0.65500944633069913 0.60601350811213128 0 0.59670004617370476 0.65981579440137683 0 0.56379254693201075 0.58472273515948836 0 0.56509579243166053 0.39588847936247551 0 0.47711113382803011 0.43513410852522788 0 0.49272830291620878 0.32528628960011152 0 0.56509579243166053 0.39588847936247551 0 0.55763912874459476 0.49619993861770217 0 0.47711113382803011 0.43513410852522788 0 0.56509579243166053 0.39588847936247551 0 0.65823561246403328 0.35502292901158627 0 0.64897033023755402 0.45530630145656431 0 0.56509579243166053 0.39588847936247551 0 0.64897033023755402 0.45530630145656431 0 0.55763912874459476 0.49619993861770217 0 0.56509579243166053 0.39588847936247551 0 0.49272830291620878 0.32528628960011152 0 0.58612580217118482 0.27813894450229909 0 0.56509579243166053 0.39588847936247551 0 0.58612580217118482 0.27813894450229909 0 0.65823561246403328 0.35502292901158627 0 0.49272830291620878 0.32528628960011152 0 0.49255105193724569 0.22337579986912359 0 0.58612580217118482 0.27813894450229909 0 0.49255105193724569 0.22337579986912359 0 0.50264032148191051 0.12292784096123539 0 0.5565830077206213 0.19095699352548859 0 0.49255105193724569 0.22337579986912359 0 0.5565830077206213 0.19095699352548859 0 0.58612580217118482 0.27813894450229909 0 0.64669101990832323 0.1799054750174742 0 0.58612580217118482 0.27813894450229909 0 0.55658
[...]
<PointData Scalars="A_conc," Vectors="" Tensors="">
<DataArray type="Float64" Name="A_conc" format="ascii">
1.3775707008475229e-05 6.9961206274144585e-06 2.8038577796947201e-06 1.2867864854488859e-05 1.6759023190372332e-05 5.851171536381081e-06 6.0434113865755691e-06 4.8731830283998835e-06 7.69390993172753e-06 7.0580613742956332e-06 7.3297219173668577e-06 4.5564337055739647e-06 6.3210740953982453e-06 9.3775950938815636e-06 6.5804044661445458e-06 1.0666566617983089e-05 8.6366170562753726e-06 5.5087215075578301e-06 1.6176465618113245e-05 1.0618957230870109e-05 5.4126283848067389e-06 1.4850957760992135e-05 1.937939282689908e-05 9.3805579666582452e-06 9.8425086667394361e-06 1.1557433778620868e-05 7.7168221896109872e-06 8.828395253474516e-06 1.2950783089771843e-05 1.0569727656448412e-05 2.2394981182759376e-05 1.0249086363985926e-05 9.2956374267011862e-06 2.265428745037875e-05 8.4760549081443018e-06 1.7770692426126606e-05 1.6960117610375466e-05 1.0529334714698954e-05 1.6528110389744188e-05 1.4372404766814601e-05 1.2446517624273177e-05 1.0257804095484948e-05 1.3319801885473569e-05 1.7006419648441515e-05 1.1343751070802069e-05 1.1928820084015141e-05 1.0196585414348356e-05 8.0892972405760501e-06 1.1197409562735378e-05 1.3219690418385291e-05 9.2825893096416706e-06 1.2405515414180384e-05 8.9620564045252087e-06 1.2978023471046531e-05 9.2015502962298664e-06 7.2131840894727156e-06 1.0759665580283926e-05 7.2036364781059548e-06 8.8932091016853934e-06 1.0943669681530421e-05 7.9238450795606223e-06 6.6407621617647584e-06 9.5334015969735428e-06 5.3167010417389195e-06 7.3535430914889876e-06 8.6033299569072342e-06 5.4569625401177144e-06 8.5749802510124646e-06 7.5702746155673131e-06 5.6992470224005866e-06 8.8004513625305529e-06 5.8966361194177455e-06 8.2094279551283615e-06 5.4251559694233945e-06 7.679830673869273e-06 5.956240396150446e-06 7.9965000079262857e-06 5.8757579458613384e-06 5.7411284191044864e-06 5.8032032986741405e-06 8.5018404461303999e-06 6.9004120607157981e-06 9.3707748634007602e-06 1.032910440435474e-05 7.0625348482869408e-06 1.0451681540639516e-05 8.6446682328506392e-06 7.4900503398797386e-06 6.9437501205246783e-06 9.885984259670267e-06 9.8046608200607569e-06 6.8438070759644122e-06 7.8771121270171007e-06 5.436804699403244e-06 7.8476975772771257e-06 8.1358727217925289e-06 5.9016639302216355e-06 5.7917681895042504e-06 8.1394817124177858e-06 5.073126703642758e-06 7.9576952510266552e-06 9.4675371869964737e-06 5.1691565176410414e-06 9.4987740238243197e-06 7.5606456837447468e-06 8.6901683939364494e-06 1.0541533904449016e-05 6.6561007016312128e-06 7.2824348436308407e-06 6.9855781077316027e-06 1.0674235037588533e-05 7.9216959636991475e-06 1.1227959142813454e-05 9.8298227958551137e-06 1.4646797819147064e-05 8.709469328341106e-06 1.0148668866927289e-05 9.8015554351046515e-06 1.1060154372541706e-05 1.4085980620986436e-05 7.5010930222596422e-06 1.2100452798482488e-05 1.0882103177767361e-05 1.2638789126226271e-05 1.2368107128274948e-05 1.7389743982613237e-05 1.7258435475849133e-05 1.2121905370866119e-05 1.3875827481062412e-05 1.4998219548377638e-05 1.3290538822489004e-05 1.0140377173433237e-05 1.39450477355051e-05 9.2325275048344968e-06 1.3682328583422534e-05 8.3608581853744937e-06 1.3054406443894427e-05 9.3435751657665549e-06 8.2582880607271876e-06 9.7754432642748493e-06 1.3101485202629116e-05 1.2609948278598993e-05 1.154075387153564e-05 8.790065159064595e-06 7.7702509658286869e-06 9.6343663984507739e-06 1.2256756981142106e-05 1.1575732528195515e-05 1.524276426685482e-05 1.0479929825210214e-05 1.038496994990052e-05 1.7368922265158832e-05 1.4207650640025796e-05 1.7684595488342758e-05 1.0983004114185815e-05 1.1571556966879455e-05 1.7820050615027942e-05 1.4617085689260964e-05 2.1356488803549794e-05 1.9140285516663859e-05 1.2757529554009689e-05 1.6035995212600865e-05 1.6176874286439417e-05 1.9775171928484239e-05 2.4676140813237114e-05 2.3341426930446232e-05 1.8249086455676481e-05 2.5289529162487196e-05 1.9183555294628638e-05 1.8458658638891997e-05 2.6028667078258794e-05 2.106631722143745e-05 1.4097736885697718e-05 2.0363162708741576e-05 1.1465665873794566e-05 1.6359254600059667e-05 1.9216850304491521e-05 1.1809977981414878e-05 1.9327810423887768e-05 1.4983486992560958e-05 1.906957978436097e-05 1.6184467812268174e-05 1.2712129768885551e-05 1.573358836809141e-05 2.4399928885712063e-05 2.1893461082858839e-05 1.7415095390347654e-05 2.3346759103959992e-05 1.445443344236157e-05 1.7397944332150965e-05 1.4431503112957827e-05 2.3264981775089028e-05 1.5854699640451593e-05 2.1949158565376503e-05 2.359033770639278e-05 3.2056979839383356e-05 2.1041181619377344e-05 1.9349019306465308e-05 2.5628577928752912e-05 1.9687200745326096e-05 3.1416103376696742e-05 3.119385695696608e-05 1.9404468283951037e-05 2.1996188915002928e-05 2.9987725195983277e-05 3.0889576685145148e-05 1.7635645638401367e-05 3.803692207614659e-05 4.0194350642558061e-05 2.4132038250290229e-05 2.7191123749940197e-05 2.6252852753463429e-05 4.1520424853654118e-05 4.0082576419593209e-05 3.1142449272197625e-05 2.6617789921294302e-05 3.1589378502142767e-05 2.1194479457879768e-05 2.3187602332649242e-05 3.0646652448860053e-05 2.9661458874589632e-05 1.9948377533670449e-05 2.5222582104925795e-05 3.9703897316066302e-05 3.7817775673925841e-05 2.7566843658556589e-05 3.9688625095089653e-05 2.6549605947764044e-05 2.9920770800038259e-05 2.1069150676371297e-05 3.3134711669267731e-05 2.6784020391538907e-05 3.0101190368082241e-05 4.0784463084570982e-05 2.2644150126222846e-05 2.2421001398843333e-05 3.402425126815133e-05 2.2964885300342596e-05 2.3430702905218667e-05 3.043500931238216e-05 2.1102550466023372e-05 2.8911652387597416e-05 3.3271956399360675e-05 3.8998996451647447e-05 3.0527080325274956e-05 2.6042610791346739e-05 2.7844247522255012e-05 3.9240744537195179e-05 2.6595484285385684e-05 3.8522494562474884e-05 3.7399097871355645e-05 2.4985051153792884e-05 3.014822044225776e-05 4.14275304362888e-05 2.5813883446344425e-05 2.9642751793287161e-05 2.9512947577769612e-05 1.9761504927130722e-05 3.1615653006355886e-05 2.1828024835232136e-05 1.8313133655227377e-05 3.0506240904052975e-05 2.9302246633225783e-05 2.1961035149289074e-05 1.7009915614283563e-05 1.8671319005047297e-05 2.4981507863618168e-05 2.0414122139149372e-05 1.8807964804763037e-05 1.4006561875444979e-05 2.4870726495438119e-05 3.2830545248020971e-05 1.750509523104915e-05 2.7198294483600167e-05 1.9836960066343334e-05 1.3676995179403084e-05 2.8561942246651149e-05 1.3183728577483821e-05 2.2327513894249062e-05 2.123527692907415e-05 1.5747275206345008e-05 8.9420607399725373e-06 2.0235430262724268e-05 1.1434511481878098e-05 1.557916539801369e-05 2.0431039609441366e-05 1.5596376490403226e-05 1.1773696429416923e-05 1.3950792614537921e-05 1.9247436697408334e-05 2.0758142654294271e-05 1.4812980827514747e-05 2.1257288777540488e-05 1.526073183093207e-05 2.5076839587442191e-05 2.5293629918206951e-05 1.7265854644334315e-05 1.593674208367471e-05 2.5668609644911961e-05 2.5223173602229342e-05 2.6173945504585533e-05 1.8836945235141139e-05 1.7280706282432435e-05 1.5963375856828719e-05 1.6785896653132002e-06 6.2954964582774352e-06 1.9299440102918606e-05 1.5396889372283914e-05 4.846180601240203e-06 1.9076865209439973e-05 4.8606621068378768e-06 1.0197449229308098e-05 1.7883626564207969e-05 8.8190559377242722e-06 2.1645160249130968e-05 2.1322179299081364e-05 9.8822462681550059e-06 6.8454632788852095e-06 2.4782396534572516e-05 1.9766556733183152e-05 5.2252358077825055e-06 2.4379882203014496e-05 5.7967961336246745e-06 1.0653980057988428e-05 9.5810405485604558e-06 1.149725773791543e-05 1.6034128612319365e-05 8.4759249931204336e-06 1.5572460592995025e-05 1.5070826069475161e-05 1.0724619349937494e-05 8.7050026653489584e-06 1.2630074877554917e-05 1.1367189645708584e-05 7.392645320228246e-06 9.4438808979292696e-06 8.8640523244067366e-06 9.8657697958078131e-06 5.6048683459661895e-06 6.7565733582186276e-06 6.3088112315833756e-06 1.0525886651449813e-05 6.0164784270015523e-06 6.9343053429266904e-06 7.7973472079053187e-06 6.6464108009374467e-06 4.4350626297148221e-06 7.5587011567394188e-06 6.1864629539553004e-06 7.9683999467322103e-06 4.5605412114410334e-06 5.4233784083137749e-06 8.7114634492342658e-06 7.8996940902151806e-06 6.6106494357100429e-06 1.0301696496591633e-05 8.2828794952335428e-06 7.9071178718148942e-06 1.0562990953886326e-05 7.0752236200245624e-06 7.5674069270456915e-06 7.1850204176752052e-06 1.0681134799612038e-05 7.1241681247164648e-06 1.0175271245500475e-05 1.0189066478841798e-05 5.9600578235152077e-06 5.7422669016171323e-06 8.8697267981771239e-06 8.4380110472398419e-06 5.3188927321365793e-06 8.0682656889717623e-06 5.8172599190798398e-06 8.4315425238758582e-06 5.8317277747616179e-06 6.6450184350791128e-06 1.0161359843664243e-05 1.0408763531156077e-05 1.4316672631577377e-05 1.3055061585147383e-05 8.0693371016010027e-06 1.3774043688948671e-05 9.2576423069620203e-06 9.001936614632002e-06 1.1540189973717971e-05 8.7202904999146081e-06 1.3438577037797521e-05 9.3342202916358367e-06 1.2427912076133215e-05 9.3373187850845951e-06 1.0483630673529979e-05 1.2443566877620822e-05 1.5110651367816488e-05 1.1359650176368352e-05 1.6975998025769438e-05 1.4099225636639085e-05 1.1021917857883219e-05 1.5752011055978806e-05 1.676019276245063e-05 1.3054464853952874e-05 1.620901011672085e-05 1.1740212428099026e-05 2.1875126983515943e-05 1.3294647151879047e-05 1.7815628966048336e-05 2.2191083802397471e-05 1.4982498262952466e-05 1.3944278537270286e-05 1.9501743598148553e-05 1.8643866767391257e-05 2.9071208058468932e-05 2.1952245831824033e-05 1.3478513839227226e-05 2.1123550293979239e-05 2.0309113668161504e-05 1.6113000082939887e-05 2.3638725768243396e-05 2.6914731625591091e-05 2.8167284823731145e-05 1.715861548147472e-05 2.7684607212675528e-05 1.8445871193139477e-05 2.1837961555205096e-05 2.4200925696337169e-05 3.4381838307358767e-05 2.5498224884093727e-05 2.3344297502134241e-05 2.9309983481213874e-05 3.3707058968988175e-05 3.5900553797281726e-05 3.5422312320798741e-05 2.285078470111481e-05 3.6260172038840979e-05 2.3430510147457309e-05 3.2648184669457917e-05 2.1212757777101315e-05 1.9463966444685286e-05 2.7019997064957704e-05 1.8114440732923647e-05 2.8064935731317183e-05 2.6074020112434089e-05 3.7154806247369903e-05 2.3038482225936688e-05 2.5088573058405749e-05 3.6728034522397383e-05 2.9111504510414354e-05 2.2187740554981266e-05 3.8628173388308279e-05 2.4826483189769902e-05 2.8360979892081423e-05 3.8257378304177931e-05 2.6458632890807432e-05 3.4380329511690197e-05 1.8064882864091968e-05 3.1573263834273416e-05 2.8129900196846286e-05 1.9113181969386406e-05 2.5121927650044259e-05 3.1839789796310605e-05 1.4122850832560274e-05 1.6899014946051651e-05 2.2632415310073163e-05 2.3077547902731702e-05 1.5016299035056133e-05 2.1385800943025569e-05 2.2582670768465909e-05 1.6692185074203408e-05 1.4354294892279783e-05 1.2955932363641337e-05 1.5929572115796174e-05 1.821309102349837e-05 1.3564801494869105e-05 1.8798216841675965e-05 1.4012241840148572e-05 2.2973134670654713e-05 9.1651466650470551e-06 1.5754154991463849e-05 1.5762379875921669e-05 1.2828282489336044e-05 1.8533898181481532e-05 2.9653217900242363e-05 2.3867439319843691e-05 1.3717691731787302e-05 2.7927818411779416e-05 1.4431022783094331e-05 1.8480813306648898e-05 2.576746111026534e-05 1.6379345281355367e-05 3.3895100415347491e-05 3.168573118977441e-05 1.6145783072434765e-05 2.8096765567903359e-05 4.0904798437126982e-05 3.1137788284895336e-05 2.4693972432946228e-05 3.7788399080935688e-05 2.4733090198780182e-05 3.6323998021673446e-05 4.5502737741279808e-05 3.1326187960926776e-05 4.8867857428180016e-05 3.4363094456094065e-05 3.3060187384121849e-05 4.8957057424524932e-05 6.1031016322612376e-05 4.1516061489796057e-05 4.4554996902130067e-05 7.6906507583394233e-05 4.9883467885915745e-05 6.8941475787356199e-05 7.0906799163621416e-05 6.3831990940673613e-05 8.654266426882068e-05 5.1029641265413968e-05 8.463567446285974e-05 6.7587513194882344e-05 7.9948842921668203e-05 8.5566560837733581e-05 6.2061232856164053e-05 6.0245029833511628e-05 8.0218357232053085e-05 5.3317504727500034e-05 4.902102839623319e-05 7.7177202525871517e-05 8.3285849782644141e-05 6.5497332833763818e-05 5.8759232349870976e-05 4.5336373317291523e-05 5.2551947931632188e-05 5.6145262555374237e-05 7.2041081962459941e-05 5.7283192474359171e-05 4.2082570752763155e-05 6.0728960531059556e-05 6.2806538433135556e-05 4.4746539159692147e-05 3.9986588766457523e-05 3.1864551931558445e-05 4.4880908363221695e-05 4.9490713152264295e-05 3.4995745720270608e-05 3.1017929189890583e-05 4.7524111050336584e-05 2.9643138701655854e-05 4.2030210611362391e-05 4.6748539235327689e-05 4.3221242394092833e-05 3.8347517647385681e-05 5.3100396875542944e-05 6.2539386953724561e-05 3.9179708894418595e-05 4.9548930867932243e-05 4.4835940460104893e-05 6.1835914619503662e-05 4.8398603561509643e-05 3.7358741487639379e-05 5.0824429769284796e-05 3.9792254829251729e-05 4.8683285152887239e-05 5.2158587728717681e-05 3.7258444609966771e-05 4.0467327428487417e-05 4.2844375565265483e-05 3.1071166619387878e-05 3.213252408314099e-05 3.2626922392704103e-05 4.4040697482624125e-05 3.4207503382577036e-05 5.1755990466303364e-05 3.7951166778238121e-05 2.9651137859282812e-05 4.2279420074677767e-05 3.3394635156035866e-05 3.7857370103754359e-05 4.1500304817873334e-05 2.8681804770394353e-05 4.9654384835093421e-05 4.9511976157897367e-05 3.5369131147120175e-05 4.5534637424222361e-05 6.202095534212841e-05 4.5388502902923074e-05 4.1920321790559197e-05 6.7346207997597175e-05 5.8842094111215704e-05 7.7000561542395186e-05 5.3474411421060208e-05 6.2138046559640495e-05 7.7060930546430815e-05 6.0215855345367822e-05 5.3973545105440786e-05 6.5059048847446841e-05 4.5113253746553771e-05 5.8887679248220706e-05 9.6176626140678987e-05 7.119020930372183e-05 6.7687535856923386e-05 7.3797326060133048e-05 7.7219380446173555e-05 5.6439072361872007e-05 8.8525592790389662e-05 7.1845837734808431e-05 5.6573909840734114e-05 6.6276239895388074e-05 8.3545683393454701e-05 9.1802776021000619e-05 7.5919241166407065e-05 0.00011441902821581104 8.4698694188118563e-05 8.6270761038117601e-05 8.2747833497720386e-05 0.00011342737288122874 9.3653708079446198e-05 6.4138301100675793e-05 9.0224137210141356e-05 8.0111696045820582e-05 0.00010788883789643752 0.00012143068261724519 8.0917232821579464e-05 0.00012170481485016321 0.00010377875734233577 8.9324521050736249e-05 0.00014872616337228875 0.00014860520353826977 0.0001955136563933376 0.00013306161210253765 0.00013318859628903154 0.00019056193547970505 0.00017435166756131325 0.00012541305718861178 0.00021910793767806506 0.00014939330167347182 0.0001657451961180749 0.0001306797784691879 0.00017849363842880526 0.00016290066668516964 9.6751946172316395e-05 0.0001532452902421269 0.00011072702794881972 0.00013937283264270288 0.00017079107548134443 0.0001220139716970545 0.00010448542141056839 0.00014903858835304816 0.00013206475427285711 0.00013315694386599136 0.00012335754858175141 0.00017208295855992536 8.8603416147123439e-05 0.00013576098238358964 0.00014522279091860619 0.00017492267410322405 0.00015007227670301828 0.00021009258062218566 0.00015708852028550624 0.00012462194542217067 0.00018814683693591997 0.0001231401915160832 0.00016308166253684055 0.00018712738792192246 9.5769223367625893e-05 0.00015006931876780123 9.4720840042930048e-05 9.4750776346353577e-05 0.00011322606371517221 0.00013982309896929982 8.9915687578828762e-05 0.00011193374107077385 6.3825654547113551e-05 0.000113242746912567 7.3757858726545444e-05 6.739117528335015e-05 0.00011077897611318354 7.818347756166039e-05 7.2441301009891539e-05 0.0001082018982881429 0.00010718544265781285 6.6804967019829087e-05 6.5336905490304738e-05 8.1118345228522911e-05 0.00010070937940481549 9.4596698403490083e-05 7.4334490672768458e-05 0.00010779163701951205 8.6000656391582177e-05 9.9576482619224732e-05 0.00013087386026069262 0.00014768102429226098 0.00012204438483108475 8.968855049144606e-05 0.00016820036164112335 0.00011016456925879762 0.00013675570966309615 0.00014321814972565676 0.00017543537801504992 0.00021716203377292501 4.4404101846602648e-05 6.854703542128165e-05 4.5301184616090297e-05 5.7352488543808533e-05 4.2654745727763532e-05 6.672934696880173e-05 5.2326920506571439e-05 8.0057366179352597e-05 5.8309987029233804e-05 6.3766065036289761e-05 4.3962597360581943e-05 5.7951674782515503e-05 5.1504180964784201e-05 6.1191754485176393e-05 7.9964835532479124e-05 9.133572612500285e-05 7.4213170112255041e-05 5.4822112980541926e-05 6.1866523424287468e-05 9.2655474378381018e-05 5.7311907134221019e-05 5.6861644250270546e-05 8.6099625337578327e-05 8.9077870336465591e-05 5.8974061119029523e-05 7.3433185817198623e-05 8.8379471565147691e-05 6.5140436384744017e-05 4.9150726769858083e-05 7.9230266331754284e-05 8.0789484878816299e-05 5.06961866791253e-05 5.464926350027539e-05 6.0579333404562419e-05 5.6678524393620414e-05 4.1656064489606352e-05 6.9730330810196698e-05 6.5357179975875909e-05 4.0048274323349931e-05 7.0589794258913032e-05 4.2008166598267823e-05 5.4863666685495539e-05 5.0261082056698579e-05 3.2938706146842072e-05 4.7732647478963318e-05 4.6315315933003174e-05 4.3721436773195618e-05 5.8810248901817391e-05 6.3362666761262353e-05 4.321348854401518e-05 4.345250025643927e-05 3.5081908489545174e-05 5.0373567501955253e-05 3.4124905963832519e-05 3.2556648455633236e-05 4.7276712251604151e-05 4.78170322671275e-05 3.7378509743415169e-05 2.5614040183906396e-05 3.9396307571588655e-05 5.2291132600617618e-05 3.3031968312393114e-05 3.5500077447394542e-05 3.2379764750240906e-05 5.238745725288034e-05 4.0205432382851141e-05 5.0284751366205773e-05 5.1147691356265243e-05 3.0216771634337864e-05 4.6211174491674502e-05 6.0309032701833796e-05 4.7344684856344615e-05 4.9821154150150736e-05 5.0928009568431934e-05 3.7040904713489256e-05 3.6341004224069692e-05 4.3909589405211171e-05 2.7602203308342219e-05 3.9938093734352666e-05 5.2805895218489792e-05 3.4335076655615973e-05 4.3805638122839066e-05 3.8400466187831812e-05 2.7117715390006828e-05 3.4611217152518648e-05 3.6560199425352102e-05 4.5789231722945944e-05 5.0827390302428099e-05 3.214504934878758e-05 4.3627080298374531e-05 4.7054131597182804e-05 3.963513672612834e-05 5.7345187467809736e-05 3.9392829594356798e-05 4.8847164907692416e-05 5.7185833476058464e-05 4.316892978948504e-05 3.3561270887985836e-05 5.2358624287337248e-05 3.4830214972415083e-05 3.5575580962243689e-05 5.2245010718382418e-05 3.9088248363271744e-05 2.4835510006269613e-05 3.9807954576334251e-05 5.1728034150722211e-05 3.5963962476544544e-05 3.372753041558107e-05 5.0292335688530432e-05 3.3003829035126399e-05 4.9536753440929927e-05 4.583660161892567e-05 4.5057813365098308e-05 6.2078333029938937e-05 4.1925895296621686e-05 5.8848471303069708e-05 6.7660152338474205e-05 6.2799946799674909e-05 5.3675961871616106e-05 7.5060989963700252e-05 6.125828770951725e-05 7.5303154510075301e-05 5.3900997939140878e-05 4.146470156894486e-05 6.6274406473490848e-05 5.9155551537278222e-05 5.5768825989723462e-05 8.8516543497302791e-05 7.0159164102745299e-05 8.5515978868880955e-05 6.5349653114973332e-05 8.4431359988690243e-05 8.9110250362991155e-05 5.7191882953612692e-05 6.9856351489912429e-05 7.6607230867230952e-05 4.851790937399044e-05 5.9620008957487436e-05 6.4342664715915802e-05 5.3575441115687937e-05 4.4807824016378155e-05 7.6365151342866711e-05 6.2086578751719673e-05 4.7832376857309572e-05 4.2692439201498823e-05 5.325111456897213e-05 6.6945522931926945e-05 7.1975672036782547e-05 7.8537596092070016e-05 5.7216780954111318e-05 5.4361283480791619e-05 7.6017055895911788e-05 8.8036442324085015e-05 9.3648583453726016e-05 7.3143524513736373e-05 6.6174728921732185e-05 7.2691829576854462e-05 5.4840752327212623e-05 7.743673933599074e-05 6.6847510960549173e-05 7.1707789776055057e-05 9.2799458688841592e-05 9.1259534174359234e-05 6.3169412250816428e-05 9.0388544935208614e-05 8.3629246896811842e-05 8.273274964438832e-05 0.00011385940485121643 9.1601430435845921e-05 8.2626946190415764e-05 7.0249046110144197e-05 7.5836206774563723e-05 8.4974833503671