<?xml version="1.0"?>
<VTKFile type="UnstructuredGrid" version="0.1" byte_order="LittleEndian">
<UnstructuredGrid>
<Piece NumberOfPoints="3918" NumberOfCells="1306">
<Points>
<DataArray type="Float64" NumberOfComponents="3" format="ascii">
0 0 0 0.082799035591426873 0.082799035591510806 0 0 0.10000000000041601 0 0 0 0 0.099999999999928008 0 0 0.082799035591426873 0.082799035591510806 0 0 0.20000000000083221 0 0 0.10000000000041601 0 0.066361468125430589 0.15903440181097661 0 0.082799035591426873 0.082799035591510806 0 0.066361468125430589 0.15903440181097661 0 0 0.10000000000041601 0 0.082799035591426873 0.082799035591510806 0 0.140351188660986 0.16130415108589741 0 0.066361468125430589 0.15903440181097661 0 0.20669143849501961 0.085546078947938975 0 0.140351188660986 0.16130415108589741 0 0.082799035591426873 0.082799035591510806 0 0.099999999999928008 0 0 0.20669143849501961 0.085546078947938975 0 0.082799035591426873 0.082799035591510806 0 0.099999999999928008 0 0 0.19999999999983389 0 0 0.20669143849501961 0.085546078947938975 0 0.20669143849501961 0.085546078947938975 0 0.21725788110387281 0.17316968768743621 0 0.140351188660986 0.16130415108589741 0 0.20669143849501961 0.085546078947938975 0 0.29145143692666958 0.13500804559578439 0 0.21725788110387281 0.17316968768743621 0 0.29999999999973409 0 0 0.29145143692666958 0.13500804559578439 0 0.20669143849501961 0.085546078947938975 0 0.29999999999973409 0 0 0.20669143849501961 0.085546078947938975 0 0.19999999999983389 0 0 0.34318159319555042 0.3314386771104964 0 0.24783073444672249 0.24783073444648379 0 0.33604819894646598 0.23280286076243209 0 0.29145143692666958 0.13500804559578439 0 0.24783073444672249 0.24783073444648379 0 0.21725788110387281 0.17316968768743621 0 0.29145143692666958 0.13500804559578439 0 0.33604819894646598 0.23280286076243209 0 0.24783073444672249 0.24783073444648379 0 0.21725788110387281 0.17316968768743621 0 0.17318221359491059 0.27409688392309489 0 0.140351188660986 0.16130415108589741 0 0.21725788110387281 0.17316968768743621 0 0.24783073444672249 0.24783073444648379 0 0.17318221359491059 0.27409688392309489 0 0.2371857680100064 0.35865548441110112 0 0.17318221359491059 0.27409688392309489 0 0.24783073444672249 0.24783073444648379 0 0.13897501191807771 0.34545639364066222 0 0.089078158003765312 0.2493007687782936 0 0.17318221359491059 0.27409688392309489 0 0.089078158003765312 0.2493007687782936 0 0.140351188660986 0.16130415108589741 0 0.17318221359491059 0.27409688392309489 0 0.089078158003765312 0.2493007687782936 0 0.066361468125430589 0.15903440181097661 0 0.140351188660986 0.16130415108589741 0 0 0.20000000000083221 0 0.066361468125430589 0.15903440181097661 0 0.089078158003765312 0.2493007687782936 0 0 0.30000000000124832 0 0.089078158003765312 0.2493007687782936 0 0.0632094674441709 0.3449112819864934 0 0 0.20000000000083221 0 0.089078158003765312 0.2493007687782936 0 0 0.30000000000124832 0 0.083393126324559225 0.42307471369029392 0 0 0.40000000000166441 0 0.0632094674441709 0.3449112819864934 0 0 0.30000000000124832 0 0.0632094674441709 0.3449112819864934 0 0 0.40000000000166441 0 0 0.50000000000205869 0 0 0.40000000000166441 0 0.083393126324559225 0.42307471369029392 0 0.083393126324559225 0.42307471369029392 0 0.13897501191807771 0.34545639364066222 0 0.16486701364709541 0.41592657376307979 0 0.083393126324559225 0.42307471369029392 0 0.16486701364709541 0.41592657376307979 0 0.12353277228144981 0.51086097771927308 0 0.083393126324559225 0.42307471369029392 0 0.0632094674441709 0.3449112819864934 0 0.13897501191807771 0.34545639364066222 0 0.13897501191807771 0.34545639364066222 0 0.0632094674441709 0.3449112819864934 0 0.089078158003765312 0.2493007687782936 0 0 0.60000000000138687 0 0.070553891733833127 0.57745844360881338 0 0.079752623936563252 0.65630726580969023 0 0 0.60000000000138687 0 0 0.50000000000205869 0 0.070553891733833127 0.57745844360881338 0 0 0.50000000000205869 0 0.083393126324559225 0.42307471369029392 0 0.12353277228144981 0.51086097771927308 0 0 0.50000000000205869 0 0.12353277228144981 0.51086097771927308 0 0.070553891733833127 0.57745844360881338 0 0.12353277228144981 0.51086097771927308 0 0.16324260003398389 0.62262730759772122 0 0.070553891733833127 0.57745844360881338 0 0.079752623936563252 0.65630726580969023 0 0.070553891733833127 0.57745844360881338 0 0.16324260003398389 0.62262730759772122 0 0.12353277228144981 0.51086097771927308 0 0.1946526892501724 0.54636184660733622 0 0.16324260003398389 0.62262730759772122 0 0.27661118526457179 0.58730386222759956 0 0.16324260003398389 0.62262730759772122 0 0.1946526892501724 0.54636184660733622 0 0.1946526892501724 0.54636184660733622 0 0.21928696632013719 0.4676461135047027 0 0.27220668248394869 0.50912429725145214 0 0.12353277228144981 0.51086097771927308 0 0.21928696632013719 0.4676461135047027 0 0.1946526892501724 0.54636184660733622 0 0.27661118526457179 0.58730386222759956 0 0.27220668248394869 0.50912429725145214 0 0.34793494568226019 0.52426775179830853 0 0.34793494568226019 0.52426775179830853 0 0.27220668248394869 0.50912429725145214 0 0.29987747321592639 0.43430880093746571 0 0.29987747321592639 0.43430880093746571 0 0.27220668248394869 0.50912429725145214 0 0.21928696632013719 0.4676461135047027 0 0.27661118526457179 0.58730386222759956 0 0.1946526892501724 0.54636184660733622 0 0.27220668248394869 0.50912429725145214 0 0.13897501191807771 0.34545639364066222 0 0.2371857680100064 0.35865548441110112 0 0.16486701364709541 0.41592657376307979 0 0.13897501191807771 0.34545639364066222 0 0.17318221359491059 0.27409688392309489 0 0.2371857680100064 0.35865548441110112 0 0.2371857680100064 0.35865548441110112 0 0.21928696632013719 0.4676461135047027 0 0.16486701364709541 0.41592657376307979 0 0.12353277228144981 0.51086097771927308 0 0.16486701364709541 0.41592657376307979 0 0.21928696632013719 0.4676461135047027 0 0.2371857680100064 0.35865548441110112 0 0.29987747321592639 0.43430880093746571 0 0.21928696632013719 0.4676461135047027 0 0.2371857680100064 0.35865548441110112 0 0.34318159319555042 0.3314386771104964 0 0.29987747321592639 0.43430880093746571 0 0.34318159319555042 0.3314386771104964 0 0.2371857680100064 0.35865548441110112 0 0.24783073444672249 0.24783073444648379 0 0.38593969585746768 0.44843324941957241 0 0.34318159319555042 0.3314386771104964 0 0.42544665781957403 0.3726599289372452 0 0.38593969585746768 0.44843324941957241 0 0.29987747321592639 0.43430880093746571 0 0.34318159319555042 0.3314386771104964 0 0.38593969585746768 0.44843324941957241 0 0.42544665781957403 0.3726599289372452 0 0.47711113382803011 0.43513410852522788 0 0.47711113382803011 0.43513410852522788 0 0.42544665781957403 0.3726599289372452 0 0.49272830291620878 0.32528628960011152 0 0.42544665781957403 0.3726599289372452 0 0.41589935411558732 0.26752529264016389 0 0.49272830291620878 0.32528628960011152 0 0.42544665781957403 0.3726599289372452 0 0.34318159319555042 0.3314386771104964 0 0.41589935411558732 0.26752529264016389 0 0.27661118526457179 0.58730386222759956 0 0.34793494568226019 0.52426775179830853 0 0.38240158409674341 0.60644575028138747 0 0.27661118526457179 0.58730386222759956 0 0.38240158409674341 0.60644575028138747 0 0.32437633398017029 0.65970549827478953 0 0.38593969585746768 0.44843324941957241 0 0.34793494568226019 0.52426775179830853 0 0.29987747321592639 0.43430880093746571 0 0.38593969585746768 0.44843324941957241 0 0.47711113382803011 0.43513410852522788 0 0.45232393232070839 0.53082724112931345 0 0.38593969585746768 0.44843324941957241 0 0.45232393232070839 0.53082724112931345 0 0.34793494568226019 0.52426775179830853 0 0.38240158409674341 0.60644575028138747 0 0.34793494568226019 0.52426775179830853 0 0.45232393232070839 0.53082724112931345 0 0.38240158409674341 0.60644575028138747 0 0.45232393232070839 0.53082724112931345 0 0.46433624429412901 0.61260020600107856 0 0.56379254693201075 0.58472273515948836 0 0.46433624429412901 0.61260020600107856 0 0.45232393232070839 0.53082724112931345 0 0.5174764925733939 0.65338828204098198 0 0.46433624429412901 0.61260020600107856 0 0.56379254693201075 0.58472273515948836 0 0.55763912874459476 0.49619993861770217 0 0.45232393232070839 0.53082724112931345 0 0.47711113382803011 0.43513410852522788 0 0.55763912874459476 0.49619993861770217 0 0.56379254693201075 0.58472273515948836 0 0.45232393232070839 0.53082724112931345 0 0.64897033023755402 0.45530630145656431 0 0.66278242936710119 0.53985356489900171 0 0.55763912874459476 0.49619993861770217 0 0.56379254693201075 0.58472273515948836 0 0.55763912874459476 0.49619993861770217 0 0.66278242936710119 0.53985356489900171 0 0.65500944633069913 0.60601350811213128 0 0.59670004617370476 0.65981579440137683 0 0.56379254693201075 0.58472273515948836 0 0.56509579243166053 0.39588847936247551 0 0.47711113382803011 0.43513410852522788 0 0.49272830291620878 0.32528628960011152 0 0.56509579243166053 0.39588847936247551 0 0.55763912874459476 0.49619993861770217 0 0.47711113382803011 0.43513410852522788 0 0.56509579243166053 0.39588847936247551 0 0.65823561246403328 0.35502292901158627 0 0.64897033023755402 0.45530630145656431 0 0.56509579243166053 0.39588847936247551 0 0.64897033023755402 0.45530630145656431 0 0.55763912874459476 0.49619993861770217 0 0.56509579243166053 0.39588847936247551 0 0.49272830291620878 0.32528628960011152 0 0.58612580217118482 0.27813894450229909 0 0.56509579243166053 0.39588847936247551 0 0.58612580217118482 0.27813894450229909 0 0.65823561246403328 0.35502292901158627 0 0.49272830291620878 0.32528628960011152 0 0.49255105193724569 0.22337579986912359 0 0.58612580217118482 0.27813894450229909 0 0.49255105193724569 0.22337579986912359 0 0.50264032148191051 0.12292784096123539 0 0.5565830077206213 0.19095699352548859 0 0.49255105193724569 0.22337579986912359 0 0.5565830077206213 0.19095699352548859 0 0.58612580217118482 0.27813894450229909 0 0.64669101990832323 0.1799054750174742 0 0.58612580217118482 0.27813894450229909 0 0.55658
[...]
<PointData Scalars="A_conc," Vectors="" Tensors="">
<DataArray type="Float64" Name="A_conc" format="ascii">
7.9786601739231561e-05 8.624392426732837e-05 5.9844463780921793e-05 7.4940952002720048e-05 0.0001056674928048332 8.2011837258774164e-05 6.592047791269815e-05 6.3262811435301416e-05 8.3231751408803997e-05 8.4015218226539854e-05 8.046142239214619e-05 6.0368760044696141e-05 7.8806915563935434e-05 9.9184868651162235e-05 7.5140651724557204e-05 0.00011686665937394961 9.3500229286990933e-05 7.268089272288043e-05 9.8443674416989952e-05 0.00011849755007119328 7.480201810901771e-05 9.173018794327698e-05 0.00013021517732421227 0.00011296908136338847 0.00011136678591057705 0.00011820745076114326 8.7208078135675578e-05 0.00010379786234252238 0.00014081854596956629 0.00011076863054920554 0.00016124483514443216 0.00013259367863703938 0.00010084064908229005 0.00016439022166452741 0.00010362090865908154 0.0001199268151535541 0.00016265175247010653 0.0001122591921580218 0.00015909518633987525 0.00014198470084900901 0.00012452028719824165 0.00010838776066186557 0.00013494539905233949 0.00016170492555928664 0.00011715413185647806 0.00011997821582637131 0.00010434507774851107 8.9244940813516869e-05 0.00011477500483342946 0.00013017044462917412 9.8454925788614054e-05 0.00012439176858032637 9.6460198939389195e-05 0.00012884935752398554 9.6497267787220791e-05 7.9123023708035421e-05 0.0001089734564117643 7.9090568207774265e-05 9.5008875974708076e-05 0.00010976804710191229 8.4023356220136266e-05 7.5121150616858993e-05 9.9498038847329448e-05 6.1860179349449484e-05 8.0404864201052297e-05 8.9107034324116858e-05 6.2640821393570141e-05 8.9023295984627979e-05 8.1175338263600203e-05 6.4646785769578166e-05 9.0789656429760267e-05 6.5680800335720055e-05 8.6433145000389602e-05 6.2418446063746593e-05 8.1813027803967066e-05 6.6444748955157512e-05 8.4249062425736319e-05 6.5844695508000315e-05 6.472916803062805e-05 6.5254721667188772e-05 8.8676991294582122e-05 7.690356660569813e-05 9.7518402170455694e-05 0.00010557924308333566 7.8108749505934576e-05 0.00010651127642235538 9.1391371700825927e-05 8.11508558120435e-05 7.6416907706223453e-05 0.00010128287765696189 0.00010083285293629685 7.58323720381926e-05 8.3862992983992494e-05 6.2480559853803614e-05 8.3229235792243707e-05 8.5756199345602373e-05 6.5940924132882017e-05 6.5111287220514781e-05 8.5402189309956539e-05 5.9785387944759417e-05 8.4629872209310899e-05 9.7435665868492849e-05 6.0502333320840084e-05 9.766718649153196e-05 8.1075168557385272e-05 9.1728935714442778e-05 0.00010702827491316682 7.450436941932181e-05 7.9500969535285126e-05 7.6915378212395258e-05 0.00010803807718052415 8.6236273118116142e-05 0.00011350705394062978 0.00010189994448850234 0.00014224940017597775 9.4066699449721385e-05 0.00010594206781014098 0.00010352130308574968 0.00011378913417790054 0.00013805084952991475 8.3260771803705757e-05 0.00012106737745846407 0.00011105417513112341 0.00012840582111054368 0.00012635329520204413 0.00016571362709291753 0.00016481667145008702 0.00012467162479767546 0.00013852245938091113 0.00014611145642789725 0.0001325431395891439 0.00010746567402446054 0.00013727711582814216 9.9592100984547077e-05 0.00013527298840749263 9.0372426940197315e-05 0.00012889061946335463 9.8568573746822061e-05 8.9667125224907193e-05 0.00010209655504535192 0.00012928742898764772 0.00012567563218657705 0.00011713550373727917 9.4718239408808435e-05 8.5171813962673604e-05 0.0001006611297947669 0.0001221988763800071 0.00011852926266285721 0.00014783366610976887 0.00010982466839991586 0.0001104959505260553 0.0001653278835451826 0.00014082119390777762 0.00016759353691097481 0.00011468367463153521 0.00011923906853236719 0.00017178100153637023 0.00014714502990801855 0.00019838416870919019 0.0001804297527565415 0.00013117460052023357 0.00015638134635651075 0.00016124437104381617 0.0001881603354439342 0.00022470240378744729 0.00021622762279552746 0.00017856429760037352 0.00023023332036404786 0.0001845650211643817 0.0001789664350410812 0.0002350516367041838 0.00019656869425729837 0.00014382885990643518 0.00019110003663911992 0.00012066781175099534 0.00015883156975248788 0.00018061163982081233 0.00012299603584117912 0.00018137743928553845 0.00014784194427049923 0.00017989094934113455 0.00015765375611635052 0.00013082125774706342 0.00015837318455751346 0.00022290722883465888 0.0002043159836486046 0.00016907860758440382 0.00021370167890620605 0.00014643861747078575 0.00016867143235331034 0.00014625252958245599 0.00021311620231503171 0.00015887558301815337 0.00020461221658601202 0.00021651673593992734 0.00028070082395718887 0.0002005438439118097 0.00018835660180331376 0.00023511396563561662 0.00019203823397068983 0.00027663899664649336 0.00027455082713747926 0.00018877381560140953 0.00020784758880448297 0.00026701491459585222 0.0002733069262218231 0.00017782672982408443 0.0003284907891135774 0.00034333275879393254 0.00023194911498376715 0.0002510045897522281 0.00024451601947083598 0.00035127255819342163 0.00034156209109561944 0.00027945095608199324 0.00024775292658554842 0.00027793374509246484 0.00020294485804221501 0.00021719830206193383 0.00027204135515168431 0.00026500766442864019 0.00019522516475262329 0.0002396636889067154 0.00033987216882342547 0.00032717526639603796 0.00025350876848221607 0.00033834582614324728 0.00024630041202749548 0.00026774183065659808 0.00020433583778437263 0.0002901330430444296 0.00024903230786561711 0.00027197136285712556 0.00034639507435227341 0.00021408075043326426 0.00021249091459021473 0.00029570491408927588 0.0002151780092825121 0.00021985681846987395 0.00026868068072923219 0.00020435603200015713 0.00026026520389542873 0.00029092028086063489 0.00033367039440088364 0.00027442272226643554 0.00024310344499022034 0.00025873961146543072 0.00033370876403464111 0.00024490682314762724 0.00029975398801773868 0.00033927191367748516 0.00024951170794661773 0.00022560589443736324 0.00031641785680875599 0.00026405009492809793 0.00023371472502181002 0.00027737522435537733 0.00021000164619237305 0.00024672120188206595 0.0002232689000897399 0.00018010426175077104 0.00027457916275558559 0.00026102388761519726 0.00021127215131811145 0.00016759227031848455 0.00018712954025110358 0.00023528492046382917 0.00019837803537090082 0.0001791365472305042 0.00014970337308372269 0.00018330467047330913 0.00025357786541752719 0.00018539945028857213 0.00019629081229101815 0.00019810023049778101 0.00014962690361801855 0.00020492646484783549 0.00015639128212487845 0.00014779673587580284 0.00015251185170883045 0.00016589664362428132 0.00012343030530615815 0.00018877922464962849 0.00012284272353023026 0.00016015226345717119 0.00019020680250816246 0.00015210219320956259 0.00012478664538480104 0.00014203500096034383 0.00018228881718326736 0.00019365911021604001 0.00014778067206556138 0.00019698894168664071 0.00015143500815805339 0.00022886074006622778 0.00023041626423925707 0.0001714307861022863 0.00016139954956925073 0.00023370758623318715 0.00022916643946047083 0.00023556149770585425 0.00018136634539879103 0.00016974112221980172 8.0949232338823894e-05 5.9734153057645193e-05 8.4174484917057488e-05 0.00010752843043294549 7.7394663194417892e-05 7.9899622549960695e-05 0.00010260451711224115 7.5172591832310662e-05 0.00010290032788081079 9.6735396601877643e-05 9.7072797523464988e-05 0.00013230482944310732 0.0001271844375856516 9.3423488659809438e-05 0.00011471522394676299 0.00016315121975748749 0.00011875343053203809 0.00010640790437850715 0.00015737155081801819 0.00010121990468141159 0.00014559664076684554 0.00011107359904528847 0.00011312004120648213 0.00014924835700506867 0.00010470251150261349 0.00014464334397529331 0.00015127765220882664 0.00011875860463639678 9.2174991563069569e-05 0.00012081243832158791 0.00012264340556374513 8.7822009169851294e-05 9.6736648345632027e-05 0.00011904831287573226 9.5689824337368397e-05 8.5350405190523103e-05 7.6023189467195758e-05 9.1848750702874313e-05 0.00010206582089095763 7.7581587961839983e-05 7.8641198889954102e-05 9.6106920939962979e-05 8.254223728791593e-05 6.0844624926643503e-05 8.3602205609789709e-05 6.6063868676509123e-05 8.6226460479468139e-05 6.3504368416946575e-05 6.1979944001391187e-05 8.8924115059644515e-05 8.398763805475742e-05 7.5455090470584707e-05 0.00010326848269165561 9.451411181819069e-05 8.3099317531769133e-05 0.00010511680373664708 7.8046873938725767e-05 8.2061200700080483e-05 7.8856357358920401e-05 0.00010846355899832642 7.8517719835414536e-05 0.00010526941293647157 0.00010193635091190669 6.5334786052596055e-05 6.5087440044347148e-05 9.0947601923783652e-05 8.8438933090747893e-05 6.1666944948165345e-05 8.5316853851697416e-05 6.5309452378338885e-05 8.8010229165934228e-05 6.5499410671967669e-05 7.4899776060524778e-05 0.00010428821917205801 0.00010622172867230683 0.00013994111110609091 0.0001298414334877875 8.9627518603211482e-05 0.00013488417181700875 9.8083137973925704e-05 9.6100734165798296e-05 0.00011713538568832112 9.425660428373564e-05 0.00013244552729753379 9.9348854564542039e-05 0.00012237701408486886 9.5929398163718111e-05 0.00010987879632355576 0.00012557047137937835 0.00014667404189752439 0.00011827131930635589 0.00016226516442175218 0.00013981965966762888 0.00011603714055209981 0.00015305663729615559 0.00016086856107707113 0.00013128963192400692 0.00015607397950839641 0.00012086203023087088 0.0002020037269514289 0.00013680927853586478 0.00017140409565031495 0.00020415093279067901 0.00014914179337059821 0.00014114897626112458 0.00018772970933211668 0.00018139253896225867 0.00025793956210346604 0.00020326763669427061 0.00013937469038843855 0.00019710049352613396 0.00019185533261713276 0.00016046740340665058 0.00021672598867777506 0.00024333293167264801 0.00025227972884190344 0.00017212977605890977 0.00024802388939879083 0.0001801620962365526 0.00020534421972616415 0.0002267208677991461 0.00029911992797277293 0.00023591495748910422 0.00022126243812152778 0.0002637652236399913 0.00029477774414047567 0.00031152031533219024 0.00030847152993809476 0.0002199879253633222 0.00031380277967003688 0.00022356117433233031 0.00028865950599575384 0.00020215432485743931 0.0001871932060280278 0.00024294861256344945 0.00017913335552364147 0.00025142278094259754 0.00023722211048935802 0.00031900798890433624 0.0002187120076224467 0.00023323757296705175 0.0003165872621026457 0.00026364827225353158 0.00021360727749535286 0.00033582122149476462 0.00023989236622580181 0.00025776362477936203 0.00033059239903002668 0.00024784408765083618 0.00030241389603780842 0.00018342034827502143 0.00027730772470056851 0.00025990220838331105 0.00018922395376161098 0.00023108042358072997 0.00027981807958817214 0.00015848446884615235 0.00015942587082679033 0.00021633442717812072 0.0002139292401110424 0.00015224247491190746 0.00019930751727866139 0.00020732821841642129 0.00016298040457575822 0.00014493168438346017 0.00013225596186682955 0.00015518701420297453 0.0001729105919075031 0.00013479345739547891 0.00017452787667002987 0.00014284188632364485 0.00014801845226125083 0.00013640263899675429 0.00017234508929844469 0.00016922585410199844 0.00013682298880141898 0.00017021227840921847 0.00020077065223054029 0.00014476931839353335 0.00016555206028570285 0.00018891506363755638 0.00015677432098687834 0.00020942811713728327 0.00017767813300705612 0.00019899210235069199 0.00024810387336063848 0.00023463406194022343 0.0001876467688669612 0.00026433583569380624 0.00030912598475121432 0.00022290272667306339 0.00024922434597479112 0.00029262101373920028 0.00023612438884021268 0.00033051904194941799 0.0003648457422475658 0.00029522959097561587 0.000411200735011808 0.00027360895378764636 0.0003126436653351832 0.00038339914104993977 0.00047877753672858801 0.00034206781929527923 0.00038847948634567267 0.00059195327716018195 0.00041689612849253469 0.00055452601954717276 0.00056126232577481693 0.00052442902745229063 0.0006627033182061015 0.00044084740773239794 0.00065118978458273476 0.00054307529638258597 0.00062683080282248697 0.00065791798519056644 0.00051440327919103691 0.0004943306019437369 0.00061981393881038521 0.00045207260646819574 0.00042956038854957115 0.00060353479349802919 0.00064344091268780414 0.00052244331949242182 0.0004810798641634908 0.00039302039664079269 0.00043346673434293919 0.00047084650747015045 0.00056882832276934408 0.00045919056799096502 0.00036895040510494546 0.00049575807282831413 0.0005055379445270987 0.00038460189722398623 0.00035421324566716904 0.00029308657562381399 0.00038170244538373259 0.00041135070828488674 0.00031155759827346079 0.0002828433067880461 0.00039644980508551876 0.00027488198508056615 0.0003585456065326951 0.00039120143062224293 0.00037115739849880795 0.00033769706974266951 0.0004357389335555037 0.00050178229168965679 0.00034873056958080397 0.00041586590913976983 0.00038624751047019361 0.0004967593397037695 0.00040963278025929961 0.00032964065380094342 0.00041966752266772554 0.00034604979063215536 0.00040749232317492868 0.0004304341193488678 0.00033175156996142829 0.00034734462757250408 0.00036345824879997947 0.00028331655034197504 0.00028912987293002736 0.00029225619474820851 0.00037034096932411629 0.00030741665020932011 0.00042552149030980794 0.00033263516653140549 0.00027097943511087688 0.00035790834601019992 0.00029686416615333456 0.00032837590174436917 0.00035307801070764175 0.00026508742384850881 0.00041352833344493207 0.00041217356789912985 0.00031818354747233904 0.00039066420539458316 0.00049767499512439037 0.00038927667360591739 0.00037105169543444832 0.00053491492206664509 0.00048015759444048478 0.0005996109791503168 0.00045156160793022424 0.00050692264790396001 0.00059994478968747929 0.00049417965816034564 0.00045433601023471646 0.0005201298214278522 0.00039180000716929693 0.0004805735308280396 0.00072490667685485741 0.0005726792324549485 0.00055098611879813469 0.00058252121797152507 0.00060383181592826938 0.00047434460527028975 0.00067572161098217371 0.00057243963609281666 0.0004778316740917521 0.00054391466181427737 0.00064995056405394813 0.00069929099952422183 0.00061143673241320076 0.00084056831782406208 0.00066348040334066657 0.00067479503277738243 0.00065361259497834581 0.00083560246948816087 0.00071186971473044395 0.00053282940292431118 0.00069111413543014426 0.00064466157522748385 0.00080821976699775523 0.00088679078150658962 0.00064855081420974489 0.00088802793233871947 0.00078334292638470638 0.00071909790095051659 0.0010563152351047924 0.0010550456369266571 0.0013259005192450333 0.00098301627476035745 0.00098433140572953695 0.0013027999524246655 0.0012151051747190482 0.00094824129628706027 0.0014632293103680643 0.0010889539892821995 0.001176872175179494 0.00097239970161410718 0.0012341345149277892 0.0011496703161855502 0.00075467782251578447 0.0010776110826117055 0.0008351279699358098 0.0010120028058194543 0.0011859443487391565 0.00091487918467325299 0.00080529500500520169 0.0010571305494601613 0.00096161368832050828 0.00097903096400987419 0.00092085597958244591 0.001191444288333959 0.0007106034419247613 0.00097886667770794348 0.001035587790521487 0.0012291840146568609 0.0010916759399513354 0.0014141836219408429 0.0011095206751186651 0.00094129197012302892 0.0012891286772370447 0.0009332969332713271 0.0011498694515368023 0.0012841076897821726 0.0007451234090208004 0.0010595139709146249 0.00073921181166455418 0.00073977143155575854 0.00084680653116730705 0.00099862499626839855 0.00069309227916830108 0.00082411919474457192 0.00053545658995524537 0.00083149707865427303 0.00059454614656489775 0.00055340877066673174 0.00081786753185067972 0.00062035246385676052 0.00058871933750085119 0.00080585821695244387 0.00080010747943091683 0.00055943374982747845 0.00053347155110248492 0.0006350427400516448 0.00074767175871847541 0.00071617338853221645 0.00060055809541897389 0.00080188424861673017 0.00067427038462201049 0.00076172930903425418 0.00093582983789023636 0.0010486316239179242 0.00089245587985021981 0.00071382253869878471 0.0011614519089289544 0.00083707086215150913 0.00099737231518504956 0.0010479126407261165 0.0012323401478036944 0.0014446142877474518 0.00038503043730734048 0.00054094233741023667 0.00039009302762515248 0.00047003710744935917 0.00037552001827295092 0.00053078953365147505 0.00044358235050747242 0.00061865044812527018 0.00048203598493774802 0.0005112613345384481 0.00038358261597236409 0.00047363659484132327 0.00043889908555199667 0.00050118102269121074 0.00061797125542076238 0.00069370198497882389 0.00058758442132363141 0.00046790796486051618 0.00051029633897776766 0.00070069172448074333 0.00048068439409090389 0.00048430627055592011 0.00066441007326862082 0.00068150755451159759 0.00049620558687116136 0.00057942880691315684 0.00067691021861065429 0.00052847424901684352 0.00042520053011518768 0.00061011673465397726 0.00061835337721349664 0.00043685481053133885 0.00044820205415174741 0.00047966261479912573 0.00046844656243598317 0.00036821920478405758 0.00055193897016379216 0.00052324489858342356 0.00036138426614946203 0.00055697306759019526 0.00037180601586671053 0.00045535665415947515 0.00041711378079546516 0.00030212456535796793 0.00040152113048055817 0.00039500794071673721 0.00037906090336210958 0.00047758594772892896 0.00049391419132530979 0.00038284739544293715 0.00035478552338377386 0.0002813004111555231 0.00039446103600603233 0.00032200933389770359 0.00030610584357536894 0.00037767689717139888 0.00040618429960328009 0.00032222478332070205 0.00024573223284145773 0.0003394630123100219 0.00042897146895219999 0.00029822259683635909 0.00031639040742420499 0.00029533712729591194 0.00042978894218859885 0.00034810184817392163 0.00041764115911023162 0.00042257140720030104 0.00028280619536694081 0.00039518564646126662 0.00048646768990971115 0.00040229401670565561 0.00041514057958515644 0.00042212415372854575 0.00033026814824179779 0.00031803368775068069 0.00036951369255043884 0.00025736084499958857 0.00034675151664023207 0.00043284596598232815 0.00030910678195994945 0.00036899804896997352 0.00033237016843012653 0.0002545574817414385 0.00030854818327079992 0.0003215663206405681 0.00038419821254197765 0.00041981761261866582 0.00029445928366473478 0.00037180015076091063 0.00039857038469333876 0.00034944582296281588 0.00046594105784285284 0.00034824733372962091 0.00041028268692801744 0.00046515596262592128 0.00036934621748785097 0.0003045602471886677 0.00043005595666902106 0.00031118666729392175 0.000316492356198506 0.00042851466965442947 0.00033577184774313221 0.000237157910340765 0.00034093626590026428 0.00042511260349583794 0.00031882058697531123 0.00030356108875435401 0.00041723194934826027 0.0003020254296331996 0.00041249677230539188 0.00039241978887096863 0.00038757293595485494 0.00049827656216877537 0.00037112477610057391 0.00048060004122648325 0.00053673778382589733 0.0005105180338298074 0.00045287924983551794 0.00058776039101523863 0.00050085606847016394 0.00058902989717038597 0.00045404285306509988 0.00036793602674164836 0.00052788084489796962 0.00048221958102175516 0.00047215066259005645 0.0006754556671333215 0.00056196281532458069 0.00066017349373713831 0.00053710329756009758 0.00065401736761952869 0.00067905182731442125 0.0004812578767257556 0.00056041274789191771 0.00059639150181445711 0.00041812883462794416 0.00048892009029757725 0.00051442260548244505 0.00044528348261068133 0.0003881530183137132 0.00059494253079567455 0.0005054076102282421 0.00041427320233350428 0.00037468018353559689 0.00044337665437024109 0.00053165858249204978 0.00057154887116282369 0.00061240119271582935 0.00047974424186912905 0.00046478216992239599 0.00059915576711961076 0.00067289530055771583 0.00070969006873160983 0.00058450361810637955 0.00054146979995125849 0.00057548640365642193 0.00046372111478713927 0.00060444211334050675 0.0005452341360821357 0.00057471697098052099 0.00070378918718842765 0.00069730728079176222 0.00052623779702243637 0.00069139192313349984 0.00065896657042658735 0.00065291895891673882 0.00083797267249068801 0.00069908085949137969 0.00064492092350861246 0.0005695266063715349 0.00061087022245931606 0.00066577274250498308 0.00083942251857882901 0.000780845