<?xml version="1.0"?>
<VTKFile type="UnstructuredGrid" version="0.1" byte_order="LittleEndian">
<UnstructuredGrid>
<Piece NumberOfPoints="69" NumberOfCells="124">
<Points>
<DataArray type="Float64" NumberOfComponents="3" format="ascii">
0 0 0 0 0.25 0 0 1 0 0.1249999999997554 0 0 0.084352422163911631 0.086451712656266194 0 0 0.12500000000034689 0 0.1008171452988615 0.18885703697250469 0 0.2403886547178353 0.24188814792673841 0 0.18402761812864499 0.1117324051466445 0 0.1249999999997599 0.31249999999987998 0 0.43749999999913258 0 0 0.4287911518546233 0.15455445427966699 0 0.31250000000020822 0.12500000000041631 0 0.33819444444448321 0.33819444444456342 0 0.37500000000027761 0.25000000000055511 0 0.49457493289300231 0.26251703776555491 0 0.43750000000006939 0.37500000000013878 0 0.37499999999973488 0.43749999999986738 0 0.14929124186975251 0.44582793568106382 0 0.24999999999960859 0.37499999999980432 0 0 0.43750000000034689 0 0.25 -0 0 0.13928587515912139 0.57339806105677438 0 0.13900789599611679 0.72618316107059999 0 0 0.62500000000069389 0 0 0.81250000000104083 0 0.1875000000005205 1 0 0.12710107136012311 0.87094806618203435 0 0.27987960212930818 0.83442741470570525 0 0.37500000000069389 1 0 0.44927105396715372 0.85565124085155886 0 0.38136204680495073 0.74038592213831234 0 0.27589467050686478 0.66058853156435704 0 0.26452443700674649 0.51563531581639865 0 0.4139414069912184 0.60563252640100373 0 0.5 0.5 -0 0.63236534182377013 0.50296756406332266 0 0.71259747807844409 0.63846691315701831 0 0.50145856933078625 0.73674663046504862 0 0.5625 0.625 0 0.56777512057187585 0.8470224641095303 0 0.56250000000086742 1 0 0.73857795170433571 0.77736788564284653 0 0.625 0.75 0 0.85787927391517405 0.753532520882502 0 0.80552984491000901 0.88711122872127413 0 0.90637953422180084 0.90208583328057301 0 0.875 1 0 1 0.83333333333356463 0 1 0.66666666666736052 0 0.6875 0.875 0 0.86127466977819722 0.57948076978797636 0 1 0.50000000000138767 0 0.75 1 0 1 0.33333333333448978 0 0.86087286690217635 0.25206523597959418 0 0.86569408477091048 0.40983673916766611 0 0.75338430262320943 0.49294443423175599 0 0.56986707178436635 0.37762093650871992 0 0.61108462585082757 0.25750599582343231 0 0.71826039492840632 0.34564020717216182 0 0.71508993406183785 0.15715956854777599 0 1 0 0 0.54475767668582953 0.1431838882066932 0 0.62499999999895905 0 0 0.81249999999947953 0 0 1 1 0 1 0.16666666666736049 0 0.87698901648812122 0.1160638338657984 0 
</DataArray>
</Points>
<Cells>
<DataArray type="UInt32" Name="connectivity" format="ascii">
1 9 0 3 4 0 4 5 5 4 6 5 6 1 6 4 8 9 6 7 8 7 6 12 7 8 21 8 3 21 12 8 3 8 4 21 10 12 10 63 11 12 10 11 63 15 11 14 11 15 12 14 7 12 11 14 9 19 19 7 13 14 13 7 14 15 16 14 16 13 16 17 13 16 35 17 17 33 19 17 19 13 19 33 18 19 18 9 19 9 7 1 9 20 9 1 6 20 9 18 20 18 22 20 22 24 12 21 14 12 19 17 33 32 22 33 22 18 28 23 32 32 23 22 25 24 23 24 22 23 25 23 27 26 2 27 2 25 27 26 27 28 28 27 23 16 14 35 16 17 35 30 28 31 29 28 30 29 26 28 29 30 41 30 31 38 39 38 34 34 38 31 34 31 32 28 32 31 34 32 33 17 34 33 17 35 34 39 34 35 39 35 36 39 35 43 39 39 36 37 57 37 36 39 37 43 43 37 42 39 43 38 43 40 38 30 38 40 41 30 40 50 41 40 50 53 41 50 45 53 50 42 45 50 40 43 50 43 42 45 42 44 50 43 53 50 45 44 46 47 53 45 47 45 46 66 47 46 66 46 48 48 44 49 48 46 44 49 44 51 44 37 51 44 42 37 51 37 57 49 51 52 54 52 56 51 56 52 67 54 55 54 56 55 56 60 55 61 55 60 51 57 56 57 60 56 58 60 36 57 36 60 16 58 35 35 58 36 16 15 58 58 15 59 61 60 59 58 59 60 61 59 63 63 59 15 10 64 63 64 61 63 65 61 64 65 68 61 61 68 55 67 55 68 65 62 68 67 68 62 
</DataArray>
<DataArray type="UInt32" Name="offsets" format="ascii">
2 5 8 11 14 17 20 23 26 29 32 35 38 41 44 47 50 53 56 58 61 64 67 70 73 76 79 82 85 88 91 94 97 100 103 106 108 110 112 115 118 121 124 127 130 133 136 139 142 145 147 149 151 154 157 160 163 166 169 172 175 178 181 184 187 190 193 195 197 200 203 206 209 212 215 218 221 224 227 230 233 236 239 242 244 246 249 252 255 258 261 264 267 270 273 276 279 282 285 288 291 294 297 300 303 306 309 312 315 318 321 324 327 330 333 336 339 342 345 348 351 354 357 360 
</DataArray>
<DataArray type="UInt32" Name="types" format="ascii">
3 5 5 5 5 5 5 5 5 5 5 5 5 5 5 5 5 5 5 3 5 5 5 5 5 5 5 5 5 5 5 5 5 5 5 5 3 3 3 5 5 5 5 5 5 5 5 5 5 5 3 3 3 5 5 5 5 5 5 5 5 5 5 5 5 5 5 3 3 5 5 5 5 5 5 5 5 5 5 5 5 5 5 5 3 3 5 5 5 5 5 5 5 5 5 5 5 5 5 5 5 5 5 5 5 5 5 5 5 5 5 5 5 5 5 5 5 5 5 5 5 5 5 5 
</DataArray>
</Cells>
<CellData Scalars="age_conc,U235_conc," Vectors="" Tensors="">
<DataArray type="Float64" Name="age_conc" format="ascii">
400587.63317853911 497788.11816929432 497983.27068244742 495129.13486415416 481062.35881825519 494734.27710304182 477649.93542386155 489894.12758264667 478251.46423315216 482863.64994799555 469644.3692205947 494743.62826632662 499948.95295736933 499331.42554163479 499819.08372732933 498707.66719875834 499754.56580518116 459725.63819920237 499926.10131341836 374960.09794733033 459685.33811952826 460418.36580990837 499688.41182047082 424541.87215919804 419409.77566913923 375016.74379764771 496671.5218241699 422830.50544404949 498945.61541348475 499637.49626905774 458134.7830649137 499948.71486366173 466659.85282363329 499814.62906606175 499348.20081265416 496252.45409661822 405072.70797333826 381003.07587830391 342205.54967729503 494891.45494691218 497955.21812041837 457479.7452281341 480388.48056139849 449302.89797345281 488305.0194045094 396517.30141125165 175899.35850540467 272357.34273775632 278698.32532620418 367569.5315798712 350302.12325948803 307181.28105327755 296839.48006164335 373169.13867258909 278276.3548631841 192774.04671309461 158100.42579292684 431202.32263265224 414295.46184125199 467269.41132778488 478474.11832957983 425893.1792742383 491154.4481588467 492221.90878932865 467810.40633016801 439095.64323729975 493154.89062542445 224062.48950451007 159714.34417839395 485653.01869658858 461478.38667648216 474579.46205146174 450546.78869267588 353951.67045309226 330805.28150529944 382016.15101779182 314551.15898670442 197634.94256410771 115461.30538845048 235477.15138217749 341409.46959551534 255223.04440462386 398332.6857187741 365343.90867611289 99613.640259180305 43255.390477926987 298418.78544954985 145767.93545226566 210705.28158878547 118056.59638881053 111978.87431562711 171894.35136489151 231059.49002653125 278022.03821209696 382014.78192704433 432835.2389555031 430664.17836079618 168471.19947885908 161148.05167872581 274151.22425283835 173962.20989883423 266590.35217602598 382437.38569874427 439627.82961366838 358313.27342667652 418345.75697992544 481465.75399637944 464048.87540231115 497656.48803881381 494429.64724930283 499053.58440790162 496747.95567027794 469994.00604928005 492244.04631279537 486110.08491724113 496803.11400529015 496391.7264539774 489629.76498942927 454403.62179103581 406093.94658668659 374039.5499710642 256853.99357797898 267923.94366744364 172107.68444407982 
</DataArray>
<DataArray type="Float64" Name="U235_conc" format="ascii">
0.31455006775581928 0.0046581109259655022 0.0041577422542838855 0.012274038479053732 0.060108616227863003 0.012570813316827028 0.069936124287485815 0.028042774084707536 0.068268233627600317 0.054247853782767898 0.10132236824367372 0.013520215798680287 5.8826068988151863e-05 0.0011442112649743738 0.00025601093275990576 0.0022828424660330444 0.00033096952855172699 0.13079811248227233 8.0649936937709268e-05 0.37084702925495378 0.12948354568750703 0.12757616117080381 0.00038323704286345186 0.24457312589739305 0.26746880848244892 0.39171662712365812 0.0078841652681028596 0.24956253493935771 0.0020412975478465096 0.00059057184209288037 0.13560612170714562 5.5990616263002967e-05 0.11140216288963557 0.00025164357749785218 0.0010727208729735499 0.008312802792596604 0.30093922218788444 0.35294995241571481 0.43886693548703015 0.011384070229690572 0.0038914935382833617 0.12729231206278113 0.053419502914310232 0.15442455403681213 0.03027456778908023 0.32643006473155228 0.82697893709912984 0.66845774108587286 0.65227675157996823 0.41809123078598481 0.41537663065644403 0.50147619084541739 0.53110472594938107 0.39967858377415033 0.65995630378368875 0.79902542350030759 0.87468019023258836 0.21201245549116779 0.26606473572908895 0.091094073791137445 0.057507483460469716 0.23212941383838498 0.020658022816903231 0.020362998039117917 0.09566543138004048 0.18321484478453534 0.014712895632317584 0.67356658276992676 0.79936427650575625 0.035530523944876151 0.1134553610417366 0.067764722947096664 0.14641835216884791 0.44118611829721699 0.53760107969975357 0.38030002173462973 0.58854332285974198 0.86451632291656721 0.9527589807243233 0.76618460520443044 0.4988290674281714 0.72717493423154456 0.32335106792875451 0.436662640111876 0.90176130265421506 0.97538296148730907 0.6372873799891362 0.89439581365763487 0.83469645238185775 0.94865305975545722 0.95673510174457976 0.84634237937375889 0.78643664256301737 0.65742460754563548 0.37095104901496134 0.20653168076073791 0.21624912499130344 0.84553051616947594 0.86252920445366754 0.66657618292826093 0.836203078055341 0.68827815545160076 0.36969723808439919 0.18706327727450259 0.4477247751613016 0.25774861853154751 0.048863661910016953 0.10501054333385697 0.0042812513796819792 0.012034746306289559 0.0014474992581977098 0.0062343052990302145 0.086713211661259684 0.017619773198710064 0.035868671709749798 0.0066672000158997961 0.0080417254740703676 0.026770870403494212 0.13811502354664248 0.2962274060487175 0.39646449066215961 0.70910967991089324 0.67996323318220564 0.8359485562497424 
</DataArray>
</CellData>
</Piece>
</UnstructuredGrid>
</VTKFile>
