<?xml version="1.0"?>
<VTKFile type="UnstructuredGrid" version="0.1" byte_order="LittleEndian">
<UnstructuredGrid>
<Piece NumberOfPoints="69" NumberOfCells="124">
<Points>
<DataArray type="Float64" NumberOfComponents="3" format="ascii">
0 0 0 0.084352422163911631 0.086451712656266194 0 0.1249999999997554 0 0 0 0.12500000000034689 0 0.1008171452988615 0.18885703697250469 0 0.2403886547178353 0.24188814792673841 0 0.18402761812864499 0.1117324051466445 0 0.25 -0 0 0.31250000000020822 0.12500000000041631 0 0.4287911518546233 0.15455445427966699 0 0.43749999999913258 0 0 0.43750000000006939 0.37500000000013878 0 0.49457493289300231 0.26251703776555491 0 0.37500000000027761 0.25000000000055511 0 0.33819444444448321 0.33819444444456342 0 0.37499999999973488 0.43749999999986738 0 0.14929124186975251 0.44582793568106382 0 0.24999999999960859 0.37499999999980432 0 0.1249999999997599 0.31249999999987998 0 0 0.25 0 0 0.43750000000034689 0 0 0.62500000000069389 0 0.13900789599611679 0.72618316107059999 0 0.13928587515912139 0.57339806105677438 0 0 1 0 0 0.81250000000104083 0 0.12710107136012311 0.87094806618203435 0 0.1875000000005205 1 0 0.27987960212930818 0.83442741470570525 0 0.44927105396715372 0.85565124085155886 0 0.37500000000069389 1 0 0.26452443700674649 0.51563531581639865 0 0.27589467050686478 0.66058853156435704 0 0.38136204680495073 0.74038592213831234 0 0.4139414069912184 0.60563252640100373 0 0.5 0.5 -0 0.50145856933078625 0.73674663046504862 0 0.5625 0.625 0 0.71259747807844409 0.63846691315701831 0 0.63236534182377013 0.50296756406332266 0 0.56250000000086742 1 0 0.56777512057187585 0.8470224641095303 0 0.625 0.75 0 0.73857795170433571 0.77736788564284653 0 0.6875 0.875 0 0.75 1 0 0.80552984491000901 0.88711122872127413 0 0.85787927391517405 0.753532520882502 0 1 0.83333333333356463 0 0.90637953422180084 0.90208583328057301 0 1 1 0 0.875 1 0 0.86127466977819722 0.57948076978797636 0 1 0.66666666666736052 0 1 0.50000000000138767 0 0.75338430262320943 0.49294443423175599 0 0.86569408477091048 0.40983673916766611 0 0.86087286690217635 0.25206523597959418 0 1 0.33333333333448978 0 1 0.16666666666736049 0 1 0 0 0.87698901648812122 0.1160638338657984 0 0.81249999999947953 0 0 0.71508993406183785 0.15715956854777599 0 0.62499999999895905 0 0 0.54475767668582953 0.1431838882066932 0 0.61108462585082757 0.25750599582343231 0 0.56986707178436635 0.37762093650871992 0 0.71826039492840632 0.34564020717216182 0 
</DataArray>
</Points>
<Cells>
<DataArray type="UInt32" Name="connectivity" format="ascii">
0 1 3 0 2 1 3 4 19 3 1 4 4 1 6 18 4 5 6 5 4 8 5 6 7 6 2 7 8 6 2 6 1 8 7 7 10 8 8 13 5 13 8 8 9 13 13 9 12 65 12 9 8 10 9 10 65 9 15 35 11 35 15 11 15 14 35 11 13 12 11 11 13 13 11 14 17 5 14 13 14 5 15 17 14 17 15 15 31 17 17 31 16 17 16 18 17 18 5 18 17 19 18 20 18 19 4 19 18 20 16 23 20 18 16 20 23 21 21 23 22 25 21 22 32 22 23 28 22 32 31 32 23 31 23 16 27 24 26 24 25 26 25 22 26 28 26 22 27 26 28 30 28 29 30 27 28 29 28 33 29 33 36 30 29 40 34 32 31 15 34 31 28 32 33 34 33 32 34 36 33 37 36 34 15 35 34 37 34 35 37 35 39 37 35 37 42 36 42 37 42 38 43 37 38 42 55 38 39 37 39 38 44 40 41 40 29 41 29 36 41 42 41 36 44 42 43 44 43 46 44 42 44 41 42 44 45 40 44 46 45 45 44 51 45 46 51 46 49 46 47 49 46 43 47 48 47 53 48 49 47 50 49 48 50 51 49 52 38 55 47 38 52 47 43 38 53 47 52 53 52 54 58 54 56 52 56 54 52 55 56 55 68 56 63 57 68 56 68 57 59 58 57 58 56 57 59 57 61 62 60 61 59 61 60 62 61 63 63 61 57 64 63 65 62 63 64 10 64 65 63 66 65 65 66 12 67 12 66 11 12 67 11 67 35 35 67 39 55 39 68 67 68 39 63 68 66 67 66 68 
</DataArray>
<DataArray type="UInt32" Name="offsets" format="ascii">
3 6 9 12 15 18 21 24 27 30 33 35 38 41 43 46 49 52 55 58 60 63 66 68 71 73 76 79 82 85 87 90 93 96 99 101 104 107 109 112 115 118 121 124 127 130 133 136 139 142 145 148 151 154 157 160 163 166 169 172 175 178 181 184 187 190 193 195 198 200 203 206 209 212 215 218 221 224 227 230 232 235 238 241 243 246 249 252 255 258 261 264 267 270 273 276 279 282 285 288 291 294 297 300 303 306 309 312 315 318 321 324 327 330 333 336 339 342 345 348 351 354 357 360 
</DataArray>
<DataArray type="UInt32" Name="types" format="ascii">
5 5 5 5 5 5 5 5 5 5 5 3 5 5 3 5 5 5 5 5 3 5 5 3 5 3 5 5 5 5 3 5 5 5 5 3 5 5 3 5 5 5 5 5 5 5 5 5 5 5 5 5 5 5 5 5 5 5 5 5 5 5 5 5 5 5 5 3 5 3 5 5 5 5 5 5 5 5 5 5 3 5 5 5 3 5 5 5 5 5 5 5 5 5 5 5 5 5 5 5 5 5 5 5 5 5 5 5 5 5 5 5 5 5 5 5 5 5 5 5 5 5 5 5 
</DataArray>
</Cells>
<CellData Scalars="age_conc,U235_conc," Vectors="" Tensors="">
<DataArray type="Float64" Name="age_conc" format="ascii">
249992.92572429602 249991.76642856922 249387.64528618893 249953.26958490507 249962.61143824397 249068.01821242934 249829.08332858176 249082.8515034467 249450.37503748687 247710.84916461282 249946.23966334137 230849.89216757347 249999.95754395623 246273.31507992931 220257.18555036705 249999.95570428416 249999.65975582291 249995.13421730493 249999.66439146968 249997.36888138743 182661.04656698054 226400.86356981058 241863.10700675999 184528.3618568297 249999.75016281893 205634.18904619693 240108.46770271304 247585.99158929742 247594.84433671675 240065.8343836854 204412.50299389404 249948.73966778506 249993.64441427274 249999.02014538815 246157.92448282891 219499.37454889464 249999.96895051049 247468.73541176319 230401.62498936971 249997.90677773277 249999.73718595228 249958.73008714145 249728.11320912087 246845.38780330832 249448.11352298514 247692.23361162556 249943.725455134 249988.9369888737 135467.30709155102 195079.77364092291 237980.39963114759 231397.45347299677 197713.84698776578 199523.85125595273 145943.85965947135 232711.60029809322 246518.42083957343 128994.07042938151 249880.79864002293 249767.80139322852 244185.36116948284 249423.72490016319 249095.06326677004 240636.89206876402 247758.72966116975 242866.97088697692 249945.19795246655 144908.46212429873 223826.42151370665 111972.49674241977 247941.47112404741 249454.83752530837 248364.48817113382 249771.89436115953 166249.58719525422 220169.33254062844 238956.55250021804 224598.62816538045 240613.03643480001 225715.02733474033 76759.251450507523 192550.42374120356 104347.14487899942 181665.65979602566 37591.019423077669 121432.04097887955 172640.52938256972 215537.81982139306 236204.19375782221 136427.74827535372 181984.17021105991 101796.72968514083 106029.68332181327 244661.10050066802 234378.270757969 246565.18112214806 198768.81717664245 132469.50304451009 129086.27644394615 196627.82111199625 229408.63902414078 243298.56938599498 245552.54726460238 234114.63521827321 135824.53730798888 194255.81855181375 189257.73523615862 193519.75839987153 133909.49421911364 239654.8145768859 231881.77297638668 249758.16069818707 247324.55891367063 249959.17556124192 249727.6900201019 249974.91385420581 249984.72434719809 249998.19930072958 249990.56248588892 249952.79511101393 248561.81005869585 249613.29835444558 248833.09523565543 249922.07999644458 
</DataArray>
<DataArray type="Float64" Name="U235_conc" format="ascii">
1.6563178917085819e-05 1.940376293137556e-05 0.0026004155399512036 0.00014622469007680148 0.00010880462932792644 0.0045408997966910458 0.00064468901507089824 0.0044762170317757697 0.0023337091006909554 0.012558933909015536 0.00016949065028529673 0.13239732296247864 1.0006776182200568e-07 0.022576711707400221 0.21427129738734027 9.1673253689011071e-08 8.7288475275972026e-07 1.559673218261637e-05 9.6491321234293265e-07 9.0600352449358757e-06 0.44396523882173833 0.16077540783742231 0.050002290635721078 0.43166681830035136 5.3157486625510611e-07 0.31430653560275329 0.064640666526290552 0.013243810160592274 0.013219511805764556 0.06480018303598499 0.32270208586520321 0.00022691540909916509 2.2413507935023056e-05 2.7554661290127194e-06 0.023256783585899006 0.21940564770123724 6.5634072140425053e-08 0.013887917960619788 0.13523066352123106 6.7913142747572267e-06 6.8282704787350666e-07 0.00017559175873681408 0.0013523342299181745 0.018447516510511224 0.0028087452292095819 0.013227526644057352 0.00023811566057872023 3.9512739071765001e-05 0.61921011102788981 0.34059842919069722 0.075352477662476519 0.11829452382410421 0.324565662078585 0.31440940146985752 0.56972173986319163 0.10974274013645305 0.019260989005989181 0.6593923112614265 0.0005271187742536533 0.0012219465065025337 0.035037269598241771 0.0029424241807804383 0.0045060776152605429 0.059767933842478742 0.013664005189652195 0.045784579984374241 0.00020784239958267025 0.61567859203037067 0.16703141696564661 0.73837902859269777 0.011112509710646415 0.0025586975097722123 0.0088952174827712296 0.0010193486015748706 0.51943715134514001 0.19157798314106331 0.067734768343194848 0.1635885463737044 0.057708756667035843 0.15511314012202765 0.84235509619153004 0.36019407737655945 0.78561728773227846 0.4217822229585253 0.94051305428584431 0.68912243470377155 0.47890961066784538 0.22177605372499537 0.085469767288795226 0.6173567885389013 0.42238721757516584 0.79199784029079601 0.77287439392721302 0.032126265140348748 0.09895721178197478 0.019092757431058233 0.3181089052158797 0.6367876557121146 0.65521832372080613 0.33159971766892232 0.13123037185025954 0.040557167179138452 0.026631801227058466 0.10075599309127586 0.61988463354448375 0.34636515424082598 0.37606759605974011 0.34975214892792383 0.62571514743547008 0.064583013258727201 0.11541767950227112 0.0012064404310904175 0.015498579667515616 0.00017482861565122087 0.0012676535023447195 9.6752759608991455e-05 5.0289565256817182e-05 4.7616208602930719e-06 3.0251628574831876e-05 0.00018227218516118348 0.0077388868527598796 0.001810804350724816 0.006273520428672779 0.00030923964059567633 
</DataArray>
</CellData>
</Piece>
</UnstructuredGrid>
</VTKFile>
