<?xml version="1.0"?>
<VTKFile type="UnstructuredGrid" version="0.1" byte_order="LittleEndian">
<UnstructuredGrid>
<Piece NumberOfPoints="69" NumberOfCells="124">
<Points>
<DataArray type="Float64" NumberOfComponents="3" format="ascii">
0 0 0 0 0.25 0 0 1 0 0.1249999999997554 0 0 0.084352422163911631 0.086451712656266194 0 0 0.12500000000034689 0 0.1008171452988615 0.18885703697250469 0 0.2403886547178353 0.24188814792673841 0 0.18402761812864499 0.1117324051466445 0 0.1249999999997599 0.31249999999987998 0 0.43749999999913258 0 0 0.4287911518546233 0.15455445427966699 0 0.31250000000020822 0.12500000000041631 0 0.33819444444448321 0.33819444444456342 0 0.37500000000027761 0.25000000000055511 0 0.49457493289300231 0.26251703776555491 0 0.43750000000006939 0.37500000000013878 0 0.37499999999973488 0.43749999999986738 0 0.14929124186975251 0.44582793568106382 0 0.24999999999960859 0.37499999999980432 0 0 0.43750000000034689 0 0.25 -0 0 0.13928587515912139 0.57339806105677438 0 0.13900789599611679 0.72618316107059999 0 0 0.62500000000069389 0 0 0.81250000000104083 0 0.1875000000005205 1 0 0.12710107136012311 0.87094806618203435 0 0.27987960212930818 0.83442741470570525 0 0.37500000000069389 1 0 0.44927105396715372 0.85565124085155886 0 0.38136204680495073 0.74038592213831234 0 0.27589467050686478 0.66058853156435704 0 0.26452443700674649 0.51563531581639865 0 0.4139414069912184 0.60563252640100373 0 0.5 0.5 -0 0.63236534182377013 0.50296756406332266 0 0.71259747807844409 0.63846691315701831 0 0.50145856933078625 0.73674663046504862 0 0.5625 0.625 0 0.56777512057187585 0.8470224641095303 0 0.56250000000086742 1 0 0.73857795170433571 0.77736788564284653 0 0.625 0.75 0 0.85787927391517405 0.753532520882502 0 0.80552984491000901 0.88711122872127413 0 0.90637953422180084 0.90208583328057301 0 0.875 1 0 1 0.83333333333356463 0 1 0.66666666666736052 0 0.6875 0.875 0 0.86127466977819722 0.57948076978797636 0 1 0.50000000000138767 0 0.75 1 0 1 0.33333333333448978 0 0.86087286690217635 0.25206523597959418 0 0.86569408477091048 0.40983673916766611 0 0.75338430262320943 0.49294443423175599 0 0.56986707178436635 0.37762093650871992 0 0.61108462585082757 0.25750599582343231 0 0.71826039492840632 0.34564020717216182 0 0.71508993406183785 0.15715956854777599 0 1 0 0 0.54475767668582953 0.1431838882066932 0 0.62499999999895905 0 0 0.81249999999947953 0 0 1 1 0 1 0.16666666666736049 0 0.87698901648812122 0.1160638338657984 0 
</DataArray>
</Points>
<Cells>
<DataArray type="UInt32" Name="connectivity" format="ascii">
1 9 0 3 4 0 4 5 5 4 6 5 6 1 6 4 8 9 6 7 8 7 6 12 7 8 21 8 3 21 12 8 3 8 4 21 10 12 10 63 11 12 10 11 63 15 11 14 11 15 12 14 7 12 11 14 9 19 19 7 13 14 13 7 14 15 16 14 16 13 16 17 13 16 35 17 17 33 19 17 19 13 19 33 18 19 18 9 19 9 7 1 9 20 9 1 6 20 9 18 20 18 22 20 22 24 12 21 14 12 19 17 33 32 22 33 22 18 28 23 32 32 23 22 25 24 23 24 22 23 25 23 27 26 2 27 2 25 27 26 27 28 28 27 23 16 14 35 16 17 35 30 28 31 29 28 30 29 26 28 29 30 41 30 31 38 39 38 34 34 38 31 34 31 32 28 32 31 34 32 33 17 34 33 17 35 34 39 34 35 39 35 36 39 35 43 39 39 36 37 57 37 36 39 37 43 43 37 42 39 43 38 43 40 38 30 38 40 41 30 40 50 41 40 50 53 41 50 45 53 50 42 45 50 40 43 50 43 42 45 42 44 50 43 53 50 45 44 46 47 53 45 47 45 46 66 47 46 66 46 48 48 44 49 48 46 44 49 44 51 44 37 51 44 42 37 51 37 57 49 51 52 54 52 56 51 56 52 67 54 55 54 56 55 56 60 55 61 55 60 51 57 56 57 60 56 58 60 36 57 36 60 16 58 35 35 58 36 16 15 58 58 15 59 61 60 59 58 59 60 61 59 63 63 59 15 10 64 63 64 61 63 65 61 64 65 68 61 61 68 55 67 55 68 65 62 68 67 68 62 
</DataArray>
<DataArray type="UInt32" Name="offsets" format="ascii">
2 5 8 11 14 17 20 23 26 29 32 35 38 41 44 47 50 53 56 58 61 64 67 70 73 76 79 82 85 88 91 94 97 100 103 106 108 110 112 115 118 121 124 127 130 133 136 139 142 145 147 149 151 154 157 160 163 166 169 172 175 178 181 184 187 190 193 195 197 200 203 206 209 212 215 218 221 224 227 230 233 236 239 242 244 246 249 252 255 258 261 264 267 270 273 276 279 282 285 288 291 294 297 300 303 306 309 312 315 318 321 324 327 330 333 336 339 342 345 348 351 354 357 360 
</DataArray>
<DataArray type="UInt32" Name="types" format="ascii">
3 5 5 5 5 5 5 5 5 5 5 5 5 5 5 5 5 5 5 3 5 5 5 5 5 5 5 5 5 5 5 5 5 5 5 5 3 3 3 5 5 5 5 5 5 5 5 5 5 5 3 3 3 5 5 5 5 5 5 5 5 5 5 5 5 5 5 3 3 5 5 5 5 5 5 5 5 5 5 5 5 5 5 5 3 3 5 5 5 5 5 5 5 5 5 5 5 5 5 5 5 5 5 5 5 5 5 5 5 5 5 5 5 5 5 5 5 5 5 5 5 5 5 5 
</DataArray>
</Cells>
<CellData Scalars="age_conc,U235_conc," Vectors="" Tensors="">
<DataArray type="Float64" Name="age_conc" format="ascii">
230401.62396831939 249991.76642945298 249992.92572016694 249953.26957116078 249387.64518019991 249962.61143836146 249068.01818195276 249829.08332736211 249082.85151681653 249450.37505232997 247710.84919242549 249946.23966624093 249999.95754395582 249997.36888137457 249999.66439146799 249995.13421728057 249999.65975581983 246273.31510377955 249999.95570428198 219499.37415179444 247585.99147602107 247594.84434957133 249999.75016281893 240108.46771528653 241863.10683217683 226400.86320906848 249948.7396674456 240065.83406624469 249993.64441422379 249999.02014537842 246157.92437958537 249999.96895051055 247468.73517132283 249999.73718595202 249997.90677773568 249958.73008719954 230849.8922409545 220257.1855568898 204412.50220640411 249943.72545516212 249988.93698887934 247692.2336121634 249448.11352299128 246845.38780758632 249728.11320948927 237980.39965225654 135467.30711438006 195079.77367312621 197713.84713163538 231397.45351599721 205634.18897404656 184528.36147489765 182661.04558380478 232711.600306893 199523.85134736227 145943.85995465243 128994.07052950973 246518.42084594496 240636.89197164663 249095.06326284056 249423.72490019829 244185.36116914431 249880.79864011289 249767.80139195255 247758.72965977847 242866.97088977482 249945.19795261795 144908.46180976552 111972.49653605864 249771.8943617598 248364.48817279452 249454.8375257256 247941.471126107 223826.42128183995 224598.62804824987 238956.55251105683 220169.33257491217 166249.58722025171 104347.14490177008 181665.65981316299 225715.02734612138 192550.42356448286 240613.03644679097 236204.19375924699 76759.251417316787 37591.019492978681 215537.81979128363 121432.0409862611 172640.5293359909 106029.68321727213 101796.72958458266 136427.74814015409 181984.17014670343 198768.81720254285 234378.27078725054 246565.18112627155 244661.100506366 132469.50313748256 129086.27638931511 196627.82113578322 135824.53738948741 194255.81852998509 234114.63518349029 245552.54725953826 229408.63902033234 243298.56937995259 249613.29835481214 248561.81005676879 249990.56248596663 249952.79511130933 249998.19930072289 249984.72434694995 248833.0952345382 249922.07999549981 249727.69001930224 249974.91385406864 249959.17556113069 249758.16069737467 247324.5589146273 239654.8145880847 231881.77297854613 189257.73532438639 193519.75844163218 133909.4943230073 
</DataArray>
<DataArray type="Float64" Name="U235_conc" format="ascii">
0.13523066273491979 1.9403762927847542e-05 1.6563178934371969e-05 0.00014622469019547651 0.0026004155379433617 0.00010880462953290634 0.0045408998082819146 0.00064468901629706542 0.0044762170363406417 0.0023337091059827445 0.012558933945674344 0.00016949065035874806 1.0006776211788584e-07 9.0600352930455243e-06 9.6491321634822514e-07 1.5596732253232094e-05 8.7288475415899677e-07 0.022576711745568877 9.1673253741576731e-08 0.21940564689769315 0.013243810228483935 0.013219511791115492 5.3157487148384949e-07 0.064640666483009021 0.050002290650826793 0.16077540770036602 0.00022691540852085197 0.06480018319467272 2.2413507889233081e-05 2.7554661231003151e-06 0.023256783637809388 6.5634072032266e-08 0.013887917937056326 6.8282704645119583e-07 6.7913142616456234e-06 0.00017559175847634063 0.13239732339434415 0.21427129819840035 0.32270208423572422 0.00023811566043723597 3.9512739044916177e-05 0.013227526641157516 0.0028087452292642717 0.01844751648558873 0.0013523342279967395 0.075352477529878448 0.61921011086609767 0.34059842899060094 0.32456566117888863 0.1182945235490216 0.31430653675729631 0.43166681887368313 0.44396523613407124 0.10974274007859848 0.31440940090520242 0.56972173827894135 0.65939231076722316 0.019260988971490655 0.059767934293063811 0.0045060776358764945 0.0029424241793984617 0.035037269599887171 0.00052711877354272882 0.001221946504070083 0.013664005111446035 0.04578457974174617 0.00020784239896025193 0.61567859150443083 0.73837902774105324 0.0010193485986481842 0.0088952174739510819 0.0025586975076212081 0.011112509698723133 0.16703141807834745 0.16358854713108967 0.067734768286064603 0.19157798296922132 0.51943715136000435 0.78561728789849639 0.42178222286053385 0.15511314004737772 0.36019407842296086 0.057708756588843932 0.0854697672788607 0.8423550962696631 0.94051305590274348 0.2217760539231117 0.6891224346965158 0.4789096109490607 0.77287439440173045 0.79199784074335688 0.61735678919987547 0.42238721796660844 0.31810890505782169 0.098957211594048869 0.019092757407065744 0.032126265106414732 0.63678765518695857 0.6552183240100129 0.33159971751406081 0.61988463315332165 0.34636515437830973 0.10075599331501123 0.026631801256881808 0.13123037187919126 0.04055716721972423 0.0018108043491351863 0.0077388868644642705 3.0251628326170013e-05 0.00018227218399993823 4.7616209012545315e-06 5.028956627153525e-05 0.0062735204344258628 0.00030923964528361576 0.0012676535061079746 9.6752760129046076e-05 0.00017482861611099558 0.0012064404350783627 0.015498579660303845 0.064583013183664495 0.11541767948395029 0.37606759552599101 0.34975214866728466 0.62571514689372176 
</DataArray>
</CellData>
</Piece>
</UnstructuredGrid>
</VTKFile>
