<?xml version="1.0"?>
<VTKFile type="UnstructuredGrid" version="0.1" byte_order="LittleEndian">
<UnstructuredGrid>
<Piece NumberOfPoints="714" NumberOfCells="1306">
<Points>
<DataArray type="Float64" NumberOfComponents="3" format="ascii">
0.000000000000000e+00 0.000000000000000e+00 0.000000000000000e+00 5.000000000000000e+00 0.000000000000000e+00 0.000000000000000e+00 5.000000000000000e+00 1.000000000000000e+00 0.000000000000000e+00 0.000000000000000e+00 1.000000000000000e+00 0.000000000000000e+00 9.999999999992801e-02 0.000000000000000e+00 0.000000000000000e+00 1.999999999998339e-01 0.000000000000000e+00 0.000000000000000e+00 2.999999999997341e-01 0.000000000000000e+00 0.000000000000000e+00 3.999999999996643e-01 0.000000000000000e+00 0.000000000000000e+00 4.999999999995944e-01 0.000000000000000e+00 0.000000000000000e+00 5.999999999995166e-01 0.000000000000000e+00 0.000000000000000e+00 6.999999999992880e-01 0.000000000000000e+00 0.000000000000000e+00 7.999999999989961e-01 0.000000000000000e+00 0.000000000000000e+00 8.999999999987042e-01 0.000000000000000e+00 0.000000000000000e+00 9.999999999984124e-01 0.000000000000000e+00 0.000000000000000e+00 1.099999999998120e+00 0.000000000000000e+00 0.000000000000000e+00 1.199999999997829e+00 0.000000000000000e+00 0.000000000000000e+00 1.299999999997537e+00 0.000000000000000e+00 0.000000000000000e+00 1.399999999997245e+00 0.000000000000000e+00 0.000000000000000e+00 1.499999999996953e+00 0.000000000000000e+00 0.000000000000000e+00 1.599999999996661e+00 0.000000000000000e+00 0.000000000000000e+00 1.699999999996369e+00 0.000000000000000e+00 0.000000000000000e+00 1.799999999996077e+00 0.000000000000000e+00 0.000000000000000e+00 1.899999999995785e+00 0.000000000000000e+00 0.000000000000000e+00 1.999999999995511e+00 0.000000000000000e+00 0.000000000000000e+00 2.099999999995593e+00 0.000000000000000e+00 0.000000000000000e+00 2.199999999995745e+00 0.000000000000000e+00 0.000000000000000e+00 2.299999999995897e+00 0.000000000000000e+00 0.000000000000000e+00 2.399999999996049e+00 0.000000000000000e+00 0.000000000000000e+00 2.499999999996201e+00 0.000000000000000e+00 0.000000000000000e+00 2.599999999996353e+00 0.000000000000000e+00 0.000000000000000e+00 2.699999999996505e+00 0.000000000000000e+00 0.000000000000000e+00 2.799999999996657e+00 0.000000000000000e+00 0.000000000000000e+00 2.899999999996809e+00 0.000000000000000e+00 0.000000000000000e+00 2.999999999996961e+00 0.000000000000000e+00 0.000000000000000e+00 3.099999999997114e+00 0.000000000000000e+00 0.000000000000000e+00 3.199999999997265e+00 0.000000000000000e+00 0.000000000000000e+00 3.299999999997417e+00 0.000000000000000e+00 0.000000000000000e+00 3.399999999997569e+00 0.000000000000000e+00 0.000000000000000e+00 3.499999999997721e+00 0.000000000000000e+00 0.000000000000000e+00 3.599999999997873e+00 0.000000000000000e+00 0.000000000000000e+00 3.699999999998025e+00 0.000000000000000e+00 0.000000000000000e+00 3.799999999998176e+00 0.000000000000000e+00 0.000000000000000e+00 3.899999999998329e+00 0.000000000000000e+00 0.000000000000000e+00 3.999999999998481e+00 0.000000000000000e+00 0.000000000000000e+00 4.099999999998633e+00 0.000000000000000e+00 0.000000000000000e+00 4.199999999998784e+00 0.000000000000000e+00 0.000000000000000e+00 4.299999999998937e+00 0.000000000000000e+00 0.000000000000000e+00 4.399999999999088e+00 0.000000000000000e+00 0.000000000000000e+00 4.499999999999240e+00 0.000000000000000e+00 0.000000000000000e+00 4.599999999999393e+00 0.000000000000000e+00 0.000000000000000e+00 4.699999999999545e+00 0.000000000000000e+00 0.000000000000000e+00 4.799999999999696e+00 0.000000000000000e+00 0.000000000000000e+00 4.899999999999848e+00 0.000000000000000e+00 0.000000000000000e+00 5.000000000000000e+00 9.999999999981467e-02 0.000000000000000e+00 5.000000000000000e+00 1.999999999995579e-01 0.000000000000000e+00 5.000000000000000e+00 2.999999999992664e-01 0.000000000000000e+00 5.000000000000000e+00 3.999999999989749e-01 0.000000000000000e+00 5.000000000000000e+00 4.999999999986943e-01 0.000000000000000e+00 5.000000000000000e+00 5.999999999989468e-01 0.000000000000000e+00 5.000000000000000e+00 6.999999999992100e-01 0.000000000000000e+00 5.000000000000000e+00 7.999999999994734e-01 0.000000000000000e+00 5.000000000000000e+00 8.999999999997368e-01 0.000000000000000e+00 4.899999999999999e+00 1.000000000000000e+00 0.000000000000000e+00 4.800000000000000e+00 1.000000000000000e+00 0.000000000000000e+00 4.699999999999999e+00 1.000000000000000e+00 0.000000000000000e+00 4.600000000000000e+00 1.000000000000000e+00 0.000000000000000e+00 4.499999999999999e+00 1.000000000000000e+00 0.000000000000000e+00 4.399999999999999e+00 1.000000000000000e+00 0.000000000000000e+00 4.299999999999999e+00 1.000000000000000e+00 0.000000000000000e+00 4.199999999999998e+00 1.000000000000000e+00 0.000000000000000e+00 4.099999999999999e+00 1.000000000000000e+00 0.000000000000000e+00 3.999999999999999e+00 1.000000000000000e+00 0.000000000000000e+00 3.899999999999999e+00 1.000000000000000e+00 0.000000000000000e+00 3.799999999999999e+00 1.000000000000000e+00 0.000000000000000e+00 3.699999999999998e+00 1.000000000000000e+00 0.000000000000000e+00 3.599999999999999e+00 1.000000000000000e+00 0.000000000000000e+00 3.499999999999999e+00 1.000000000000000e+00 0.000000000000000e+00 3.399999999999999e+00 1.000000000000000e+00 0.000000000000000e+00 3.299999999999999e+00 1.000000000000000e+00 0.000000000000000e+00 3.199999999999998e+00 1.000000000000000e+00 0.000000000000000e+00 3.099999999999999e+00 1.000000000000000e+00 0.000000000000000e+00 2.999999999999999e+00 1.000000000000000e+00 0.000000000000000e+00 2.899999999999999e+00 1.000000000000000e+00 0.000000000000000e+00 2.799999999999999e+00 1.000000000000000e+00 0.000000000000000e+00 2.699999999999999e+00 1.000000000000000e+00 0.000000000000000e+00 2.599999999999999e+00 1.000000000000000e+00 0.000000000000000e+00 2.500000000000000e+00 1.000000000000000e+00 0.000000000000000e+00 2.399999999999999e+00 1.000000000000000e+00 0.000000000000000e+00 2.299999999999999e+00 1.000000000000000e+00 0.000000000000000e+00 2.199999999999999e+00 1.000000000000000e+00 0.000000000000000e+00 2.100000000000000e+00 1.000000000000000e+00 0.000000000000000e+00 2.000000000000000e+00 1.000000000000000e+00 0.000000000000000e+00 1.899999999999999e+00 1.000000000000000e+00 0.000000000000000e+00 1.799999999999999e+00 1.000000000000000e+00 0.000000000000000e+00 1.699999999999999e+00 1.000000000000000e+00 0.000000000000000e+00 1.599999999999999e+00 1.000000000000000e+00 0.000000000000000e+00 1.500000000000000e+00 1.000000000000000e+00 0.000000000000000e+00 1.399999999999999e+00 1.000000000000000e+00 0.000000000000000e+00 1.299999999999999e+00 1.000000000000000e+00 0.000000000000000e+00 1.199999999999999e+00 1.000000000000000e+00 0.000000000000000e+00 1.100000000000000e+00 1.000000000000000e+00 0.000000000000000e+00 9.999999999999991e-01 1.000000000000000e+00 0.000000000000000e+00 8.999999999999995e-01 1.000000000000000e+00 0.000000000000000e+00 7.999999999999998e-01 1.000000000000000e+00 0.000000000000000e+00 7.000000000000002e-01 1.000000000000000e+00 0.000000000000000e+00 5.999999999999996e-01 1.000000000000000e+00 0.000000000000000e+00 4.999999999999991e-01 1.000000000000000e+00 0.000000000000000e+00 3.999999999999995e-01 1.000000000000000e+00 0.000000000000000e+00 3.000000000000007e-01 1.000000000000000e+00 0.000000000000000e+00 1.999999999999993e-01 1.000000000000000e+00 0.000000000000000e+00 9.999999999999964e-02 1.000000000000000e+00 0.000000000000000e+00 0.000000000000000e+00 8.999999999995836e-01 0.000000000000000e+00 0.000000000000000e+00 7.999999999999998e-01 0.000000000000000e+00 0.000000000000000e+00 7.000000000006934e-01 0.000000000000000e+00 0.000000000000000e+00 6.000000000013869e-01 0.000000000000000e+00 0.000000000000000e+00 5.000000000020587e-01 0.000000000000000e+00 0.000000000000000e+00 4.000000000016644e-01 0.000000000000000e+00 0.000000000000000e+00 3.000000000012483e-01 0.000000000000000e+00 0.000000000000000e+00 2.000000000008322e-01 0.000000000000000e+00 0.000000000000000e+00 1.000000000004160e-01 0.000000000000000e+00 7.477570327540725e-01 4.905967956478702e-01 0.000000000000000e+00 1.346210646643281e+00 4.806066422083806e-01 0.000000000000000e+00 1.949496869330408e+00 5.032480558805372e-01 0.000000000000000e+00 4.449999999999997e+00 5.000000000000384e-01 0.000000000000000e+00 3.859142349610828e+00 5.103468031113156e-01 0.000000000000000e+00 3.246530027037640e+00 5.183101712757180e-01 0.000000000000000e+00 2.657531292711257e+00 5.037429884868682e-01 0.000000000000000e+00 3.824015840967434e-01 6.064457502813875e-01 0.000000000000000e+00 2.306343155343502e+00 6.315316747431162e-01 0.000000000000000e+00 1.049999999998266e+00 3.374999999994497e-01 0.000000000000000e+00 1.641930697057102e+00 3.436055112169133e-01 0.000000000000000e+00 4.150000000000006e+00 6.625000000000185e-01 0.000000000000000e+00 3.552784161359181e+00 6.642488388863971e-01 0.000000000000000e+00 2.940292465243163e+00 6.575992780735344e-01 0.000000000000000e+00 1.641237689750194e+00 6.703960699373966e-01 0.000000000000000e+00 1.050000000000000e+00 6.706367924525535e-01 0.000000000000000e+00 2.960517759676693e+00 3.261740577967960e-01 0.000000000000000e+00 3.551899302943298e+00 3.210887133285832e-01 0.000000000000000e+00 4.150779393876139e+00 3.209867287821391e-01 0.000000000000000e+00 2.213980362532827e+00 3.194901812685164e-01 0.000000000000000e+00 4.927283029162088e-01 3.252862896001115e-01 0.000000000000000e+00 4.696684455724628e+00 3.145438084075651e-01 0.000000000000000e+00 4.690990908683984e+00 6.962960281446974e-01 0.000000000000000e+00 2.487221901830106e+00 2.763334294511438e-01 0.000000000000000e+00 6.215262983536076e-01 7.328515730233995e-01 0.000000000000000e+00 2.065768881873406e+00 7.342557316219342e-01 0.000000000000000e+00 2.543072460766750e+00 7.257064952909391e-01 0.000000000000000e+00 8.105176211436336e-01 2.535517621144286e-01 0.0000000000000
[...]
<CellData Scalars="A_conc,As-lin_conc,Bs-lang_conc,Cs-freund_conc," Vectors="" Tensors="">
<DataArray type="Float64" Name="A_conc" format="ascii">
3.975037468545636e-03 6.129423297174379e-01 3.205711361950231e-02 5.829883579838538e-04 5.249868756429432e-01 1.841270570732462e-01 1.949854755151174e-01 4.260840235779221e-01 5.901341264384287e-01 8.062704907482962e-04 4.314120908753193e-02 5.579157162994203e-03 1.205605878550603e-06 5.093195497465297e-02 7.460221124199905e-06 5.392246999466332e-03 6.724926387356971e-06 7.082559048426775e-06 1.486407966457618e-01 2.765568810228321e-05 4.497336253185181e-08 1.168742593227814e-06 9.248534744088647e-04 1.104894658505691e-03 2.929837962946562e-06 7.822494268898265e-04 7.340824897677305e-03 4.993972115730668e-01 4.294735893055916e-06 7.371782582702183e-06 5.682772623344581e-07 4.176712033169496e-06 3.021492320450982e-05 3.939298260181735e-03 1.567113971701620e-01 5.661971397426697e-01 4.489931097104334e-03 1.687494440148647e-07 5.745282382476121e-04 5.342818518088409e-01 5.993006785563559e-02 1.141534195388107e-06 2.861771521855064e-03 3.200055429174416e-04 1.987081117936548e-08 1.874898462684887e-01 9.659514442881652e-06 3.153141656936936e-01 1.487574730959538e-01 1.753959015762347e-01 5.879694186303343e-01 2.311873623423025e-06 5.546720336823621e-02 5.535232307520477e-01 5.814992680062523e-01 6.314752294254105e-01 7.839581307117772e-08 4.171879853023042e-01 4.855746948074270e-01 7.693680327755034e-06 9.107068056586504e-02 4.217732601114850e-01 2.543236206655374e-01 2.594966918272667e-05 1.329175157570384e-08 2.130244192477479e-01 3.122191534050108e-01 2.633724165625117e-06 6.042291307257379e-01 4.736862862327997e-01 4.270151145764644e-08 1.463251219632221e-02 2.020944832229066e-03 8.634211915867503e-06 3.293139177268017e-01 1.623456918077757e-01 1.091764919423607e-06 1.883702914184331e-01 3.551627712490000e-01 1.950882508963832e-08 1.039000350249642e-02 1.575990758274667e-01 1.146644229944436e-02 6.973748023793357e-02 2.789917663133825e-01 1.410132060809353e-06 1.753429556705468e-01 3.417609883873515e-01 2.250743620067982e-05 8.445680724707561e-06 1.190831311771247e-01 2.816764264540060e-01 4.523247087486041e-01 2.661017219421594e-01 1.691147553227743e-01 2.023173762520222e-05 2.638191178310854e-01 4.293981488642126e-01 2.614181531936403e-02 4.853972102845578e-01 1.539838582076571e-03 1.750603672069898e-05 2.716255341464455e-05 2.678886527837220e-01 1.309148955290446e-06 3.355119255539508e-01 5.884031715963927e-06 5.051099147934324e-01 9.440725613932828e-07 3.484452607719144e-01 2.096007979791961e-08 2.068009536748577e-06 1.998951669418486e-06 5.665737038481603e-05 4.170621358291410e-06 4.377382166586085e-01 7.368364615286152e-06 1.772157733997410e-07 2.883945256893468e-07 4.986588578074391e-01 5.234788533969104e-07 2.242871781934280e-04 1.702335681237787e-02 3.142306596071967e-06 4.895724313948067e-01 5.058993081896318e-08 3.903118538059247e-02 1.014251438056601e-06 4.489496206162175e-01 3.797236469659823e-01 1.664088467620522e-01 2.892017777869016e-07 3.580395597484222e-01 3.918783804531130e-01 2.230956364609020e-01 2.405873456086218e-08 7.696492710476438e-06 6.234906703966070e-01 3.031629831049502e-01 2.163012972862626e-01 1.395551787827437e-07 4.862475931481912e-01 3.855285215051355e-05 8.849499605114170e-05 1.058135272676078e-01 9.671962023617638e-02 3.355585830360874e-01 8.280700531151294e-07 1.871955163046829e-01 3.480309299272844e-01 5.573418636331039e-07 1.791473344391935e-01 2.274278088095839e-01 2.964317250751092e-01 4.842803907047011e-06 9.120459232863337e-02 2.826578785320722e-07 4.516954752861971e-01 3.710403617623047e-04 8.038698403421606e-02 7.608751079529926e-06 3.748669631390573e-01 1.413601819354335e-02 2.228883498602269e-02 1.135469740406629e-03 2.727451177119711e-06 2.381920518468393e-06 3.203900124428801e-04 3.543736715681601e-04 8.278931871799095e-02 2.829279175882697e-06 7.421179361726514e-07 9.724703680837832e-02 8.714938231528377e-02 3.945240785901233e-08 2.464365179629885e-01 4.141504273338114e-01 2.131094001992870e-02 4.363455411044852e-03 6.129358466733261e-08 2.598274897582504e-01 4.274345671589720e-01 5.429350093842356e-01 1.610633491402793e-04 3.266033617774103e-03 3.650715592797081e-07 1.186503310237933e-06 2.299548874293880e-04 3.426038386782242e-02 1.589801123568436e-07 2.842984903697592e-03 1.324300272742199e-06 7.498978183322462e-06 4.093052550041316e-06 2.165814887986302e-06 1.443747498206547e-07 2.781541607402181e-06 2.403247642685746e-06 6.952877411030818e-03 8.476964925252309e-03 2.323630116564121e-06 5.093991011670766e-05 6.600382810838574e-01 4.277910438624575e-04 2.396173286715191e-01 4.084897757865439e-01 1.267163450081949e-04 1.492704923476563e-05 3.812610801168568e-04 5.616805311342273e-01 3.650004348860644e-08 2.689597349632845e-02 2.126075904071504e-01 3.603599981937802e-03 8.557097972155114e-06 3.552802902624644e-04 3.054301009276218e-06 2.082449582153719e-04 5.462927562960440e-06 1.582916223661859e-01 1.484044365587225e-01 5.142942090075653e-01 1.394906038706955e-07 9.887979039267043e-04 1.229461761503834e-03 6.453591092311111e-01 2.825284482900470e-06 1.397763027621444e-03 6.395407366519014e-02 2.079557638982758e-07 2.173223172886276e-07 2.107091636291148e-06 3.692185330535681e-06 3.392852351494661e-04 2.337371824397109e-01 2.890863543953747e-01 3.183604088882236e-01 2.065088251799146e-01 2.809733044737487e-06 7.375521403001643e-02 3.329982984407221e-01 1.050764891423175e-06 1.926332553281200e-01 1.681620048274421e-05 1.056183036331974e-01 2.672728553142184e-01 4.368359641422185e-01 7.350594727619855e-02 8.379540556466859e-06 6.521674813242338e-02 1.528040859938609e-05 1.965355098132295e-08 1.027168626722621e-01 2.693058555691232e-01 4.357756183806368e-01 4.359890288666094e-01 4.564971993697149e-06 4.993233501065808e-03 8.819557499297115e-06 5.435123271753316e-02 5.695460824563162e-05 3.393443570106270e-03 2.894638206850243e-01 2.776236371537221e-01 7.354779713230838e-07 4.070260095146464e-05 4.517636393730366e-04 4.980068096932279e-06 2.476736266757387e-03 7.145630870188024e-02 1.728831526202795e-06 5.147736922079822e-07 3.492642625707767e-01 1.785274787686696e-01 4.702624991604039e-02 2.270713157411334e-04 3.140684861459237e-02 5.651106012069719e-06 1.178186842871657e-06 1.216898945912158e-06 1.113876287865728e-07 3.686272125017683e-01 2.073220683988340e-04 8.734523895668502e-06 5.029189821285510e-01 3.543352155564318e-07 8.923365713295736e-07 3.078188513773208e-07 2.273111018104951e-01 2.987970553441388e-01 4.875666124028904e-06 9.469770875885265e-07 1.486754557083718e-03 2.128996333025535e-03 1.386132304701808e-01 6.263032908265841e-08 1.203312131570976e-05 7.590740233208463e-06 6.451943212408018e-02 5.959521095593893e-03 1.180677332097268e-01 5.895168897496162e-04 2.809415722729958e-01 4.487107831566472e-01 3.948782915896580e-03 7.640624697830008e-06 7.601529178649202e-06 4.920398827136419e-01 2.917751933474040e-01 1.284519796605051e-01 3.043940129820689e-01 1.382303256870726e-01 8.157774534489950e-02 2.155730992086959e-07 9.311793915091453e-02 3.352058493434042e-03 8.765138099514359e-03 1.094232873893992e-02 5.904952783684219e-01 4.176354459575514e-01 4.071405163762258e-01 1.146585790347272e-07 1.281849147399891e-07 1.827492197715763e-06 1.500693749871919e-05 2.703730089720581e-01 2.565791242205130e-01 5.808214139996370e-07 1.217859330247128e-01 4.662545785165187e-06 6.253972639938294e-01 6.182235867364152e-01 6.196061642604600e-01 6.246277553433933e-01 4.791135004726623e-01 2.040489762312849e-04 4.747252680708955e-06 3.798688864307046e-08 2.347612655558836e-01 1.158081536846956e-03 1.793294831492123e-03 3.752461396272586e-06 3.419893610872744e-02 5.481613928322726e-01 4.525715620684924e-02 5.760990991964347e-06 3.343235564317090e-03 5.230701146094761e-02 2.041173790133764e-06 1.339190118735354e-02 6.501432792175668e-01 2.807767783101672e-02 1.299426275016130e-06 1.112231623785749e-03 8.718204211404167e-06 4.301924649934072e-01 5.124355085732056e-08 7.446147247766864e-08 8.294976149237756e-06 1.106164208232884e-07 7.747515493191707e-06 4.971405954790807e-05 7.338470829139491e-06 3.888669551652547e-01 3.727749909138508e-06 3.933472277047193e-01 8.702283581906195e-06 2.846301021078276e-01 2.409371908123363e-01 6.007302288043247e-01 6.610607307592506e-01 6.610607380046583e-01 5.200398789920987e-01 5.182090830972761e-01 1.131131874262716e-01 3.451409479318476e-08 4.473324064117791e-01 3.227982550758618e-08 4.139817612548146e-01 4.026877961024674e-05 5.987777253510381e-01 1.073298916334298e-05 5.036848768829502e-06 3.062489435760846e-01 1.418779833889064e-01 1.744622372445062e-02 9.570292304964737e-08 6.461894780906715e-03 6.011172015807298e-03 5.153208206845724e-01 5.959307279141812e-01 2.492908253859610e-04 5.543161674317917e-07 3.820739760435517e-02 8.273730319121000e-04 6.488442550127492e-06 4.123749576250990e-06 3.641470850715646e-01 3.480236391730429e-01 5.213989393424411e-07 9.947251599348485e-02 5.795839458009422e-01 3.240209225132930e-02 4.746968527922888e-06 2.919782389895523e-06 4.000819743866237e-06 5.196773503323529e-07 1.881783290494596e-01 5.549117488945418e-01 3.563065955913186e-01 7.998658694384542e-02 6.603208308482249e-01 8.158959936384755e-02 1.011011150773017e-06 4.002612665679515e-01 5.860062495643806e-01 8.175803918195111e-07 1.018554076366168e-06 2.450459114176720e-01 2.211865942627570e-03 7.396889219377248e-07 1.774461195342906e-01 3.448688161664163e-01 4.893375334763851e-01 6.940764339157357e-04 7.333192028662473e-03 8.281197756895289e-05 2.889083611846429e-06 1.431172137290388e-01 3.078317800461082e-01 4.798393590472220e-01 2.076251370976443e-03 5.105216290718071e-06 1.324425282209215e-01 2.980919634885029e-01 4.688964958390329e-01 9.127818391930636e-05 8.776284862646506e-06 2.827095741738230e-01 2.412971194406643e-01 9.291611821129135e-02 2.477143378530427e-01 2.780915175308408e-01 3.812365815794017e-01 2.118892440174507e-01 4.067007879572120e-01 2.372961248121312e-01 2.551019220067104e-02 7.911959794702990e-06 6.384967229131522e-01 3.132447875593310e-02 5.470680444415997e-07 2.013221478843601e-01 6.272572302658628e-01 3.672366059648032e-01 1.979693973711125e-01 7.763508617720029e-02 2.204745514111671e-04 5.834781279418630e-03 3.238653172215237e-08 5.442991208738633e-01 5.885805356787652e-01 7.285923686063788e-06 1.927940631889509e-02 3.067770088189659e-02 3.740822858206817e-04 6.289752369795347e-01 6.194443248540611e-01 9.688824465528891e-07 4.119608505196172e-01 5.813428870310960e-02 6.038058124768276e-02 8.778323251433259e-02 5.826329543636740e-01 5.668481359716433e-01 5.782485459002176e-01 1.896077046636617e-06 1.334395317963927e-04 1.149808298465205e-07 2.138345149583312e-02 4.789435419952916e-01 8.047579227146193e-07 5.202013937658204e-01 2.488562465765893e-01 2.069816692590873e-08 2.966444963156684e-05 4.441924602808637e-01 2.645177958137413e-01 2.504710679886923e-01 2.719068097173569e-06 3.592972267751430e-01 6.184596541084657e-01 5.319850514190817e-01 3.959083448849693e-01 4.233967284916366e-01 2.537823177891040e-01 4.055016910798885e-02 5.026337622175936e-01 1.307888968425663e-01 5.338996386053281e-01 7.691855181671114e-08 2.939095398135363e-06 3.128592971664791e-06 3.543331022565523e-01 1.885593656170263e-01 3.030846727947644e-01 2.211536297742245e-01 9.783969112608499e-06 7.331195498472315e-08 4.088833365207053e-03 5.060398838628993e-01 2.462698015769905e-04 2.182601550121562e-02 6.243781380267328e-06 8.275816257155504e-03 1.998160673539111e-06 3.835891112546194e-01 4.728089483946548e-01 5.366092567744145e-01 5.407394842428200e-01 4.308313047708800e-06 8.141988521944955e-06 4.739197372813803e-03 1.468904277706951e-07 5.580615369736320e-01 5.131851346887996e-01 9.296707031022953e-07 4.224534747047505e-01 9.314470918406130e-02 5.667863023541305e-01 1.052773686239800e-01 2.952443225600924e-06 5.238990456790097e-01 4.467884645944510e-01 4.644788758720104e-02 1.832934283458668e-01 6.774590387988740e-02 3.733113450862455e-06 1.573882060797070e-03 5.050097730775488e-01 1.703568938466344e-01 4.513126936772053e-01 9.058241978767682e-06 2.828627205743924e-01 1.177638030824239e-01 3.467045583942110e-08 8.563364106751212e-05 5.308623653699835e-01 6.195444681773440e-02 3.537242538566124e-04 9.339265433159532e-06 1.667950103226396e-03 4.003536434242740e-07 3.588793307324378e-01 1.913203623938061e-01 1.476510337295815e-04 4.884359738487189e-01 5.725872132476124e-01 7.220118835037809e-06 6.537763180273837e-06 1.501316886577493e-07 2.476467509321405e-03 3.849861938933215e-06 1.450254540661261e-01 3.126058457424097e-01 4.447191572398201e-07 3.872247091706630e-01 4.525500476628250e-05 6.050642297016033e-01 2.894764110808917e-05 8.375780130602890e-07 5.449787300524219e-01 5.373860476905894e-01 1.100121505129067e-07 4.928959540493649e-01 5.011634104221845e-01 4.864008059690022e-03 8.335478576203098e-02 2.805987070341566e-01 9.634327546805142e-04 4.786776275194585e-02 6.007935270449165e-01 5.893244490025306e-01 1.344801356763815e-02 3.223466280342389e-07 2.488714468911000e-01 1.814574763279907e-02 4.756036853724906e-02 1.342238482234944e-07 4.622315033770202e-01 1.144824871493920e-07 2.043204616090029e-07 3.700803587637519e-01 1.353825405945411e-07 3.788779005923174e-01 6.277582136221531e-01 6.161395409235689e-01 1.259736175174495e-02 1.762480996827789e-01 9.341912833331990e-06 2.165631745500519e-08 1.785743621836861e-07 3.415421607111973e-01 9.447361289288718e-06 1.742770067386586e-01 5.984890898990564e-01 1.560211404461132e-04 1.386180665895913e-04 7.805194839190719e-08 3.763057783701063e-02 7.694499228361592e-07 8.521290792873405e-06 6.934506622822375e-08 8.553352376231089e-07 5.017823826086329e-01 8.321800144813811e-07 4.026236182379827e-07 1.096773912870707e-02 1.245295760063879e-01 4.842435631496837e-08 4.066208873741318e-01 5.487400123551762e-02 6.376580187142239e-03 1.242386954151319e-03 4.615626722993808e-01 6.543995359196824e-05 1.844282839899108e-02 1.601053711039106e-07 7.529071698248309e-06 3.601711682967893e-06 4.184344748308452e-01 4.081124512852560e-01 3.747712368928013e-05 3.119799024373443e-03 3.439624576089106e-01 2.461331494684807e-06 3.282673886405962e-08 2.542209555223446e-01 2.492120533750911e-06 1.554296641170738e-01 3.221633375762795e-01 4.217391917255351e-07 4.647156637477864e-07 3.252478583592266e-07 3.306232625309867e-01 1.965401523273773e-01 7.815552868143404e-03 5.151960800977367e-02 2.033745262741261e-07 4.687756408649629e-07 4.342960989014912e-06 5.304443462197311e-01 1.166412843175782e-05 3.826050922937465e-07 3.555421054358494e-01 1.880924827773260e-01 2.692183236804645e-06 4.676981853658705e-01 4.596752118371525e-01 6.223187829915061e-06 3.073550469584701e-07 4.270168834603510e-01 3.840501298871254e-06 9.239762350606971e-05 1.061537047294842e-07 1.131149084098328e-07 1.130755179554772e-02 6.399376606727006e-02 1.398159069755947e-02 2.778995179098601e-04 2.597228734073672e-06 4.374568904993191e-01 4.285436388346272e-01 1.033484910943835e-01 6.014518586706196e-08 6.577414200906406e-08 2.525972008105005e-05 3.899260926170683e-02 1.278300965373760e-01 5.376619481545148e-04 8.266966024787307e-08 3.520767158762065e-08 2.938947073028357e-01 7.791152332441504e-06 7.069123738296761e-02 5.580449965577247e-01 1.510231890915152e-04 6.519575311758564e-01 6.503128471798763e-01 2.415189629210451e-02 9.317714896482913e-06 2.400082621580985e-01 2.296630059260268e-01 1.121587563801166e-01 2.444726995705420e-02 2.063910204997155e-02 1.662972807422729e-01 1.297511789154660e-06 3.341865456553941e-01 4.228311467443157e-02 4.737320538962224e-01 1.215007902368756e-03 6.392157340155654e-01 6.511657279173380e-01 6.515001169045764e-01 6.395623731353779e-01 6.352548326113359e-01 6.369436040808172e-01 1.608007764131761e-04 3.300306736577669e-01 1.162472217287148e-01 1.118999101618176e-01 3.116569707318814e-07 1.831738663482629e-02 5.653307707976531e-06 1.550637230121890e-07 5.445417620748262e-01 2.189988883096987e-02 2.540795487531936e-02 3.197336313078762e-06 4.195033440534834e-06 3.200231324202746e-01 2.072197871354122e-01 9.949578162097847e-06 2.529064594151635e-02 4.466712878448947e-05 4.894391272448899e-02 4.869196716744725e-08 3.861078953399835e-06 1.181746985761905e-07 2.066837929572764e-08 1.385910179696520e-01 3.812424128330676e-01 1.947745920674588e-07 2.128815698052968e-01 2.826218397373406e-03 3.792048404082496e-07 6.897546268626963e-08 9.079450706777486e-07 8.967130222661905e-06 3.012424670197950e-01 9.750240496950328e-07 1.022889698380378e-04 1.411141923590860e-01 1.342442054141354e-01 2.210468677644848e-07 3.820314494164613e-01 4.034782728500498e-05 3.652624125211674e-06 1.130721680812733e-01 6.643392575820251e-01 6.643392602210751e-01 5.309871319901989e-08 4.760825782181281e-01 1.469971243204567e-01 9.662490595108349e-03 3.417526703103355e-06 3.502355841168288e-01 6.245511089921344e-07 1.774658959162240e-01 1.016242921731841e-05 2.287891227531088e-01 6.503999878583335e-01 6.503999957807286e-01 3.198954942898661e-01 5.442269613149945e-01 5.315468031938664e-01 4.979252299103306e-01 4.879021821080436e-06 5.026835018766666e-08 5.683032845954095e-01 5.560777467960716e-01 1.667113596244647e-02 3.584470809184307e-08 6.278560541353962e-05 3.717554540289250e-08 3.150093661972797e-08 5.400730479715286e-01 1.240507260355510e-01 6.373081535964085e-01 6.375316431676836e-01 3.230863041638598e-04 6.376981396423684e-06 3.925829646259149e-01 4.955635548317215e-07 2.251655232491644e-01 1.484774848295291e-07 2.657906846723111e-06 4.338725260343896e-01 4.596862900761894e-01 1.566498798566781e-05 9.609101907148481e-05 1.231985311708291e-02 1.484859292486328e-02 7.329681605197502e-02 1.955231129564401e-05 4.763972411011604e-01 2.118946525405181e-01 2.014461176536773e-01 3.783663344110388e-01 3.667144043896350e-01 1.254538362204860e-01 2.059963722189498e-05 2.269342188864848e-01 4.226245313163989e-06 3.053376692778172e-01 6.407886850525729e-05 1.090658995164771e-01 2.717987254556349e-01 4.395556353242288e-01 4.012675672317343e-01 2.338359105045035e-01 1.139125580225299e-01 2.163655330694784e-01 2.930088990890517e-06 3.125696236779149e-01 8.851970436428140e-06 3.378750004393691e-08 6.590983727243888e-06 2.746413244049868e-06 4.224339733831890e-01 1.172329209684596e-01 5.793205024993002e-01 2.632468111128884e-01 4.587549915253509e-01 1.610539217213104e-01 1.725978681609610e-06 3.234151644308808e-01 2.037858437947833e-01 4.517175090887560e-01 7.231157005318686e-02 6.236284512623359e-02 2.551433781482934e-03 8.781938686242472e-06 8.807919162903559e-08 8.577420907599567e-02 5.957635545141419e-01 6.045557022879876e-01 5.355164836193068e-03 2.903950691865446e-01 1.250421571718431e-01 5.816059057806008e-01 4.790051931773224e-08 6.235862582885480e-06 7.049412715712440e-06 5.521128391154633e-01 5.647401604613956e-01 2.234241475125680e-04 1.593538035373098e-06 1.557861443629467e-01 3.208679913163217e-01 1.997419769089890e-06 1.927696298367617e-06 2.647902257683825e-01 1.196462476542664e-04 5.368559488928328e-03 2.099740024103364e-02 1.681509676995838e-03 5.674992719389614e-01 4.667361679252583e-07 1.443791438354112e-02 9.665921258316486e-06 6.045226253932738e-01 6.380812193109915e-01 6.507602147816387e-01 3.340228655358549e-01 1.359943971335754e-04 2.879872856305861e-02 3.352997799047484e-02 3.631852853346131e-08 4.174893622383967e-01 2.519875742455407e-01 5.255445741296488e-06 1.236413859372648e-05 1.529009703098855e-01 1.413720807404809e-01 6.381889892190957e-06 1.810831125311237e-06 1.259505809441367e-05 1.835445794914848e-08 1.992271726604864e-06 2.912597497336428e-08 1.481045182035548e-02 6.183661316605852e-07 2.143947802628383e-01 3.818055664897673e-01 6.869885248112102e-03 8.993482000122359e-03 2.963914653125191e-07 4.407978057825156e-01 2.365505435335536e-03 3.356471554115792e-01 5.401179232229760e-02 3.432211882448553e-03 4.616454427716271e-03 2.911125909869722e-01 5.956941041389648e-01 9.721308125894336e-03 1.186347474393859e-02 1.218510219544486e-05 5.362023386678815e-01 5.923347569368076e-01 1.9245552