<?xml version="1.0"?>
<VTKFile type="UnstructuredGrid" version="0.1" byte_order="LittleEndian">
<UnstructuredGrid>
<Piece NumberOfPoints="714" NumberOfCells="1306">
<Points>
<DataArray type="Float64" NumberOfComponents="3" format="ascii">
0.000000000000000e+00 0.000000000000000e+00 0.000000000000000e+00 5.000000000000000e+00 0.000000000000000e+00 0.000000000000000e+00 5.000000000000000e+00 1.000000000000000e+00 0.000000000000000e+00 0.000000000000000e+00 1.000000000000000e+00 0.000000000000000e+00 9.999999999992801e-02 0.000000000000000e+00 0.000000000000000e+00 1.999999999998339e-01 0.000000000000000e+00 0.000000000000000e+00 2.999999999997341e-01 0.000000000000000e+00 0.000000000000000e+00 3.999999999996643e-01 0.000000000000000e+00 0.000000000000000e+00 4.999999999995944e-01 0.000000000000000e+00 0.000000000000000e+00 5.999999999995166e-01 0.000000000000000e+00 0.000000000000000e+00 6.999999999992880e-01 0.000000000000000e+00 0.000000000000000e+00 7.999999999989961e-01 0.000000000000000e+00 0.000000000000000e+00 8.999999999987042e-01 0.000000000000000e+00 0.000000000000000e+00 9.999999999984124e-01 0.000000000000000e+00 0.000000000000000e+00 1.099999999998120e+00 0.000000000000000e+00 0.000000000000000e+00 1.199999999997829e+00 0.000000000000000e+00 0.000000000000000e+00 1.299999999997537e+00 0.000000000000000e+00 0.000000000000000e+00 1.399999999997245e+00 0.000000000000000e+00 0.000000000000000e+00 1.499999999996953e+00 0.000000000000000e+00 0.000000000000000e+00 1.599999999996661e+00 0.000000000000000e+00 0.000000000000000e+00 1.699999999996369e+00 0.000000000000000e+00 0.000000000000000e+00 1.799999999996077e+00 0.000000000000000e+00 0.000000000000000e+00 1.899999999995785e+00 0.000000000000000e+00 0.000000000000000e+00 1.999999999995511e+00 0.000000000000000e+00 0.000000000000000e+00 2.099999999995593e+00 0.000000000000000e+00 0.000000000000000e+00 2.199999999995745e+00 0.000000000000000e+00 0.000000000000000e+00 2.299999999995897e+00 0.000000000000000e+00 0.000000000000000e+00 2.399999999996049e+00 0.000000000000000e+00 0.000000000000000e+00 2.499999999996201e+00 0.000000000000000e+00 0.000000000000000e+00 2.599999999996353e+00 0.000000000000000e+00 0.000000000000000e+00 2.699999999996505e+00 0.000000000000000e+00 0.000000000000000e+00 2.799999999996657e+00 0.000000000000000e+00 0.000000000000000e+00 2.899999999996809e+00 0.000000000000000e+00 0.000000000000000e+00 2.999999999996961e+00 0.000000000000000e+00 0.000000000000000e+00 3.099999999997114e+00 0.000000000000000e+00 0.000000000000000e+00 3.199999999997265e+00 0.000000000000000e+00 0.000000000000000e+00 3.299999999997417e+00 0.000000000000000e+00 0.000000000000000e+00 3.399999999997569e+00 0.000000000000000e+00 0.000000000000000e+00 3.499999999997721e+00 0.000000000000000e+00 0.000000000000000e+00 3.599999999997873e+00 0.000000000000000e+00 0.000000000000000e+00 3.699999999998025e+00 0.000000000000000e+00 0.000000000000000e+00 3.799999999998176e+00 0.000000000000000e+00 0.000000000000000e+00 3.899999999998329e+00 0.000000000000000e+00 0.000000000000000e+00 3.999999999998481e+00 0.000000000000000e+00 0.000000000000000e+00 4.099999999998633e+00 0.000000000000000e+00 0.000000000000000e+00 4.199999999998784e+00 0.000000000000000e+00 0.000000000000000e+00 4.299999999998937e+00 0.000000000000000e+00 0.000000000000000e+00 4.399999999999088e+00 0.000000000000000e+00 0.000000000000000e+00 4.499999999999240e+00 0.000000000000000e+00 0.000000000000000e+00 4.599999999999393e+00 0.000000000000000e+00 0.000000000000000e+00 4.699999999999545e+00 0.000000000000000e+00 0.000000000000000e+00 4.799999999999696e+00 0.000000000000000e+00 0.000000000000000e+00 4.899999999999848e+00 0.000000000000000e+00 0.000000000000000e+00 5.000000000000000e+00 9.999999999981467e-02 0.000000000000000e+00 5.000000000000000e+00 1.999999999995579e-01 0.000000000000000e+00 5.000000000000000e+00 2.999999999992664e-01 0.000000000000000e+00 5.000000000000000e+00 3.999999999989749e-01 0.000000000000000e+00 5.000000000000000e+00 4.999999999986943e-01 0.000000000000000e+00 5.000000000000000e+00 5.999999999989468e-01 0.000000000000000e+00 5.000000000000000e+00 6.999999999992100e-01 0.000000000000000e+00 5.000000000000000e+00 7.999999999994734e-01 0.000000000000000e+00 5.000000000000000e+00 8.999999999997368e-01 0.000000000000000e+00 4.899999999999999e+00 1.000000000000000e+00 0.000000000000000e+00 4.800000000000000e+00 1.000000000000000e+00 0.000000000000000e+00 4.699999999999999e+00 1.000000000000000e+00 0.000000000000000e+00 4.600000000000000e+00 1.000000000000000e+00 0.000000000000000e+00 4.499999999999999e+00 1.000000000000000e+00 0.000000000000000e+00 4.399999999999999e+00 1.000000000000000e+00 0.000000000000000e+00 4.299999999999999e+00 1.000000000000000e+00 0.000000000000000e+00 4.199999999999998e+00 1.000000000000000e+00 0.000000000000000e+00 4.099999999999999e+00 1.000000000000000e+00 0.000000000000000e+00 3.999999999999999e+00 1.000000000000000e+00 0.000000000000000e+00 3.899999999999999e+00 1.000000000000000e+00 0.000000000000000e+00 3.799999999999999e+00 1.000000000000000e+00 0.000000000000000e+00 3.699999999999998e+00 1.000000000000000e+00 0.000000000000000e+00 3.599999999999999e+00 1.000000000000000e+00 0.000000000000000e+00 3.499999999999999e+00 1.000000000000000e+00 0.000000000000000e+00 3.399999999999999e+00 1.000000000000000e+00 0.000000000000000e+00 3.299999999999999e+00 1.000000000000000e+00 0.000000000000000e+00 3.199999999999998e+00 1.000000000000000e+00 0.000000000000000e+00 3.099999999999999e+00 1.000000000000000e+00 0.000000000000000e+00 2.999999999999999e+00 1.000000000000000e+00 0.000000000000000e+00 2.899999999999999e+00 1.000000000000000e+00 0.000000000000000e+00 2.799999999999999e+00 1.000000000000000e+00 0.000000000000000e+00 2.699999999999999e+00 1.000000000000000e+00 0.000000000000000e+00 2.599999999999999e+00 1.000000000000000e+00 0.000000000000000e+00 2.500000000000000e+00 1.000000000000000e+00 0.000000000000000e+00 2.399999999999999e+00 1.000000000000000e+00 0.000000000000000e+00 2.299999999999999e+00 1.000000000000000e+00 0.000000000000000e+00 2.199999999999999e+00 1.000000000000000e+00 0.000000000000000e+00 2.100000000000000e+00 1.000000000000000e+00 0.000000000000000e+00 2.000000000000000e+00 1.000000000000000e+00 0.000000000000000e+00 1.899999999999999e+00 1.000000000000000e+00 0.000000000000000e+00 1.799999999999999e+00 1.000000000000000e+00 0.000000000000000e+00 1.699999999999999e+00 1.000000000000000e+00 0.000000000000000e+00 1.599999999999999e+00 1.000000000000000e+00 0.000000000000000e+00 1.500000000000000e+00 1.000000000000000e+00 0.000000000000000e+00 1.399999999999999e+00 1.000000000000000e+00 0.000000000000000e+00 1.299999999999999e+00 1.000000000000000e+00 0.000000000000000e+00 1.199999999999999e+00 1.000000000000000e+00 0.000000000000000e+00 1.100000000000000e+00 1.000000000000000e+00 0.000000000000000e+00 9.999999999999991e-01 1.000000000000000e+00 0.000000000000000e+00 8.999999999999995e-01 1.000000000000000e+00 0.000000000000000e+00 7.999999999999998e-01 1.000000000000000e+00 0.000000000000000e+00 7.000000000000002e-01 1.000000000000000e+00 0.000000000000000e+00 5.999999999999996e-01 1.000000000000000e+00 0.000000000000000e+00 4.999999999999991e-01 1.000000000000000e+00 0.000000000000000e+00 3.999999999999995e-01 1.000000000000000e+00 0.000000000000000e+00 3.000000000000007e-01 1.000000000000000e+00 0.000000000000000e+00 1.999999999999993e-01 1.000000000000000e+00 0.000000000000000e+00 9.999999999999964e-02 1.000000000000000e+00 0.000000000000000e+00 0.000000000000000e+00 8.999999999995836e-01 0.000000000000000e+00 0.000000000000000e+00 7.999999999999998e-01 0.000000000000000e+00 0.000000000000000e+00 7.000000000006934e-01 0.000000000000000e+00 0.000000000000000e+00 6.000000000013869e-01 0.000000000000000e+00 0.000000000000000e+00 5.000000000020587e-01 0.000000000000000e+00 0.000000000000000e+00 4.000000000016644e-01 0.000000000000000e+00 0.000000000000000e+00 3.000000000012483e-01 0.000000000000000e+00 0.000000000000000e+00 2.000000000008322e-01 0.000000000000000e+00 0.000000000000000e+00 1.000000000004160e-01 0.000000000000000e+00 7.477570327540725e-01 4.905967956478702e-01 0.000000000000000e+00 1.346210646643281e+00 4.806066422083806e-01 0.000000000000000e+00 1.949496869330408e+00 5.032480558805372e-01 0.000000000000000e+00 4.449999999999997e+00 5.000000000000384e-01 0.000000000000000e+00 3.859142349610828e+00 5.103468031113156e-01 0.000000000000000e+00 3.246530027037640e+00 5.183101712757180e-01 0.000000000000000e+00 2.657531292711257e+00 5.037429884868682e-01 0.000000000000000e+00 3.824015840967434e-01 6.064457502813875e-01 0.000000000000000e+00 2.306343155343502e+00 6.315316747431162e-01 0.000000000000000e+00 1.049999999998266e+00 3.374999999994497e-01 0.000000000000000e+00 1.641930697057102e+00 3.436055112169133e-01 0.000000000000000e+00 4.150000000000006e+00 6.625000000000185e-01 0.000000000000000e+00 3.552784161359181e+00 6.642488388863971e-01 0.000000000000000e+00 2.940292465243163e+00 6.575992780735344e-01 0.000000000000000e+00 1.641237689750194e+00 6.703960699373966e-01 0.000000000000000e+00 1.050000000000000e+00 6.706367924525535e-01 0.000000000000000e+00 2.960517759676693e+00 3.261740577967960e-01 0.000000000000000e+00 3.551899302943298e+00 3.210887133285832e-01 0.000000000000000e+00 4.150779393876139e+00 3.209867287821391e-01 0.000000000000000e+00 2.213980362532827e+00 3.194901812685164e-01 0.000000000000000e+00 4.927283029162088e-01 3.252862896001115e-01 0.000000000000000e+00 4.696684455724628e+00 3.145438084075651e-01 0.000000000000000e+00 4.690990908683984e+00 6.962960281446974e-01 0.000000000000000e+00 2.487221901830106e+00 2.763334294511438e-01 0.000000000000000e+00 6.215262983536076e-01 7.328515730233995e-01 0.000000000000000e+00 2.065768881873406e+00 7.342557316219342e-01 0.000000000000000e+00 2.543072460766750e+00 7.257064952909391e-01 0.000000000000000e+00 8.105176211436336e-01 2.535517621144286e-01 0.0000000000000
[...]
<CellData Scalars="A_conc,As-lin_conc,Bs-lang_conc,Cs-freund_conc," Vectors="">
<DataArray type="Float64" Name="A_conc" format="ascii">
8.352713026063351e-07 3.879423297184215e-01 1.451165362849278e-05 1.479649916093120e-06 2.999868836724516e-01 1.203838775972262e-02 1.536352997714823e-02 2.010983616599522e-01 3.651341264403695e-01 1.523466302350423e-06 3.636608650242673e-05 2.152265165743185e-07 4.183007809509296e-07 6.474439852120067e-05 3.502931281581561e-06 9.144576292867461e-07 3.744268502046083e-06 3.868949931153727e-06 4.820881172068373e-03 2.517019588494886e-06 1.126619738780683e-08 4.178009536292820e-07 1.291323462343075e-07 1.227165276380143e-07 1.445712967165270e-06 7.047779721188789e-08 6.771072386493913e-07 2.743972804683703e-01 2.053328360093129e-06 3.407441537370003e-06 1.671262553506441e-07 2.170291936691353e-06 1.557729856567591e-08 2.903193529136991e-08 6.144085691688361e-03 3.411971398443824e-01 9.214145740752975e-08 3.360898471932553e-08 9.423512697619538e-08 3.092818544769716e-01 1.197457850413257e-04 5.163330017335742e-07 1.267032610321387e-08 8.286947433608370e-11 5.092386379382730e-09 1.244320421795887e-02 4.170567300199140e-06 9.288328730812892e-02 4.596316387710917e-03 9.310059537506169e-03 3.629694186549693e-01 9.905339645945833e-07 1.004351776649178e-04 3.285232311773320e-01 3.564992680107597e-01 4.064752294252791e-01 1.896877227143393e-08 1.922111618412837e-01 2.605748480384795e-01 3.668694570327805e-06 6.077750938133640e-04 1.967896390568602e-01 4.396552475896109e-02 3.882836430893981e-10 2.089322300243615e-09 2.150581286165106e-02 8.979964522634636e-02 4.867378314403359e-09 3.792291307260629e-01 2.486866721130598e-01 7.602627212517043e-09 1.317944140686445e-06 8.060803006266667e-08 4.071253677391918e-06 1.058472386361304e-01 6.673054096444257e-03 3.749697988664858e-07 1.271975232155870e-02 1.307175021003806e-01 2.736935835728666e-09 1.051077550700234e-06 6.166875267805719e-03 6.736613428950321e-07 2.102922849522403e-04 6.164053023960378e-02 3.950355009747492e-07 9.340895827883555e-03 1.177393261489778e-01 4.344705245052613e-07 4.422658606462819e-09 1.881441092679647e-03 6.423486986694686e-02 2.273276411386235e-01 5.217013686620603e-02 8.341351623993109e-03 2.450417230846598e-06 5.064157025895604e-02 2.044110775832720e-01 7.603193887402656e-06 2.603974492721788e-01 3.340049228431712e-09 5.026357061373135e-07 5.217997515008344e-07 5.314126949467814e-02 2.800128574779908e-07 1.117837440093065e-01 3.158490426947818e-06 2.801099626639436e-01 2.640932326870344e-07 1.242026417645121e-01 3.358319617256399e-09 7.836756326058109e-07 7.354620840824783e-07 2.205984151110544e-08 1.890520986756615e-06 2.127451412443346e-01 3.540207003207211e-06 3.784526193890839e-08 1.285752022813426e-09 2.736589491651884e-01 1.410364628276197e-09 3.127877077177566e-07 2.180016573450320e-06 1.234895796343694e-06 2.645726014988294e-01 1.438909429155712e-08 2.750045403783128e-05 4.358678009923384e-07 2.239532998123869e-01 1.549298244369668e-01 7.405086238723947e-03 5.931082289462096e-09 1.334596579077562e-01 1.669974116673242e-01 2.656647991131745e-02 4.309083638924409e-09 3.703445274826716e-06 3.984906703963970e-01 8.225809290550397e-02 2.312109169197571e-02 4.461480841504162e-08 2.612477702740579e-01 1.050608730280430e-06 6.485683991714497e-11 1.075656126664794e-03 7.390018265363384e-04 1.116037465431877e-01 2.329285115717607e-08 1.231883587718792e-02 1.236464720322001e-01 2.228556529421482e-08 1.010141642503806e-02 2.818751002773364e-02 7.597693114546870e-02 9.696938784488762e-10 5.722634250596734e-04 1.068681196986153e-07 2.266985857863677e-01 8.935244921143739e-08 3.939000940587223e-04 4.341835254313991e-06 1.501179470076791e-01 1.232974227660200e-06 4.550859781922246e-06 1.564858685335910e-09 1.128971763144308e-06 9.489336717132241e-07 5.724796954719776e-10 3.579127384047479e-10 4.422088081636694e-04 1.319101087394431e-06 2.366324171768801e-07 7.906746015867855e-04 4.957759026043078e-04 1.020873988448161e-08 3.911159056647574e-02 1.891812370222716e-01 4.515566763370199e-06 4.045683194064455e-08 1.315094941855906e-09 4.784872817390720e-02 2.024482782073729e-01 3.179350100069045e-01 1.700064239063083e-09 1.877746231404204e-08 1.522463955394466e-07 5.567187845422411e-07 1.806303183505822e-09 1.731164760038234e-05 2.910722065426823e-08 9.252338510737647e-08 3.915764386018358e-07 3.400966867607771e-06 1.889312694148696e-06 9.929002148020424e-07 3.306596573628390e-08 1.453109773595171e-06 1.070250784160405e-06 1.497651755097281e-07 2.764080477322646e-07 9.057130694764084e-07 5.668270431860228e-11 4.350382810837121e-01 4.392416227163996e-09 3.506185566432053e-02 1.835305146593205e-01 3.631546544171495e-11 2.573837155220337e-08 2.378628894221444e-06 3.366805312708503e-01 1.013427348776610e-08 8.208188220449822e-06 2.169767100932121e-02 9.710163383093723e-07 4.421872478394752e-06 1.639959398527141e-10 1.169289768502971e-06 5.666629778481981e-11 2.532507485243514e-06 5.857407868982675e-03 4.388354620668273e-03 2.892942280508812e-01 3.025409170111956e-08 6.897529146561398e-09 2.243872856935947e-08 4.203591092309417e-01 1.346576833949357e-06 1.370219222230630e-07 1.538557172394657e-04 5.267066090836668e-08 5.878695326784788e-08 9.383635663933209e-07 1.513712594726845e-06 2.601428434197909e-07 3.230334615680889e-02 7.048754685315606e-02 9.580939369597426e-02 1.898133881413468e-02 1.175711134489700e-06 2.610348313026427e-04 1.092580140143323e-01 5.752220636293835e-08 1.375683565146677e-02 4.714581198856602e-11 1.154299787766759e-03 5.324203754681866e-02 2.118438082009590e-01 2.803460103595115e-04 4.855866783248445e-06 1.775909173828141e-04 3.529725882091376e-10 2.373376421597577e-09 9.770375106465108e-04 5.438786224856094e-02 2.107819131582867e-01 2.109972182437307e-01 2.174983230575328e-06 5.615618073214281e-08 3.525923852966993e-06 9.575311227480714e-05 4.427747378581305e-09 2.874087202382363e-08 7.052412204830649e-02 6.100923998889562e-02 2.066877192380816e-07 3.508628480061400e-06 6.184328314206975e-07 2.224717022029490e-06 1.704298251684691e-08 2.162075612360476e-04 3.983585365815463e-10 6.427151322644551e-09 1.248683706984137e-01 1.006124402403309e-02 5.684249225277605e-05 2.563880227893682e-06 1.571432286370105e-05 2.732737414271865e-06 3.815711681080755e-07 4.080462573879115e-07 1.781697059752451e-09 1.439254944565018e-01 1.622643563943631e-10 4.581608565972448e-06 2.779190125483161e-01 1.443576434746903e-07 3.211802776468657e-07 9.090114382476622e-08 2.800799137340602e-02 7.792489855799925e-02 1.103129007673503e-08 3.496713126691935e-10 4.875113839344871e-09 8.830840882706104e-09 3.568370473539014e-03 6.669570273678732e-09 1.411973989617355e-08 3.728077435854876e-06 1.724803587658269e-04 8.812464186228073e-08 1.769479408836009e-03 9.777137598398048e-10 6.371069460520903e-02 2.237148111126319e-01 1.559501512301335e-07 3.676719284971874e-06 3.551858289527012e-06 2.670399544490252e-01 7.225570208771656e-02 2.422152611807194e-03 8.305965818020709e-02 3.336165646555792e-03 3.594562490572451e-04 3.963293922736631e-08 5.956904506456038e-04 2.235835812808015e-07 3.016934187991025e-07 5.739585637696087e-07 3.654952783715192e-01 1.926552748936665e-01 1.821761347803655e-01 3.847430120878213e-08 4.104449861332969e-08 6.853947805551286e-07 2.102665312671498e-09 5.497964924150127e-02 4.519557004156873e-02 2.572155784702482e-07 1.838839379863219e-03 2.141294959090123e-06 4.003972639936690e-01 3.932235867364686e-01 3.946061642604571e-01 3.996277553433360e-01 2.541137803824454e-01 2.514917825271052e-06 2.145126534265340e-06 9.265949381758800e-09 3.183058806755230e-02 2.300080358583920e-09 4.506404536194988e-09 1.583368664400886e-06 1.913390507058458e-05 3.231613934275768e-01 4.787869926577474e-05 2.730376442319295e-06 2.497925305085800e-08 7.979748021457089e-05 8.780577151447030e-07 9.463294095459419e-07 4.251432792174215e-01 1.018820143325736e-05 4.146953956864101e-07 1.371339365364281e-09 5.015772315916523e-06 2.052035993815773e-01 1.041223623599661e-08 1.718412478375329e-08 1.271645549057911e-06 2.985551546712603e-08 4.233774089226638e-06 5.744404036324040e-11 4.173524149030484e-06 1.639908475188138e-01 1.985762093468637e-06 1.684462744256423e-01 1.189948858900334e-08 6.604920812984531e-02 3.541787706988017e-02 3.757302288047064e-01 4.360607307590604e-01 4.360607380045140e-01 2.950398829572822e-01 2.932090951082806e-01 1.359378273706080e-03 1.013967632463928e-08 2.223349432959018e-01 5.017233413724667e-09 1.890053526787019e-01 8.182324335678361e-10 3.737777253512226e-01 3.417496148716201e-06 8.508314421862696e-07 8.473287842818786e-02 3.679332867115615e-03 1.988715124900475e-06 2.109521948782665e-08 1.148348923841981e-07 1.132866435630345e-07 2.903208303206435e-01 3.709307279151941e-01 1.166356292752529e-10 2.458147646028208e-07 2.456289038308827e-05 2.040072166846594e-08 3.521573925006198e-06 2.033508552257902e-06 1.395479550515281e-01 1.238374435332313e-01 1.404718598099038e-07 8.666436447946918e-04 3.545839458104892e-01 1.406123232313926e-05 2.031725912502169e-06 1.527491399632049e-06 1.809766737220884e-06 1.559872154274358e-07 1.286415463124867e-02 3.299117490710156e-01 1.318463629907057e-01 3.434017526331373e-04 4.353208308480377e-01 3.749198476153096e-04 4.600798249374057e-07 1.753254965287055e-01 3.610062495672578e-01 2.286860562097728e-07 3.873781136082283e-07 3.786826107676192e-02 8.108368404767972e-09 4.790112136317548e-08 1.001813770822599e-02 1.207915419430980e-01 2.643376501059171e-01 6.047036642208816e-09 3.211519195584393e-07 6.158133773587841e-09 3.848714516795770e-09 4.077969462774478e-03 8.626571158387818e-02 2.548396690028910e-01 9.991182345122402e-07 4.168250670870194e-09 2.902081942306583e-03 7.769596811966933e-02 2.438971752536231e-01 1.131519464667029e-06 1.083912257491261e-09 6.459106116260672e-02 3.574021837493708e-02 7.030782545263310e-04 4.040770002708809e-02 6.165990981217298e-02 1.563948472546953e-01 2.111162473459176e-02 1.817529480633097e-01 3.394362449661179e-02 6.327183115143706e-06 4.391056706829637e-06 4.134967229130472e-01 1.217789183267726e-05 1.547586254197471e-07 1.712593608192397e-02 4.022572302657710e-01 1.425559626166148e-01 1.588400844757063e-02 3.148802862734685e-04 2.183779190306628e-07 8.906007450268116e-08 1.161401666253555e-09 3.192991216130278e-01 3.635805356795655e-01 4.169906983065236e-06 2.902449804986892e-06 1.310709491464668e-05 1.419287807681981e-06 4.039752369794269e-01 3.944443248539823e-01 4.372105882646920e-07 1.869948402164218e-01 1.078327156592137e-04 1.179234927687744e-04 5.323710680591755e-04 3.576329543652088e-01 3.418481360201898e-01 3.532485459156857e-01 6.076585949058713e-07 2.966760652859533e-07 3.292300023679442e-08 3.575921916074811e-06 2.539438788862731e-01 2.359598639175458e-07 2.952014034797213e-01 4.058611504615798e-02 3.755032130387870e-09 5.199727054824505e-11 2.191967314076138e-01 5.138725315522416e-02 4.194220271549762e-02 1.239328141736467e-06 1.347892896036046e-01 3.934596541083371e-01 3.069850531744988e-01 1.709896120076589e-01 1.984151963419775e-01 4.392064850869157e-02 3.057425483121509e-05 2.776338247658651e-01 2.540675148532995e-03 3.088996403739522e-01 9.428004483112848e-09 1.419117723806628e-06 1.523242631655695e-06 1.298767026804263e-01 1.263688749195943e-02 8.231031526411908e-02 2.590575389523889e-02 1.687583992584747e-07 9.671431140189819e-09 3.587870303385037e-08 2.810399017072651e-01 3.200429420808666e-06 4.282894010236966e-06 3.274721230638980e-06 2.853760739395895e-07 9.517168310288342e-07 1.587505058444383e-01 2.478095059971169e-01 3.116092604595622e-01 3.157394859864276e-01 2.295001985596847e-06 4.640818820824580e-06 4.964728780963090e-08 1.145741316529475e-09 3.330615371584813e-01 2.881851487207215e-01 4.107565463731934e-07 1.974728934012402e-01 7.083801034083168e-04 3.417863024545368e-01 1.140938508649787e-03 1.095400509695879e-06 2.988990503451706e-01 2.217923538007637e-01 5.555609938780470e-05 1.137871580639485e-02 1.923641632764349e-04 1.888369897498967e-06 9.697727456168900e-07 2.800098102897708e-01 8.700730175063365e-03 2.263147635195743e-01 1.839751792019406e-10 6.495621017928703e-02 1.758746366213011e-03 4.397220343627373e-09 6.431347742326836e-11 3.058623690853603e-01 1.350571829133945e-04 1.910034722774473e-06 5.219321170086281e-06 1.308758740783855e-07 3.893528533986023e-08 1.343879166915938e-01 1.378794934493537e-02 2.451136751527011e-06 2.634361488154052e-01 3.475872132977035e-01 3.270725924275289e-06 2.857848074461027e-06 2.844450824353269e-08 2.033086573446671e-07 8.848340778072396e-08 4.101365321302248e-03 9.044242004836575e-02 1.690493693117317e-07 1.623473575431391e-01 4.711429600102512e-06 3.800642297023413e-01 3.327453251631580e-06 2.548357567852939e-07 3.199787308156418e-01 3.123860491833826e-01 1.713847021477061e-08 2.678960582032932e-01 2.761634822455368e-01 6.257734827483942e-08 4.213046495846019e-04 6.310511533907212e-02 6.277091212107230e-07 5.746166911728682e-05 3.757935270490844e-01 3.643244490161979e-01 1.259159782844796e-06 1.015349309977558e-07 4.069863824382405e-02 2.101805117825437e-06 5.295957911854331e-05 4.708837991384866e-08 2.372327818912756e-01 2.093352360111079e-08 1.264200637780124e-08 1.452990225124236e-01 1.192436562929531e-08 1.540231405334141e-01 4.027582136220480e-01 3.911395409235989e-01 9.507618822597303e-07 9.698021830776487e-03 4.779186402094795e-06 5.607277963503561e-09 3.574200136610569e-08 1.175199238757653e-01 5.122751467505256e-06 9.162801985170443e-03 3.734890899008345e-01 9.038821474993614e-11 1.822646557071102e-08 9.954020305739882e-09 2.594278854450256e-05 2.300209225481717e-07 4.829393411957016e-06 7.622340720622468e-09 2.501185353631266e-07 2.767824411886051e-01 2.755804994257467e-07 1.091610849048013e-07 4.992751111703772e-07 2.042578266780506e-03 5.509915544516127e-09 1.816552927790728e-01 8.866952962055329e-05 1.282262827789059e-07 2.205385265808243e-06 2.365639030650690e-01 8.854703743739176e-10 2.495667354453488e-06 5.222618151085614e-08 4.286343120430432e-06 1.887655573130577e-06 1.934568008005562e-01 1.831546693719932e-01 4.166857049082010e-09 1.683130355512359e-08 1.199338949382933e-01 8.494922315820522e-07 9.569113923527594e-09 4.362224030282794e-02 8.489339491299085e-08 5.561249199661383e-03 9.923148223773735e-02 1.225055885255409e-07 1.430554743448840e-07 8.450889127546764e-08 1.072171924991476e-01 1.532455941920008e-02 1.865304683056235e-07 7.088800329370005e-05 4.313768587218242e-08 1.169697229174710e-07 1.698363437202420e-06 3.054443478219686e-01 6.514317035934839e-06 1.635139771081013e-07 1.310770857552704e-01 1.268844854356936e-02 1.393398599001830e-06 2.426989455371951e-01 2.346762356111969e-01 1.618457796319332e-07 1.245788402639482e-07 2.020307207423588e-01 1.988627755021139e-06 2.321815647646752e-08 3.319790485198923e-08 1.748417717852939e-08 6.107281917312753e-07 1.695657429949232e-04 1.131021031015084e-06 2.857942009632107e-08 1.318018529504873e-06 2.124616494740303e-01 2.035517486965774e-01 9.157786562685416e-04 1.903803227363757e-08 2.045857781956395e-08 2.289262096622647e-09 3.080898613126174e-05 2.462459268430861e-03 2.925918043323063e-10 1.149795268784391e-08 3.484271458837103e-09 7.384650458491668e-02 4.498496034337975e-06 2.132264037522474e-04 3.330449967497875e-01 2.482811951603822e-06 4.269575311757523e-01 4.253128471796911e-01 5.859076654399377e-06 4.863053660104255e-06 3.538904887807223e-02 2.948702652640222e-02 1.286630432393416e-03 6.375560171867731e-06 3.706915196265483e-06 7.552777030054870e-03 5.106218099656496e-08 1.105617184959706e-01 3.679562885953881e-05 2.487326018797056e-01 2.787071301261140e-09 4.142157340154328e-01 4.261657279172074e-01 4.265001169044365e-01 4.145623731352085e-01 4.102548326111868e-01 4.119436040806440e-01 2.122584497781079e-07 1.065389498351304e-01 1.596795954823409e-03 1.386565658778549e-03 7.651143992518491e-08 2.259518642280875e-06 2.692079893004006e-06 4.825161968228484e-08 3.195417627755109e-01 3.997844447836113e-06 8.087932280566171e-06 8.933478669164415e-07 9.281712842629435e-07 9.739529791477416e-02 1.991596186803263e-02 5.702060097777449e-06 8.307979247104656e-06 2.461327153864192e-07 5.927805288151604e-05 9.056107344799532e-09 1.674687016603640e-06 1.945488058346681e-08 5.112232833442377e-09 3.476504229466689e-03 1.564322319642188e-01 3.506541602112016e-08 2.178144205265710e-02 1.344119373705556e-06 8.787685732371677e-08 8.353923534122468e-09 3.440975576505998e-07 4.930660893171064e-06 8.032602541066013e-02 4.017320896654717e-07 7.464681017567995e-08 3.686986928463017e-03 2.931832605433309e-03 1.997218849672117e-09 1.571848720392039e-01 5.455308213520642e-08 1.916470111836884e-06 1.418606626532366e-03 4.393392575818413e-01 4.393392602209566e-01 1.605926695540812e-08 2.510830546039128e-01 4.374231661744736e-03 1.281876433663166e-06 1.257379461189620e-06 1.258671570963991e-01 6.512203267271301e-08 9.723478407390806e-03 5.466925117764320e-06 2.908086793576687e-02 4.253999878581314e-01 4.253999957805775e-01 9.704983298085829e-02 3.192269620770611e-01 3.065468059797137e-01 2.729253209920728e-01 2.140249870831366e-06 7.514288291930806e-09 3.433032846294627e-01 3.310777469312163e-01 1.945285479430724e-06 5.705741459427087e-09 1.097083115170964e-06 5.312193010094654e-09 3.971568630804785e-09 3.150730490599101e-01 2.094800027214973e-03 4.123081535963310e-01 4.125316431674992e-01 2.167144750845491e-08 1.112749557793883e-07 1.676801934946031e-01 2.009794605785988e-07 2.717751918409511e-02 4.327352304309482e-08 1.316171904637050e-06 2.088816733932837e-01 2.346875053217313e-01 4.288019338788716e-06 3.554967418840064e-06 6.671191296884115e-07 1.188084471957768e-06 2.813656097358031e-04 1.488455353157518e-08 2.513976766694994e-01 2.090953407533212e-02 1.680180556694755e-02 1.535455588867890e-01 1.420252443508600e-01 2.369693281245290e-03 3.231606761418550e-06 2.759548865722803e-02 1.561899036560928e-07 8.379939457195260e-02 5.736774169472782e-08 1.251739354343068e-03 5.650371388956645e-02 2.145621001002135e-01 1.763317625299963e-01 3.178452523645305e-02 1.587235682521475e-03 2.268875657943495e-02 3.823708478485995e-08 9.018161462872273e-02 4.522918497400755e-06 4.834427909436421e-09 3.389221606355133e-06 1.394237215091360e-06 1.974520703264264e-01 1.709998959490120e-03 3.543205025103052e-01 5.020817211004324e-02 2.337565881896905e-01 6.471780211188426e-03 6.072581893118977e-08 1.001994183245820e-01 1.758889513987077e-02 2.267200542552656e-01 2.609705059492430e-04 1.522954985576442e-04 1.468052439436297e-06 4.751462864403030e-06 3.179869083477760e-08 4.550008881828992e-04 3.707635545147427e-01 3.795557022881630e-01 1.239285244714738e-06 7.108503720304869e-02 2.195251155028041e-03 3.566059057836136e-01 6.637859071272612e-09 2.627056119789075e-06 3.090655761423088e-06 3.271128393557206e-01 3.397401605189723e-01 2.084871476938547e-08 3.558989745401143e-09 5.832395505486575e-03 9.807791040356482e-02 7.193176586197323e-07 6.725802768955645e-07 5.119138355187121e-02 1.624627401779213e-09 7.615501973696381e-08 4.487250962838198e-06 3.438265198003840e-09 3.424992719747817e-01 2.950761414583971e-10 1.203235233385275e-06 4.878664830378285e-06 3.795226253936287e-01 4.130812193107892e-01 4.257602147814427e-01 1.104457818975418e-01 1.349770676361084e-10 9.813552198085838e-06 1.640643192536111e-05 8.232375588598431e-09 1.925152147577409e-01 4.256130729742494e-02 2.683923578411587e-06 6.814282601491497e-06 5.072911731588651e-03 3.571725611005966e-03 3.300973909192275e-06 6.743557404748502e-07 1.322759906651141e-06 4.733968588448402e-09 1.360896010039796e-10 8.418128551070474e-09 1.124420424010864e-06 2.444253230944833e-07 2.213284508847006e-02 1.569696644037304e-01 1.510553254209179e-07 3.161032381973116e-07 1.172519302057630e-07 2.158033425816167e-01 8.094788704106999e-09 1.119649599090378e-01 9.087563930010726e-05 2.497906378912364e-08 5.438074190411219e-08 7.171248501705173e-02 3.706941041390531e-01 3.582097716972725e-07 6.495530298739152e-07 6.989726339476905e-06 3.112023400622973e-01 3.673347569387584e-01 9.804559640545157e-0