<?xml version="1.0"?>
<VTKFile type="UnstructuredGrid" version="0.1" byte_order="LittleEndian">
<UnstructuredGrid>
<Piece NumberOfPoints="408" NumberOfCells="136">
<Points>
<DataArray type="Float64" NumberOfComponents="3" format="ascii">
2.515703651984364e+00 5.007726862999170e-01 0.000000000000000e+00 2.777777777777778e+00 1.000000000000000e+00 0.000000000000000e+00 2.222222222222222e+00 1.000000000000000e+00 0.000000000000000e+00 2.515703651984364e+00 5.007726862999170e-01 0.000000000000000e+00 2.222222222218946e+00 0.000000000000000e+00 0.000000000000000e+00 2.777777777774663e+00 0.000000000000000e+00 0.000000000000000e+00 3.045649273404015e+00 5.040609728652263e-01 0.000000000000000e+00 3.333333333333333e+00 1.000000000000000e+00 0.000000000000000e+00 2.777777777777778e+00 1.000000000000000e+00 0.000000000000000e+00 2.515703651984364e+00 5.007726862999170e-01 0.000000000000000e+00 3.045649273404015e+00 5.040609728652263e-01 0.000000000000000e+00 2.777777777777778e+00 1.000000000000000e+00 0.000000000000000e+00 3.045649273404015e+00 5.040609728652263e-01 0.000000000000000e+00 2.777777777774663e+00 0.000000000000000e+00 0.000000000000000e+00 3.333333333330998e+00 0.000000000000000e+00 0.000000000000000e+00 2.777777777774663e+00 0.000000000000000e+00 0.000000000000000e+00 3.045649273404015e+00 5.040609728652263e-01 0.000000000000000e+00 2.515703651984364e+00 5.007726862999170e-01 0.000000000000000e+00 4.212316051704127e+00 5.892044409257831e-01 0.000000000000000e+00 4.444444444444445e+00 1.000000000000000e+00 0.000000000000000e+00 3.888888888888889e+00 1.000000000000000e+00 0.000000000000000e+00 3.607229643560429e+00 5.352266455546982e-01 0.000000000000000e+00 3.333333333333333e+00 1.000000000000000e+00 0.000000000000000e+00 3.045649273404015e+00 5.040609728652263e-01 0.000000000000000e+00 3.888888888888889e+00 1.000000000000000e+00 0.000000000000000e+00 3.333333333333333e+00 1.000000000000000e+00 0.000000000000000e+00 3.607229643560429e+00 5.352266455546982e-01 0.000000000000000e+00 3.888888888888889e+00 1.000000000000000e+00 0.000000000000000e+00 3.607229643560429e+00 5.352266455546982e-01 0.000000000000000e+00 4.212316051704127e+00 5.892044409257831e-01 0.000000000000000e+00 3.333333333330998e+00 0.000000000000000e+00 0.000000000000000e+00 3.888888888887332e+00 0.000000000000000e+00 0.000000000000000e+00 3.607229643560429e+00 5.352266455546982e-01 0.000000000000000e+00 3.607229643560429e+00 5.352266455546982e-01 0.000000000000000e+00 3.045649273404015e+00 5.040609728652263e-01 0.000000000000000e+00 3.333333333330998e+00 0.000000000000000e+00 0.000000000000000e+00 3.607229643560429e+00 5.352266455546982e-01 0.000000000000000e+00 3.888888888887332e+00 0.000000000000000e+00 0.000000000000000e+00 4.212316051704127e+00 5.892044409257831e-01 0.000000000000000e+00 4.444444444443666e+00 0.000000000000000e+00 0.000000000000000e+00 4.212316051704127e+00 5.892044409257831e-01 0.000000000000000e+00 3.888888888887332e+00 0.000000000000000e+00 0.000000000000000e+00 5.555555555544532e-01 0.000000000000000e+00 0.000000000000000e+00 1.111111111108906e+00 0.000000000000000e+00 0.000000000000000e+00 6.447232945102525e-01 5.000305982953720e-01 0.000000000000000e+00 6.447232945102525e-01 5.000305982953720e-01 0.000000000000000e+00 1.111111111111111e+00 1.000000000000000e+00 0.000000000000000e+00 5.555555555555554e-01 1.000000000000000e+00 0.000000000000000e+00 5.555555555555554e-01 1.000000000000000e+00 0.000000000000000e+00 0.000000000000000e+00 1.000000000000000e+00 0.000000000000000e+00 6.447232945102525e-01 5.000305982953720e-01 0.000000000000000e+00 4.212316051704127e+00 5.892044409257831e-01 0.000000000000000e+00 5.000000000000000e+00 1.000000000000000e+00 0.000000000000000e+00 4.444444444444445e+00 1.000000000000000e+00 0.000000000000000e+00 0.000000000000000e+00 0.000000000000000e+00 0.000000000000000e+00 5.555555555544532e-01 0.000000000000000e+00 0.000000000000000e+00 6.447232945102525e-01 5.000305982953720e-01 0.000000000000000e+00 0.000000000000000e+00 0.000000000000000e+00 0.000000000000000e+00 6.447232945102525e-01 5.000305982953720e-01 0.000000000000000e+00 0.000000000000000e+00 1.000000000000000e+00 0.000000000000000e+00 5.000000000000000e+00 0.000000000000000e+00 0.000000000000000e+00 5.000000000000000e+00 1.000000000000000e+00 0.000000000000000e+00 4.212316051704127e+00 5.892044409257831e-01 0.000000000000000e+00 4.444444444443666e+00 0.000000000000000e+00 0.000000000000000e+00 5.000000000000000e+00 0.000000000000000e+00 0.000000000000000e+00 4.212316051704127e+00 5.892044409257831e-01 0.000000000000000e+00 1.364876762642804e+00 5.000320447034061e-01 0.000000000000000e+00 1.111111111111111e+00 1.000000000000000e+00 0.000000000000000e+00 6.447232945102525e-01 5.000305982953720e-01 0.000000000000000e+00 6.447232945102525e-01 5.000305982953720e-01 0.000000000000000e+00 1.111111111108906e+00 0.000000000000000e+00 0.000000000000000e+00 1.364876762642804e+00 5.000320447034061e-01 0.000000000000000e+00 2.515703651984364e+00 5.007726862999170e-01 0.000000000000000e+00 2.222222222222222e+00 1.000000000000000e+00 0.000000000000000e+00 1.943059698733141e+00 5.001341218338872e-01 0.000000000000000e+00 1.943059698733141e+00 5.001341218338872e-01 0.000000000000000e+00 2.222222222218946e+00 0.000000000000000e+00 0.000000000000000e+00 2.515703651984364e+00 5.007726862999170e-01 0.000000000000000e+00 1.943059698733141e+00 5.001341218338872e-01 0.000000000000000e+00 2.222222222222222e+00 1.000000000000000e+00 0.000000000000000e+00 1.666666666666666e+00 1.000000000000000e+00 0.000000000000000e+00 1.666666666663845e+00 0.000000000000000e+00 0.000000000000000e+00 2.222222222218946e+00 0.000000000000000e+00 0.000000000000000e+00 1.943059698733141e+00 5.001341218338872e-01 0.000000000000000e+00 1.666666666666666e+00 1.000000000000000e+00 0.000000000000000e+00 1.111111111111111e+00 1.000000000000000e+00 0.000000000000000e+00 1.364876762642804e+00 5.000320447034061e-01 0.000000000000000e+00 1.364876762642804e+00 5.000320447034061e-01 0.000000000000000e+00 1.111111111108906e+00 0.000000000000000e+00 0.000000000000000e+00 1.666666666663845e+00 0.000000000000000e+00 0.000000000000000e+00 1.364876762642804e+00 5.000320447034061e-01 0.000000000000000e+00 1.943059698733141e+00 5.001341218338872e-01 0.000000000000000e+00 1.666666666666666e+00 1.000000000000000e+00 0.000000000000000e+00 1.666666666663845e+00 0.000000000000000e+00 0.000000000000000e+00 1.943059698733141e+00 5.001341218338872e-01 0.000000000000000e+00 1.364876762642804e+00 5.000320447034061e-01 0.000000000000000e+00 7.329385747353681e+00 5.000482253086420e-01 2.329385747353681e+00 7.142857142855537e+00 1.000000000000000e+00 2.142857142855537e+00 7.499999999998249e+00 1.000000000000000e+00 2.499999999998248e+00 7.329385747353681e+00 5.000482253086420e-01 2.329385747353681e+00 7.500000000000000e+00 0.000000000000000e+00 2.500000000000000e+00 7.142857142857143e+00 0.000000000000000e+00 2.142857142857143e+00 6.243107225528528e+00 4.822579089506173e-01 1.243107225528529e+00 6.071428571427509e+00 1.000000000000000e+00 1.071428571427509e+00 6.428571428570115e+00 1.000000000000000e+00 1.428571428570115e+00 6.566220238094560e+00 5.017361111111112e-01 1.566220238094561e+00 6.243107225528528e+00 4.822579089506173e-01 1.243107225528529e+00 6.428571428570115e+00 1.000000000000000e+00 1.428571428570115e+00 6.243107225528528e+00 4.822579089506173e-01 1.243107225528529e+00 6.428571428571429e+00 0.000000000000000e+00 1.428571428571429e+00 6.071428571428572e+00 0.000000000000000e+00 1.071428571428572e+00 6.428571428571429e+00 0.000000000000000e+00 1.428571428571429e+00 6.243107225528528e+00 4.822579089506173e-01 1.243107225528529e+00 6.566220238094560e+00 5.017361111111112e-01 1.566220238094561e+00 7.683342289461289e+00 5.000080375514402e-01 2.683342289461290e+00 7.499999999998249e+00 1.000000000000000e+00 2.499999999998248e+00 7.857142857141355e+00 1.000000000000000e+00 2.857142857141355e+00 7.683342289461289e+00 5.000080375514402e-01 2.683342289461290e+00 7.857142857142857e+00 0.000000000000000e+00 2.857142857142857e+00 7.500000000000000e+00 0.000000000000000e+00 2.500000000000000e+00 8.762194113756150e+00 5.364583333333334e-01 3.762194113756149e+00 8.571428571427571e+00 1.000000000000000e+00 3.571428571427570e+00 8.928571428570677e+00 1.000000000000000e+00 3.928571428570677e+00 8.762194113756150e+00 5.364583333333334e-01 3.762194113756149e+00 8.928571428571429e+00 0.000000000000000e+00 3.928571428571429e+00 8.571428571428571e+00 0.000000000000000e+00 3.571428571428572e+00 8.452380952380411e+00 5.000000000000001e-01 3.452380952380410e+00 8.762194113756150e+00 5.364583333333334e-01 3.762194113756149e+00 8.571428571428571e+00 0.000000000000000e+00 3.571428571428572e+00 8.571428571427571e+00 1.000000000000000e+00 3.571428571427570e+00 8.762194113756150e+00 5.364583333333334e-01 3.762194113756149e+00 8.452380952380411e+00 5.000000000000001e-01 3.452380952380410e+00 8.056382275131595e+00 5.000000000000000e-01 3.056382275131596e+00 7.857142857141355e+00 1.000000000000000e+00 2.857142857141355e+00 8.214285714284463e+00 1.000000000000000e+00 3.214285714284463e+00 8.056382275131595e+00 5.000000000000000e-01 3.056382275131596e+00 8.214285714285714e+00 0.000000000000000e+00 3.214285714285714e+00 7.857142857142857e+00 0.000000000000000e+00 2.857142857142857e+00 7.683342289461289e+00 5.000080375514402e-01 2.683342289461290e+00 8.056382275131595e+00 5.000000000000000e-01 3.056382275131596e+00 7.857142857142857e+00 0.000000000000000e+00 2.857142857142857e+00 7.857142857141355e+00 1.000000000000000e+00 2.857142857141355e+00 8.056382275131595e+00 5.000000000000000e-01 3.056382275131596e+00 7.683342289461289e+00 5.000080375514402e-01 2.683342289461290e+00 8.452380952380411e+00 5.000000000000001e-01 3.452380952380410e+00 8.214285714284463e+00 1.000000000000000e+00 3.214285714284463e+00 8.571428571427571e+00 1.000000000000000e+00 3.571428571427570e+00 8.452380952380411e+00 5.000000000000001e-01 3.45238095238041
[...]
<PointData Scalars="A_conc," Vectors="" Tensors="">
<DataArray type="Float64" Name="A_conc" format="ascii">
1.000000000000001e+00 1.000000000003385e+00 1.000000000000659e+00 9.999999999968936e-01 1.000000000002034e+00 1.000000000004792e+00 9.999999999989081e-01 1.000000000003572e+00 1.000000000008468e+00 1.000000000000573e+00 9.999999999999669e-01 1.000000000004430e+00 9.999999999957825e-01 1.000000000009759e+00 1.000000000004837e+00 1.000000000005710e+00 9.999999999968587e-01 9.999999999974252e-01 9.999999997040979e-01 9.999999995021810e-01 1.000000000071890e+00 9.999999999703045e-01 1.000000000007476e+00 1.000000000008054e+00 9.999999999375456e-01 1.000000000033422e+00 9.999999999687066e-01 9.999999999551600e-01 1.000000000026439e+00 9.999999997182670e-01 1.000000000034722e+00 9.999999999385921e-01 9.999999999640703e-01 9.999999999660349e-01 1.000000000006084e+00 1.000000000008580e+00 1.000000000029772e+00 9.999999999577538e-01 9.999999997050698e-01 9.999999995056481e-01 9.999999996881428e-01 1.000000000075600e+00 1.000000000000140e+00 1.000000000000290e+00 9.999999999998604e-01 9.999999999999820e-01 1.000000000000016e+00 1.000000000000127e+00 1.000000000000124e+00 9.999999999999997e-01 9.999999999999787e-01 9.999999999762221e-01 9.999999979363681e-01 9.999999996445674e-01 1.000000000000200e+00 1.000000000000138e+00 9.999999999998573e-01 1.000000000000069e+00 9.999999999999228e-01 1.000000000000111e+00 9.999999975263379e-01 9.999999975904529e-01 1.000000000967896e+00 9.999999996496010e-01 9.999999979423262e-01 9.999999999568214e-01 1.000000000000093e+00 9.999999999999609e-01 9.999999999999328e-01 9.999999999998681e-01 1.000000000000585e+00 9.999999999993622e-01 1.000000000000442e+00 1.000000000000562e+00 9.999999999994649e-01 9.999999999982047e-01 1.000000000001936e+00 9.999999999973362e-01 9.999999999996718e-01 1.000000000000381e+00 1.000000000000582e+00 1.000000000001238e+00 1.000000000000623e+00 9.999999999990296e-01 1.000000000000134e+00 1.000000000000048e+00 1.000000000000176e+00 9.999999999994447e-01 1.000000000000672e+00 1.000000000000596e+00 1.000000000000129e+00 1.000000000000065e+00 1.000000000000127e+00 1.000000000000474e+00 9.999999999995780e-01 9.999999999994782e-01 7.589483104369132e-01 8.316979698382910e-01 6.955593381537678e-01 7.583073123559453e-01 6.941325750476058e-01 8.305691644277364e-01 9.865666553188421e-01 9.997966088079423e-01 9.766412479782813e-01 9.563936645992585e-01 9.898912969673834e-01 9.766863085500450e-01 9.860754799296169e-01 9.781138739258778e-01 1.001519424589410e+00 9.780299006106085e-01 9.896303312646052e-01 9.553430303133472e-01 6.171757942595636e-01 6.953058341611661e-01 5.442212847733254e-01 6.170191177747183e-01 5.427898449881271e-01 6.936572935527934e-01 2.197152638328041e-01 2.678872980067895e-01 1.752961373483111e-01 2.208276062045486e-01 1.752926410063589e-01 2.676074034807845e-01 3.119701154032609e-01 2.207042870812333e-01 2.712987666223213e-01 2.716375046115192e-01 2.195258914021738e-01 3.114746261979467e-01 4.616026367122032e-01 5.413052004504630e-01 3.974014117427968e-01 4.619506175190456e-01 3.963897689878831e-01 5.398326212578231e-01 6.163621452202301e-01 4.616367924824362e-01 5.420530912803837e-01 5.435160111694635e-01 4.612846364266439e-01 6.164998183964734e-01 3.138674488067136e-01 3.926420090378225e-01 2.721292769850341e-01 3.145510102340989e-01 2.716353095201733e-01 3.917186051646008e-01 4.588282151468772e-01 3.137673357992201e-01 3.955199452897575e-01 3.964867744822237e-01 3.130258604898231e-01 4.584749937383958e-01 8.814160309144929e-01 9.292854432416640e-01 8.289548221715903e-01 7.588975474736505e-01 8.866726815491371e-01 8.284319048555402e-01 8.804907414426210e-01 8.282161055584055e-01 9.293655088917684e-01 8.274657280878162e-01 8.858027209818310e-01 7.580768354909823e-01 9.570985416932649e-01 9.814452192788325e-01 9.247445164606122e-01 8.810495735266702e-01 9.634518378980352e-01 9.242262400377158e-01 9.561877176956951e-01 9.251963018256094e-01 9.827591617925735e-01 9.244560658792267e-01 9.625940393051026e-01 8.799082945766157e-01 1.719524591320809e-01 1.070047613143351e-01 1.391066856331106e-01 1.390067507639235e-01 2.163488615523485e-01 1.751935417875801e-01 1.752814001397870e-01 2.174741322159809e-01 1.399404913460957e-01 6.169970790383290e-01 7.610565280412813e-01 6.949564243462595e-01 6.934005380118843e-01 7.604516998000651e-01 6.167559617710016e-01 1.072308428503649e-01 1.720881913304625e-01 1.399834747527479e-01 8.159558690651314e-02 1.043583780964548e-01 6.223334834729035e-02 1.359747132498796e-01 1.068811470245858e-01 8.138956449648162e-02 1.371241728527494e-01 8.061419466943152e-02 1.072153697903204e-01 1.046854619467467e-01 8.085198258166770e-02 6.260938350473240e-02 9.861522436343689e-01 9.980932237083275e-01 9.981206642892512e-01 9.968179036718470e-01 9.974381075256179e-01 1.002802620442345e+00 1.000194819990181e+00 9.996596328666507e-01 9.999759589711004e-01 9.866322490329361e-01 9.975425392094341e-01 9.964708933256433e-01 1.000098565564731e+00 9.973429661115059e-01 1.001183273464757e+00 1.001800725344449e+00 9.959287150264567e-01 9.963748624708165e-01 1.000242175197792e+00 9.968738289685879e-01 1.000818166173564e+00 9.995281448003238e-01 1.000629120691512e+00 1.000633584090443e+00 7.836046131660988e-02 3.255829046195489e-02 6.201199540639304e-02 9.997472419917288e-01 1.000351805535990e+00 1.000122428721277e+00 1.000003130650651e+00 1.000003131528075e+00 1.000001943040524e+00 9.999421606872853e-01 1.000045497902786e+00 1.000009091121491e+00 6.044149854336359e-02 3.577501946427044e-02 3.592752559766758e-02 6.257342623757074e-02 3.486539379131570e-02 7.789079442613382e-02 9.999988687884991e-01 9.999985645195975e-01 9.999993435984216e-01 9.999988857352413e-01 9.999993189175330e-01 9.999985324685543e-01 9.999999104373879e-01 9.999999421761052e-01 9.999998407463504e-01 9.999999045646008e-01 9.999998485425778e-01 9.999999478911251e-01 9.999997597011052e-01 9.999998489814292e-01 9.999999197965123e-01 9.999998406753245e-01 9.999997636840493e-01 9.999999278479184e-01 9.999886945617041e-01 9.999861461413451e-01 9.999920482936241e-01 9.999887976635651e-01 9.999919324659245e-01 9.999860092749266e-01 9.999931011843652e-01 9.999916039809955e-01 9.999888072003982e-01 9.999917139727186e-01 9.999930324313636e-01 9.999887169189391e-01 9.999978299371411e-01 9.999973054493512e-01 9.999986791439335e-01 9.999978577634456e-01 9.999986407600838e-01 9.999972569359509e-01 9.999957374782563e-01 9.999951618559830e-01 9.999975178645292e-01 9.999957828017534e-01 9.999974594015549e-01 9.999950897970240e-01 9.999980001083584e-01 9.999972912369807e-01 9.999958221901338e-01 9.999973465916245e-01 9.999979692930702e-01 9.999957839922503e-01 9.999928399164045e-01 9.999916671577259e-01 9.999954675466326e-01 9.999929075376830e-01 9.999953833854935e-01 9.999915654138883e-01 9.999959265107707e-01 9.999951395383250e-01 9.999929492335160e-01 9.999952194256554e-01 9.999958776797213e-01 9.999928912296673e-01 9.999997656023462e-01 9.999998584683486e-01 9.999996434852492e-01 9.999997601669243e-01 9.999996558099181e-01 9.999998673267650e-01 9.999994608659608e-01 9.999996586902802e-01 9.999997876140871e-01 9.999996444552872e-01 9.999994683516833e-01 9.999997940135487e-01 9.999994689849446e-01 9.999996778656303e-01 9.999992545959561e-01 9.999994592306534e-01 9.999992748967207e-01 9.999996930016978e-01 9.999988755611825e-01 9.999992829236010e-01 9.999995058771091e-01 9.999992596579054e-01 9.999988890765680e-01 9.999995169712689e-01 9.999700825904059e-01 9.999782379246309e-01 9.999646956604399e-01 9.999999525781402e-01 9.999999382405005e-01 9.999999840421068e-01 9.999999388658992e-01 9.999999564607120e-01 9.999999033193683e-01 9.999818053193785e-01 9.999891575037250e-01 9.999860403690727e-01 9.999774698582087e-01 9.999817958847412e-01 9.999865076211718e-01 9.999775461574816e-01 9.999701667884890e-01 9.999823779704010e-01 9.999866548850505e-01 9.999816123331624e-01 9.999776359435625e-01 9.999816394761900e-01 9.999861791830110e-01 9.999890775597478e-01 9.999822657731797e-01 9.999698558456408e-01 9.999776983405907e-01 9.999978422417724e-01 9.999985797238732e-01 9.999989391355538e-01 9.999985434537795e-01 9.999978650922234e-01 9.999989579600177e-01 9.999648660272628e-01 9.999784023925400e-01 9.999697472406952e-01 9.999999338325587e-01 9.999999557403326e-01 9.999999809429133e-01 9.999999336814710e-01 9.999999079026680e-01 9.999999599413544e-01 9.999999866269954e-01 9.999999937748991e-01 9.999999748241627e-01 9.999999559056816e-01 9.999999904614901e-01 9.999999758502204e-01 9.999999786401613e-01 9.999999870926363e-01 9.999999535226732e-01 9.999999957700678e-01 9.999999837489324e-01 9.999999776168069e-01 9.999710103630527e-01 9.999650547176980e-01 9.999470736966681e-01 1.000000001865914e+00 9.999999840652426e-01 9.999999934050974e-01 9.999999919020187e-01 9.999999980914073e-01 9.999999981703207e-01 9.999999916938617e-01 9.999999862632680e-01 9.999999996280212e-01 9.999661428632673e-01 9.999453800712284e-01 9.999456830243919e-01 9.999712426148550e-01 9.999460022205902e-01 9.999649152817294e-01 
</DataArray>
</PointData>
</Piece>
</UnstructuredGrid>
</VTKFile>
