<?xml version="1.0"?>
<VTKFile type="UnstructuredGrid" version="0.1" byte_order="LittleEndian">
<UnstructuredGrid>
<Piece NumberOfPoints="408" NumberOfCells="136">
<Points>
<DataArray type="Float64" NumberOfComponents="3" format="ascii">
2.515703651984364e+00 5.007726862999170e-01 0.000000000000000e+00 2.777777777777778e+00 1.000000000000000e+00 0.000000000000000e+00 2.222222222222222e+00 1.000000000000000e+00 0.000000000000000e+00 2.515703651984364e+00 5.007726862999170e-01 0.000000000000000e+00 2.222222222218946e+00 0.000000000000000e+00 0.000000000000000e+00 2.777777777774663e+00 0.000000000000000e+00 0.000000000000000e+00 3.045649273404015e+00 5.040609728652263e-01 0.000000000000000e+00 3.333333333333333e+00 1.000000000000000e+00 0.000000000000000e+00 2.777777777777778e+00 1.000000000000000e+00 0.000000000000000e+00 2.515703651984364e+00 5.007726862999170e-01 0.000000000000000e+00 3.045649273404015e+00 5.040609728652263e-01 0.000000000000000e+00 2.777777777777778e+00 1.000000000000000e+00 0.000000000000000e+00 3.045649273404015e+00 5.040609728652263e-01 0.000000000000000e+00 2.777777777774663e+00 0.000000000000000e+00 0.000000000000000e+00 3.333333333330998e+00 0.000000000000000e+00 0.000000000000000e+00 2.777777777774663e+00 0.000000000000000e+00 0.000000000000000e+00 3.045649273404015e+00 5.040609728652263e-01 0.000000000000000e+00 2.515703651984364e+00 5.007726862999170e-01 0.000000000000000e+00 4.212316051704127e+00 5.892044409257831e-01 0.000000000000000e+00 4.444444444444445e+00 1.000000000000000e+00 0.000000000000000e+00 3.888888888888889e+00 1.000000000000000e+00 0.000000000000000e+00 3.607229643560429e+00 5.352266455546982e-01 0.000000000000000e+00 3.333333333333333e+00 1.000000000000000e+00 0.000000000000000e+00 3.045649273404015e+00 5.040609728652263e-01 0.000000000000000e+00 3.888888888888889e+00 1.000000000000000e+00 0.000000000000000e+00 3.333333333333333e+00 1.000000000000000e+00 0.000000000000000e+00 3.607229643560429e+00 5.352266455546982e-01 0.000000000000000e+00 3.888888888888889e+00 1.000000000000000e+00 0.000000000000000e+00 3.607229643560429e+00 5.352266455546982e-01 0.000000000000000e+00 4.212316051704127e+00 5.892044409257831e-01 0.000000000000000e+00 3.333333333330998e+00 0.000000000000000e+00 0.000000000000000e+00 3.888888888887332e+00 0.000000000000000e+00 0.000000000000000e+00 3.607229643560429e+00 5.352266455546982e-01 0.000000000000000e+00 3.607229643560429e+00 5.352266455546982e-01 0.000000000000000e+00 3.045649273404015e+00 5.040609728652263e-01 0.000000000000000e+00 3.333333333330998e+00 0.000000000000000e+00 0.000000000000000e+00 3.607229643560429e+00 5.352266455546982e-01 0.000000000000000e+00 3.888888888887332e+00 0.000000000000000e+00 0.000000000000000e+00 4.212316051704127e+00 5.892044409257831e-01 0.000000000000000e+00 4.444444444443666e+00 0.000000000000000e+00 0.000000000000000e+00 4.212316051704127e+00 5.892044409257831e-01 0.000000000000000e+00 3.888888888887332e+00 0.000000000000000e+00 0.000000000000000e+00 5.555555555544532e-01 0.000000000000000e+00 0.000000000000000e+00 1.111111111108906e+00 0.000000000000000e+00 0.000000000000000e+00 6.447232945102525e-01 5.000305982953720e-01 0.000000000000000e+00 6.447232945102525e-01 5.000305982953720e-01 0.000000000000000e+00 1.111111111111111e+00 1.000000000000000e+00 0.000000000000000e+00 5.555555555555554e-01 1.000000000000000e+00 0.000000000000000e+00 5.555555555555554e-01 1.000000000000000e+00 0.000000000000000e+00 0.000000000000000e+00 1.000000000000000e+00 0.000000000000000e+00 6.447232945102525e-01 5.000305982953720e-01 0.000000000000000e+00 4.212316051704127e+00 5.892044409257831e-01 0.000000000000000e+00 5.000000000000000e+00 1.000000000000000e+00 0.000000000000000e+00 4.444444444444445e+00 1.000000000000000e+00 0.000000000000000e+00 0.000000000000000e+00 0.000000000000000e+00 0.000000000000000e+00 5.555555555544532e-01 0.000000000000000e+00 0.000000000000000e+00 6.447232945102525e-01 5.000305982953720e-01 0.000000000000000e+00 0.000000000000000e+00 0.000000000000000e+00 0.000000000000000e+00 6.447232945102525e-01 5.000305982953720e-01 0.000000000000000e+00 0.000000000000000e+00 1.000000000000000e+00 0.000000000000000e+00 5.000000000000000e+00 0.000000000000000e+00 0.000000000000000e+00 5.000000000000000e+00 1.000000000000000e+00 0.000000000000000e+00 4.212316051704127e+00 5.892044409257831e-01 0.000000000000000e+00 4.444444444443666e+00 0.000000000000000e+00 0.000000000000000e+00 5.000000000000000e+00 0.000000000000000e+00 0.000000000000000e+00 4.212316051704127e+00 5.892044409257831e-01 0.000000000000000e+00 1.364876762642804e+00 5.000320447034061e-01 0.000000000000000e+00 1.111111111111111e+00 1.000000000000000e+00 0.000000000000000e+00 6.447232945102525e-01 5.000305982953720e-01 0.000000000000000e+00 6.447232945102525e-01 5.000305982953720e-01 0.000000000000000e+00 1.111111111108906e+00 0.000000000000000e+00 0.000000000000000e+00 1.364876762642804e+00 5.000320447034061e-01 0.000000000000000e+00 2.515703651984364e+00 5.007726862999170e-01 0.000000000000000e+00 2.222222222222222e+00 1.000000000000000e+00 0.000000000000000e+00 1.943059698733141e+00 5.001341218338872e-01 0.000000000000000e+00 1.943059698733141e+00 5.001341218338872e-01 0.000000000000000e+00 2.222222222218946e+00 0.000000000000000e+00 0.000000000000000e+00 2.515703651984364e+00 5.007726862999170e-01 0.000000000000000e+00 1.943059698733141e+00 5.001341218338872e-01 0.000000000000000e+00 2.222222222222222e+00 1.000000000000000e+00 0.000000000000000e+00 1.666666666666666e+00 1.000000000000000e+00 0.000000000000000e+00 1.666666666663845e+00 0.000000000000000e+00 0.000000000000000e+00 2.222222222218946e+00 0.000000000000000e+00 0.000000000000000e+00 1.943059698733141e+00 5.001341218338872e-01 0.000000000000000e+00 1.666666666666666e+00 1.000000000000000e+00 0.000000000000000e+00 1.111111111111111e+00 1.000000000000000e+00 0.000000000000000e+00 1.364876762642804e+00 5.000320447034061e-01 0.000000000000000e+00 1.364876762642804e+00 5.000320447034061e-01 0.000000000000000e+00 1.111111111108906e+00 0.000000000000000e+00 0.000000000000000e+00 1.666666666663845e+00 0.000000000000000e+00 0.000000000000000e+00 1.364876762642804e+00 5.000320447034061e-01 0.000000000000000e+00 1.943059698733141e+00 5.001341218338872e-01 0.000000000000000e+00 1.666666666666666e+00 1.000000000000000e+00 0.000000000000000e+00 1.666666666663845e+00 0.000000000000000e+00 0.000000000000000e+00 1.943059698733141e+00 5.001341218338872e-01 0.000000000000000e+00 1.364876762642804e+00 5.000320447034061e-01 0.000000000000000e+00 7.329385747353681e+00 5.000482253086420e-01 2.329385747353681e+00 7.142857142855537e+00 1.000000000000000e+00 2.142857142855537e+00 7.499999999998249e+00 1.000000000000000e+00 2.499999999998248e+00 7.329385747353681e+00 5.000482253086420e-01 2.329385747353681e+00 7.500000000000000e+00 0.000000000000000e+00 2.500000000000000e+00 7.142857142857143e+00 0.000000000000000e+00 2.142857142857143e+00 6.243107225528528e+00 4.822579089506173e-01 1.243107225528529e+00 6.071428571427509e+00 1.000000000000000e+00 1.071428571427509e+00 6.428571428570115e+00 1.000000000000000e+00 1.428571428570115e+00 6.566220238094560e+00 5.017361111111112e-01 1.566220238094561e+00 6.243107225528528e+00 4.822579089506173e-01 1.243107225528529e+00 6.428571428570115e+00 1.000000000000000e+00 1.428571428570115e+00 6.243107225528528e+00 4.822579089506173e-01 1.243107225528529e+00 6.428571428571429e+00 0.000000000000000e+00 1.428571428571429e+00 6.071428571428572e+00 0.000000000000000e+00 1.071428571428572e+00 6.428571428571429e+00 0.000000000000000e+00 1.428571428571429e+00 6.243107225528528e+00 4.822579089506173e-01 1.243107225528529e+00 6.566220238094560e+00 5.017361111111112e-01 1.566220238094561e+00 7.683342289461289e+00 5.000080375514402e-01 2.683342289461290e+00 7.499999999998249e+00 1.000000000000000e+00 2.499999999998248e+00 7.857142857141355e+00 1.000000000000000e+00 2.857142857141355e+00 7.683342289461289e+00 5.000080375514402e-01 2.683342289461290e+00 7.857142857142857e+00 0.000000000000000e+00 2.857142857142857e+00 7.500000000000000e+00 0.000000000000000e+00 2.500000000000000e+00 8.762194113756150e+00 5.364583333333334e-01 3.762194113756149e+00 8.571428571427571e+00 1.000000000000000e+00 3.571428571427570e+00 8.928571428570677e+00 1.000000000000000e+00 3.928571428570677e+00 8.762194113756150e+00 5.364583333333334e-01 3.762194113756149e+00 8.928571428571429e+00 0.000000000000000e+00 3.928571428571429e+00 8.571428571428571e+00 0.000000000000000e+00 3.571428571428572e+00 8.452380952380411e+00 5.000000000000001e-01 3.452380952380410e+00 8.762194113756150e+00 5.364583333333334e-01 3.762194113756149e+00 8.571428571428571e+00 0.000000000000000e+00 3.571428571428572e+00 8.571428571427571e+00 1.000000000000000e+00 3.571428571427570e+00 8.762194113756150e+00 5.364583333333334e-01 3.762194113756149e+00 8.452380952380411e+00 5.000000000000001e-01 3.452380952380410e+00 8.056382275131595e+00 5.000000000000000e-01 3.056382275131596e+00 7.857142857141355e+00 1.000000000000000e+00 2.857142857141355e+00 8.214285714284463e+00 1.000000000000000e+00 3.214285714284463e+00 8.056382275131595e+00 5.000000000000000e-01 3.056382275131596e+00 8.214285714285714e+00 0.000000000000000e+00 3.214285714285714e+00 7.857142857142857e+00 0.000000000000000e+00 2.857142857142857e+00 7.683342289461289e+00 5.000080375514402e-01 2.683342289461290e+00 8.056382275131595e+00 5.000000000000000e-01 3.056382275131596e+00 7.857142857142857e+00 0.000000000000000e+00 2.857142857142857e+00 7.857142857141355e+00 1.000000000000000e+00 2.857142857141355e+00 8.056382275131595e+00 5.000000000000000e-01 3.056382275131596e+00 7.683342289461289e+00 5.000080375514402e-01 2.683342289461290e+00 8.452380952380411e+00 5.000000000000001e-01 3.452380952380410e+00 8.214285714284463e+00 1.000000000000000e+00 3.214285714284463e+00 8.571428571427571e+00 1.000000000000000e+00 3.571428571427570e+00 8.452380952380411e+00 5.000000000000001e-01 3.45238095238041
[...]
<PointData Scalars="A_conc," Vectors="">
<DataArray type="Float64" Name="A_conc" format="ascii">
9.999999999998634e-01 9.999999999998103e-01 9.999999999998100e-01 9.999999999967607e-01 1.000000000001184e+00 1.000000000001217e+00 9.999999999999283e-01 9.999999999998103e-01 9.999999999998411e-01 9.999999999998955e-01 9.999999999999281e-01 9.999999999998431e-01 9.999999999968940e-01 1.000000000001110e+00 1.000000000001063e+00 1.000000000001111e+00 9.999999999968934e-01 9.999999999967401e-01 9.999999999997664e-01 1.000000000000022e+00 9.999999999999830e-01 9.999999999997904e-01 9.999999999998421e-01 9.999999999999616e-01 9.999999999999818e-01 9.999999999998415e-01 9.999999999997905e-01 9.999999999999820e-01 9.999999999998942e-01 9.999999999997665e-01 1.000000000000685e+00 1.000000000000761e+00 9.999999999972556e-01 9.999999999972554e-01 9.999999999971637e-01 1.000000000000685e+00 9.999999999974140e-01 1.000000000000380e+00 9.999999999975659e-01 1.000000000000109e+00 9.999999999974245e-01 1.000000000000239e+00 1.000000000000133e+00 1.000000000000296e+00 9.999999999998548e-01 9.999999999999760e-01 1.000000000000022e+00 1.000000000000119e+00 1.000000000000119e+00 9.999999999999989e-01 9.999999999999760e-01 9.999999999997629e-01 9.999999999999877e-01 1.000000000000016e+00 1.000000000000199e+00 1.000000000000133e+00 9.999999999998546e-01 1.000000000000069e+00 9.999999999999193e-01 1.000000000000112e+00 9.999999999988711e-01 9.999999999995515e-01 9.999999999983658e-01 1.000000000000102e+00 1.000000000000096e+00 9.999999999974175e-01 1.000000000000130e+00 9.999999999999648e-01 9.999999999999184e-01 9.999999999998547e-01 1.000000000000588e+00 9.999999999994004e-01 9.999999999998633e-01 9.999999999998100e-01 9.999999999998803e-01 9.999999999986208e-01 1.000000000001184e+00 9.999999999967616e-01 9.999999999998470e-01 9.999999999998263e-01 1.000000000000695e+00 1.000000000001351e+00 1.000000000000068e+00 9.999999999992056e-01 1.000000000000159e+00 1.000000000000061e+00 1.000000000000229e+00 9.999999999994980e-01 1.000000000000685e+00 1.000000000000620e+00 1.000000000000245e+00 1.000000000000131e+00 1.000000000000127e+00 1.000000000000474e+00 9.999999999996444e-01 9.999999999995951e-01 9.824909370574082e-01 9.947283598685002e-01 9.736699040964805e-01 9.820428397862715e-01 9.744766069294218e-01 9.956394741249135e-01 9.998673034170281e-01 1.000131770227570e+00 9.998962337595061e-01 9.992476065911495e-01 9.999918302786868e-01 9.999516607815486e-01 9.998078730635177e-01 1.000172875460477e+00 1.000250975087473e+00 1.000278363827281e+00 9.999197621163248e-01 9.991493454535221e-01 9.535653371900176e-01 9.772530388329854e-01 9.341271110619167e-01 9.529810897647431e-01 9.345961422556993e-01 9.780507122267449e-01 7.091721630297413e-01 7.728083403486569e-01 6.545399526083316e-01 7.086648291918481e-01 6.537064511781785e-01 7.720075950465112e-01 8.041656906871142e-01 7.085627912023073e-01 7.703367013945652e-01 7.710557259147651e-01 7.091765700247772e-01 8.045946378556419e-01 8.966931956593890e-01 9.381524455695947e-01 8.667087967070950e-01 8.960423691522976e-01 8.666483761672568e-01 9.384998982039340e-01 9.566857747787580e-01 8.962167281985456e-01 9.347989898351350e-01 9.344048910504357e-01 8.969574857245277e-01 9.572420208710710e-01 8.028586793453887e-01 8.704486149199427e-01 7.710057924754434e-01 8.022903372027562e-01 7.704527849255519e-01 8.701942907477690e-01 8.999895837278281e-01 8.027700546784639e-01 8.669420553208724e-01 8.671205946758763e-01 8.034468666426808e-01 9.006049465436663e-01 9.955592864217025e-01 9.997561343179773e-01 9.921782477476718e-01 9.826269811380228e-01 9.973254548821106e-01 9.924359999738795e-01 9.952667844682065e-01 9.929966784359953e-01 1.000453019237006e+00 9.933051014235019e-01 9.970196542667634e-01 9.822001690755107e-01 9.992529627472250e-01 1.000328081858212e+00 9.985227526253597e-01 9.955607597908487e-01 9.999838924186604e-01 9.986385432626385e-01 9.990841927941794e-01 9.990890303403156e-01 1.000689382791556e+00 9.992830725053750e-01 9.997817143229225e-01 9.953328057540669e-01 6.543273656475922e-01 5.285469233533853e-01 5.880477022622815e-01 5.879695814057300e-01 7.102286511956096e-01 6.542341549061751e-01 6.533160375167524e-01 7.097541793183669e-01 5.878404928982288e-01 9.536620869298628e-01 9.850562122351748e-01 9.739696519586027e-01 9.747657501244708e-01 9.846181333254013e-01 9.530377420772747e-01 5.277387826508315e-01 6.533618266154350e-01 5.879750257233960e-01 4.565819680864051e-01 5.266342125571919e-01 4.060125528918564e-01 5.874241328215517e-01 5.280918244094209e-01 4.562963196546980e-01 5.875355585462028e-01 4.560027469317951e-01 5.273451822121363e-01 5.259245502004112e-01 4.561926710871811e-01 4.054270276967507e-01 9.998792585638637e-01 1.000148955582000e+00 9.999866047817646e-01 9.999799974535286e-01 1.000104552802432e+00 1.000033505199485e+00 1.000000042371715e+00 1.000000994995323e+00 9.999999816647946e-01 9.998948411210904e-01 9.999883660209048e-01 1.000039325318241e+00 9.999881727633569e-01 1.000003992976375e+00 1.000025823224969e+00 1.000018851879337e+00 1.000016855512633e+00 9.999762050107421e-01 1.000006007884648e+00 9.999890322300266e-01 9.999996653017298e-01 9.999946602052764e-01 1.000014559888341e+00 1.000000598869175e+00 4.539776696389545e-01 2.944090805551696e-01 4.044819787285359e-01 9.999995072357225e-01 1.000001394478360e+00 9.999996529794880e-01 9.999999912055174e-01 9.999999912069434e-01 1.000000021118801e+00 1.000000144002390e+00 9.999999632471225e-01 1.000000012644341e+00 4.025344557643935e-01 2.985484210672030e-01 2.984858517862769e-01 4.055856883258927e-01 2.969471697546819e-01 4.531830228023189e-01 9.999999999589976e-01 9.999999999497007e-01 9.999999999881297e-01 9.999999999564214e-01 9.999999999877415e-01 9.999999999473287e-01 9.999999999972060e-01 9.999999999991874e-01 9.999999999977237e-01 9.999999999977415e-01 9.999999999971391e-01 9.999999999983661e-01 9.999999999950990e-01 9.999999999972360e-01 9.999999999980962e-01 9.999999999977256e-01 9.999999999943956e-01 9.999999999977589e-01 9.999999987050368e-01 9.999999983819358e-01 9.999999993781937e-01 9.999999987352978e-01 9.999999993314832e-01 9.999999983135570e-01 9.999999994084552e-01 9.999999992383273e-01 9.999999987425484e-01 9.999999992817272e-01 9.999999993943245e-01 9.999999987215341e-01 9.999999998925431e-01 9.999999998690782e-01 9.999999999646174e-01 9.999999998903347e-01 9.999999999616431e-01 9.999999998619997e-01 9.999999997035423e-01 9.999999996799558e-01 9.999999999067508e-01 9.999999997066410e-01 9.999999998961525e-01 9.999999996614317e-01 9.999999999096690e-01 9.999999998687210e-01 9.999999997144032e-01 9.999999998783689e-01 9.999999999107406e-01 9.999999997142952e-01 9.999999993508103e-01 9.999999992612347e-01 9.999999997508268e-01 9.999999993629410e-01 9.999999997267665e-01 9.999999992237384e-01 9.999999997328922e-01 9.999999996737957e-01 9.999999993746010e-01 9.999999996960444e-01 9.999999997281017e-01 9.999999993678225e-01 9.999999999944597e-01 9.999999999984789e-01 9.999999999934309e-01 9.999999999949405e-01 9.999999999933462e-01 9.999999999979509e-01 9.999999999862642e-01 9.999999999938037e-01 9.999999999961152e-01 9.999999999936544e-01 9.999999999857592e-01 9.999999999957223e-01 9.999999999856889e-01 9.999999999956444e-01 9.999999999805531e-01 9.999999999858343e-01 9.999999999818584e-01 9.999999999958695e-01 9.999999999603181e-01 9.999999999829057e-01 9.999999999885416e-01 9.999999999827183e-01 9.999999999569796e-01 9.999999999878539e-01 9.999999944129941e-01 9.999999968706761e-01 9.999999930110817e-01 9.999999999988552e-01 9.999999999985931e-01 9.999999999989245e-01 9.999999999981289e-01 9.999999999985475e-01 9.999999999977810e-01 9.999999973805738e-01 9.999999988454856e-01 9.999999983335368e-01 9.999999964958300e-01 9.999999973698979e-01 9.999999985047020e-01 9.999999965455196e-01 9.999999944625959e-01 9.999999976024715e-01 9.999999985882796e-01 9.999999972893450e-01 9.999999966088912e-01 9.999999973164004e-01 9.999999984103327e-01 9.999999988201516e-01 9.999999975489424e-01 9.999999942968598e-01 9.999999966647182e-01 9.999999998955212e-01 9.999999999526632e-01 9.999999999654496e-01 9.999999999501350e-01 9.999999998917837e-01 9.999999999628492e-01 9.999999931740218e-01 9.999999970030069e-01 9.999999942180532e-01 9.999999999992768e-01 9.999999999990591e-01 9.999999999995989e-01 9.999999999989713e-01 9.999999999971606e-01 9.999999999983092e-01 9.999999999992943e-01 9.999999999996411e-01 9.999999999995061e-01 9.999999999990694e-01 9.999999999993313e-01 9.999999999995179e-01 9.999999999988347e-01 9.999999999995368e-01 9.999999999988987e-01 9.999999999989694e-01 9.999999999992873e-01 9.999999999989347e-01 9.999999948930544e-01 9.999999932278500e-01 9.999999870923882e-01 9.999999999989198e-01 9.999999999992903e-01 9.999999999989689e-01 9.999999999996221e-01 9.999999999989185e-01 9.999999999996010e-01 9.999999999996236e-01 9.999999999992913e-01 9.999999999989408e-01 9.999999939383960e-01 9.999999860086300e-01 9.999999863851902e-01 9.999999950220723e-01 9.999999864048933e-01 9.999999931885698e-01 
</DataArray>
</PointData>
</Piece>
</UnstructuredGrid>
</VTKFile>
