<?xml version="1.0"?>
<VTKFile type="UnstructuredGrid" version="0.1" byte_order="LittleEndian">
<UnstructuredGrid>
<Piece NumberOfPoints="408" NumberOfCells="136">
<Points>
<DataArray type="Float64" NumberOfComponents="3" format="ascii">
2.515703651984364e+00 5.007726862999170e-01 0.000000000000000e+00 2.777777777777778e+00 1.000000000000000e+00 0.000000000000000e+00 2.222222222222222e+00 1.000000000000000e+00 0.000000000000000e+00 2.515703651984364e+00 5.007726862999170e-01 0.000000000000000e+00 2.222222222218946e+00 0.000000000000000e+00 0.000000000000000e+00 2.777777777774663e+00 0.000000000000000e+00 0.000000000000000e+00 3.045649273404015e+00 5.040609728652263e-01 0.000000000000000e+00 3.333333333333333e+00 1.000000000000000e+00 0.000000000000000e+00 2.777777777777778e+00 1.000000000000000e+00 0.000000000000000e+00 2.515703651984364e+00 5.007726862999170e-01 0.000000000000000e+00 3.045649273404015e+00 5.040609728652263e-01 0.000000000000000e+00 2.777777777777778e+00 1.000000000000000e+00 0.000000000000000e+00 3.045649273404015e+00 5.040609728652263e-01 0.000000000000000e+00 2.777777777774663e+00 0.000000000000000e+00 0.000000000000000e+00 3.333333333330998e+00 0.000000000000000e+00 0.000000000000000e+00 2.777777777774663e+00 0.000000000000000e+00 0.000000000000000e+00 3.045649273404015e+00 5.040609728652263e-01 0.000000000000000e+00 2.515703651984364e+00 5.007726862999170e-01 0.000000000000000e+00 4.212316051704127e+00 5.892044409257831e-01 0.000000000000000e+00 4.444444444444445e+00 1.000000000000000e+00 0.000000000000000e+00 3.888888888888889e+00 1.000000000000000e+00 0.000000000000000e+00 3.607229643560429e+00 5.352266455546982e-01 0.000000000000000e+00 3.333333333333333e+00 1.000000000000000e+00 0.000000000000000e+00 3.045649273404015e+00 5.040609728652263e-01 0.000000000000000e+00 3.888888888888889e+00 1.000000000000000e+00 0.000000000000000e+00 3.333333333333333e+00 1.000000000000000e+00 0.000000000000000e+00 3.607229643560429e+00 5.352266455546982e-01 0.000000000000000e+00 3.888888888888889e+00 1.000000000000000e+00 0.000000000000000e+00 3.607229643560429e+00 5.352266455546982e-01 0.000000000000000e+00 4.212316051704127e+00 5.892044409257831e-01 0.000000000000000e+00 3.333333333330998e+00 0.000000000000000e+00 0.000000000000000e+00 3.888888888887332e+00 0.000000000000000e+00 0.000000000000000e+00 3.607229643560429e+00 5.352266455546982e-01 0.000000000000000e+00 3.607229643560429e+00 5.352266455546982e-01 0.000000000000000e+00 3.045649273404015e+00 5.040609728652263e-01 0.000000000000000e+00 3.333333333330998e+00 0.000000000000000e+00 0.000000000000000e+00 3.607229643560429e+00 5.352266455546982e-01 0.000000000000000e+00 3.888888888887332e+00 0.000000000000000e+00 0.000000000000000e+00 4.212316051704127e+00 5.892044409257831e-01 0.000000000000000e+00 4.444444444443666e+00 0.000000000000000e+00 0.000000000000000e+00 4.212316051704127e+00 5.892044409257831e-01 0.000000000000000e+00 3.888888888887332e+00 0.000000000000000e+00 0.000000000000000e+00 5.555555555544532e-01 0.000000000000000e+00 0.000000000000000e+00 1.111111111108906e+00 0.000000000000000e+00 0.000000000000000e+00 6.447232945102525e-01 5.000305982953720e-01 0.000000000000000e+00 6.447232945102525e-01 5.000305982953720e-01 0.000000000000000e+00 1.111111111111111e+00 1.000000000000000e+00 0.000000000000000e+00 5.555555555555554e-01 1.000000000000000e+00 0.000000000000000e+00 5.555555555555554e-01 1.000000000000000e+00 0.000000000000000e+00 0.000000000000000e+00 1.000000000000000e+00 0.000000000000000e+00 6.447232945102525e-01 5.000305982953720e-01 0.000000000000000e+00 4.212316051704127e+00 5.892044409257831e-01 0.000000000000000e+00 5.000000000000000e+00 1.000000000000000e+00 0.000000000000000e+00 4.444444444444445e+00 1.000000000000000e+00 0.000000000000000e+00 0.000000000000000e+00 0.000000000000000e+00 0.000000000000000e+00 5.555555555544532e-01 0.000000000000000e+00 0.000000000000000e+00 6.447232945102525e-01 5.000305982953720e-01 0.000000000000000e+00 0.000000000000000e+00 0.000000000000000e+00 0.000000000000000e+00 6.447232945102525e-01 5.000305982953720e-01 0.000000000000000e+00 0.000000000000000e+00 1.000000000000000e+00 0.000000000000000e+00 5.000000000000000e+00 0.000000000000000e+00 0.000000000000000e+00 5.000000000000000e+00 1.000000000000000e+00 0.000000000000000e+00 4.212316051704127e+00 5.892044409257831e-01 0.000000000000000e+00 4.444444444443666e+00 0.000000000000000e+00 0.000000000000000e+00 5.000000000000000e+00 0.000000000000000e+00 0.000000000000000e+00 4.212316051704127e+00 5.892044409257831e-01 0.000000000000000e+00 1.364876762642804e+00 5.000320447034061e-01 0.000000000000000e+00 1.111111111111111e+00 1.000000000000000e+00 0.000000000000000e+00 6.447232945102525e-01 5.000305982953720e-01 0.000000000000000e+00 6.447232945102525e-01 5.000305982953720e-01 0.000000000000000e+00 1.111111111108906e+00 0.000000000000000e+00 0.000000000000000e+00 1.364876762642804e+00 5.000320447034061e-01 0.000000000000000e+00 2.515703651984364e+00 5.007726862999170e-01 0.000000000000000e+00 2.222222222222222e+00 1.000000000000000e+00 0.000000000000000e+00 1.943059698733141e+00 5.001341218338872e-01 0.000000000000000e+00 1.943059698733141e+00 5.001341218338872e-01 0.000000000000000e+00 2.222222222218946e+00 0.000000000000000e+00 0.000000000000000e+00 2.515703651984364e+00 5.007726862999170e-01 0.000000000000000e+00 1.943059698733141e+00 5.001341218338872e-01 0.000000000000000e+00 2.222222222222222e+00 1.000000000000000e+00 0.000000000000000e+00 1.666666666666666e+00 1.000000000000000e+00 0.000000000000000e+00 1.666666666663845e+00 0.000000000000000e+00 0.000000000000000e+00 2.222222222218946e+00 0.000000000000000e+00 0.000000000000000e+00 1.943059698733141e+00 5.001341218338872e-01 0.000000000000000e+00 1.666666666666666e+00 1.000000000000000e+00 0.000000000000000e+00 1.111111111111111e+00 1.000000000000000e+00 0.000000000000000e+00 1.364876762642804e+00 5.000320447034061e-01 0.000000000000000e+00 1.364876762642804e+00 5.000320447034061e-01 0.000000000000000e+00 1.111111111108906e+00 0.000000000000000e+00 0.000000000000000e+00 1.666666666663845e+00 0.000000000000000e+00 0.000000000000000e+00 1.364876762642804e+00 5.000320447034061e-01 0.000000000000000e+00 1.943059698733141e+00 5.001341218338872e-01 0.000000000000000e+00 1.666666666666666e+00 1.000000000000000e+00 0.000000000000000e+00 1.666666666663845e+00 0.000000000000000e+00 0.000000000000000e+00 1.943059698733141e+00 5.001341218338872e-01 0.000000000000000e+00 1.364876762642804e+00 5.000320447034061e-01 0.000000000000000e+00 7.329385747353681e+00 5.000482253086420e-01 2.329385747353681e+00 7.142857142855537e+00 1.000000000000000e+00 2.142857142855537e+00 7.499999999998249e+00 1.000000000000000e+00 2.499999999998248e+00 7.329385747353681e+00 5.000482253086420e-01 2.329385747353681e+00 7.500000000000000e+00 0.000000000000000e+00 2.500000000000000e+00 7.142857142857143e+00 0.000000000000000e+00 2.142857142857143e+00 6.243107225528528e+00 4.822579089506173e-01 1.243107225528529e+00 6.071428571427509e+00 1.000000000000000e+00 1.071428571427509e+00 6.428571428570115e+00 1.000000000000000e+00 1.428571428570115e+00 6.566220238094560e+00 5.017361111111112e-01 1.566220238094561e+00 6.243107225528528e+00 4.822579089506173e-01 1.243107225528529e+00 6.428571428570115e+00 1.000000000000000e+00 1.428571428570115e+00 6.243107225528528e+00 4.822579089506173e-01 1.243107225528529e+00 6.428571428571429e+00 0.000000000000000e+00 1.428571428571429e+00 6.071428571428572e+00 0.000000000000000e+00 1.071428571428572e+00 6.428571428571429e+00 0.000000000000000e+00 1.428571428571429e+00 6.243107225528528e+00 4.822579089506173e-01 1.243107225528529e+00 6.566220238094560e+00 5.017361111111112e-01 1.566220238094561e+00 7.683342289461289e+00 5.000080375514402e-01 2.683342289461290e+00 7.499999999998249e+00 1.000000000000000e+00 2.499999999998248e+00 7.857142857141355e+00 1.000000000000000e+00 2.857142857141355e+00 7.683342289461289e+00 5.000080375514402e-01 2.683342289461290e+00 7.857142857142857e+00 0.000000000000000e+00 2.857142857142857e+00 7.500000000000000e+00 0.000000000000000e+00 2.500000000000000e+00 8.762194113756150e+00 5.364583333333334e-01 3.762194113756149e+00 8.571428571427571e+00 1.000000000000000e+00 3.571428571427570e+00 8.928571428570677e+00 1.000000000000000e+00 3.928571428570677e+00 8.762194113756150e+00 5.364583333333334e-01 3.762194113756149e+00 8.928571428571429e+00 0.000000000000000e+00 3.928571428571429e+00 8.571428571428571e+00 0.000000000000000e+00 3.571428571428572e+00 8.452380952380411e+00 5.000000000000001e-01 3.452380952380410e+00 8.762194113756150e+00 5.364583333333334e-01 3.762194113756149e+00 8.571428571428571e+00 0.000000000000000e+00 3.571428571428572e+00 8.571428571427571e+00 1.000000000000000e+00 3.571428571427570e+00 8.762194113756150e+00 5.364583333333334e-01 3.762194113756149e+00 8.452380952380411e+00 5.000000000000001e-01 3.452380952380410e+00 8.056382275131595e+00 5.000000000000000e-01 3.056382275131596e+00 7.857142857141355e+00 1.000000000000000e+00 2.857142857141355e+00 8.214285714284463e+00 1.000000000000000e+00 3.214285714284463e+00 8.056382275131595e+00 5.000000000000000e-01 3.056382275131596e+00 8.214285714285714e+00 0.000000000000000e+00 3.214285714285714e+00 7.857142857142857e+00 0.000000000000000e+00 2.857142857142857e+00 7.683342289461289e+00 5.000080375514402e-01 2.683342289461290e+00 8.056382275131595e+00 5.000000000000000e-01 3.056382275131596e+00 7.857142857142857e+00 0.000000000000000e+00 2.857142857142857e+00 7.857142857141355e+00 1.000000000000000e+00 2.857142857141355e+00 8.056382275131595e+00 5.000000000000000e-01 3.056382275131596e+00 7.683342289461289e+00 5.000080375514402e-01 2.683342289461290e+00 8.452380952380411e+00 5.000000000000001e-01 3.452380952380410e+00 8.214285714284463e+00 1.000000000000000e+00 3.214285714284463e+00 8.571428571427571e+00 1.000000000000000e+00 3.571428571427570e+00 8.452380952380411e+00 5.000000000000001e-01 3.45238095238041
[...]
<PointData Scalars="A_conc," Vectors="">
<DataArray type="Float64" Name="A_conc" format="ascii">
9.999999999998629e-01 9.999999999998112e-01 9.999999999998108e-01 9.999999999967614e-01 1.000000000001184e+00 1.000000000001216e+00 9.999999999999274e-01 9.999999999998114e-01 9.999999999998426e-01 9.999999999998950e-01 9.999999999999275e-01 9.999999999998440e-01 9.999999999968947e-01 1.000000000001109e+00 1.000000000001063e+00 1.000000000001111e+00 9.999999999968938e-01 9.999999999967405e-01 9.999999999997663e-01 1.000000000000021e+00 9.999999999999831e-01 9.999999999997899e-01 9.999999999998429e-01 9.999999999999610e-01 9.999999999999821e-01 9.999999999998420e-01 9.999999999997904e-01 9.999999999999822e-01 9.999999999998940e-01 9.999999999997661e-01 1.000000000000685e+00 1.000000000000761e+00 9.999999999972555e-01 9.999999999972554e-01 9.999999999971637e-01 1.000000000000685e+00 9.999999999974138e-01 1.000000000000380e+00 9.999999999975658e-01 1.000000000000108e+00 9.999999999974243e-01 1.000000000000239e+00 1.000000000000133e+00 1.000000000000296e+00 9.999999999998544e-01 9.999999999999761e-01 1.000000000000022e+00 1.000000000000120e+00 1.000000000000120e+00 9.999999999999991e-01 9.999999999999759e-01 9.999999999997625e-01 9.999999999999871e-01 1.000000000000015e+00 1.000000000000200e+00 1.000000000000133e+00 9.999999999998544e-01 1.000000000000069e+00 9.999999999999193e-01 1.000000000000112e+00 9.999999999988716e-01 9.999999999995509e-01 9.999999999983636e-01 1.000000000000102e+00 1.000000000000095e+00 9.999999999974171e-01 1.000000000000130e+00 9.999999999999651e-01 9.999999999999184e-01 9.999999999998541e-01 1.000000000000588e+00 9.999999999993999e-01 9.999999999998630e-01 9.999999999998106e-01 9.999999999998800e-01 9.999999999986211e-01 1.000000000001184e+00 9.999999999967619e-01 9.999999999998469e-01 9.999999999998263e-01 1.000000000000695e+00 1.000000000001351e+00 1.000000000000068e+00 9.999999999992056e-01 1.000000000000159e+00 1.000000000000061e+00 1.000000000000229e+00 9.999999999994977e-01 1.000000000000685e+00 1.000000000000620e+00 1.000000000000245e+00 1.000000000000131e+00 1.000000000000127e+00 1.000000000000474e+00 9.999999999996442e-01 9.999999999995950e-01 9.979865324442955e-01 1.000078440317432e+00 9.969122889000126e-01 9.978200427050237e-01 9.974103567249110e-01 1.000444904755013e+00 9.999922327522865e-01 1.000007242673288e+00 1.000008739812374e+00 9.999635596336176e-01 9.999976848712960e-01 1.000016790443348e+00 9.999834050352456e-01 1.000043814346850e+00 1.000015965211013e+00 1.000062959385665e+00 9.999840009868336e-01 9.999486270436916e-01 9.926068819179252e-01 9.982513564803556e-01 9.887415482904824e-01 9.923392228284464e-01 9.893823672335177e-01 9.988343397434519e-01 8.993286753973708e-01 9.345877070598746e-01 8.705528232903742e-01 8.984844542725244e-01 8.705041024080472e-01 9.348148804962739e-01 9.450773389277476e-01 8.985350464105551e-01 9.317877671359339e-01 9.315264576534626e-01 8.994432248907093e-01 9.454281438679588e-01 9.776789359420152e-01 9.910968557212406e-01 9.690674330554034e-01 9.772901293118843e-01 9.696798259218562e-01 9.917951876054165e-01 9.938948194284797e-01 9.775031910902287e-01 9.896982722098977e-01 9.890258619951918e-01 9.778786062621125e-01 9.941706669104142e-01 9.434842232255347e-01 9.726926694821726e-01 9.311556120098168e-01 9.429783767286922e-01 9.315323859351275e-01 9.732960296919531e-01 9.799673417148814e-01 9.435713637767421e-01 9.702652565137488e-01 9.696616864579578e-01 9.441044135300883e-01 9.803491172527157e-01 9.996527550299863e-01 1.000159964844033e+00 9.994560678571298e-01 9.980465624387670e-01 9.999593449377417e-01 9.995477079860275e-01 9.995653932700606e-01 9.997434118804686e-01 1.000325717973079e+00 9.998857857238191e-01 9.998495135187642e-01 9.979303278083375e-01 9.999557947435651e-01 1.000048580745627e+00 9.999678974730168e-01 9.996699506667545e-01 1.000028775902008e+00 9.999983877581379e-01 9.999194278944941e-01 1.000086817790615e+00 1.000098796256024e+00 1.000149709591154e+00 9.999759396366799e-01 9.996219497867398e-01 8.733146510522010e-01 7.861724506743012e-01 8.264935266541468e-01 8.265412910802520e-01 9.021599534722010e-01 8.706151023075787e-01 8.704683877129145e-01 9.013174215280259e-01 8.258167940164008e-01 9.926814461924840e-01 9.986880978822955e-01 9.970806716456077e-01 9.976284279203053e-01 9.985027952885408e-01 9.924558833915688e-01 7.857652139184311e-01 8.731142850356199e-01 8.258487761781647e-01 7.249761111664204e-01 7.879822595805475e-01 6.825756258258484e-01 8.290458244860823e-01 7.861866503655884e-01 7.250636216201023e-01 8.281988849353883e-01 7.255281344267651e-01 7.856670145706517e-01 7.874614206228759e-01 7.254141335129121e-01 6.818741875010276e-01 9.999948708178503e-01 1.000012351442275e+00 9.999974308407932e-01 9.999985021191653e-01 1.000008327227788e+00 1.000000324503117e+00 9.999999872437357e-01 1.000000034242449e+00 9.999999935717160e-01 9.999962679954686e-01 9.999985746457628e-01 1.000003315697349e+00 9.999991438529466e-01 1.000000461086988e+00 1.000001030785267e+00 1.000000347916769e+00 1.000001730038452e+00 9.999986148510581e-01 1.000000171996683e+00 9.999994513981707e-01 9.999997400506943e-01 9.999997873202584e-01 1.000000480355998e+00 9.999999206398207e-01 7.268477939538399e-01 5.688448873749775e-01 6.819904905598831e-01 9.999999948950052e-01 1.000000009975083e+00 9.999999874893254e-01 9.999999998856747e-01 9.999999998863643e-01 9.999999999641205e-01 1.000000002838713e+00 9.999999983278189e-01 9.999999993365902e-01 6.828022513523654e-01 5.680655429109506e-01 5.678114833785717e-01 6.822717814564373e-01 5.680699007771247e-01 7.269573862104982e-01 9.999999999984969e-01 9.999999999979045e-01 9.999999999980977e-01 9.999999999941089e-01 1.000000000000875e+00 1.000000000000890e+00 9.999999999979627e-01 9.999999999993653e-01 9.999999999994118e-01 9.999999999986904e-01 9.999999999984140e-01 9.999999999983318e-01 9.999999999987126e-01 9.999999999983630e-01 9.999999999986406e-01 9.999999999993429e-01 9.999999999979002e-01 9.999999999980010e-01 9.999999999950245e-01 9.999999999948156e-01 9.999999999972379e-01 9.999999999892949e-01 1.000000000000772e+00 9.999999999982336e-01 9.999999999908981e-01 1.000000000000481e+00 9.999999999893344e-01 9.999999999969308e-01 9.999999999968675e-01 9.999999999951114e-01 9.999999999984215e-01 9.999999999976948e-01 9.999999999979456e-01 9.999999999920647e-01 1.000000000001870e+00 1.000000000001710e+00 9.999999999979418e-01 9.999999999975662e-01 9.999999999978694e-01 9.999999999917706e-01 1.000000000001770e+00 1.000000000001308e+00 9.999999999920676e-01 1.000000000001709e+00 9.999999999917918e-01 9.999999999978056e-01 9.999999999984042e-01 9.999999999979737e-01 9.999999999968570e-01 9.999999999967067e-01 9.999999999976836e-01 9.999999999907657e-01 1.000000000001422e+00 1.000000000000431e+00 9.999999999919892e-01 1.000000000001310e+00 9.999999999907898e-01 9.999999999975479e-01 9.999999999981838e-01 9.999999999969145e-01 9.999999999979456e-01 9.999999999993887e-01 9.999999999994231e-01 9.999999999986889e-01 9.999999999983273e-01 9.999999999983412e-01 9.999999999987235e-01 9.999999999983331e-01 9.999999999986943e-01 9.999999999994417e-01 9.999999999978534e-01 9.999999999979112e-01 9.999999999978710e-01 9.999999999994625e-01 9.999999999994212e-01 9.999999999987346e-01 9.999999999983129e-01 9.999999999983489e-01 9.999999999985006e-01 9.999999999980900e-01 9.999999999984647e-01 1.000000000000867e+00 9.999999999941105e-01 9.999999999967941e-01 9.999999999778142e-01 9.999999999948721e-01 9.999999999817342e-01 9.999999999991738e-01 9.999999999988461e-01 9.999999999988350e-01 9.999999999983310e-01 9.999999999988080e-01 9.999999999986913e-01 9.999999999863283e-01 9.999999999896629e-01 9.999999999983432e-01 9.999999999932057e-01 9.999999999860980e-01 9.999999999988066e-01 9.999999999934893e-01 9.999999999780744e-01 9.999999999869121e-01 9.999999999964175e-01 9.999999999890409e-01 9.999999999908318e-01 9.999999999892089e-01 9.999999999957578e-01 9.999999999951740e-01 9.999999999897038e-01 9.999999999782548e-01 9.999999999916120e-01 9.999999999984303e-01 9.999999999979238e-01 9.999999999985373e-01 1.000000000001849e+00 9.999999999920689e-01 9.999999999936123e-01 9.999999999803617e-01 9.999999999930766e-01 9.999999999777901e-01 9.999999999996816e-01 9.999999999993130e-01 9.999999999995797e-01 9.999999999993648e-01 9.999999999979626e-01 9.999999999984882e-01 9.999999999993208e-01 9.999999999996323e-01 9.999999999995892e-01 9.999999999993129e-01 9.999999999993137e-01 9.999999999995800e-01 9.999999999988333e-01 9.999999999995656e-01 9.999999999991741e-01 9.999999999989366e-01 9.999999999993480e-01 9.999999999989652e-01 9.999999999799674e-01 9.999999999828348e-01 9.999999999597048e-01 9.999999999988964e-01 9.999999999993384e-01 9.999999999989583e-01 9.999999999996310e-01 9.999999999989169e-01 9.999999999995979e-01 9.999999999996328e-01 9.999999999993212e-01 9.999999999989311e-01 9.999999999814954e-01 9.999999999499228e-01 9.999999999517095e-01 9.999999999812343e-01 9.999999999519761e-01 9.999999999777706e-01 
</DataArray>
</PointData>
</Piece>
</UnstructuredGrid>
</VTKFile>
