<?xml version="1.0"?>
<VTKFile type="UnstructuredGrid" version="0.1" byte_order="LittleEndian">
<UnstructuredGrid>
<Piece NumberOfPoints="408" NumberOfCells="136">
<Points>
<DataArray type="Float64" NumberOfComponents="3" format="ascii">
2.515703651984364e+00 5.007726862999170e-01 0.000000000000000e+00 2.777777777777778e+00 1.000000000000000e+00 0.000000000000000e+00 2.222222222222222e+00 1.000000000000000e+00 0.000000000000000e+00 2.515703651984364e+00 5.007726862999170e-01 0.000000000000000e+00 2.222222222218946e+00 0.000000000000000e+00 0.000000000000000e+00 2.777777777774663e+00 0.000000000000000e+00 0.000000000000000e+00 3.045649273404015e+00 5.040609728652263e-01 0.000000000000000e+00 3.333333333333333e+00 1.000000000000000e+00 0.000000000000000e+00 2.777777777777778e+00 1.000000000000000e+00 0.000000000000000e+00 2.515703651984364e+00 5.007726862999170e-01 0.000000000000000e+00 3.045649273404015e+00 5.040609728652263e-01 0.000000000000000e+00 2.777777777777778e+00 1.000000000000000e+00 0.000000000000000e+00 3.045649273404015e+00 5.040609728652263e-01 0.000000000000000e+00 2.777777777774663e+00 0.000000000000000e+00 0.000000000000000e+00 3.333333333330998e+00 0.000000000000000e+00 0.000000000000000e+00 2.777777777774663e+00 0.000000000000000e+00 0.000000000000000e+00 3.045649273404015e+00 5.040609728652263e-01 0.000000000000000e+00 2.515703651984364e+00 5.007726862999170e-01 0.000000000000000e+00 4.212316051704127e+00 5.892044409257831e-01 0.000000000000000e+00 4.444444444444445e+00 1.000000000000000e+00 0.000000000000000e+00 3.888888888888889e+00 1.000000000000000e+00 0.000000000000000e+00 3.607229643560429e+00 5.352266455546982e-01 0.000000000000000e+00 3.333333333333333e+00 1.000000000000000e+00 0.000000000000000e+00 3.045649273404015e+00 5.040609728652263e-01 0.000000000000000e+00 3.888888888888889e+00 1.000000000000000e+00 0.000000000000000e+00 3.333333333333333e+00 1.000000000000000e+00 0.000000000000000e+00 3.607229643560429e+00 5.352266455546982e-01 0.000000000000000e+00 3.888888888888889e+00 1.000000000000000e+00 0.000000000000000e+00 3.607229643560429e+00 5.352266455546982e-01 0.000000000000000e+00 4.212316051704127e+00 5.892044409257831e-01 0.000000000000000e+00 3.333333333330998e+00 0.000000000000000e+00 0.000000000000000e+00 3.888888888887332e+00 0.000000000000000e+00 0.000000000000000e+00 3.607229643560429e+00 5.352266455546982e-01 0.000000000000000e+00 3.607229643560429e+00 5.352266455546982e-01 0.000000000000000e+00 3.045649273404015e+00 5.040609728652263e-01 0.000000000000000e+00 3.333333333330998e+00 0.000000000000000e+00 0.000000000000000e+00 3.607229643560429e+00 5.352266455546982e-01 0.000000000000000e+00 3.888888888887332e+00 0.000000000000000e+00 0.000000000000000e+00 4.212316051704127e+00 5.892044409257831e-01 0.000000000000000e+00 4.444444444443666e+00 0.000000000000000e+00 0.000000000000000e+00 4.212316051704127e+00 5.892044409257831e-01 0.000000000000000e+00 3.888888888887332e+00 0.000000000000000e+00 0.000000000000000e+00 5.555555555544532e-01 0.000000000000000e+00 0.000000000000000e+00 1.111111111108906e+00 0.000000000000000e+00 0.000000000000000e+00 6.447232945102525e-01 5.000305982953720e-01 0.000000000000000e+00 6.447232945102525e-01 5.000305982953720e-01 0.000000000000000e+00 1.111111111111111e+00 1.000000000000000e+00 0.000000000000000e+00 5.555555555555554e-01 1.000000000000000e+00 0.000000000000000e+00 5.555555555555554e-01 1.000000000000000e+00 0.000000000000000e+00 0.000000000000000e+00 1.000000000000000e+00 0.000000000000000e+00 6.447232945102525e-01 5.000305982953720e-01 0.000000000000000e+00 4.212316051704127e+00 5.892044409257831e-01 0.000000000000000e+00 5.000000000000000e+00 1.000000000000000e+00 0.000000000000000e+00 4.444444444444445e+00 1.000000000000000e+00 0.000000000000000e+00 0.000000000000000e+00 0.000000000000000e+00 0.000000000000000e+00 5.555555555544532e-01 0.000000000000000e+00 0.000000000000000e+00 6.447232945102525e-01 5.000305982953720e-01 0.000000000000000e+00 0.000000000000000e+00 0.000000000000000e+00 0.000000000000000e+00 6.447232945102525e-01 5.000305982953720e-01 0.000000000000000e+00 0.000000000000000e+00 1.000000000000000e+00 0.000000000000000e+00 5.000000000000000e+00 0.000000000000000e+00 0.000000000000000e+00 5.000000000000000e+00 1.000000000000000e+00 0.000000000000000e+00 4.212316051704127e+00 5.892044409257831e-01 0.000000000000000e+00 4.444444444443666e+00 0.000000000000000e+00 0.000000000000000e+00 5.000000000000000e+00 0.000000000000000e+00 0.000000000000000e+00 4.212316051704127e+00 5.892044409257831e-01 0.000000000000000e+00 1.364876762642804e+00 5.000320447034061e-01 0.000000000000000e+00 1.111111111111111e+00 1.000000000000000e+00 0.000000000000000e+00 6.447232945102525e-01 5.000305982953720e-01 0.000000000000000e+00 6.447232945102525e-01 5.000305982953720e-01 0.000000000000000e+00 1.111111111108906e+00 0.000000000000000e+00 0.000000000000000e+00 1.364876762642804e+00 5.000320447034061e-01 0.000000000000000e+00 2.515703651984364e+00 5.007726862999170e-01 0.000000000000000e+00 2.222222222222222e+00 1.000000000000000e+00 0.000000000000000e+00 1.943059698733141e+00 5.001341218338872e-01 0.000000000000000e+00 1.943059698733141e+00 5.001341218338872e-01 0.000000000000000e+00 2.222222222218946e+00 0.000000000000000e+00 0.000000000000000e+00 2.515703651984364e+00 5.007726862999170e-01 0.000000000000000e+00 1.943059698733141e+00 5.001341218338872e-01 0.000000000000000e+00 2.222222222222222e+00 1.000000000000000e+00 0.000000000000000e+00 1.666666666666666e+00 1.000000000000000e+00 0.000000000000000e+00 1.666666666663845e+00 0.000000000000000e+00 0.000000000000000e+00 2.222222222218946e+00 0.000000000000000e+00 0.000000000000000e+00 1.943059698733141e+00 5.001341218338872e-01 0.000000000000000e+00 1.666666666666666e+00 1.000000000000000e+00 0.000000000000000e+00 1.111111111111111e+00 1.000000000000000e+00 0.000000000000000e+00 1.364876762642804e+00 5.000320447034061e-01 0.000000000000000e+00 1.364876762642804e+00 5.000320447034061e-01 0.000000000000000e+00 1.111111111108906e+00 0.000000000000000e+00 0.000000000000000e+00 1.666666666663845e+00 0.000000000000000e+00 0.000000000000000e+00 1.364876762642804e+00 5.000320447034061e-01 0.000000000000000e+00 1.943059698733141e+00 5.001341218338872e-01 0.000000000000000e+00 1.666666666666666e+00 1.000000000000000e+00 0.000000000000000e+00 1.666666666663845e+00 0.000000000000000e+00 0.000000000000000e+00 1.943059698733141e+00 5.001341218338872e-01 0.000000000000000e+00 1.364876762642804e+00 5.000320447034061e-01 0.000000000000000e+00 7.329385747353681e+00 5.000482253086420e-01 2.329385747353681e+00 7.142857142855537e+00 1.000000000000000e+00 2.142857142855537e+00 7.499999999998249e+00 1.000000000000000e+00 2.499999999998248e+00 7.329385747353681e+00 5.000482253086420e-01 2.329385747353681e+00 7.500000000000000e+00 0.000000000000000e+00 2.500000000000000e+00 7.142857142857143e+00 0.000000000000000e+00 2.142857142857143e+00 6.243107225528528e+00 4.822579089506173e-01 1.243107225528529e+00 6.071428571427509e+00 1.000000000000000e+00 1.071428571427509e+00 6.428571428570115e+00 1.000000000000000e+00 1.428571428570115e+00 6.566220238094560e+00 5.017361111111112e-01 1.566220238094561e+00 6.243107225528528e+00 4.822579089506173e-01 1.243107225528529e+00 6.428571428570115e+00 1.000000000000000e+00 1.428571428570115e+00 6.243107225528528e+00 4.822579089506173e-01 1.243107225528529e+00 6.428571428571429e+00 0.000000000000000e+00 1.428571428571429e+00 6.071428571428572e+00 0.000000000000000e+00 1.071428571428572e+00 6.428571428571429e+00 0.000000000000000e+00 1.428571428571429e+00 6.243107225528528e+00 4.822579089506173e-01 1.243107225528529e+00 6.566220238094560e+00 5.017361111111112e-01 1.566220238094561e+00 7.683342289461289e+00 5.000080375514402e-01 2.683342289461290e+00 7.499999999998249e+00 1.000000000000000e+00 2.499999999998248e+00 7.857142857141355e+00 1.000000000000000e+00 2.857142857141355e+00 7.683342289461289e+00 5.000080375514402e-01 2.683342289461290e+00 7.857142857142857e+00 0.000000000000000e+00 2.857142857142857e+00 7.500000000000000e+00 0.000000000000000e+00 2.500000000000000e+00 8.762194113756150e+00 5.364583333333334e-01 3.762194113756149e+00 8.571428571427571e+00 1.000000000000000e+00 3.571428571427570e+00 8.928571428570677e+00 1.000000000000000e+00 3.928571428570677e+00 8.762194113756150e+00 5.364583333333334e-01 3.762194113756149e+00 8.928571428571429e+00 0.000000000000000e+00 3.928571428571429e+00 8.571428571428571e+00 0.000000000000000e+00 3.571428571428572e+00 8.452380952380411e+00 5.000000000000001e-01 3.452380952380410e+00 8.762194113756150e+00 5.364583333333334e-01 3.762194113756149e+00 8.571428571428571e+00 0.000000000000000e+00 3.571428571428572e+00 8.571428571427571e+00 1.000000000000000e+00 3.571428571427570e+00 8.762194113756150e+00 5.364583333333334e-01 3.762194113756149e+00 8.452380952380411e+00 5.000000000000001e-01 3.452380952380410e+00 8.056382275131595e+00 5.000000000000000e-01 3.056382275131596e+00 7.857142857141355e+00 1.000000000000000e+00 2.857142857141355e+00 8.214285714284463e+00 1.000000000000000e+00 3.214285714284463e+00 8.056382275131595e+00 5.000000000000000e-01 3.056382275131596e+00 8.214285714285714e+00 0.000000000000000e+00 3.214285714285714e+00 7.857142857142857e+00 0.000000000000000e+00 2.857142857142857e+00 7.683342289461289e+00 5.000080375514402e-01 2.683342289461290e+00 8.056382275131595e+00 5.000000000000000e-01 3.056382275131596e+00 7.857142857142857e+00 0.000000000000000e+00 2.857142857142857e+00 7.857142857141355e+00 1.000000000000000e+00 2.857142857141355e+00 8.056382275131595e+00 5.000000000000000e-01 3.056382275131596e+00 7.683342289461289e+00 5.000080375514402e-01 2.683342289461290e+00 8.452380952380411e+00 5.000000000000001e-01 3.452380952380410e+00 8.214285714284463e+00 1.000000000000000e+00 3.214285714284463e+00 8.571428571427571e+00 1.000000000000000e+00 3.571428571427570e+00 8.452380952380411e+00 5.000000000000001e-01 3.45238095238041
[...]
<PointData Scalars="A_conc," Vectors="">
<DataArray type="Float64" Name="A_conc" format="ascii">
9.999983798104143e-01 9.999967166702308e-01 1.000000127079894e+00 9.999983797489603e-01 1.000000127108416e+00 9.999967167017438e-01 9.999932833575133e-01 9.999876424684363e-01 9.999980453826819e-01 9.999991257913335e-01 9.999932036248944e-01 9.999967941698432e-01 9.999932816233076e-01 9.999980457600864e-01 9.999876427286828e-01 9.999967944542630e-01 9.999932020658467e-01 9.999991313541936e-01 9.999398704182262e-01 9.999159939388160e-01 9.999699208505066e-01 9.999782694732370e-01 9.999877436886846e-01 9.999950551478052e-01 9.999647966727243e-01 9.999902474919381e-01 9.999783848873430e-01 9.999652101678097e-01 9.999821070126261e-01 9.999402239494478e-01 9.999902567826424e-01 9.999648059920242e-01 9.999783566858557e-01 9.999782443972784e-01 9.999951776975710e-01 9.999877514184851e-01 9.999824820462793e-01 9.999652790420592e-01 9.999400500969815e-01 9.999160788832879e-01 9.999396750265346e-01 9.999700003250410e-01 9.999999983922716e-01 1.000000029332602e+00 9.999999955392063e-01 9.999999955393274e-01 1.000000029332327e+00 9.999999983922576e-01 1.000000000129969e+00 9.999999941375350e-01 1.000000000071934e+00 9.999472354677310e-01 9.998315718583701e-01 9.999188102877590e-01 9.999999941377367e-01 1.000000000129984e+00 1.000000000071813e+00 9.999999974815912e-01 9.999999989799898e-01 9.999999974816327e-01 9.998223923781527e-01 9.998226394445633e-01 9.999665935932999e-01 9.999189067704378e-01 9.998316757347963e-01 9.999470166218486e-01 1.000000035233441e+00 1.000000035549210e+00 9.999999989922134e-01 9.999999989921762e-01 1.000000035549766e+00 1.000000035232961e+00 9.999983794213270e-01 9.999995763442197e-01 1.000000194237491e+00 1.000000194741250e+00 9.999995763678355e-01 9.999983793693070e-01 9.999998686921764e-01 9.999995247880032e-01 1.000000232447807e+00 1.000000232447480e+00 9.999995247873167e-01 9.999998686956985e-01 1.000000046210291e+00 1.000000063211982e+00 1.000000035554389e+00 1.000000035554027e+00 1.000000063212480e+00 1.000000046210632e+00 1.000000114720734e+00 9.999998625131785e-01 1.000000063032056e+00 1.000000063031984e+00 9.999998625156017e-01 1.000000114743580e+00 1.726699370394620e-01 2.195925613872106e-01 1.241228500679675e-01 1.738628166358441e-01 1.245043969826053e-01 2.196144532461570e-01 6.766483579059709e-01 7.749034405067283e-01 5.728086315304842e-01 4.954113173627720e-01 6.762916549146758e-01 5.716210160491362e-01 6.762571654921665e-01 5.693791071314298e-01 7.708131186966707e-01 5.682373875320050e-01 6.758046343015831e-01 4.961330142214422e-01 9.379152589413881e-02 1.203149509022079e-01 6.377436596603586e-02 9.468378866004031e-02 6.429755679674860e-02 1.208712605046951e-01 1.039634071341309e-02 1.381042319095104e-02 6.376623132902377e-03 1.066420256005712e-02 6.556456862125428e-03 1.413119158753378e-02 2.010344128201062e-02 1.069164859695150e-02 1.483098053030295e-02 1.450571177181808e-02 1.041686689311351e-02 1.986962687315814e-02 4.628780962692445e-02 6.152015722960373e-02 3.103324582700941e-02 4.684109723776290e-02 3.146257782121001e-02 6.211440122661693e-02 9.106595200630910e-02 4.679797053586196e-02 6.460007640352773e-02 6.402697142515408e-02 4.621349544180132e-02 9.020027629296165e-02 2.061069232047430e-02 2.963046331378310e-02 1.447175196629247e-02 2.090029449597465e-02 1.475756062657401e-02 3.007437457867759e-02 4.458859505237928e-02 2.069975297358629e-02 3.152543179633435e-02 3.107994007352180e-02 2.040425065434798e-02 4.405519363561086e-02 3.073994836482534e-01 3.707416269470602e-01 2.252356043372866e-01 1.725108684407077e-01 3.003781234671708e-01 2.253524363232692e-01 3.086096606464803e-01 2.249263992221411e-01 3.693908774577442e-01 2.252309151538036e-01 3.015697205618529e-01 1.738520240248290e-01 4.952078919412767e-01 5.676027929804968e-01 3.771513888774448e-01 3.076005183328921e-01 4.891185214792297e-01 3.769712823097160e-01 4.958027058743892e-01 3.753986835562574e-01 5.642898402876250e-01 3.754322659319715e-01 4.897295033979626e-01 3.090087590289352e-01 6.129345921438528e-03 2.723173588145154e-03 4.665999158688597e-03 4.689020809878569e-03 9.857473427464488e-03 6.459055041992151e-03 6.645644778361184e-03 1.011593546042831e-02 4.801360737011755e-03 9.381949927473937e-02 1.678122072414061e-01 1.243411925783382e-01 1.248272861033701e-01 1.689757007229854e-01 9.479049984919004e-02 2.821596213114358e-03 6.309640000947289e-03 4.779271613699751e-03 1.980882459248196e-03 2.621188358799969e-03 1.131463574603577e-03 4.382374047434925e-03 2.772024942428547e-03 1.990764421037077e-03 4.506640630014820e-03 1.898855645065192e-03 2.860297391657762e-03 2.699202746015178e-03 1.906122491163156e-03 1.188419447978907e-03 6.755766516616182e-01 7.696841676292012e-01 8.298918772487974e-01 8.260347929982800e-01 7.707162554661465e-01 9.349895145273645e-01 9.994060413435998e-01 9.238272238540620e-01 9.704126211832921e-01 6.760871571672404e-01 8.287491483244039e-01 7.734928331715496e-01 9.731244518102642e-01 8.269389870641578e-01 9.263007998006354e-01 9.365665284354652e-01 7.743894830029923e-01 8.248775271874309e-01 9.274390168574992e-01 8.260136121339046e-01 9.837454400135783e-01 9.600995638143125e-01 9.267034867801797e-01 1.006131563791657e+00 1.766652041819975e-03 3.617895228647554e-04 1.171485881839336e-03 9.589484535313642e-01 9.962750857713139e-01 1.022301325068572e+00 1.002305418080576e+00 1.002305761119418e+00 9.904994293194861e-01 9.691555668167732e-01 1.010550350260909e+00 9.896776530074467e-01 1.119009592477115e-03 5.184154037975363e-04 5.359415558853493e-04 1.204596560254946e-03 4.947650503005105e-04 1.764044722948485e-03 9.958356470638338e-01 9.951646680225618e-01 9.966382657166708e-01 9.958495237657458e-01 9.966269358501093e-01 9.951529816690899e-01 9.988741011427009e-01 9.990433327611106e-01 9.984580065522045e-01 9.988588707093616e-01 9.984674044962355e-01 9.990523947392109e-01 9.981385870365997e-01 9.984630074252892e-01 9.988944819017874e-01 9.984546548479420e-01 9.981476395778693e-01 9.989128698711017e-01 9.864995437203029e-01 9.848215202456112e-01 9.883103798711198e-01 9.865239422908325e-01 9.882951492879414e-01 9.848063110192491e-01 9.893618174635718e-01 9.882168697462685e-01 9.865241949479551e-01 9.882318338129794e-01 9.893413464152008e-01 9.865003104863993e-01 9.941717645534223e-01 9.933388614870040e-01 9.952257630228486e-01 9.941880058506272e-01 9.952131676834018e-01 9.933259830894902e-01 9.917702091873826e-01 9.910435797195255e-01 9.934218914055519e-01 9.917890654031666e-01 9.934080523165106e-01 9.910295389095533e-01 9.942597845526566e-01 9.933372497295780e-01 9.918038149387820e-01 9.933507918082578e-01 9.942432142366007e-01 9.917855330133498e-01 9.892854677870164e-01 9.882256307743698e-01 9.911344223250491e-01 9.893065657005032e-01 9.911195698810026e-01 9.882106569283567e-01 9.918427127649284e-01 9.910430233856168e-01 9.893176733591831e-01 9.910575936321538e-01 9.918235907064933e-01 9.892971197398517e-01 9.981520845630643e-01 9.984850323084433e-01 9.976602374167487e-01 9.981424558742522e-01 9.976693504407261e-01 9.984936786877907e-01 9.971591512843729e-01 9.976677458530882e-01 9.981842215897031e-01 9.976580626642421e-01 9.971701351464882e-01 9.981942677132539e-01 9.971720722625790e-01 9.976969735176817e-01 9.965777124465539e-01 9.971604998048730e-01 9.965881181862438e-01 9.977069582611896e-01 9.958376473991635e-01 9.965897123844957e-01 9.972087792314117e-01 9.965786894189363e-01 9.958509272938600e-01 9.972206740257368e-01 9.779938301137656e-01 9.808538673227126e-01 9.759902820454527e-01 9.992147472997757e-01 9.990310658599576e-01 9.994421981790689e-01 9.990298087219378e-01 9.992291528653464e-01 9.988523920490895e-01 9.828072336220213e-01 9.866021047921099e-01 9.848075245815070e-01 9.807509055167227e-01 9.828073483607092e-01 9.848925315760702e-01 9.807571967573594e-01 9.780041560820774e-01 9.829030786720249e-01 9.849055850006085e-01 9.827752936875390e-01 9.807635775756571e-01 9.827756638768211e-01 9.848203297591540e-01 9.865834609180867e-01 9.828831408990351e-01 9.779607890824124e-01 9.807645892260535e-01 9.941751587198165e-01 9.951687073280757e-01 9.958869328117659e-01 9.951564175556126e-01 9.941908076197210e-01 9.959011078466973e-01 9.759970272236655e-01 9.808614787902096e-01 9.779500205018784e-01 9.990231616199812e-01 9.992269366571938e-01 9.994346710186729e-01 9.990212142466787e-01 9.988667004276196e-01 9.992416617398583e-01 9.995747216192565e-01 9.996802273116917e-01 9.994111066956409e-01 9.992269549897009e-01 9.995944555559376e-01 9.994144626957256e-01 9.994215627188515e-01 9.995759109440489e-01 9.992156107844433e-01 9.996892870954417e-01 9.995570662446789e-01 9.994206358540522e-01 9.781091470083867e-01 9.760283643819618e-01 9.706019750414099e-01 9.998640425076857e-01 9.995563909555351e-01 9.996747043415148e-01 9.996693952886357e-01 9.998291867043695e-01 9.998294465316454e-01 9.996663274021175e-01 9.995726832391846e-01 9.998443164443203e-01 9.761283785830954e-01 9.704223457198271e-01 9.704267736574311e-01 9.781323628126215e-01 9.704872556244180e-01 9.759983431605092e-01 
</DataArray>
</PointData>
</Piece>
</UnstructuredGrid>
</VTKFile>
