<?xml version="1.0"?>
<VTKFile type="UnstructuredGrid" version="0.1" byte_order="LittleEndian">
<UnstructuredGrid>
<Piece NumberOfPoints="408" NumberOfCells="136">
<Points>
<DataArray type="Float64" NumberOfComponents="3" format="ascii">
2.515703651984364e+00 5.007726862999170e-01 0.000000000000000e+00 2.777777777777778e+00 1.000000000000000e+00 0.000000000000000e+00 2.222222222222222e+00 1.000000000000000e+00 0.000000000000000e+00 2.515703651984364e+00 5.007726862999170e-01 0.000000000000000e+00 2.222222222218946e+00 0.000000000000000e+00 0.000000000000000e+00 2.777777777774663e+00 0.000000000000000e+00 0.000000000000000e+00 3.045649273404015e+00 5.040609728652263e-01 0.000000000000000e+00 3.333333333333333e+00 1.000000000000000e+00 0.000000000000000e+00 2.777777777777778e+00 1.000000000000000e+00 0.000000000000000e+00 2.515703651984364e+00 5.007726862999170e-01 0.000000000000000e+00 3.045649273404015e+00 5.040609728652263e-01 0.000000000000000e+00 2.777777777777778e+00 1.000000000000000e+00 0.000000000000000e+00 3.045649273404015e+00 5.040609728652263e-01 0.000000000000000e+00 2.777777777774663e+00 0.000000000000000e+00 0.000000000000000e+00 3.333333333330998e+00 0.000000000000000e+00 0.000000000000000e+00 2.777777777774663e+00 0.000000000000000e+00 0.000000000000000e+00 3.045649273404015e+00 5.040609728652263e-01 0.000000000000000e+00 2.515703651984364e+00 5.007726862999170e-01 0.000000000000000e+00 4.212316051704127e+00 5.892044409257831e-01 0.000000000000000e+00 4.444444444444445e+00 1.000000000000000e+00 0.000000000000000e+00 3.888888888888889e+00 1.000000000000000e+00 0.000000000000000e+00 3.607229643560429e+00 5.352266455546982e-01 0.000000000000000e+00 3.333333333333333e+00 1.000000000000000e+00 0.000000000000000e+00 3.045649273404015e+00 5.040609728652263e-01 0.000000000000000e+00 3.888888888888889e+00 1.000000000000000e+00 0.000000000000000e+00 3.333333333333333e+00 1.000000000000000e+00 0.000000000000000e+00 3.607229643560429e+00 5.352266455546982e-01 0.000000000000000e+00 3.888888888888889e+00 1.000000000000000e+00 0.000000000000000e+00 3.607229643560429e+00 5.352266455546982e-01 0.000000000000000e+00 4.212316051704127e+00 5.892044409257831e-01 0.000000000000000e+00 3.333333333330998e+00 0.000000000000000e+00 0.000000000000000e+00 3.888888888887332e+00 0.000000000000000e+00 0.000000000000000e+00 3.607229643560429e+00 5.352266455546982e-01 0.000000000000000e+00 3.607229643560429e+00 5.352266455546982e-01 0.000000000000000e+00 3.045649273404015e+00 5.040609728652263e-01 0.000000000000000e+00 3.333333333330998e+00 0.000000000000000e+00 0.000000000000000e+00 3.607229643560429e+00 5.352266455546982e-01 0.000000000000000e+00 3.888888888887332e+00 0.000000000000000e+00 0.000000000000000e+00 4.212316051704127e+00 5.892044409257831e-01 0.000000000000000e+00 4.444444444443666e+00 0.000000000000000e+00 0.000000000000000e+00 4.212316051704127e+00 5.892044409257831e-01 0.000000000000000e+00 3.888888888887332e+00 0.000000000000000e+00 0.000000000000000e+00 5.555555555544532e-01 0.000000000000000e+00 0.000000000000000e+00 1.111111111108906e+00 0.000000000000000e+00 0.000000000000000e+00 6.447232945102525e-01 5.000305982953720e-01 0.000000000000000e+00 6.447232945102525e-01 5.000305982953720e-01 0.000000000000000e+00 1.111111111111111e+00 1.000000000000000e+00 0.000000000000000e+00 5.555555555555554e-01 1.000000000000000e+00 0.000000000000000e+00 5.555555555555554e-01 1.000000000000000e+00 0.000000000000000e+00 0.000000000000000e+00 1.000000000000000e+00 0.000000000000000e+00 6.447232945102525e-01 5.000305982953720e-01 0.000000000000000e+00 4.212316051704127e+00 5.892044409257831e-01 0.000000000000000e+00 5.000000000000000e+00 1.000000000000000e+00 0.000000000000000e+00 4.444444444444445e+00 1.000000000000000e+00 0.000000000000000e+00 0.000000000000000e+00 0.000000000000000e+00 0.000000000000000e+00 5.555555555544532e-01 0.000000000000000e+00 0.000000000000000e+00 6.447232945102525e-01 5.000305982953720e-01 0.000000000000000e+00 0.000000000000000e+00 0.000000000000000e+00 0.000000000000000e+00 6.447232945102525e-01 5.000305982953720e-01 0.000000000000000e+00 0.000000000000000e+00 1.000000000000000e+00 0.000000000000000e+00 5.000000000000000e+00 0.000000000000000e+00 0.000000000000000e+00 5.000000000000000e+00 1.000000000000000e+00 0.000000000000000e+00 4.212316051704127e+00 5.892044409257831e-01 0.000000000000000e+00 4.444444444443666e+00 0.000000000000000e+00 0.000000000000000e+00 5.000000000000000e+00 0.000000000000000e+00 0.000000000000000e+00 4.212316051704127e+00 5.892044409257831e-01 0.000000000000000e+00 1.364876762642804e+00 5.000320447034061e-01 0.000000000000000e+00 1.111111111111111e+00 1.000000000000000e+00 0.000000000000000e+00 6.447232945102525e-01 5.000305982953720e-01 0.000000000000000e+00 6.447232945102525e-01 5.000305982953720e-01 0.000000000000000e+00 1.111111111108906e+00 0.000000000000000e+00 0.000000000000000e+00 1.364876762642804e+00 5.000320447034061e-01 0.000000000000000e+00 2.515703651984364e+00 5.007726862999170e-01 0.000000000000000e+00 2.222222222222222e+00 1.000000000000000e+00 0.000000000000000e+00 1.943059698733141e+00 5.001341218338872e-01 0.000000000000000e+00 1.943059698733141e+00 5.001341218338872e-01 0.000000000000000e+00 2.222222222218946e+00 0.000000000000000e+00 0.000000000000000e+00 2.515703651984364e+00 5.007726862999170e-01 0.000000000000000e+00 1.943059698733141e+00 5.001341218338872e-01 0.000000000000000e+00 2.222222222222222e+00 1.000000000000000e+00 0.000000000000000e+00 1.666666666666666e+00 1.000000000000000e+00 0.000000000000000e+00 1.666666666663845e+00 0.000000000000000e+00 0.000000000000000e+00 2.222222222218946e+00 0.000000000000000e+00 0.000000000000000e+00 1.943059698733141e+00 5.001341218338872e-01 0.000000000000000e+00 1.666666666666666e+00 1.000000000000000e+00 0.000000000000000e+00 1.111111111111111e+00 1.000000000000000e+00 0.000000000000000e+00 1.364876762642804e+00 5.000320447034061e-01 0.000000000000000e+00 1.364876762642804e+00 5.000320447034061e-01 0.000000000000000e+00 1.111111111108906e+00 0.000000000000000e+00 0.000000000000000e+00 1.666666666663845e+00 0.000000000000000e+00 0.000000000000000e+00 1.364876762642804e+00 5.000320447034061e-01 0.000000000000000e+00 1.943059698733141e+00 5.001341218338872e-01 0.000000000000000e+00 1.666666666666666e+00 1.000000000000000e+00 0.000000000000000e+00 1.666666666663845e+00 0.000000000000000e+00 0.000000000000000e+00 1.943059698733141e+00 5.001341218338872e-01 0.000000000000000e+00 1.364876762642804e+00 5.000320447034061e-01 0.000000000000000e+00 7.329385747353681e+00 5.000482253086420e-01 2.329385747353681e+00 7.142857142855537e+00 1.000000000000000e+00 2.142857142855537e+00 7.499999999998249e+00 1.000000000000000e+00 2.499999999998248e+00 7.329385747353681e+00 5.000482253086420e-01 2.329385747353681e+00 7.500000000000000e+00 0.000000000000000e+00 2.500000000000000e+00 7.142857142857143e+00 0.000000000000000e+00 2.142857142857143e+00 6.243107225528528e+00 4.822579089506173e-01 1.243107225528529e+00 6.071428571427509e+00 1.000000000000000e+00 1.071428571427509e+00 6.428571428570115e+00 1.000000000000000e+00 1.428571428570115e+00 6.566220238094560e+00 5.017361111111112e-01 1.566220238094561e+00 6.243107225528528e+00 4.822579089506173e-01 1.243107225528529e+00 6.428571428570115e+00 1.000000000000000e+00 1.428571428570115e+00 6.243107225528528e+00 4.822579089506173e-01 1.243107225528529e+00 6.428571428571429e+00 0.000000000000000e+00 1.428571428571429e+00 6.071428571428572e+00 0.000000000000000e+00 1.071428571428572e+00 6.428571428571429e+00 0.000000000000000e+00 1.428571428571429e+00 6.243107225528528e+00 4.822579089506173e-01 1.243107225528529e+00 6.566220238094560e+00 5.017361111111112e-01 1.566220238094561e+00 7.683342289461289e+00 5.000080375514402e-01 2.683342289461290e+00 7.499999999998249e+00 1.000000000000000e+00 2.499999999998248e+00 7.857142857141355e+00 1.000000000000000e+00 2.857142857141355e+00 7.683342289461289e+00 5.000080375514402e-01 2.683342289461290e+00 7.857142857142857e+00 0.000000000000000e+00 2.857142857142857e+00 7.500000000000000e+00 0.000000000000000e+00 2.500000000000000e+00 8.762194113756150e+00 5.364583333333334e-01 3.762194113756149e+00 8.571428571427571e+00 1.000000000000000e+00 3.571428571427570e+00 8.928571428570677e+00 1.000000000000000e+00 3.928571428570677e+00 8.762194113756150e+00 5.364583333333334e-01 3.762194113756149e+00 8.928571428571429e+00 0.000000000000000e+00 3.928571428571429e+00 8.571428571428571e+00 0.000000000000000e+00 3.571428571428572e+00 8.452380952380411e+00 5.000000000000001e-01 3.452380952380410e+00 8.762194113756150e+00 5.364583333333334e-01 3.762194113756149e+00 8.571428571428571e+00 0.000000000000000e+00 3.571428571428572e+00 8.571428571427571e+00 1.000000000000000e+00 3.571428571427570e+00 8.762194113756150e+00 5.364583333333334e-01 3.762194113756149e+00 8.452380952380411e+00 5.000000000000001e-01 3.452380952380410e+00 8.056382275131595e+00 5.000000000000000e-01 3.056382275131596e+00 7.857142857141355e+00 1.000000000000000e+00 2.857142857141355e+00 8.214285714284463e+00 1.000000000000000e+00 3.214285714284463e+00 8.056382275131595e+00 5.000000000000000e-01 3.056382275131596e+00 8.214285714285714e+00 0.000000000000000e+00 3.214285714285714e+00 7.857142857142857e+00 0.000000000000000e+00 2.857142857142857e+00 7.683342289461289e+00 5.000080375514402e-01 2.683342289461290e+00 8.056382275131595e+00 5.000000000000000e-01 3.056382275131596e+00 7.857142857142857e+00 0.000000000000000e+00 2.857142857142857e+00 7.857142857141355e+00 1.000000000000000e+00 2.857142857141355e+00 8.056382275131595e+00 5.000000000000000e-01 3.056382275131596e+00 7.683342289461289e+00 5.000080375514402e-01 2.683342289461290e+00 8.452380952380411e+00 5.000000000000001e-01 3.452380952380410e+00 8.214285714284463e+00 1.000000000000000e+00 3.214285714284463e+00 8.571428571427571e+00 1.000000000000000e+00 3.571428571427570e+00 8.452380952380411e+00 5.000000000000001e-01 3.45238095238041
[...]
<PointData Scalars="A_conc," Vectors="">
<DataArray type="Float64" Name="A_conc" format="ascii">
5.615674696392936e-01 5.289522021310400e-01 5.993902480926177e-01 5.615674814157492e-01 5.993902294290260e-01 5.289521847872403e-01 4.974753483437137e-01 4.658443923249770e-01 5.279739779561881e-01 5.606138228032549e-01 4.974873302898737e-01 5.289541425817120e-01 4.974753152844594e-01 5.279738747007988e-01 4.658442993028168e-01 5.289540384752445e-01 4.974872986079244e-01 5.606077720789914e-01 3.810666861809843e-01 3.614159199999707e-01 4.094575927123785e-01 4.375524747402451e-01 4.658688423230797e-01 4.965470451944975e-01 4.102979840511924e-01 4.649995897587592e-01 4.375544707911914e-01 4.102663798644908e-01 4.366596430005600e-01 3.809742005774238e-01 4.649973720606482e-01 4.102958585174292e-01 4.375580362932577e-01 4.375561616593138e-01 4.964905118127679e-01 4.658665624535852e-01 4.365780185280042e-01 4.102547190114876e-01 3.809987730871022e-01 3.614049331960520e-01 3.810905186295876e-01 4.094463066399823e-01 8.780079028572014e-01 7.736903952289054e-01 8.607070973619161e-01 8.607070973620061e-01 7.736903952282859e-01 8.780079028569613e-01 8.792948322016125e-01 9.940235402446802e-01 8.614448105473707e-01 3.802012861187956e-01 3.174647773820026e-01 3.611551420798720e-01 9.940235402448629e-01 8.792948322018458e-01 8.614448105472656e-01 9.966404750681574e-01 8.598530175893268e-01 9.966404750681949e-01 3.183734006785267e-01 3.183778214300870e-01 3.784134062365537e-01 3.611445151534530e-01 3.174544119345999e-01 3.802244071130792e-01 7.305316847548573e-01 7.742373087968296e-01 8.578147676797523e-01 8.578147571118266e-01 7.742373106069652e-01 7.305316814493759e-01 5.615123652847301e-01 6.005358324066659e-01 6.388137259170508e-01 6.388121702567535e-01 6.005358134070005e-01 5.615123776914355e-01 6.400735858168977e-01 6.005439594559679e-01 6.805975036472079e-01 6.805975133944744e-01 6.005439689804030e-01 6.400735640340637e-01 6.818152362316245e-01 7.728260091294518e-01 7.304651361158208e-01 7.304651329146179e-01 7.728260108864661e-01 6.818152379268414e-01 7.289675840611752e-01 6.400630645161652e-01 6.818734190102037e-01 6.818734290932773e-01 6.400630420685032e-01 7.289672685433877e-01 8.425975532523456e-05 9.569990978389752e-05 2.359028752329515e-05 8.642141422907375e-05 3.019188554983796e-05 1.125187968115223e-04 3.940489401760790e-03 4.867457685481298e-03 1.266852711963110e-03 1.316938760840519e-03 3.537025002212416e-03 1.449902468447796e-03 4.048560082762319e-03 1.528976738272996e-03 5.545615205230115e-03 1.690475678951895e-03 3.630974525607975e-03 1.347344037271440e-03 2.411340999101581e-05 2.590177827362089e-05 6.130878295607200e-06 2.459308740806888e-05 8.069528393154704e-06 3.076872306675687e-05 5.130051423033306e-07 5.017163286464726e-07 1.098363905915607e-07 5.467302530215850e-07 1.570963182923017e-07 6.306091090704141e-07 1.463990005381488e-06 5.790860099947347e-07 6.895936686774994e-07 5.419914206590514e-07 5.568640646755537e-07 1.456688124839270e-06 6.492242025383244e-06 6.947432928024892e-06 1.639682638161918e-06 6.572170181019117e-06 2.207874608238608e-06 8.345653932741702e-06 2.159168113996602e-05 6.846336281569478e-06 9.182843315006907e-06 7.557281586892765e-06 6.957582410316654e-06 2.106173762941776e-05 1.618591402602949e-06 1.852461820796529e-06 4.590492315482479e-07 1.621111627156882e-06 6.247893068013194e-07 2.250646916197600e-06 5.717331476638063e-06 1.659925935973409e-06 2.489318158604209e-06 2.024664924478683e-06 1.716548271878074e-06 5.613818332463975e-06 3.226827191528179e-04 3.567612160382291e-04 8.627861707419659e-05 8.946932275209346e-05 2.810350216478491e-04 1.045413533417826e-04 3.332826984384474e-04 1.089344657214274e-04 4.159612947416945e-04 1.239925231572901e-04 2.914993041241733e-04 8.961007228962098e-05 1.230905121170349e-03 1.331828838341179e-03 3.169816559682727e-04 3.440933139966645e-04 1.071479742657211e-03 3.889906228016645e-04 1.281112320836224e-03 3.947886530478529e-04 1.541560238395817e-03 4.572008845706065e-04 1.119427180060974e-03 3.482745289783098e-04 1.340825366358692e-07 2.708211638162917e-08 1.487970312948969e-07 1.632343280984719e-07 4.506149061762904e-07 1.438484610270077e-07 1.859656564613096e-07 4.826212119758601e-07 1.656404572333014e-07 2.582711632757012e-05 7.433235849951997e-05 2.818323324526121e-05 3.382432887027857e-05 7.659669339737376e-05 2.568813019439214e-05 4.109476289131453e-08 1.706257897577750e-07 1.551983118749664e-07 4.371125128987568e-08 3.734813046193728e-08 7.103903448137436e-09 1.293037505227896e-07 3.987528805269281e-08 4.825849232769595e-08 1.362872642924848e-07 3.829931257265292e-08 4.892422410653806e-08 4.457292133954614e-08 3.650827282825634e-08 1.151867651195022e-08 4.156766542627856e-03 6.129087867642768e-03 1.033574545753674e-02 1.122176768435269e-02 5.996224900154373e-03 1.958292148331434e-02 7.039333346219270e-02 2.138857452729308e-02 4.119106264593483e-02 4.125326162947504e-03 1.084147590407377e-02 5.346576660778432e-03 5.018981519441335e-02 1.088994958866753e-02 2.190549717399130e-02 1.747091381274379e-02 4.991207667474442e-03 1.185686777251042e-02 1.938563932104792e-02 1.198931666160907e-02 3.851754870057664e-02 5.779762547567902e-02 1.996158778259240e-02 7.469937261512721e-02 3.110635349784036e-08 -9.727399385889538e-10 1.213844867459427e-08 6.001294376403910e-02 8.228044468157307e-02 2.250080320594722e-01 2.941931863153256e-01 2.941965418074984e-01 6.569190536065699e-02 4.019635444394162e-02 2.575720050021120e-01 7.866939435099753e-02 1.307232647834926e-08 4.360950156288880e-09 5.645996134244054e-09 1.478005842264815e-08 4.996110267060304e-09 3.345571370624088e-08 1.394005299267350e-01 1.306667200583319e-01 1.480900951509984e-01 1.393112128404685e-01 1.481142329968329e-01 1.306913624983227e-01 2.099287775081825e-01 2.169455059702919e-01 1.912504802577696e-01 2.101993117304132e-01 1.911860212037036e-01 2.168835767141911e-01 1.826703112338157e-01 1.912950311976598e-01 2.096926842182750e-01 1.913284903291277e-01 1.825464016514588e-01 2.093976567563527e-01 8.404346225206723e-02 7.862650929560334e-02 8.911602946707464e-02 8.398708232181920e-02 8.912942352961002e-02 7.864038688300014e-02 9.387336874062177e-02 8.929483862760133e-02 8.398924484872286e-02 8.928071131623472e-02 9.393105807180799e-02 8.404710662697135e-02 1.225151415187536e-01 1.150867130677000e-01 1.304239610745458e-01 1.224366166508564e-01 1.304452424186462e-01 1.151084326549181e-01 1.060618524446539e-01 1.013795403322046e-01 1.148290462231011e-01 1.059935801039707e-01 1.148476066995752e-01 1.013984766646608e-01 1.221565679824902e-01 1.150836242070473e-01 1.059485111281070e-01 1.150641488216740e-01 1.222338453301451e-01 1.060186252187908e-01 9.406881638109560e-02 8.928480712310341e-02 1.011514163382074e-01 9.400830373713687e-02 1.011679011668011e-01 8.930162205291130e-02 1.058305766554719e-01 1.013692376876232e-01 9.398234637738286e-02 1.013519415459846e-01 1.058979505233287e-01 9.404449212706710e-02 1.824878966416186e-01 1.909997613602172e-01 1.684474318954347e-01 1.826085701444022e-01 1.684148292003204e-01 1.909679083682017e-01 1.594967688555675e-01 1.684684929253923e-01 1.821976395599969e-01 1.684974188042254e-01 1.593915215764318e-01 1.820777919202881e-01 1.593685745865186e-01 1.681942842996902e-01 1.483744227277721e-01 1.594710632749321e-01 1.483462750754362e-01 1.681667283243097e-01 1.394009981344781e-01 1.483664287296250e-01 1.591291600465554e-01 1.483917618438088e-01 1.393092744922916e-01 1.590280732750912e-01 6.443295830896892e-02 6.912329846182917e-02 6.100961015261722e-02 2.322442576609190e-01 2.171614606331540e-01 2.461368380724219e-01 2.172262491298975e-01 2.319433323875677e-01 2.103297805212848e-01 7.398422252526970e-02 8.383307567990325e-02 7.864577188109864e-02 6.926171360676059e-02 7.398208221669167e-02 7.850019618162753e-02 6.925879385081314e-02 6.441955068699159e-02 7.382986069314786e-02 7.849463532248638e-02 7.404065005689632e-02 6.925490241500715e-02 7.404416084823520e-02 7.863954562755127e-02 8.387708695908239e-02 7.386835985570871e-02 6.448465889388366e-02 6.926320312976210e-02 1.225100579015317e-01 1.306699566981951e-01 1.391306316334431e-01 1.306922895786638e-01 1.224294160481062e-01 1.390425687673846e-01 6.101226303863832e-02 6.912830539623271e-02 6.449679647158905e-02 2.172327392208860e-01 2.319439351396959e-01 2.462052809633858e-01 2.172916698256259e-01 2.100521831069605e-01 2.316461897385542e-01 2.657238540450744e-01 2.797081321235390e-01 2.467268951313069e-01 2.319486955644172e-01 2.651698773876599e-01 2.466627926309381e-01 2.465904773814204e-01 2.658012809982004e-01 2.322568528268759e-01 2.795212522674576e-01 2.663769806177205e-01 2.465372544112271e-01 6.428464999619807e-02 6.096663790806877e-02 5.358783935016816e-02 3.162881313541946e-01 2.664478335701523e-01 2.800093929989825e-01 2.800080385246605e-01 3.179717051317933e-01 3.179759898572866e-01 2.802051327942416e-01 2.657768994707110e-01 3.171994642472207e-01 6.086995212710267e-02 5.379997323673204e-02 5.381279417353135e-02 6.426284644954017e-02 5.372502130105651e-02 6.101944897550236e-02 
</DataArray>
</PointData>
</Piece>
</UnstructuredGrid>
</VTKFile>
