<?xml version="1.0"?>
<VTKFile type="UnstructuredGrid" version="0.1" byte_order="LittleEndian">
<UnstructuredGrid>
<Piece NumberOfPoints="408" NumberOfCells="136">
<Points>
<DataArray type="Float64" NumberOfComponents="3" format="ascii">
2.515703651984364e+00 5.007726862999170e-01 0.000000000000000e+00 2.777777777777778e+00 1.000000000000000e+00 0.000000000000000e+00 2.222222222222222e+00 1.000000000000000e+00 0.000000000000000e+00 2.515703651984364e+00 5.007726862999170e-01 0.000000000000000e+00 2.222222222218946e+00 0.000000000000000e+00 0.000000000000000e+00 2.777777777774663e+00 0.000000000000000e+00 0.000000000000000e+00 3.045649273404015e+00 5.040609728652263e-01 0.000000000000000e+00 3.333333333333333e+00 1.000000000000000e+00 0.000000000000000e+00 2.777777777777778e+00 1.000000000000000e+00 0.000000000000000e+00 2.515703651984364e+00 5.007726862999170e-01 0.000000000000000e+00 3.045649273404015e+00 5.040609728652263e-01 0.000000000000000e+00 2.777777777777778e+00 1.000000000000000e+00 0.000000000000000e+00 3.045649273404015e+00 5.040609728652263e-01 0.000000000000000e+00 2.777777777774663e+00 0.000000000000000e+00 0.000000000000000e+00 3.333333333330998e+00 0.000000000000000e+00 0.000000000000000e+00 2.777777777774663e+00 0.000000000000000e+00 0.000000000000000e+00 3.045649273404015e+00 5.040609728652263e-01 0.000000000000000e+00 2.515703651984364e+00 5.007726862999170e-01 0.000000000000000e+00 4.212316051704127e+00 5.892044409257831e-01 0.000000000000000e+00 4.444444444444445e+00 1.000000000000000e+00 0.000000000000000e+00 3.888888888888889e+00 1.000000000000000e+00 0.000000000000000e+00 3.607229643560429e+00 5.352266455546982e-01 0.000000000000000e+00 3.333333333333333e+00 1.000000000000000e+00 0.000000000000000e+00 3.045649273404015e+00 5.040609728652263e-01 0.000000000000000e+00 3.888888888888889e+00 1.000000000000000e+00 0.000000000000000e+00 3.333333333333333e+00 1.000000000000000e+00 0.000000000000000e+00 3.607229643560429e+00 5.352266455546982e-01 0.000000000000000e+00 3.888888888888889e+00 1.000000000000000e+00 0.000000000000000e+00 3.607229643560429e+00 5.352266455546982e-01 0.000000000000000e+00 4.212316051704127e+00 5.892044409257831e-01 0.000000000000000e+00 3.333333333330998e+00 0.000000000000000e+00 0.000000000000000e+00 3.888888888887332e+00 0.000000000000000e+00 0.000000000000000e+00 3.607229643560429e+00 5.352266455546982e-01 0.000000000000000e+00 3.607229643560429e+00 5.352266455546982e-01 0.000000000000000e+00 3.045649273404015e+00 5.040609728652263e-01 0.000000000000000e+00 3.333333333330998e+00 0.000000000000000e+00 0.000000000000000e+00 3.607229643560429e+00 5.352266455546982e-01 0.000000000000000e+00 3.888888888887332e+00 0.000000000000000e+00 0.000000000000000e+00 4.212316051704127e+00 5.892044409257831e-01 0.000000000000000e+00 4.444444444443666e+00 0.000000000000000e+00 0.000000000000000e+00 4.212316051704127e+00 5.892044409257831e-01 0.000000000000000e+00 3.888888888887332e+00 0.000000000000000e+00 0.000000000000000e+00 5.555555555544532e-01 0.000000000000000e+00 0.000000000000000e+00 1.111111111108906e+00 0.000000000000000e+00 0.000000000000000e+00 6.447232945102525e-01 5.000305982953720e-01 0.000000000000000e+00 6.447232945102525e-01 5.000305982953720e-01 0.000000000000000e+00 1.111111111111111e+00 1.000000000000000e+00 0.000000000000000e+00 5.555555555555554e-01 1.000000000000000e+00 0.000000000000000e+00 5.555555555555554e-01 1.000000000000000e+00 0.000000000000000e+00 0.000000000000000e+00 1.000000000000000e+00 0.000000000000000e+00 6.447232945102525e-01 5.000305982953720e-01 0.000000000000000e+00 4.212316051704127e+00 5.892044409257831e-01 0.000000000000000e+00 5.000000000000000e+00 1.000000000000000e+00 0.000000000000000e+00 4.444444444444445e+00 1.000000000000000e+00 0.000000000000000e+00 0.000000000000000e+00 0.000000000000000e+00 0.000000000000000e+00 5.555555555544532e-01 0.000000000000000e+00 0.000000000000000e+00 6.447232945102525e-01 5.000305982953720e-01 0.000000000000000e+00 0.000000000000000e+00 0.000000000000000e+00 0.000000000000000e+00 6.447232945102525e-01 5.000305982953720e-01 0.000000000000000e+00 0.000000000000000e+00 1.000000000000000e+00 0.000000000000000e+00 5.000000000000000e+00 0.000000000000000e+00 0.000000000000000e+00 5.000000000000000e+00 1.000000000000000e+00 0.000000000000000e+00 4.212316051704127e+00 5.892044409257831e-01 0.000000000000000e+00 4.444444444443666e+00 0.000000000000000e+00 0.000000000000000e+00 5.000000000000000e+00 0.000000000000000e+00 0.000000000000000e+00 4.212316051704127e+00 5.892044409257831e-01 0.000000000000000e+00 1.364876762642804e+00 5.000320447034061e-01 0.000000000000000e+00 1.111111111111111e+00 1.000000000000000e+00 0.000000000000000e+00 6.447232945102525e-01 5.000305982953720e-01 0.000000000000000e+00 6.447232945102525e-01 5.000305982953720e-01 0.000000000000000e+00 1.111111111108906e+00 0.000000000000000e+00 0.000000000000000e+00 1.364876762642804e+00 5.000320447034061e-01 0.000000000000000e+00 2.515703651984364e+00 5.007726862999170e-01 0.000000000000000e+00 2.222222222222222e+00 1.000000000000000e+00 0.000000000000000e+00 1.943059698733141e+00 5.001341218338872e-01 0.000000000000000e+00 1.943059698733141e+00 5.001341218338872e-01 0.000000000000000e+00 2.222222222218946e+00 0.000000000000000e+00 0.000000000000000e+00 2.515703651984364e+00 5.007726862999170e-01 0.000000000000000e+00 1.943059698733141e+00 5.001341218338872e-01 0.000000000000000e+00 2.222222222222222e+00 1.000000000000000e+00 0.000000000000000e+00 1.666666666666666e+00 1.000000000000000e+00 0.000000000000000e+00 1.666666666663845e+00 0.000000000000000e+00 0.000000000000000e+00 2.222222222218946e+00 0.000000000000000e+00 0.000000000000000e+00 1.943059698733141e+00 5.001341218338872e-01 0.000000000000000e+00 1.666666666666666e+00 1.000000000000000e+00 0.000000000000000e+00 1.111111111111111e+00 1.000000000000000e+00 0.000000000000000e+00 1.364876762642804e+00 5.000320447034061e-01 0.000000000000000e+00 1.364876762642804e+00 5.000320447034061e-01 0.000000000000000e+00 1.111111111108906e+00 0.000000000000000e+00 0.000000000000000e+00 1.666666666663845e+00 0.000000000000000e+00 0.000000000000000e+00 1.364876762642804e+00 5.000320447034061e-01 0.000000000000000e+00 1.943059698733141e+00 5.001341218338872e-01 0.000000000000000e+00 1.666666666666666e+00 1.000000000000000e+00 0.000000000000000e+00 1.666666666663845e+00 0.000000000000000e+00 0.000000000000000e+00 1.943059698733141e+00 5.001341218338872e-01 0.000000000000000e+00 1.364876762642804e+00 5.000320447034061e-01 0.000000000000000e+00 7.329385747353681e+00 5.000482253086420e-01 2.329385747353681e+00 7.142857142855537e+00 1.000000000000000e+00 2.142857142855537e+00 7.499999999998249e+00 1.000000000000000e+00 2.499999999998248e+00 7.329385747353681e+00 5.000482253086420e-01 2.329385747353681e+00 7.500000000000000e+00 0.000000000000000e+00 2.500000000000000e+00 7.142857142857143e+00 0.000000000000000e+00 2.142857142857143e+00 6.243107225528528e+00 4.822579089506173e-01 1.243107225528529e+00 6.071428571427509e+00 1.000000000000000e+00 1.071428571427509e+00 6.428571428570115e+00 1.000000000000000e+00 1.428571428570115e+00 6.566220238094560e+00 5.017361111111112e-01 1.566220238094561e+00 6.243107225528528e+00 4.822579089506173e-01 1.243107225528529e+00 6.428571428570115e+00 1.000000000000000e+00 1.428571428570115e+00 6.243107225528528e+00 4.822579089506173e-01 1.243107225528529e+00 6.428571428571429e+00 0.000000000000000e+00 1.428571428571429e+00 6.071428571428572e+00 0.000000000000000e+00 1.071428571428572e+00 6.428571428571429e+00 0.000000000000000e+00 1.428571428571429e+00 6.243107225528528e+00 4.822579089506173e-01 1.243107225528529e+00 6.566220238094560e+00 5.017361111111112e-01 1.566220238094561e+00 7.683342289461289e+00 5.000080375514402e-01 2.683342289461290e+00 7.499999999998249e+00 1.000000000000000e+00 2.499999999998248e+00 7.857142857141355e+00 1.000000000000000e+00 2.857142857141355e+00 7.683342289461289e+00 5.000080375514402e-01 2.683342289461290e+00 7.857142857142857e+00 0.000000000000000e+00 2.857142857142857e+00 7.500000000000000e+00 0.000000000000000e+00 2.500000000000000e+00 8.762194113756150e+00 5.364583333333334e-01 3.762194113756149e+00 8.571428571427571e+00 1.000000000000000e+00 3.571428571427570e+00 8.928571428570677e+00 1.000000000000000e+00 3.928571428570677e+00 8.762194113756150e+00 5.364583333333334e-01 3.762194113756149e+00 8.928571428571429e+00 0.000000000000000e+00 3.928571428571429e+00 8.571428571428571e+00 0.000000000000000e+00 3.571428571428572e+00 8.452380952380411e+00 5.000000000000001e-01 3.452380952380410e+00 8.762194113756150e+00 5.364583333333334e-01 3.762194113756149e+00 8.571428571428571e+00 0.000000000000000e+00 3.571428571428572e+00 8.571428571427571e+00 1.000000000000000e+00 3.571428571427570e+00 8.762194113756150e+00 5.364583333333334e-01 3.762194113756149e+00 8.452380952380411e+00 5.000000000000001e-01 3.452380952380410e+00 8.056382275131595e+00 5.000000000000000e-01 3.056382275131596e+00 7.857142857141355e+00 1.000000000000000e+00 2.857142857141355e+00 8.214285714284463e+00 1.000000000000000e+00 3.214285714284463e+00 8.056382275131595e+00 5.000000000000000e-01 3.056382275131596e+00 8.214285714285714e+00 0.000000000000000e+00 3.214285714285714e+00 7.857142857142857e+00 0.000000000000000e+00 2.857142857142857e+00 7.683342289461289e+00 5.000080375514402e-01 2.683342289461290e+00 8.056382275131595e+00 5.000000000000000e-01 3.056382275131596e+00 7.857142857142857e+00 0.000000000000000e+00 2.857142857142857e+00 7.857142857141355e+00 1.000000000000000e+00 2.857142857141355e+00 8.056382275131595e+00 5.000000000000000e-01 3.056382275131596e+00 7.683342289461289e+00 5.000080375514402e-01 2.683342289461290e+00 8.452380952380411e+00 5.000000000000001e-01 3.452380952380410e+00 8.214285714284463e+00 1.000000000000000e+00 3.214285714284463e+00 8.571428571427571e+00 1.000000000000000e+00 3.571428571427570e+00 8.452380952380411e+00 5.000000000000001e-01 3.45238095238041
[...]
<PointData Scalars="A_conc," Vectors="">
<DataArray type="Float64" Name="A_conc" format="ascii">
9.972840985164495e-01 9.961027653080357e-01 9.984737743721630e-01 9.972840878465683e-01 9.984737767974998e-01 9.961027677385218e-01 9.945683897148856e-01 9.925419212270331e-01 9.962946740376233e-01 9.974408561845318e-01 9.945606284558669e-01 9.961063349802309e-01 9.945682948027166e-01 9.962946895245016e-01 9.925419392519734e-01 9.961063505553697e-01 9.945605336061194e-01 9.974418946516653e-01 9.834610780244011e-01 9.802832660257633e-01 9.876121201876268e-01 9.901855306000824e-01 9.925408169875684e-01 9.947743336689699e-01 9.873417723576241e-01 9.927603201774885e-01 9.901902132018443e-01 9.873558177251950e-01 9.904461625274816e-01 9.834858141170935e-01 9.927608511513002e-01 9.873423270601140e-01 9.901886824809123e-01 9.901840224824617e-01 9.947873371699651e-01 9.925413368243873e-01 9.904699812930311e-01 9.873592970978058e-01 9.834771027502051e-01 9.802868638221617e-01 9.834522528155637e-01 9.876156579889096e-01 1.000049377897437e+00 9.999445661453741e-01 1.000022877911875e+00 1.000022877911998e+00 9.999445661450980e-01 1.000049377897423e+00 1.000026840621780e+00 1.000021023993122e+00 1.000009150598278e+00 9.837707256774821e-01 9.715544443106371e-01 9.803831014448063e-01 1.000021023993323e+00 1.000026840621795e+00 1.000009150598156e+00 1.000007939599206e+00 1.000019006457066e+00 1.000007939599248e+00 9.712105239044218e-01 9.712105858493267e-01 9.844545752489662e-01 9.803867485937743e-01 9.715581335389469e-01 9.837618051960741e-01 9.997737164231265e-01 9.999359401340575e-01 1.000105857457339e+00 1.000105857821865e+00 9.999359400500907e-01 9.997737166673587e-01 9.972864220661558e-01 9.983164242854154e-01 9.991352513771025e-01 9.991354384661763e-01 9.983164265844423e-01 9.972864117005461e-01 9.989937768705529e-01 9.983103223242928e-01 9.995880241225048e-01 9.995880231988844e-01 9.983103212612295e-01 9.989937784914906e-01 9.994743706097479e-01 1.000003285933203e+00 9.997810043721956e-01 9.997810046428320e-01 1.000003285836323e+00 9.994743704997257e-01 9.998802841735839e-01 9.989897549012215e-01 9.994756003589431e-01 9.994755995147134e-01 9.989897563735280e-01 9.998803073670270e-01 1.603016226676436e-02 2.126022831318097e-02 8.610067262728461e-03 1.635263639722091e-02 9.009609370548340e-03 2.198346856617450e-02 1.978717519361536e-01 2.550487504122866e-01 1.250171325072114e-01 1.004575657386952e-01 1.906230354346088e-01 1.263871736602786e-01 1.994449394525412e-01 1.261580988258476e-01 2.553413200934781e-01 1.278468400451138e-01 1.918266459169633e-01 1.020498534606180e-01 6.379029147623062e-03 8.299085456107981e-03 3.209638092727343e-03 6.514024764016978e-03 3.397632228988301e-03 8.660705234166831e-03 3.148032043133991e-04 4.028893442290366e-04 1.421412021466660e-04 3.294965135320026e-04 1.561434272673267e-04 4.345482952558276e-04 7.444596308935035e-04 3.347319322804821e-04 4.673100226348841e-04 4.330615054779741e-04 3.211868541613791e-04 7.314805516402666e-04 2.337674075719420e-03 3.105596560245259e-03 1.169416600899785e-03 2.387105216801576e-03 1.251885615453863e-03 3.269625438229517e-03 6.019522981561766e-03 2.403770913847109e-03 3.503992264558540e-03 3.327217608605290e-03 2.363620890213678e-03 5.888806669957791e-03 7.805773244109788e-04 1.121413979395844e-03 4.212066600864517e-04 7.959370297526312e-04 4.555436671756209e-04 1.190689441020196e-03 2.183271090976895e-03 7.902419879526295e-04 1.284806425840136e-03 1.209217041245177e-03 7.799707804061200e-04 2.135154348486626e-03 4.118144284929125e-02 5.226997474613060e-02 2.200047950232143e-02 1.614962531417127e-02 3.838542848562553e-02 2.260090560918511e-02 4.192305524306620e-02 2.276496564154331e-02 5.351912946911837e-02 2.335430158288682e-02 3.910160164645991e-02 1.645501478470162e-02 9.923900589349140e-02 1.208240269133845e-01 5.374896575944070e-02 4.162933291049317e-02 9.326982865457428e-02 5.515972050934330e-02 1.007222688662204e-01 5.496664304734383e-02 1.224010254735184e-01 5.641652920449254e-02 9.472290768867365e-02 4.237868018743286e-02 1.398314021390232e-04 4.759999247547428e-05 1.134913036028962e-04 1.166183265826954e-04 2.888161443416342e-04 1.503043883136572e-04 1.637715352369073e-04 3.027475761632532e-04 1.202679798572319e-04 6.458915263983207e-03 1.496563673332191e-02 8.852151998281091e-03 9.236243574964626e-03 1.527825364591016e-02 6.579169640743733e-03 5.311798970289962e-05 1.521401962207993e-04 1.178415609671397e-04 3.982449828248397e-05 4.790879065923402e-05 1.587494373695306e-05 1.031142828442539e-04 5.151086849505314e-05 4.110909145085905e-05 1.076722355032284e-04 3.682498362588362e-05 5.574751285657771e-05 5.147458078280311e-05 3.657297852824853e-05 1.819028260849041e-05 2.001347242626823e-01 2.647455669477744e-01 3.377731506488151e-01 3.450391433963780e-01 2.652129565851212e-01 4.770845631855738e-01 7.814714904991349e-01 4.979772639252813e-01 6.586495221598592e-01 1.982272492442474e-01 3.402779285317721e-01 2.648665130069198e-01 6.470084705528090e-01 3.430617330192884e-01 4.892629217132180e-01 4.807946313491211e-01 2.656208522048127e-01 3.470289575801334e-01 4.937262197700334e-01 3.442290512617711e-01 6.454151719162604e-01 6.548893600141480e-01 4.926198421847741e-01 7.702163214572978e-01 3.268241466085050e-05 2.857917931369184e-06 1.810107286880647e-05 6.532827797142706e-01 7.732401981270898e-01 1.022367124761653e+00 9.850951149813215e-01 9.850944821699196e-01 7.905435652546756e-01 6.605639038937264e-01 1.005904588425425e+00 7.824259609121001e-01 1.754089018563323e-05 6.957679925837915e-06 7.653902085584341e-06 1.937216290144657e-05 6.826222928321582e-06 3.330714632607166e-05 8.625597418538252e-01 8.516401666734970e-01 8.743979152341438e-01 8.626187914145923e-01 8.743814838832166e-01 8.516251646086558e-01 9.269840029188620e-01 9.318844357753697e-01 9.144289188822401e-01 9.268276229379583e-01 9.144733042942865e-01 9.319307308385497e-01 9.068959057924665e-01 9.144111520517204e-01 9.271357101127331e-01 9.143842915456454e-01 9.069719231695408e-01 9.273094097049706e-01 7.627414752363177e-01 7.491812533349917e-01 7.763039369267266e-01 7.627723067212042e-01 7.763037954561072e-01 7.491814460035455e-01 7.864872667848655e-01 7.762172086353657e-01 7.627702524300835e-01 7.762182760294337e-01 7.864527533824799e-01 7.627376113714942e-01 8.388621936329621e-01 8.276521395447173e-01 8.517998912042651e-01 8.389140392646468e-01 8.517877639208691e-01 8.276411900741614e-01 8.107757981630894e-01 8.024374325743374e-01 8.278133751121143e-01 8.108194833137725e-01 8.278055376194443e-01 8.024305330786471e-01 8.390964557563050e-01 8.276557571789882e-01 8.108475605793911e-01 8.276645624256110e-01 8.390456448709234e-01 8.108019939397059e-01 7.863740323820162e-01 7.762191412330701e-01 8.025694059785383e-01 7.864105151503370e-01 8.025652122187524e-01 7.762156786335755e-01 8.109202813858740e-01 8.024465786437163e-01 7.864250618579240e-01 8.024517176223895e-01 8.108774663396524e-01 7.863867375316811e-01 9.070079764115001e-01 9.145934788578568e-01 8.951994169236618e-01 9.069335742548666e-01 8.952234807404201e-01 9.146194976904868e-01 8.855984131397043e-01 8.951915355711962e-01 9.071975859324465e-01 8.951695875035621e-01 8.856663556555476e-01 9.072718218915974e-01 8.856808319748303e-01 8.953695725298878e-01 8.742063397978146e-01 8.856146365952988e-01 8.742256851952664e-01 8.953906139357918e-01 8.625594197822932e-01 8.742132845914581e-01 8.858410704288903e-01 8.741959017659743e-01 8.626203090103886e-01 8.859064632366052e-01 7.051388476998354e-01 7.215503853890620e-01 6.933953880365566e-01 9.393756120213410e-01 9.317573913016427e-01 9.473238185168464e-01 9.317244619844478e-01 9.395457526564870e-01 9.267523427308455e-01 7.354767106946595e-01 7.628486126918689e-01 7.491756292390459e-01 7.215108354172631e-01 7.354785794543338e-01 7.492385735117444e-01 7.215079620481468e-01 7.051423276528668e-01 7.355381444383152e-01 7.492323990667564e-01 7.354519049095237e-01 7.215054902359501e-01 7.354482279544502e-01 7.491703717112288e-01 7.628242958800747e-01 7.355197086704066e-01 7.051194885167172e-01 7.214965746503199e-01 8.388649375932261e-01 8.516374699851629e-01 8.627396453807783e-01 8.516243727007639e-01 8.389186640000658e-01 8.627978034351299e-01 6.933856768059408e-01 7.215381039140606e-01 7.051178033416473e-01 9.317084088121109e-01 9.395377731686281e-01 9.472725437513820e-01 9.316770151136103e-01 9.269109244101688e-01 9.397073123479773e-01 9.549677291029418e-01 9.604280337448402e-01 9.469813796300602e-01 9.395355247426628e-01 9.552614923721628e-01 9.470182067219999e-01 9.470703900517697e-01 9.549463702203144e-01 9.393716480070252e-01 9.605389443712531e-01 9.546482489752239e-01 9.470894171975619e-01 7.051758129372998e-01 6.934014482674087e-01 6.650544143286511e-01 9.721602297638798e-01 9.546174073185748e-01 9.602917977143610e-01 9.602647022404150e-01 9.713858459424217e-01 9.713858084290123e-01 9.601801161414035e-01 9.549383440496299e-01 9.717359164311969e-01 6.934005953141985e-01 6.650173131533519e-01 6.649983152322280e-01 7.051753317098242e-01 6.650290397877142e-01 6.933775268942640e-01 
</DataArray>
</PointData>
</Piece>
</UnstructuredGrid>
</VTKFile>
