<?xml version="1.0"?>
<VTKFile type="UnstructuredGrid" version="0.1" byte_order="LittleEndian">
<UnstructuredGrid>
<Piece NumberOfPoints="279" NumberOfCells="96">
<Points>
<DataArray type="Float64" NumberOfComponents="3" format="ascii">
2.500000000000000e-01 0.000000000000000e+00 0.000000000000000e+00 3.333333333331881e-01 1.666666666663762e-01 0.000000000000000e+00 3.333333333331881e-01 1.666666666663762e-01 0.000000000000000e+00 4.166666666665131e-01 3.333333333330262e-01 0.000000000000000e+00 4.166666666665131e-01 3.333333333330262e-01 0.000000000000000e+00 5.000000000000000e-01 5.000000000000000e-01 0.000000000000000e+00 5.000000000000000e-01 5.000000000000000e-01 0.000000000000000e+00 3.333333333336109e-01 4.166666666668055e-01 0.000000000000000e+00 3.333333333336109e-01 4.166666666668055e-01 0.000000000000000e+00 1.666666666671293e-01 3.333333333335646e-01 0.000000000000000e+00 1.666666666671293e-01 3.333333333335646e-01 0.000000000000000e+00 0.000000000000000e+00 2.500000000000000e-01 0.000000000000000e+00 7.500000000000000e-01 1.000000000000000e+00 0.000000000000000e+00 6.666666666666666e-01 8.333333333333333e-01 0.000000000000000e+00 6.666666666666666e-01 8.333333333333333e-01 0.000000000000000e+00 5.833333333333333e-01 6.666666666666666e-01 0.000000000000000e+00 5.833333333333333e-01 6.666666666666666e-01 0.000000000000000e+00 5.000000000000000e-01 5.000000000000000e-01 0.000000000000000e+00 0.000000000000000e+00 2.500000000000000e-01 0.000000000000000e+00 0.000000000000000e+00 3.999999999993061e-01 0.000000000000000e+00 1.666666666671293e-01 3.333333333335646e-01 0.000000000000000e+00 6.666666666666666e-01 8.333333333333333e-01 0.000000000000000e+00 5.999999999994290e-01 1.000000000000000e+00 0.000000000000000e+00 7.500000000000000e-01 1.000000000000000e+00 0.000000000000000e+00 1.262659817929549e-01 7.913299378255220e-01 0.000000000000000e+00 0.000000000000000e+00 6.999999999991673e-01 0.000000000000000e+00 0.000000000000000e+00 8.499999999995836e-01 0.000000000000000e+00 5.271054966329634e-01 8.488328532632591e-01 0.000000000000000e+00 4.499999999990660e-01 1.000000000000000e+00 0.000000000000000e+00 5.999999999994290e-01 1.000000000000000e+00 0.000000000000000e+00 6.666666666666666e-01 8.333333333333333e-01 0.000000000000000e+00 5.271054966329634e-01 8.488328532632591e-01 0.000000000000000e+00 5.999999999994290e-01 1.000000000000000e+00 0.000000000000000e+00 0.000000000000000e+00 5.499999999990286e-01 0.000000000000000e+00 1.555085255433845e-01 4.752619409895978e-01 0.000000000000000e+00 0.000000000000000e+00 3.999999999993061e-01 0.000000000000000e+00 1.555085255433845e-01 4.752619409895978e-01 0.000000000000000e+00 1.666666666671293e-01 3.333333333335646e-01 0.000000000000000e+00 0.000000000000000e+00 3.999999999993061e-01 0.000000000000000e+00 1.555085255433845e-01 4.752619409895978e-01 0.000000000000000e+00 3.333333333336109e-01 4.166666666668055e-01 0.000000000000000e+00 1.666666666671293e-01 3.333333333335646e-01 0.000000000000000e+00 1.555085255433845e-01 4.752619409895978e-01 0.000000000000000e+00 2.998933064660453e-01 5.734214616116567e-01 0.000000000000000e+00 3.333333333336109e-01 4.166666666668055e-01 0.000000000000000e+00 5.833333333333333e-01 6.666666666666666e-01 0.000000000000000e+00 5.271054966329634e-01 8.488328532632591e-01 0.000000000000000e+00 6.666666666666666e-01 8.333333333333333e-01 0.000000000000000e+00 4.293977045941481e-01 7.128112913903036e-01 0.000000000000000e+00 5.271054966329634e-01 8.488328532632591e-01 0.000000000000000e+00 5.833333333333333e-01 6.666666666666666e-01 0.000000000000000e+00 2.853648640097591e-01 7.463071008059871e-01 0.000000000000000e+00 4.293977045941481e-01 7.128112913903036e-01 0.000000000000000e+00 2.998933064660453e-01 5.734214616116567e-01 0.000000000000000e+00 0.000000000000000e+00 5.499999999990286e-01 0.000000000000000e+00 1.448015295635871e-01 6.434886585734013e-01 0.000000000000000e+00 1.555085255433845e-01 4.752619409895978e-01 0.000000000000000e+00 1.448015295635871e-01 6.434886585734013e-01 0.000000000000000e+00 2.998933064660453e-01 5.734214616116567e-01 0.000000000000000e+00 1.555085255433845e-01 4.752619409895978e-01 0.000000000000000e+00 3.808957665680138e-01 8.645016041761083e-01 0.000000000000000e+00 4.499999999990660e-01 1.000000000000000e+00 0.000000000000000e+00 5.271054966329634e-01 8.488328532632591e-01 0.000000000000000e+00 4.293977045941481e-01 7.128112913903036e-01 0.000000000000000e+00 3.808957665680138e-01 8.645016041761083e-01 0.000000000000000e+00 5.271054966329634e-01 8.488328532632591e-01 0.000000000000000e+00 0.000000000000000e+00 6.999999999991673e-01 0.000000000000000e+00 1.448015295635871e-01 6.434886585734013e-01 0.000000000000000e+00 0.000000000000000e+00 5.499999999990286e-01 0.000000000000000e+00 1.448015295635871e-01 6.434886585734013e-01 0.000000000000000e+00 2.853648640097591e-01 7.463071008059871e-01 0.000000000000000e+00 2.998933064660453e-01 5.734214616116567e-01 0.000000000000000e+00 2.853648640097591e-01 7.463071008059871e-01 0.000000000000000e+00 1.448015295635871e-01 6.434886585734013e-01 0.000000000000000e+00 1.262659817929549e-01 7.913299378255220e-01 0.000000000000000e+00 0.000000000000000e+00 6.999999999991673e-01 0.000000000000000e+00 1.262659817929549e-01 7.913299378255220e-01 0.000000000000000e+00 1.448015295635871e-01 6.434886585734013e-01 0.000000000000000e+00 3.808957665680138e-01 8.645016041761083e-01 0.000000000000000e+00 2.999999999990501e-01 1.000000000000000e+00 0.000000000000000e+00 4.499999999990660e-01 1.000000000000000e+00 0.000000000000000e+00 2.853648640097591e-01 7.463071008059871e-01 0.000000000000000e+00 3.808957665680138e-01 8.645016041761083e-01 0.000000000000000e+00 4.293977045941481e-01 7.128112913903036e-01 0.000000000000000e+00 5.000000000000000e-01 5.000000000000000e-01 0.000000000000000e+00 4.293977045941481e-01 7.128112913903036e-01 0.000000000000000e+00 5.833333333333333e-01 6.666666666666666e-01 0.000000000000000e+00 5.000000000000000e-01 5.000000000000000e-01 0.000000000000000e+00 2.998933064660453e-01 5.734214616116567e-01 0.000000000000000e+00 4.293977045941481e-01 7.128112913903036e-01 0.000000000000000e+00 2.998933064660453e-01 5.734214616116567e-01 0.000000000000000e+00 5.000000000000000e-01 5.000000000000000e-01 0.000000000000000e+00 3.333333333336109e-01 4.166666666668055e-01 0.000000000000000e+00 2.195877687281456e-01 8.878564404679016e-01 0.000000000000000e+00 2.999999999990501e-01 1.000000000000000e+00 0.000000000000000e+00 3.808957665680138e-01 8.645016041761083e-01 0.000000000000000e+00 2.853648640097591e-01 7.463071008059871e-01 0.000000000000000e+00 2.195877687281456e-01 8.878564404679016e-01 0.000000000000000e+00 3.808957665680138e-01 8.645016041761083e-01 0.000000000000000e+00 2.195877687281456e-01 8.878564404679016e-01 0.000000000000000e+00 1.499999999993971e-01 1.000000000000000e+00 0.000000000000000e+00 2.999999999990501e-01 1.000000000000000e+00 0.000000000000000e+00 1.262659817929549e-01 7.913299378255220e-01 0.000000000000000e+00 2.195877687281456e-01 8.878564404679016e-01 0.000000000000000e+00 2.853648640097591e-01 7.463071008059871e-01 0.000000000000000e+00 9.917075010409951e-02 9.058372756586014e-01 0.000000000000000e+00 0.000000000000000e+00 8.499999999995836e-01 0.000000000000000e+00 0.000000000000000e+00 1.000000000000000e+00 0.000000000000000e+00 1.499999999993971e-01 1.000000000000000e+00 0.000000000000000e+00 9.917075010409951e-02 9.058372756586014e-01 0.000000000000000e+00 0.000000000000000e+00 1.000000000000000e+00 0.000000000000000e+00 0.000000000000000e+00 8.499999999995836e-01 0.000000000000000e+00 9.917075010409951e-02 9.058372756586014e-01 0.000000000000000e+00 1.262659817929549e-01 7.913299378255220e-01 0.000000000000000e+00 2.195877687281456e-01 8.878564404679016e-01 0.000000000000000e+00 9.917075010409951e-02 9.058372756586014e-01 0.000000000000000e+00 1.499999999993971e-01 1.000000000000000e+00 0.000000000000000e+00 2.195877687281456e-01 8.878564404679016e-01 0.000000000000000e+00 1.262659817929549e-01 7.913299378255220e-01 0.000000000000000e+00 9.917075010409951e-02 9.058372756586014e-01 0.000000000000000e+00 4.166666666665131e-01 3.333333333330262e-01 0.000000000000000e+00 5.000000000000000e-01 5.000000000000000e-01 0.000000000000000e+00 3.333333333336109e-01 4.166666666668055e-01 0.000000000000000e+00 1.666666666671293e-01 3.333333333335646e-01 0.000000000000000e+00 3.333333333331881e-01 1.666666666663762e-01 0.000000000000000e+00 4.166666666665131e-01 3.333333333330262e-01 0.000000000000000e+00 3.333333333336109e-01 4.166666666668055e-01 0.000000000000000e+00 1.666666666671293e-01 3.333333333335646e-01 0.000000000000000e+00 4.166666666665131e-01 3.333333333330262e-01 0.000000000000000e+00 0.000000000000000e+00 2.500000000000000e-01 0.000000000000000e+00 0.000000000000000e+00 0.000000000000000e+00 0.000000000000000e+00 1.500000000000635e-01 1.499999999999882e-01 0.000000000000000e+00 1.500000000000635e-01 1.499999999999882e-01 0.000000000000000e+00 0.000000000000000e+00 0.000000000000000e+00 0.000000000000000e+00 2.500000000000000e-01 0.000000000000000e+00 0.000000000000000e+00 1.500000000000635e-01 1.499999999999882e-01 0.000000000000000e+00 2.500000000000000e-01 0.000000000000000e+00 0.000000000000000e+00 3.333333333331881e-01 1.666666666663762e-01 0.000000000000000e+00 1.500000000000635e-01 1.499999999999882e-01 0.000000000000000e+00 1.666666666671293e-01 3.333333333335646e-01 0.000000000000000e+00 0.000000000000000e+00 2.500000000000000e-01 0.000000000000000e+00 3.333333333331881e-01 1.666666666663762e-01 0.000000000000000e+00 1.666666666671293e-01 3.333333333335646e-01 0.000000000000000e+00 1.500000000000635e-01 1.499999999999882e-01 0.000000000000000e+00 2.500000000000000e-01 0.000000000000000e+00 0.000000000000000e+00 3.333333333331881e-01 1.666666666663762e-01 0.000000000000000e+00 4.000000000002777e-01 0.000000000000000e+00 0.000000000000000e+00 7.000000000008327e-01 0.000000000000000e+00 0.000000000000000e+00 7.736475786618975e-01 1.393304285805427e-01 0.000000000000000e+00 8.500000000008328e-01 0.000000000000000e+00 0.000000000000000e+00 4.992042824076202e-01 1.490973993763484e-01 0.000000000000000e+00 5.500000000005552e-01 0.000000000000000e+00 0.000000000000000e+00 4.000000000002777e-01 0.000000000000000e+00 0.000000000000000e+00 3.333333333331881e-01 1.666666666663762e-01 0.000000000000000e+00 4.992042824076202e-01 1.490973993763484e-01 0.000000000000000e+00 4.000000000002777e-01 0.000000000000000e+00 0.000000000000000e+00 4.166666666665131e-01 3.333333333330262e-01 0.000000000000000e+00 4.992042824076202e-01 1.490973993763484e-01 0.000000000000000e+00 3.333333333331881e-01 1.666666666663762e-01 0.000000000000000e+00 6.194807743958560e-01 2.412219107496123e-01 0.000000000000000e+00 4.992042824076202e-01 1.490973993763484e-01 0.000000000000000e+00 4.166666666665131e-01 3.333333333330262e-01 0.000000000000000e+00 7.000000000008327e-01 0.000000000000000e+00 0.000000000000000e+00 6.359519675930375e-01 1.128248248704907e-01 0.000000000000000e+00 7.736475786618975e-01 1.393304285805427e-01 0.000000000000000e+00 6.194807743958560e-01 2.412219107496123e-01 0.000000000000000e+00 6.359519675930375e-01 1.128248248704907e-01 0.000000000000000e+00 4.992042824076202e-01 1.490973993763484e-01 0.000000000000000e+00 6.359519675930375e-01 1.128248248704907e-01 0.000000000000000e+00 6.194807743958560e-01 2.412219107496123e-01 0.000000000000000e+00 7.736475786618975e-01 1.393304285805427e-01 0.000000000000000e+00 1.000000000000000e+00 2.857142857153761e-01 0.000000000000000e+00 8.995418595679957e-01 3.660610945775338e-01 0.000000000000000e+00 1.000000000000000e+00 4.285714285727172e-01 0.000000000000000e+00 7.576097615368714e-01 3.056501081260414e-01 0.000000000000000e+00 7.736475786618975e-01 1.393304285805427e-01 0.000000000000000e+00 6.194807743958560e-01 2.412219107496123e-01 0.000000000000000e+00 7.576097615368714e-01 3.056501081260414e-01 0.000000000000000e+00 7.738404604248252e-01 4.704509657696636e-01 0.000000000000000e+00 8.995418595679957e-01 3.660610945775338e-01 0.000000000000000e+00 8.984269496357760e-01 4.968844551721360e-01 0.000000000000000e+00 1.000000000000000e+00 5.714285714296619e-01 0.000000000000000e+00 1.000000000000000e+00 4.285714285727172e-01 0.000000000000000e+00 5.000000000000000e-01 5.000000000000000e-01 0.000000000000000e+00 6.227208784165946e-01 4.036087638678805e-01 0.000000000000000e+00 4.166666666665131e-01 3.333333333330262e-01 0.000000000000000e+00 6.227208784165946e-01 4.036087638678805e-01 0.000000000000000e+00 6.194807743958560e-01 2.412219107496123e-01 0.000000000000000e+00 4.166666666665131e-01 3.333333333330262e-01 0.000000000000000e+00 1.000000000000000e+00 2.857142857153761e-01 0.000000000000000e+00 8.926331999611968e-01 2.185069385476834e-01 0.000000000000000e+00 8.995418595679957e-01 3.660610945775338e-01 0.000000000000000e+00 8.995418595679957e-01 3.660610945775338e-01 0.000000000000000e+00 8.984269496357760e-01 4.968844551721360e-01 0.000000000000000e+00 1.000000000000000e+00 4.285714285727172e-01 0.000000000000000e+00 8.995418595679957e-01 3.660610945775338e-01 0.000000000000000e+00 7.738404604248252e-01 4.704509657696636e-01 0.000000000000000e+00 8.984269496357760e-01 4.968844551721360e-01 0.000000000000000e+00 1.000000000000000e+00 1.428571428577377e-01 0.000000000000000e+00 8.926331999611968e-01 2.185069385476834e-01 0.000000000000000e+00 1.000000000000000e+00 2.857142857153761e-01 0.000000000000000e+00 7.576097615368714e-01 3.056501081260414e-01 0.000000000000000e+00 8.926331999611968e-01 2.185069385476834e-01 0.000000000000000e+00 7.736475786618975e-01 1.393304285805427e-01 0.000000000000000e+00 7.576097615368714e-01 3.056501081260414e-01 0.000000000000000e+00 8.995418595679957e-01 3.660610945775338e-01 0.000000000000000e+00 8.926331999611968e-01 2.185069385476834e-01 0.000000000000000e+00 7.000000000008327e-01 0.000000000000000e+00 0.000000000000000e+00 5.500000000005552e-01 0.000000000000000e+00 0.000000000000000e+00 6.359519675930375e-01 1.128248248704907e-01 0.000000000000000e+00 5.500000000005552e-01 0.000000000000000e+00 0.000000000000000e+00 4.992042824076202e-01 1.490973993763484e-01 0.000000000000000e+00 6.359519675930375e-01 1.128248248704907e-01 0.000000000000000e+00 9.032561557247855e-01 1.001389019971927e-01 0.000000000000000e+00 1.000000000000000e+00 1.428571428577377e-01 0.000000000000000e+00 1.000000000000000e+00 0.000000000000000e+00 0.000000000000000e+00 9.032561557247855e-01 1.001389019971927e-01 0.000000000000000e+00 8.500000000008328e-01 0.000000000000000e+00 0.000000000000000e+00 7.736475786618975e-01 1.393304285805427e-01 0.000000000000000e+00 8.500000000008328e-01 0.000000000000000e+00 0.000000000000000e+00 9.032561557247855e-01 1.001389019971927e-01 0.000000000000000e+00 1.000000000000000e+00 0.000000000000000e+00 0.000000000000000e+00 9.032561557247855e-01 1.001389019971927e-01 0.000000000000000e+00 8.926331999611968e-01 2.185069385476834e-01 0.000000000000000e+00 1.000000000000000e+00 1.428571428577377e-01 0.000000000000000e+00 7.736475786618975e-01 1.393304285805427e-01 0.000000000000000e+00 8.926331999611968e-01 2.185069385476834e-01 0.000000000000000e+00 9.032561557247855e-01 1.001389019971927e-01 0.000000000000000e+00 1.000000000000000e+00 5.714285714296619e-01 0.000000000000000e+00 8.030410438586795e-01 6.461605083906008e-01 0.000000000000000e+00 1.000000000000000e+00 7.142857142862099e-01 0.000000000000000e+00 8.030410438586795e-01 6.461605083906008e-01 0.000000000000000e+00 1.000000000000000e+00 5.714285714296619e-01 0.000000000000000e+00 8.984269496357760e-01 4.968844551721360e-01 0.000000000000000e+00 6.194807743958560e-01 2.412219107496123e-01 0.000000000000000e+00 6.227208784165946e-01 4.036087638678805e-01 0.000000000000000e+00 7.576097615368714e-01 3.056501081260414e-01 0.000000000000000e+00 6.227208784165946e-01 4.036087638678805e-01 0.000000000000000e+00 7.738404604248252e-01 4.704509657696636e-01 0.000000000000000e+00 7.576097615368714e-01 3.056501081260414e-01 0.000000000000000e+00 6.666666666666666e-01 8.333333333333333e-01 0.000000000000000e+00 8.030410438586795e-01 6.461605083906008e-01 0.000000000000000e+00 5.833333333333333e-01 6.666666666666666e-01 0.000000000000000e+00 6.565871432066865e-01 5.373773809389624e-01 0.000000000000000e+00 7.738404604248252e-01 4.704509657696636e-01 0.000000000000000e+00 6.227208784165946e-01 4.036087638678805e-01 0.000000000000000e+00 6.565871432066865e-01 5.373773809389624e-01 0.000000000000000e+00 5.000000000000000e-01 5.000000000000000e-01 0.000000000000000e+00 5.833333333333333e-01 6.666666666666666e-01 0.000000000000000e+00 6.227208784165946e-01 4.036087638678805e-01 0.000000000000000e+00 5.000000000000000e-01 5.000000000000000e-01 0.000000000000000e+00 6.565871432066865e-01 5.373773809389624e-01 0.000000000000000e+00 8.699512850875576e-01 8.418204021921999e-01 0.000000000000000e+00 1.000000000000000e+00 7.142857142862099e-01 0.000000000000000e+00 8.030410438586795e-01 6.461605083906008e-01 0.000000000000000e+00 1.000000000000000e+00 7.142857142862099e-01 0.000000000000000e+00 8.699512850875576e-01 8.418204021921999e-01 0.000000000000000e+00 1.000000000000000e+00 8.571428571430554e-01 0.000000000000000e+00 6.666666666666666e-01 8.333333333333333e-01 0.000000000000000e+00 8.699512850875576e-01 8.418204021921999e-01 0.000000000000000e+00 8.030410438586795e-01 6.461605083906008e-01 0.000000000000000e+00 1.000000000000000e+00 1.000000000000000e+00 0.000000000000000e+00 8.699512850875576e-01 8.418204021921999e-01 0.000000000000000e+00 7.500000000000000e-01 1.000000000000000e+00 0.000000000000000e+00 8.699512850875576e-01 8.418204021921999e-01 0.000000000000000e+00 1.000000000000000e+00 1.000000000000000e+00 0.000000000000000e+00 1.000000000000000e+00 8.571428571430554e-01 0.000000000000000e+00 8.699512850875576e-01 8.418204021921999e-01 0.000000000000000e+00 6.666666666666666e-01 8.333333333333333e-01 0.000000000000000e+00 7.500000000000000e-01 1.000000000000000e+00 0.000000000000000e+00 7.738404604248252e-01 4.704509657696636e-01 0.000000000000000e+00 8.030410438586795e-01 6.461605083906008e-01 0.000000000000000e+00 8.984269496357760e-01 4.968844551721360e-01 0.000000000000000e+00 7.738404604248252e-01 4.704509657696636e-01 0.000000000000000e+00 6.565871432066865e-01 5.373773809389624e-01 0.000000000000000e+00 8.030410438586795e-01 6.461605083906008e-01 0.000000000000000e+00 6.565871432066865e-01 5.373773809389624e-01 0.000000000000000e+00 5.833333333333333e-01 6.666666666666666e-01 0.000000000000000e+00 8.030410438586795e-01 6.461605083906008e-01 0.000000000000000e+00 
</DataArray>
</Points>
<Cells>
<DataArray type="Int32" Name="connectivity" format="ascii">
0 1 2 3 4 5 6 7 8 9 10 11 12 13 14 15 16 17 18 19 20 21 22 23 24 25 26 27 28 29 30 31 32 33 34 35 36 37 38 39 40 41 42 43 44 45 46 47 48 49 50 51 52 53 54 55 56 57 58 59 60 61 62 63 64 65 66 67 68 69 70 71 72 73 74 75 76 77 78 79 80 81 82 83 84 85 86 87 88 89 90 91 92 93 94 95 96 97 98 99 100 101 102 103 104 105 106 107 108 109 110 111 112 113 114 115 116 117 118 119 120 121 122 123 124 125 126 127 128 129 130 131 132 133 134 135 136 137 138 139 140 141 142 143 144 145 146 147 148 149 150 151 152 153 154 155 156 157 158 159 160 161 162 163 164 165 166 167 168 169 170 171 172 173 174 175 176 177 178 179 180 181 182 183 184 185 186 187 188 189 190 191 192 193 194 195 196 197 198 199 200 201 202 203 204 205 206 207 208 209 210 211 212 213 214 215 216 217 218 219 220 221 222 223 224 225 226 227 228 229 230 231 232 233 234 235 236 237 238 239 240 241 242 243 244 245 246 247 248 249 250 251 252 253 254 255 256 257 258 259 260 261 262 263 264 265 266 267 268 269 270 271 272 273 274 275 276 277 278 
</DataArray>
<DataArray type="Int32" Name="offsets" format="ascii">
2 4 6 8 10 12 14 16 18 21 24 27 30 33 36 39 42 45 48 51 54 57 60 63 66 69 72 75 78 81 84 87 90 93 96 99 102 105 108 111 114 117 120 123 126 129 132 135 138 141 144 147 150 153 156 159 162 165 168 171 174 177 180 183 186 189 192 195 198 201 204 207 210 213 216 219 222 225 228 231 234 237 240 243 246 249 252 255 258 261 264 267 270 273 276 279 
</DataArray>
<DataArray type="UInt8" Name="types" format="ascii">
3 3 3 3 3 3 3 3 3 5 5 5 5 5 5 5 5 5 5 5 5 5 5 5 5 5 5 5 5 5 5 5 5 5 5 5 5 5 5 5 5 5 5 5 5 5 5 5 5 5 5 5 5 5 5 5 5 5 5 5 5 5 5 5 5 5 5 5 5 5 5 5 5 5 5 5 5 5 5 5 5 5 5 5 5 5 5 5 5 5 5 5 5 5 5 5 
</DataArray>
</Cells>
<PointData Scalars="age_conc," Vectors="">
<DataArray type="Float64" Name="age_conc" format="ascii">
9.999947382547512e-01 9.999979079076909e-01 9.999975574907591e-01 9.999999628651391e-01 9.999995865218116e-01 1.000000211242485e+00 1.000000085730345e+00 9.999999136221935e-01 1.000000073064514e+00 9.999992563539175e-01 9.999994386055724e-01 9.999980271504901e-01 9.999999989195479e-01 9.999999994074107e-01 9.999999971266357e-01 1.000000014493059e+00 1.000000027323851e+00 1.000000034714994e+00 9.991914815320440e-01 9.999677474702673e-01 9.996941478537479e-01 9.999999821555634e-01 9.999999924150904e-01 9.999999924462711e-01 1.000000215001406e+00 1.000000420789159e+00 9.999998791242072e-01 9.999999760063321e-01 9.999999693668344e-01 9.999999768717120e-01 9.999999853480334e-01 9.999999955861874e-01 9.999999755697319e-01 1.000013648219193e+00 9.999727225016377e-01 9.998983590613817e-01 1.000016125653310e+00 9.996796576875973e-01 9.998903452781527e-01 9.999817406689866e-01 9.999517861816587e-01 9.997241936545014e-01 9.999541618513618e-01 1.000027596284241e+00 9.999314001390458e-01 1.000000172751170e+00 9.999999949264470e-01 9.999999642634960e-01 1.000000660187363e+00 1.000000046758097e+00 1.000000033449566e+00 1.000001709271141e+00 1.000000871045574e+00 9.999993372938787e-01 9.999982353770290e-01 1.000017033267627e+00 9.999690368069492e-01 1.000008900694731e+00 1.000000956708284e+00 9.999762648860762e-01 9.999999827691829e-01 9.999999356755750e-01 9.999999885283701e-01 1.000000326251028e+00 9.999999522489131e-01 9.999999378746199e-01 1.000003868811663e+00 1.000001936060077e+00 9.999942150453114e-01 1.000002750779948e+00 1.000003667627812e+00 9.999978748623920e-01 1.000000657585635e+00 1.000001095753030e+00 1.000000494782961e+00 1.000001449131102e+00 1.000001028003533e+00 1.000000763737780e+00 9.999999491382426e-01 9.999999516154722e-01 9.999999572442575e-01 1.000000725662849e+00 9.999999053820666e-01 1.000000242761311e+00 9.999976754574721e-01 1.000001959782634e+00 1.000000989832777e+00 9.999947843823953e-01 9.999986798362954e-01 1.000009969073104e+00 1.000006097635391e+00 1.000005141318705e+00 9.999472683842936e-01 9.999999054660212e-01 9.999999076543408e-01 9.999999847920626e-01 1.000000442330564e+00 9.999998073266514e-01 9.999999338315696e-01 9.999999015726642e-01 1.000000017636622e+00 9.999999698355667e-01 1.000000259840304e+00 9.999996878865945e-01 1.000000503355352e+00 9.999999412375150e-01 9.999999360535018e-01 1.000000022046078e+00 1.000000000155963e+00 9.999999516016419e-01 1.000000016383415e+00 9.999999035741389e-01 9.999998762017840e-01 1.000000114786196e+00 9.999999097238513e-01 9.999999577961363e-01 1.000000008695310e+00 9.999998861791056e-01 1.000000062539729e+00 9.999999072864054e-01 9.999999404758844e-01 1.000001244893148e+00 1.000000843379578e+00 9.999948228247034e-01 9.999565093697494e-01 1.000026225913433e+00 1.000002781036242e+00 9.999972142092711e-01 9.999995700977182e-01 1.001230962115760e+00 9.949806199401516e-01 1.000152969799235e+00 1.000188250868540e+00 9.944950054544943e-01 1.000964941814516e+00 9.994755544869224e-01 9.997357561519127e-01 1.000196140582130e+00 9.995249091128670e-01 1.000241368934972e+00 9.999779550665995e-01 9.999821607088670e-01 1.000059288091374e+00 9.997421894387295e-01 9.983814625207651e-01 9.992904578199927e-01 9.996624096715676e-01 9.999944076756382e-01 9.999930592396066e-01 1.000004113240253e+00 9.999041966393217e-01 1.000125904262359e+00 9.997064841832517e-01 9.992618828203558e-01 9.999929830248654e-01 9.995647493446074e-01 9.997966317823674e-01 9.999083930917887e-01 9.993452502492809e-01 1.000051579903465e+00 9.998536054139507e-01 9.997730373349675e-01 9.999940202028686e-01 1.000027629207480e+00 1.000001912309274e+00 1.000048508641502e+00 1.000071078050067e+00 9.999257765880865e-01 1.000023929201463e+00 1.000034678771659e+00 1.000004246104317e+00 1.000000472590807e+00 9.999970282464793e-01 9.999987224522151e-01 1.000024295206349e+00 1.000003594367200e+00 1.000034417291490e+00 1.000012475211919e+00 1.000006600984459e+00 1.000000819521701e+00 1.000002097002055e+00 9.999998295739012e-01 9.999981240447238e-01 1.000008200833491e+00 9.999913145465905e-01 9.998557415860532e-01 1.000007709613903e+00 1.000012428873464e+00 9.998029860368745e-01 1.000000844651306e+00 9.999985610673692e-01 9.999966257024189e-01 9.999992265537908e-01 1.000003165807827e+00 9.999971972905044e-01 1.000001733445990e+00 1.000006713899881e+00 1.000002687975876e+00 1.000000636721512e+00 9.999996156797673e-01 1.000000370200834e+00 1.000015220516103e+00 9.999906737206036e-01 9.999979528651137e-01 1.000012298889314e+00 9.999978392916938e-01 9.999928703845324e-01 9.999965901400558e-01 1.000021409300663e+00 1.000029662221021e+00 1.000073227729408e+00 9.999032036002861e-01 1.000088304477639e+00 1.000000702565380e+00 1.000000316875363e+00 9.999997395083472e-01 1.000001893079395e+00 1.000003084955675e+00 9.999935977230570e-01 1.000000787717685e+00 1.000000749329630e+00 9.999996194931411e-01 1.000000424955465e+00 9.999995253371066e-01 1.000000690110305e+00 9.999934637904897e-01 9.999967738426120e-01 1.000001925514482e+00 9.999999907060537e-01 1.000000429998298e+00 9.999994937165305e-01 1.000000082176906e+00 9.999998840360863e-01 1.000001735219241e+00 1.000009057643125e+00 9.999824982085416e-01 1.000034530908856e+00 9.999897342009736e-01 1.000011209502922e+00 1.000024990396458e+00 1.000003879814441e+00 1.000000131369663e+00 1.000009786612327e+00 9.999948423011511e-01 1.000011158892662e+00 9.999863162217478e-01 1.000002232719626e+00 9.999952641767202e-01 1.000018506381089e+00 9.999733022273165e-01 9.999898411155439e-01 1.000005762576487e+00 9.999998615609504e-01 9.999997061916180e-01 1.000000482128007e+00 9.999999210639783e-01 9.999998902252770e-01 9.999999269052854e-01 1.000002829737153e+00 9.999993434543907e-01 1.000001435050652e+00 9.999992385080138e-01 9.999998029321810e-01 9.999994895655897e-01 9.999998876403089e-01 9.999999339407313e-01 9.999999337747645e-01 9.999997859874481e-01 1.000001331682267e+00 9.999986903220875e-01 1.000003669518309e+00 9.999992187234659e-01 1.000002264217349e+00 1.000004787630276e+00 9.999963213625321e-01 1.000001526970449e+00 1.000001632068728e+00 1.000011309310463e+00 1.000001045758254e+00 
</DataArray>
</PointData>
</Piece>
</UnstructuredGrid>
</VTKFile>
