<?xml version="1.0"?>
<VTKFile type="UnstructuredGrid" version="0.1" byte_order="LittleEndian">
<UnstructuredGrid>
<Piece NumberOfPoints="69" NumberOfCells="124">
<Points>
<DataArray type="Float64" NumberOfComponents="3" format="ascii">
0 0 0 0.084352422163911631 0.086451712656266194 0 0.1249999999997554 0 0 0 0.12500000000034689 0 0.1008171452988615 0.18885703697250469 0 0.2403886547178353 0.24188814792673841 0 0.18402761812864499 0.1117324051466445 0 0.25 -0 0 0.31250000000020822 0.12500000000041631 0 0.4287911518546233 0.15455445427966699 0 0.43749999999913258 0 0 0.43750000000006939 0.37500000000013878 0 0.49457493289300231 0.26251703776555491 0 0.37500000000027761 0.25000000000055511 0 0.33819444444448321 0.33819444444456342 0 0.37499999999973488 0.43749999999986738 0 0.14929124186975251 0.44582793568106382 0 0.24999999999960859 0.37499999999980432 0 0.1249999999997599 0.31249999999987998 0 0 0.25 0 0 0.43750000000034689 0 0 0.62500000000069389 0 0.13900789599611679 0.72618316107059999 0 0.13928587515912139 0.57339806105677438 0 0 1 0 0 0.81250000000104083 0 0.12710107136012311 0.87094806618203435 0 0.1875000000005205 1 0 0.27987960212930818 0.83442741470570525 0 0.44927105396715372 0.85565124085155886 0 0.37500000000069389 1 0 0.26452443700674649 0.51563531581639865 0 0.27589467050686478 0.66058853156435704 0 0.38136204680495073 0.74038592213831234 0 0.4139414069912184 0.60563252640100373 0 0.5 0.5 -0 0.50145856933078625 0.73674663046504862 0 0.5625 0.625 0 0.71259747807844409 0.63846691315701831 0 0.63236534182377013 0.50296756406332266 0 0.56250000000086742 1 0 0.56777512057187585 0.8470224641095303 0 0.625 0.75 0 0.73857795170433571 0.77736788564284653 0 0.6875 0.875 0 0.75 1 0 0.80552984491000901 0.88711122872127413 0 0.85787927391517405 0.753532520882502 0 1 0.83333333333356463 0 0.90637953422180084 0.90208583328057301 0 1 1 0 0.875 1 0 0.86127466977819722 0.57948076978797636 0 1 0.66666666666736052 0 1 0.50000000000138767 0 0.75338430262320943 0.49294443423175599 0 0.86569408477091048 0.40983673916766611 0 0.86087286690217635 0.25206523597959418 0 1 0.33333333333448978 0 1 0.16666666666736049 0 1 0 0 0.87698901648812122 0.1160638338657984 0 0.81249999999947953 0 0 0.71508993406183785 0.15715956854777599 0 0.62499999999895905 0 0 0.54475767668582953 0.1431838882066932 0 0.61108462585082757 0.25750599582343231 0 0.56986707178436635 0.37762093650871992 0 0.71826039492840632 0.34564020717216182 0 
</DataArray>
</Points>
<Cells>
<DataArray type="UInt32" Name="connectivity" format="ascii">
0 1 3 0 2 1 3 4 19 3 1 4 4 1 6 18 4 5 6 5 4 8 5 6 7 6 2 7 8 6 2 6 1 8 7 7 10 8 8 13 5 13 8 8 9 13 13 9 12 65 12 9 8 10 9 10 65 9 15 35 11 35 15 11 15 14 35 11 13 12 11 11 13 13 11 14 17 5 14 13 14 5 15 17 14 17 15 15 31 17 17 31 16 17 16 18 17 18 5 18 17 19 18 20 18 19 4 19 18 20 16 23 20 18 16 20 23 21 21 23 22 25 21 22 32 22 23 28 22 32 31 32 23 31 23 16 27 24 26 24 25 26 25 22 26 28 26 22 27 26 28 30 28 29 30 27 28 29 28 33 29 33 36 30 29 40 34 32 31 15 34 31 28 32 33 34 33 32 34 36 33 37 36 34 15 35 34 37 34 35 37 35 39 37 35 37 42 36 42 37 42 38 43 37 38 42 55 38 39 37 39 38 44 40 41 40 29 41 29 36 41 42 41 36 44 42 43 44 43 46 44 42 44 41 42 44 45 40 44 46 45 45 44 51 45 46 51 46 49 46 47 49 46 43 47 48 47 53 48 49 47 50 49 48 50 51 49 52 38 55 47 38 52 47 43 38 53 47 52 53 52 54 58 54 56 52 56 54 52 55 56 55 68 56 63 57 68 56 68 57 59 58 57 58 56 57 59 57 61 62 60 61 59 61 60 62 61 63 63 61 57 64 63 65 62 63 64 10 64 65 63 66 65 65 66 12 67 12 66 11 12 67 11 67 35 35 67 39 55 39 68 67 68 39 63 68 66 67 66 68 
</DataArray>
<DataArray type="UInt32" Name="offsets" format="ascii">
3 6 9 12 15 18 21 24 27 30 33 35 38 41 43 46 49 52 55 58 60 63 66 68 71 73 76 79 82 85 87 90 93 96 99 101 104 107 109 112 115 118 121 124 127 130 133 136 139 142 145 148 151 154 157 160 163 166 169 172 175 178 181 184 187 190 193 195 198 200 203 206 209 212 215 218 221 224 227 230 232 235 238 241 243 246 249 252 255 258 261 264 267 270 273 276 279 282 285 288 291 294 297 300 303 306 309 312 315 318 321 324 327 330 333 336 339 342 345 348 351 354 357 360 
</DataArray>
<DataArray type="UInt32" Name="types" format="ascii">
5 5 5 5 5 5 5 5 5 5 5 3 5 5 3 5 5 5 5 5 3 5 5 3 5 3 5 5 5 5 3 5 5 5 5 3 5 5 3 5 5 5 5 5 5 5 5 5 5 5 5 5 5 5 5 5 5 5 5 5 5 5 5 5 5 5 5 3 5 3 5 5 5 5 5 5 5 5 5 5 3 5 5 5 3 5 5 5 5 5 5 5 5 5 5 5 5 5 5 5 5 5 5 5 5 5 5 5 5 5 5 5 5 5 5 5 5 5 5 5 5 5 5 5 
</DataArray>
</Cells>
<CellData Scalars="pressure_p0," Vectors="velocity_p0," Tensors="">
<DataArray type="Float64" Name="pressure_p0" format="ascii">
0.097340388580063178 0.097317830081017825 0.21761196209527606 0.19028317824063301 0.24310533168825119 0.38183195229597233 0.33834471856705017 0.38364774983997452 0.21932841203752204 0.3157493951886633 0.19205805566468925 0.3332682542766322 0.36846470301784517 0.48118782051860243 0.49781343964143876 0.51818799806513782 0.61618636953317907 0.6458157381853864 0.47058767347802571 0.55372338003145205 0.80585933703745383 0.78047891165013961 0.6945444587941173 0.80647225995256788 0.67668372041514202 0.65738506614454684 0.64362596874901801 0.5494126317248178 0.54956830360101461 0.6432430910415019 0.65676070146908638 0.68369700888464979 0.62757855833998821 0.52203662387932259 0.48099486582870954 0.49749484556502005 0.36836782920529376 0.31402351083217417 0.33317574041722631 0.56621434571591778 0.47455907375027095 0.58501509248112049 0.72275660775752559 0.7630539241473222 0.81538847901189948 0.95063820592219617 0.77606410987320384 0.66594387861116944 1.0601292435816523 0.93517022459335986 0.885698260472364 0.98041512701434796 1.0929845047229279 1.2518860840549062 1.2202324840009686 1.1559377161955537 1.187602666026093 1.40729937648461 0.86382698912922873 0.80713520625313639 1.0288435916251233 0.98228925247270271 1.0785211759104281 1.0866513430125337 0.85886728709417481 0.98537313365428081 1.027701062535284 0.99756497562439828 1.2139427193687455 1.2250924083628747 1.3792117779080333 1.254899400012123 1.2009347240588972 1.167512157284021 1.4982409233966232 1.4116885529811434 1.2892152592504122 1.3049148877526004 1.457100489332595 1.5735177829691378 1.4388785492662488 1.4216508945669442 1.618279347990017 1.6593189714034466 1.6470203046628238 1.7693678112110933 1.788126946773541 1.6956305817041084 1.5913410079645893 1.6995636362894735 1.7457184810996682 1.8793779806286737 1.8935076691375312 1.3160344841905856 1.4452876628034255 1.4682773800912894 1.5624159369215189 1.5303500127516054 1.3646668374500346 1.3942264777942088 1.2989271246487131 1.1681673883179353 0.99762090153413419 1.1320185626530312 1.2007614563598108 1.2316739274494748 1.0859682039795207 0.93374928754459585 1.0519686586289603 0.88664725857239901 0.98266457635802451 0.71647188583861998 0.76512003340281542 0.57677636938240673 0.78672959609023208 0.73804467196114798 0.81196585659987874 0.77844479663479582 0.83827938353283704 0.95619708638659706 1.108140135822973 0.99940706592593509 0.90844478018959873 0.91955484706026414 
</DataArray>
<DataArray type="Float64" Name="velocity_p0" NumberOfComponents="3" format="ascii">
-9.650044741976076e-08 -9.6530470593332169e-08 0 -9.6422189798844117e-08 -9.6450265364091714e-08 0 -8.8319718236561303e-08 -9.5389267175607635e-08 0 -9.2794944708315222e-08 -9.8223851525506475e-08 0 -9.1748743179164479e-08 -9.1716811837401365e-08 0 -8.7145547293254721e-08 -9.001242984851636e-08 0 -9.1714589616145599e-08 -9.1748467463847241e-08 0 -8.9891337816197559e-08 -8.7537993239211157e-08 0 -9.534613733798701e-08 -8.8421991785741964e-08 0 -9.5524595475679545e-08 -8.8119750806433709e-08 0 -9.7912690737978724e-08 -9.3280178343793265e-08 0 -5.3162873599992183e-07 -1.0632574719998424e-06 0 -9.9031385856622262e-08 -8.4073133707236347e-08 0 -9.0792918586292282e-08 -8.6076585106971156e-08 0 -5.2024058160502891e-07 -1.0404811632100578e-06 0 -9.959950466392861e-08 -8.2155155312224394e-08 0 -1.0190764803189044e-07 -7.8059648974049315e-08 0 -1.0491713970080383e-07 -8.299874649883678e-08 0 -1.0067582592343048e-07 -8.2428693628271046e-08 0 -1.0061996271199824e-07 -8.3420086577714014e-08 0 -8.99536478449652e-07 -4.4976823922482632e-07 0 -8.0559820692396717e-08 -7.876929361584339e-08 0 -7.9985319031433264e-08 -7.934379527680188e-08 0 -4.471627672361888e-07 -8.9432553447237761e-07 0 -1.0546094144236808e-07 -7.8431605666607565e-08 0 -4.9893033151007712e-07 -9.9786066302015508e-07 0 -8.7598407372911968e-08 -8.2165429417351294e-08 0 -8.5853929695678883e-08 -8.5565722335253216e-08 0 -8.6084599586412894e-08 -8.5792855746892116e-08 0 -8.2768567405334047e-08 -8.6853314474350975e-08 0 -9.9556186463304001e-07 -4.9778093231651937e-07 0 -7.8586931208238142e-08 -1.0477362673095616e-07 0 -7.8298904185955378e-08 -1.0198475641381604e-07 0 -8.1975750913635398e-08 -9.9398849603426229e-08 0 -8.6216074147127174e-08 -9.058121904586634e-08 0 -1.0388142993080773e-06 -5.1940714965403866e-07 0 -8.3812297372971611e-08 -9.8918029121157792e-08 0 -8.821017607214088e-08 -9.5455701624024848e-08 0 -1.0620121903124267e-06 -5.3100609515621359e-07 0 -8.343958852530789e-08 -1.0061564245108122e-07 0 -8.2184686596157263e-08 -1.0054564003176373e-07 0 -8.4918548648659825e-08 -1.0205863023373264e-07 0 -8.7404953073744299e-08 -1.0113747949465858e-07 0 -9.0101474347445099e-08 -1.0310026401427287e-07 0 -8.7391902869229083e-08 -1.0831023582808231e-07 0 -9.06986731077398e-08 -1.067256680873483e-07 0 -8.2487399954871512e-08 -1.0517994018628221e-07 0 -8.3103910640591144e-08 -1.0489559223417318e-07 0 -9.6794499635151583e-08 -1.0317107846626482e-07 0 -9.6889754909160151e-08 -1.0307436112796455e-07 0 -9.3013683605787247e-08 -1.012919300776083e-07 0 -9.2455717925650757e-08 -1.0807576176296357e-07 0 -9.8422450931453304e-08 -1.0664945577656612e-07 0 -9.8671177505665187e-08 -1.1320798325715868e-07 0 -9.6688618042427818e-08 -1.0975701618263947e-07 0 -9.2717575245966063e-08 -1.1246202932660083e-07 0 -9.6043856998403244e-08 -1.1810789196465776e-07 0 -9.801332518798494e-08 -1.1448654550569097e-07 0 -8.3257842242445843e-08 -1.1500191040908007e-07 0 -7.2924921430476455e-08 -1.0877815868495539e-07 0 -9.0869427438655062e-08 -1.1417466591170558e-07 0 -8.896166172890662e-08 -1.1273123667590593e-07 0 -8.7599882683855424e-08 -1.1836377019298768e-07 0 -9.402947056004565e-08 -1.2799627709176345e-07 0 -7.6820776910932535e-08 -1.2559881498352061e-07 0 -7.6707376871232626e-08 -1.2573800858367581e-07 0 -1.3741481582256355e-07 -9.0752733234137353e-08 0 -7.7027635639745343e-07 -1.5405527127949069e-06 0 -9.8110140881558845e-08 -1.2052592206455544e-07 0 -6.9835460619488887e-07 -1.3967092123897777e-06 0 -1.1491064533411109e-07 -1.117129283346981e-07 0 -1.1706077591422494e-07 -1.0897528444384093e-07 0 -1.1890470073780346e-07 -9.6999064472502071e-08 0 -1.2649741230958711e-07 -1.0982194994815982e-07 0 -9.9562453140975165e-08 -1.1661280722761411e-07 0 -9.956745292796175e-08 -1.1646780897574345e-07 0 -9.6671131772204169e-08 -1.166787022041468e-07 0 -9.9045047787273009e-08 -1.2062621766339369e-07 0 -1.0958625902885749e-07 -1.1042995753505019e-07 0 -1.0956912861465685e-07 -1.1046270125264444e-07 0 -6.729155257719828e-07 -1.3458310515439656e-06 0 -1.0118813518292733e-07 -1.1699269967680681e-07 0 -1.0003655643514442e-07 -1.1613870393343899e-07 0 -1.0296039037435022e-07 -1.0978456818851607e-07 0 -6.6049109528426739e-07 -1.3209821905685348e-06 0 -1.037308101482583e-07 -1.0821835213499647e-07 0 -1.0178783008970586e-07 -1.0506101599337971e-07 0 -1.0768137699037007e-07 -1.0593611571234605e-07 0 -1.073396051930446e-07 -1.0680820633033626e-07 0 -1.0901665204948227e-07 -1.0265095194657258e-07 0 -1.0606833661513157e-07 -1.0099547231664781e-07 0 -1.0346126318313369e-07 -1.0291004104374505e-07 0 -1.0272421654876762e-07 -1.0213919117240561e-07 0 -1.1751245677797045e-07 -1.0196642328420585e-07 0 -1.1201306602517177e-07 -1.0414825020326196e-07 0 -1.1375356376212107e-07 -1.0552675336694269e-07 0 -1.120787866197205e-07 -1.0077933976527959e-07 0 -1.1178526681224667e-07 -1.0059486824863643e-07 0 -1.1113976007356851e-07 -9.8569358213877344e-08 0 -1.130648697469645e-07 -9.9861737371711578e-08 0 -1.1310219274706695e-07 -9.8429053592922105e-08 0 -1.1586515715988111e-07 -9.638449806575729e-08 0 -1.0903539955295828e-07 -9.4565791464985444e-08 0 -1.1009364152769422e-07 -9.3871427494355792e-08 0 -1.07620998355731e-07 -9.7537459207881135e-08 0 -1.1025264372412339e-07 -9.9074677893853552e-08 0 -1.056602501154145e-07 -9.8740999385674939e-08 0 -1.0283205233555359e-07 -9.7004836703323036e-08 0 -1.024093390236862e-07 -9.7403677024759232e-08 0 -1.0123286937325628e-07 -9.4126713950594965e-08 0 -1.0636130227515681e-07 -9.2824936194876994e-08 0 -1.0131129772455028e-07 -8.7587661666492313e-08 0 -1.0322100411797672e-07 -9.0919094741149718e-08 0 -1.0235147594280199e-07 -8.5731574434112465e-08 0 -1.080145779124303e-07 -8.8137662609662905e-08 0 -1.049658706687207e-07 -8.2882865337799481e-08 0 -1.1414126403578053e-07 -8.2488234606874032e-08 0 -1.0809371210687438e-07 -7.3242955608689455e-08 0 -1.3239146689848441e-07 -7.3724063570421496e-08 0 -1.2285602330704087e-07 -9.0426332468803691e-08 0 -1.1606772392792343e-07 -9.7234030850550846e-08 0 -1.2138988374569533e-07 -8.7485841381752454e-08 0 -1.0891269515993763e-07 -8.7271141465473903e-08 0 -1.117105061031795e-07 -8.9571875645107677e-08 0 
</DataArray>
</CellData>
</Piece>
</UnstructuredGrid>
</VTKFile>
