<?xml version="1.0"?>
<VTKFile type="UnstructuredGrid" version="0.1" byte_order="LittleEndian">
<UnstructuredGrid>
<Piece NumberOfPoints="441" NumberOfCells="800">
<Points>
<DataArray type="Float64" NumberOfComponents="3" format="ascii">
1.000000000000000e+00 0.000000000000000e+00 0.000000000000000e+00 1.000000000000000e+00 1.000000000000000e+00 0.000000000000000e+00 0.000000000000000e+00 0.000000000000000e+00 0.000000000000000e+00 0.000000000000000e+00 1.000000000000000e+00 0.000000000000000e+00 1.000000000000000e+00 4.999999999989965e-02 0.000000000000000e+00 1.000000000000000e+00 9.999999999981467e-02 0.000000000000000e+00 1.000000000000000e+00 1.499999999997036e-01 0.000000000000000e+00 1.000000000000000e+00 1.999999999995579e-01 0.000000000000000e+00 1.000000000000000e+00 2.499999999994121e-01 0.000000000000000e+00 1.000000000000000e+00 2.999999999992664e-01 0.000000000000000e+00 1.000000000000000e+00 3.499999999991206e-01 0.000000000000000e+00 1.000000000000000e+00 3.999999999989749e-01 0.000000000000000e+00 1.000000000000000e+00 4.499999999988292e-01 0.000000000000000e+00 1.000000000000000e+00 4.999999999986943e-01 0.000000000000000e+00 1.000000000000000e+00 5.499999999988151e-01 0.000000000000000e+00 1.000000000000000e+00 5.999999999989468e-01 0.000000000000000e+00 1.000000000000000e+00 6.499999999990784e-01 0.000000000000000e+00 1.000000000000000e+00 6.999999999992100e-01 0.000000000000000e+00 1.000000000000000e+00 7.499999999993417e-01 0.000000000000000e+00 1.000000000000000e+00 7.999999999994734e-01 0.000000000000000e+00 1.000000000000000e+00 8.499999999996051e-01 0.000000000000000e+00 1.000000000000000e+00 8.999999999997368e-01 0.000000000000000e+00 1.000000000000000e+00 9.499999999998684e-01 0.000000000000000e+00 0.000000000000000e+00 4.999999999989965e-02 0.000000000000000e+00 0.000000000000000e+00 9.999999999981467e-02 0.000000000000000e+00 0.000000000000000e+00 1.499999999997036e-01 0.000000000000000e+00 0.000000000000000e+00 1.999999999995579e-01 0.000000000000000e+00 0.000000000000000e+00 2.499999999994121e-01 0.000000000000000e+00 0.000000000000000e+00 2.999999999992664e-01 0.000000000000000e+00 0.000000000000000e+00 3.499999999991206e-01 0.000000000000000e+00 0.000000000000000e+00 3.999999999989749e-01 0.000000000000000e+00 0.000000000000000e+00 4.499999999988292e-01 0.000000000000000e+00 0.000000000000000e+00 4.999999999986943e-01 0.000000000000000e+00 0.000000000000000e+00 5.499999999988151e-01 0.000000000000000e+00 0.000000000000000e+00 5.999999999989468e-01 0.000000000000000e+00 0.000000000000000e+00 6.499999999990784e-01 0.000000000000000e+00 0.000000000000000e+00 6.999999999992100e-01 0.000000000000000e+00 0.000000000000000e+00 7.499999999993417e-01 0.000000000000000e+00 0.000000000000000e+00 7.999999999994734e-01 0.000000000000000e+00 0.000000000000000e+00 8.499999999996051e-01 0.000000000000000e+00 0.000000000000000e+00 8.999999999997368e-01 0.000000000000000e+00 0.000000000000000e+00 9.499999999998684e-01 0.000000000000000e+00 9.500000000000000e-01 0.000000000000000e+00 0.000000000000000e+00 9.000000000000000e-01 0.000000000000000e+00 0.000000000000000e+00 8.500000000000000e-01 0.000000000000000e+00 0.000000000000000e+00 8.000000000000000e-01 0.000000000000000e+00 0.000000000000000e+00 7.500000000000000e-01 0.000000000000000e+00 0.000000000000000e+00 7.000000000000000e-01 0.000000000000000e+00 0.000000000000000e+00 6.500000000000000e-01 0.000000000000000e+00 0.000000000000000e+00 6.000000000000000e-01 0.000000000000000e+00 0.000000000000000e+00 5.500000000000000e-01 0.000000000000000e+00 0.000000000000000e+00 5.000000000000000e-01 0.000000000000000e+00 0.000000000000000e+00 4.500000000000000e-01 0.000000000000000e+00 0.000000000000000e+00 4.000000000000000e-01 0.000000000000000e+00 0.000000000000000e+00 3.500000000000000e-01 0.000000000000000e+00 0.000000000000000e+00 3.000000000000000e-01 0.000000000000000e+00 0.000000000000000e+00 2.500000000000000e-01 0.000000000000000e+00 0.000000000000000e+00 2.000000000000000e-01 0.000000000000000e+00 0.000000000000000e+00 1.500000000000000e-01 0.000000000000000e+00 0.000000000000000e+00 9.999999999999998e-02 0.000000000000000e+00 0.000000000000000e+00 5.000000000000004e-02 0.000000000000000e+00 0.000000000000000e+00 9.500000000000000e-01 1.000000000000000e+00 0.000000000000000e+00 9.000000000000000e-01 1.000000000000000e+00 0.000000000000000e+00 8.500000000000000e-01 1.000000000000000e+00 0.000000000000000e+00 8.000000000000000e-01 1.000000000000000e+00 0.000000000000000e+00 7.500000000000000e-01 1.000000000000000e+00 0.000000000000000e+00 7.000000000000000e-01 1.000000000000000e+00 0.000000000000000e+00 6.500000000000000e-01 1.000000000000000e+00 0.000000000000000e+00 6.000000000000000e-01 1.000000000000000e+00 0.000000000000000e+00 5.500000000000000e-01 1.000000000000000e+00 0.000000000000000e+00 5.000000000000000e-01 1.000000000000000e+00 0.000000000000000e+00 4.500000000000000e-01 1.000000000000000e+00 0.000000000000000e+00 4.000000000000000e-01 1.000000000000000e+00 0.000000000000000e+00 3.500000000000000e-01 1.000000000000000e+00 0.000000000000000e+00 3.000000000000000e-01 1.000000000000000e+00 0.000000000000000e+00 2.500000000000000e-01 1.000000000000000e+00 0.000000000000000e+00 2.000000000000000e-01 1.000000000000000e+00 0.000000000000000e+00 1.500000000000000e-01 1.000000000000000e+00 0.000000000000000e+00 9.999999999999998e-02 1.000000000000000e+00 0.000000000000000e+00 5.000000000000004e-02 1.000000000000000e+00 0.000000000000000e+00 9.500000000000000e-01 4.999999999989965e-02 0.000000000000000e+00 9.000000000000000e-01 4.999999999989965e-02 0.000000000000000e+00 8.500000000000000e-01 4.999999999989965e-02 0.000000000000000e+00 8.000000000000000e-01 4.999999999989965e-02 0.000000000000000e+00 7.500000000000000e-01 4.999999999989965e-02 0.000000000000000e+00 7.000000000000000e-01 4.999999999989965e-02 0.000000000000000e+00 6.500000000000000e-01 4.999999999989965e-02 0.000000000000000e+00 6.000000000000000e-01 4.999999999989965e-02 0.000000000000000e+00 5.500000000000000e-01 4.999999999989965e-02 0.000000000000000e+00 5.000000000000000e-01 4.999999999989965e-02 0.000000000000000e+00 4.500000000000000e-01 4.999999999989965e-02 0.000000000000000e+00 4.000000000000000e-01 4.999999999989965e-02 0.000000000000000e+00 3.500000000000000e-01 4.999999999989965e-02 0.000000000000000e+00 3.000000000000000e-01 4.999999999989965e-02 0.000000000000000e+00 2.500000000000000e-01 4.999999999989965e-02 0.000000000000000e+00 2.000000000000000e-01 4.999999999989965e-02 0.000000000000000e+00 1.500000000000000e-01 4.999999999989965e-02 0.000000000000000e+00 9.999999999999998e-02 4.999999999989965e-02 0.000000000000000e+00 5.000000000000004e-02 4.999999999989965e-02 0.000000000000000e+00 9.500000000000000e-01 9.999999999981467e-02 0.000000000000000e+00 9.000000000000000e-01 9.999999999981467e-02 0.000000000000000e+00 8.500000000000000e-01 9.999999999981467e-02 0.000000000000000e+00 8.000000000000000e-01 9.999999999981467e-02 0.000000000000000e+00 7.500000000000000e-01 9.999999999981467e-02 0.000000000000000e+00 7.000000000000000e-01 9.999999999981467e-02 0.000000000000000e+00 6.500000000000000e-01 9.999999999981467e-02 0.000000000000000e+00 6.000000000000000e-01 9.999999999981467e-02 0.000000000000000e+00 5.500000000000000e-01 9.999999999981467e-02 0.000000000000000e+00 5.000000000000000e-01 9.999999999981467e-02 0.000000000000000e+00 4.500000000000000e-01 9.999999999981467e-02 0.000000000000000e+00 4.000000000000000e-01 9.999999999981467e-02 0.000000000000000e+00 3.500000000000000e-01 9.999999999981467e-02 0.000000000000000e+00 3.000000000000000e-01 9.999999999981467e-02 0.000000000000000e+00 2.500000000000000e-01 9.999999999981467e-02 0.000000000000000e+00 2.000000000000000e-01 9.999999999981467e-02 0.000000000000000e+00 1.500000000000000e-01 9.999999999981467e-02 0.000000000000000e+00 9.999999999999998e-02 9.999999999981467e-02 0.000000000000000e+00 5.000000000000004e-02 9.999999999981467e-02 0.000000000000000e+00 9.500000000000000e-01 1.499999999997036e-01 0.000000000000000e+00 9.000000000000000e-01 1.499999999997036e-01 0.000000000000000e+00 8.500000000000000e-01 1.499999999997036e-01 0.000000000000000e+00 8.000000000000000e-01 1.499999999997036e-01 0.000000000000000e+00 7.500000000000000e-01 1.499999999997036e-01 0.000000000000000e+00 7.000000000000000e-01 1.499999999997036e-01 0.000000000000000e+00 6.500000000000000e-01 1.499999999997036e-01 0.000000000000000e+00 6.000000000000000e-01 1.499999999997036e-01 0.000000000000000e+00 5.500000000000000e-01 1.499999999997036e-01 0.000000000000000e+00 5.000000000000000e-01 1.499999999997036e-01 0.000000000000000e+00 4.500000000000000e-01 1.499999999997036e-01 0.000000000000000e+00 4.000000000000000e-01 1.499999999997036e-01 0.000000000000000e+00 3.500000000000000e-01 1.499999999997036e-01 0.000000000000000e+00 3.000000000000000e-01 1.499999999997036e-01 0.000000000000000e+00 2.500000000000000e-01 1.499999999997036e-01 0.000000000000000e+00 2.000000000000000e-01 1.499999999997036e-01 0.000000000000000e+00 1.500000000000000e-01 1.499999999997036e-01 0.000000000000000e+00 9.999999999999998e-02 1.499999999997036e-01 0.000000000000000e+00 5.000000000000004e-02 1.499999999997036e-01 0.000000000000000e+00 9.500000000000000e-01 1.999999999995579e-01 0.000000000000000e+00 9.000000000000000e-01 1.999999999995579e-01 0.000000000000000e+00 8.500000000000000e-01 1.999999999995579e-01 0.000000000000000e+00 8.000000000000000e-01 1.999999999995579e-01 0.000000000000000e+00 7.500000000000000e-01 1.999999999995579e-01 0.000000000000000e+00 7.000000000000000e-01 1.999999999995579e-01 0.000000000000000e+00 6.500000000000000e-01 1.999999999995579e-01 0.000000000000000e+00 6.000000000000000e-01 1.999999999995579e-01 0.000000000000000e+00 5.500000000000000e-01 1.999999999995579e-01 0.000000000000000e+00 5.000000000000000e-01 1.999999999995579e-01 0.000000000000000e+00 4.500000000000000e-01 1.999999999995579e-01 0.00000000000000
[...]
<CellData Scalars="pressure_p0," Vectors="velocity_p0," Tensors="">
<DataArray type="Float64" Name="pressure_p0" format="ascii">
0.000000000000000e+00 0.000000000000000e+00 0.000000000000000e+00 0.000000000000000e+00 0.000000000000000e+00 0.000000000000000e+00 0.000000000000000e+00 0.000000000000000e+00 0.000000000000000e+00 0.000000000000000e+00 0.000000000000000e+00 0.000000000000000e+00 0.000000000000000e+00 0.000000000000000e+00 0.000000000000000e+00 0.000000000000000e+00 0.000000000000000e+00 0.000000000000000e+00 0.000000000000000e+00 0.000000000000000e+00 0.000000000000000e+00 0.000000000000000e+00 0.000000000000000e+00 0.000000000000000e+00 0.000000000000000e+00 0.000000000000000e+00 0.000000000000000e+00 0.000000000000000e+00 0.000000000000000e+00 0.000000000000000e+00 0.000000000000000e+00 0.000000000000000e+00 0.000000000000000e+00 0.000000000000000e+00 0.000000000000000e+00 0.000000000000000e+00 0.000000000000000e+00 0.000000000000000e+00 0.000000000000000e+00 0.000000000000000e+00 0.000000000000000e+00 0.000000000000000e+00 0.000000000000000e+00 0.000000000000000e+00 0.000000000000000e+00 0.000000000000000e+00 0.000000000000000e+00 0.000000000000000e+00 0.000000000000000e+00 0.000000000000000e+00 0.000000000000000e+00 0.000000000000000e+00 0.000000000000000e+00 0.000000000000000e+00 0.000000000000000e+00 0.000000000000000e+00 0.000000000000000e+00 0.000000000000000e+00 0.000000000000000e+00 0.000000000000000e+00 0.000000000000000e+00 0.000000000000000e+00 0.000000000000000e+00 0.000000000000000e+00 0.000000000000000e+00 0.000000000000000e+00 0.000000000000000e+00 0.000000000000000e+00 0.000000000000000e+00 0.000000000000000e+00 0.000000000000000e+00 0.000000000000000e+00 0.000000000000000e+00 0.000000000000000e+00 0.000000000000000e+00 0.000000000000000e+00 0.000000000000000e+00 0.000000000000000e+00 0.000000000000000e+00 0.000000000000000e+00 0.000000000000000e+00 0.000000000000000e+00 0.000000000000000e+00 0.000000000000000e+00 0.000000000000000e+00 0.000000000000000e+00 0.000000000000000e+00 0.000000000000000e+00 0.000000000000000e+00 0.000000000000000e+00 0.000000000000000e+00 0.000000000000000e+00 0.000000000000000e+00 0.000000000000000e+00 0.000000000000000e+00 0.000000000000000e+00 0.000000000000000e+00 0.000000000000000e+00 0.000000000000000e+00 0.000000000000000e+00 0.000000000000000e+00 0.000000000000000e+00 0.000000000000000e+00 0.000000000000000e+00 0.000000000000000e+00 0.000000000000000e+00 0.000000000000000e+00 0.000000000000000e+00 0.000000000000000e+00 0.000000000000000e+00 0.000000000000000e+00 0.000000000000000e+00 0.000000000000000e+00 0.000000000000000e+00 0.000000000000000e+00 0.000000000000000e+00 0.000000000000000e+00 0.000000000000000e+00 0.000000000000000e+00 0.000000000000000e+00 0.000000000000000e+00 0.000000000000000e+00 0.000000000000000e+00 0.000000000000000e+00 0.000000000000000e+00 0.000000000000000e+00 0.000000000000000e+00 0.000000000000000e+00 0.000000000000000e+00 0.000000000000000e+00 0.000000000000000e+00 0.000000000000000e+00 0.000000000000000e+00 0.000000000000000e+00 0.000000000000000e+00 0.000000000000000e+00 0.000000000000000e+00 0.000000000000000e+00 0.000000000000000e+00 0.000000000000000e+00 0.000000000000000e+00 0.000000000000000e+00 0.000000000000000e+00 0.000000000000000e+00 0.000000000000000e+00 0.000000000000000e+00 0.000000000000000e+00 0.000000000000000e+00 0.000000000000000e+00 0.000000000000000e+00 0.000000000000000e+00 0.000000000000000e+00 0.000000000000000e+00 0.000000000000000e+00 0.000000000000000e+00 0.000000000000000e+00 0.000000000000000e+00 0.000000000000000e+00 0.000000000000000e+00 0.000000000000000e+00 0.000000000000000e+00 0.000000000000000e+00 0.000000000000000e+00 0.000000000000000e+00 0.000000000000000e+00 0.000000000000000e+00 0.000000000000000e+00 0.000000000000000e+00 0.000000000000000e+00 0.000000000000000e+00 0.000000000000000e+00 0.000000000000000e+00 0.000000000000000e+00 0.000000000000000e+00 0.000000000000000e+00 0.000000000000000e+00 0.000000000000000e+00 0.000000000000000e+00 0.000000000000000e+00 0.000000000000000e+00 0.000000000000000e+00 0.000000000000000e+00 0.000000000000000e+00 0.000000000000000e+00 0.000000000000000e+00 0.000000000000000e+00 0.000000000000000e+00 0.000000000000000e+00 0.000000000000000e+00 0.000000000000000e+00 0.000000000000000e+00 0.000000000000000e+00 0.000000000000000e+00 0.000000000000000e+00 0.000000000000000e+00 0.000000000000000e+00 0.000000000000000e+00 0.000000000000000e+00 0.000000000000000e+00 0.000000000000000e+00 0.000000000000000e+00 0.000000000000000e+00 0.000000000000000e+00 0.000000000000000e+00 0.000000000000000e+00 0.000000000000000e+00 0.000000000000000e+00 0.000000000000000e+00 0.000000000000000e+00 0.000000000000000e+00 0.000000000000000e+00 0.000000000000000e+00 0.000000000000000e+00 0.000000000000000e+00 0.000000000000000e+00 0.000000000000000e+00 0.000000000000000e+00 0.000000000000000e+00 0.000000000000000e+00 0.000000000000000e+00 0.000000000000000e+00 0.000000000000000e+00 0.000000000000000e+00 0.000000000000000e+00 0.000000000000000e+00 0.000000000000000e+00 0.000000000000000e+00 0.000000000000000e+00 0.000000000000000e+00 0.000000000000000e+00 0.000000000000000e+00 0.000000000000000e+00 0.000000000000000e+00 0.000000000000000e+00 0.000000000000000e+00 0.000000000000000e+00 0.000000000000000e+00 0.000000000000000e+00 0.000000000000000e+00 0.000000000000000e+00 0.000000000000000e+00 0.000000000000000e+00 0.000000000000000e+00 0.000000000000000e+00 0.000000000000000e+00 0.000000000000000e+00 0.000000000000000e+00 0.000000000000000e+00 0.000000000000000e+00 0.000000000000000e+00 0.000000000000000e+00 0.000000000000000e+00 0.000000000000000e+00 0.000000000000000e+00 0.000000000000000e+00 0.000000000000000e+00 0.000000000000000e+00 0.000000000000000e+00 0.000000000000000e+00 0.000000000000000e+00 0.000000000000000e+00 0.000000000000000e+00 0.000000000000000e+00 0.000000000000000e+00 0.000000000000000e+00 0.000000000000000e+00 0.000000000000000e+00 0.000000000000000e+00 0.000000000000000e+00 0.000000000000000e+00 0.000000000000000e+00 0.000000000000000e+00 0.000000000000000e+00 0.000000000000000e+00 0.000000000000000e+00 0.000000000000000e+00 0.000000000000000e+00 0.000000000000000e+00 0.000000000000000e+00 0.000000000000000e+00 0.000000000000000e+00 0.000000000000000e+00 0.000000000000000e+00 0.000000000000000e+00 0.000000000000000e+00 0.000000000000000e+00 0.000000000000000e+00 0.000000000000000e+00 0.000000000000000e+00 0.000000000000000e+00 0.000000000000000e+00 0.000000000000000e+00 0.000000000000000e+00 0.000000000000000e+00 0.000000000000000e+00 0.000000000000000e+00 0.000000000000000e+00 0.000000000000000e+00 0.000000000000000e+00 0.000000000000000e+00 0.000000000000000e+00 0.000000000000000e+00 0.000000000000000e+00 0.000000000000000e+00 0.000000000000000e+00 0.000000000000000e+00 0.000000000000000e+00 0.000000000000000e+00 0.000000000000000e+00 0.000000000000000e+00 0.000000000000000e+00 0.000000000000000e+00 0.000000000000000e+00 0.000000000000000e+00 0.000000000000000e+00 0.000000000000000e+00 0.000000000000000e+00 0.000000000000000e+00 0.000000000000000e+00 0.000000000000000e+00 0.000000000000000e+00 0.000000000000000e+00 0.000000000000000e+00 0.000000000000000e+00 0.000000000000000e+00 0.000000000000000e+00 0.000000000000000e+00 0.000000000000000e+00 0.000000000000000e+00 0.000000000000000e+00 0.000000000000000e+00 0.000000000000000e+00 0.000000000000000e+00 0.000000000000000e+00 0.000000000000000e+00 0.000000000000000e+00 0.000000000000000e+00 0.000000000000000e+00 0.000000000000000e+00 0.000000000000000e+00 0.000000000000000e+00 0.000000000000000e+00 0.000000000000000e+00 0.000000000000000e+00 0.000000000000000e+00 0.000000000000000e+00 0.000000000000000e+00 0.000000000000000e+00 0.000000000000000e+00 0.000000000000000e+00 0.000000000000000e+00 0.000000000000000e+00 0.000000000000000e+00 0.000000000000000e+00 0.000000000000000e+00 0.000000000000000e+00 0.000000000000000e+00 0.000000000000000e+00 0.000000000000000e+00 0.000000000000000e+00 0.000000000000000e+00 0.000000000000000e+00 0.000000000000000e+00 0.000000000000000e+00 0.000000000000000e+00 0.000000000000000e+00 0.000000000000000e+00 0.000000000000000e+00 0.000000000000000e+00 0.000000000000000e+00 0.000000000000000e+00 0.000000000000000e+00 0.000000000000000e+00 0.000000000000000e+00 0.000000000000000e+00 0.000000000000000e+00 0.000000000000000e+00 0.000000000000000e+00 0.000000000000000e+00 0.000000000000000e+00 0.000000000000000e+00 0.000000000000000e+00 0.000000000000000e+00 0.000000000000000e+00 0.000000000000000e+00 0.000000000000000e+00 0.000000000000000e+00 0.000000000000000e+00 0.000000000000000e+00 0.000000000000000e+00 0.000000000000000e+00 0.000000000000000e+00 0.000000000000000e+00 0.000000000000000e+00 0.000000000000000e+00 0.000000000000000e+00 0.000000000000000e+00 0.000000000000000e+00 0.000000000000000e+00 0.000000000000000e+00 0.000000000000000e+00 0.000000000000000e+00 0.000000000000000e+00 0.000000000000000e+00 0.000000000000000e+00 0.000000000000000e+00 0.000000000000000e+00 0.000000000000000e+00 0.000000000000000e+00 0.000000000000000e+00 0.000000000000000e+00 0.000000000000000e+00 0.000000000000000e+00 0.000000000000000e+00 0.000000000000000e+00 0.000000000000000e+00 0.000000000000000e+00 0.000000000000000e+00 0.000000000000000e+00 0.000000000000000e+00 0.000000000000000e+00 0.000000000000000e+00 0.000000000000000e+00 0.000000000000000e+00 0.000000000000000e+00 0.000000000000000e+00 0.000000000000000e+00 0.000000000000000e+00 0.000000000000000e+00 0.000000000000000e+00 0.000000000000000e+00 0.000000000000000e+00 0.000000000000000e+00 0.000000000000000e+00 0.000000000000000e+00 0.000000000000000e+00 0.000000000000000e+00 0.000000000000000e+00 0.000000000000000e+00 0.000000000000000e+00 0.000000000000000e+00 0.000000000000000e+00 0.000000000000000e+00 0.000000000000000e+00 0.000000000000000e+00 0.000000000000000e+00 0.000000000000000e+00 0.000000000000000e+00 0.000000000000000e+00 0.000000000000000e+00 0.000000000000000e+00 0.000000000000000e+00 0.000000000000000e+00 0.000000000000000e+00 0.000000000000000e+00 0.000000000000000e+00 0.000000000000000e+00 0.000000000000000e+00 0.000000000000000e+00 0.000000000000000e+00 0.000000000000000e+00 0.000000000000000e+00 0.000000000000000e+00 0.000000000000000e+00 0.000000000000000e+00 0.000000000000000e+00 0.000000000000000e+00 0.000000000000000e+00 0.000000000000000e+00 0.000000000000000e+00 0.000000000000000e+00 0.000000000000000e+00 0.000000000000000e+00 0.000000000000000e+00 0.000000000000000e+00 0.000000000000000e+00 0.000000000000000e+00 0.000000000000000e+00 0.000000000000000e+00 0.000000000000000e+00 0.000000000000000e+00 0.000000000000000e+00 0.000000000000000e+00 0.000000000000000e+00 0.000000000000000e+00 0.000000000000000e+00 0.000000000000000e+00 0.000000000000000e+00 0.000000000000000e+00 0.000000000000000e+00 0.000000000000000e+00 0.000000000000000e+00 0.000000000000000e+00 0.000000000000000e+00 0.000000000000000e+00 0.000000000000000e+00 0.000000000000000e+00 0.000000000000000e+00 0.000000000000000e+00 0.000000000000000e+00 0.000000000000000e+00 0.000000000000000e+00 0.000000000000000e+00 0.000000000000000e+00 0.000000000000000e+00 0.000000000000000e+00 0.000000000000000e+00 0.000000000000000e+00 0.000000000000000e+00 0.000000000000000e+00 0.000000000000000e+00 0.000000000000000e+00 0.000000000000000e+00 0.000000000000000e+00 0.000000000000000e+00 0.000000000000000e+00 0.000000000000000e+00 0.000000000000000e+00 0.000000000000000e+00 0.000000000000000e+00 0.000000000000000e+00 0.000000000000000e+00 0.000000000000000e+00 0.000000000000000e+00 0.000000000000000e+00 0.000000000000000e+00 0.000000000000000e+00 0.000000000000000e+00 0.000000000000000e+00 0.000000000000000e+00 0.000000000000000e+00 0.000000000000000e+00 0.000000000000000e+00 0.000000000000000e+00 0.000000000000000e+00 0.000000000000000e+00 0.000000000000000e+00 0.000000000000000e+00 0.000000000000000e+00 0.000000000000000e+00 0.000000000000000e+00 0.000000000000000e+00 0.000000000000000e+00 0.000000000000000e+00 0.000000000000000e+00 0.000000000000000e+00 0.000000000000000e+00 0.000000000000000e+00 0.000000000000000e+00 0.000000000000000e+00 0.000000000000000e+00 0.000000000000000e+00 0.000000000000000e+00 0.000000000000000e+00 0.000000000000000e+00 0.000000000000000e+00 0.000000000000000e+00 0.000000000000000e+00 0.000000000000000e+00 0.000000000000000e+00 0.000000000000000e+00 0.000000000000000e+00 0.000000000000000e+00 0.000000000000000e+00 0.000000000000000e+00 0.000000000000000e+00 0.000000000000000e+00 0.000000000000000e+00 0.000000000000000e+00 0.000000000000000e+00 0.000000000000000e+00 0.000000000000000e+00 0.000000000000000e+00 0.000000000000000e+00 0.000000000000000e+00 0.000000000000000e+00 0.000000000000000e+00 0.000000000000000e+00 0.000000000000000e+00 0.000000000000000e+00 0.000000000000000e+00 0.000000000000000e+00 0.000000000000000e+00 0.000000000000000e+00 0.000000000000000e+00 0.000000000000000e+00 0.000000000000000e+00 0.000000000000000e+00 0.000000000000000e+00 0.000000000000000e+00 0.000000000000000e+00 0.000000000000000e+00 0.000000000000000e+00 0.000000000000000e+00 0.000000000000000e+00 0.000000000000000e+00 0.000000000000000e+00 0.000000000000000e+00 0.000000000000000e+00 0.000000000000000e+00 0.000000000000000e+00 0.000000000000000e+00 0.000000000000000e+00 0.000000000000000e+00 0.000000000000000e+00 0.000000000000000e+00 0.000000000000000e+00 0.000000000000000e+00 0.000000000000000e+00 0.000000000000000e+00 0.000000000000000e+00 0.000000000000000e+00 0.000000000000000e+00 0.000000000000000e+00 0.000000000000000e+00 0.000000000000000e+00 0.000000000000000e+00 0.000000000000000e+00 0.000000000000000e+00 0.000000000000000e+00 0.000000000000000e+00 0.000000000000000e+00 0.000000000000000e+00 0.000000000000000e+00 0.000000000000000e+00 0.000000000000000e+00 0.000000000000000e+00 0.000000000000000e+00 0.000000000000000e+00 0.000000000000000e+00 0.000000000000000e+00 0.000000000000000e+00 0.000000000000000e+00 0.000000000000000e+00 0.000000000000000e+00 0.000000000000000e+00 0.000000000000000e+00 0.000000000000000e+00 0.000000000000000e+00 0.000000000000000e+00 0.000000000000000e+00 0.000000000000000e+00 0.000000000000000e+00 0.000000000000000e+00 0.000000000000000e+00 0.000000000000000e+00 0.000000000000000e+00 0.000000000000000e+00 0.000000000000000e+00 0.000000000000000e+00 0.000000000000000e+00 0.000000000000000e+00 0.000000000000000e+00 0.000000000000000e+00 0.000000000000000e+00 0.000000000000000e+00 0.000000000000000e+00 0.000000000000000e+00 0.000000000000000e+00 0.000000000000000e+00 0.000000000000000e+00 0.000000000000000e+00 0.000000000000000e+00 0.000000000000000e+00 0.000000000000000e+00 0.000000000000000e+00 0.000000000000000e+00 0.000000000000000e+00 0.000000000000000e+00 0.000000000000000e+00 0.000000000000000e+00 0.000000000000000e+00 0.000000000000000e+00 0.000000000000000e+00 0.000000000000000e+00 0.000000000000000e+00 0.000000000000000e+00 0.000000000000000e+00 0.000000000000000e+00 0.000000000000000e+00 0.000000000000000e+00 0.000000000000000e+00 0.000000000000000e+00 0.000000000000000e+00 0.000000000000000e+00 0.000000000000000e+00 0.000000000000000e+00 0.000000000000000e+00 0.000000000000000e+00 0.000000000000000e+00 0.000000000000000e+00 0.000000000000000e+00 0.000000000000000e+00 0.000000000000000e+00 0.000000000000000e+00 0.000000000000000e+00 0.000000000000000e+00 0.000000000000000e+00 0.000000000000000e+00 0.000000000000000e+00 0.000000000000000e+00 0.000000000000000e+00 0.000000000000000e+00 0.000000000000000e+00 0.000000000000000e+00 0.000000000000000e+00 0.000000000000000e+00 0.000000000000000e+00 0.000000000000000e+00 0.000000000000000e+00 0.000000000000000e+00 0.000000000000000e+00 0.000000000000000e+00 0.000000000000000e+00 0.000000000000000e+00 0.000000000000000e+00 0.000000000000000e+00 0.000000000000000e+00 0.000000000000000e+00 0.000000000000000e+00 0.000000000000000e+00 0.000000000000000e+00 0.000000000000000e+00 0.000000000000000e+00 0.000000000000000e+00 0.000000000000000e+00 0.000000000000000e+00 0.000000000000000e+00 0.000000000000000e+00 0.000000000000000e+00 0.000000000000000e+00 0.000000000000000e+00 0.000000000000000e+00 0.000000000000000e+00 0.000000000000000e+00 0.000000000000000e+00 0.000000000000000e+00 0.000000000000000e+00 0.000000000000000e+00 0.000000000000000e+00 0.000000000000000e+00 0.000000000000000e+00 0.000000000000000e+00 0.000000000000000e+00 0.000000000000000e+00 0.000000000000000e+00 0.000000000000000e+00 0.000000000000000e+00 0.000000000000000e+00 0.000000000000000e+00 0.000000000000000e+00 0.000000000000000e+00 0.000000000000000e+00 0.000000000000000e+00 0.000000000000000e+00 0.000000000000000e+00 0.000000000000000e+00 0.000000000000000e+00 0.000000000000000e+00 0.000000000000000e+00 0.000000000000000e+00 0.000000000000000e+00 0.000000000000000e+00 0.000000000000000e+00 0.000000000000000e+00 0.000000000000000e+00 0.000000000000000e+00 0.000000000000000e+00 0.000000000000000e+00 0.000000000000000e+00 0.000000000000000e+00 0.000000000000000e+00 0.000000000000000e+00 0.000000000000000e+00 0.000000000000000e+00 0.000000000000000e+00 0.000000000000000e+00 0.000000000000000e+00 0.000000000000000e+00 0.000000000000000e+00 0.000000000000000e+00 0.000000000000000e+00 0.000000000000000e+00 0.000000000000000e+00 0.000000000000000e+00 0.000000000000000e+00 0.000000000000000e+00 0.000000000000000e+00 0.000000000000000e+00 0.000000000000000e+00 0.000000000000000e+00 0.000000000000000e+00 0.000000000000000e+00 0.000000000000000e+00 0.000000000000000e+00 0.000000000000000e+00 0.000000000000000e+00 0.000000000000000e+00 0.000000000000000e+00 0.000000000000000e+00 
</DataArray>
<DataArray type="Float64" Name="velocity_p0" NumberOfComponents="3" format="ascii">