<?xml version="1.0"?>
<VTKFile type="UnstructuredGrid" version="0.1" byte_order="LittleEndian">
<UnstructuredGrid>
<Piece NumberOfPoints="714" NumberOfCells="1306">
<Points>
<DataArray type="Float64" NumberOfComponents="3" format="ascii">
0 0 0 0 0.10000000000041601 0 0.082799035591426873 0.082799035591510806 0 0.099999999999928008 0 0 0.19999999999983389 0 0 0.20669143849501961 0.085546078947938975 0 0.29145143692666958 0.13500804559578439 0 0.29999999999973409 0 0 0.24783073444672249 0.24783073444648379 0 0.21725788110387281 0.17316968768743621 0 0.17318221359491059 0.27409688392309489 0 0.089078158003765312 0.2493007687782936 0 0.140351188660986 0.16130415108589741 0 0 0.20000000000083221 0 0.066361468125430589 0.15903440181097661 0 0 0.30000000000124832 0 0.0632094674441709 0.3449112819864934 0 0 0.40000000000166441 0 0.083393126324559225 0.42307471369029392 0 0.13897501191807771 0.34545639364066222 0 0.070553891733833127 0.57745844360881338 0 0 0.60000000000138687 0 0 0.50000000000205869 0 0.12353277228144981 0.51086097771927308 0 0.16324260003398389 0.62262730759772122 0 0.1946526892501724 0.54636184660733622 0 0.27220668248394869 0.50912429725145214 0 0.27661118526457179 0.58730386222759956 0 0.16486701364709541 0.41592657376307979 0 0.21928696632013719 0.4676461135047027 0 0.29987747321592639 0.43430880093746571 0 0.2371857680100064 0.35865548441110112 0 0.34318159319555042 0.3314386771104964 0 0.38593969585746768 0.44843324941957241 0 0.42544665781957403 0.3726599289372452 0 0.38240158409674341 0.60644575028138747 0 0.34793494568226019 0.52426775179830853 0 0.45232393232070839 0.53082724112931345 0 0.46433624429412901 0.61260020600107856 0 0.55763912874459476 0.49619993861770217 0 0.56379254693201075 0.58472273515948836 0 0.49272830291620878 0.32528628960011152 0 0.47711113382803011 0.43513410852522788 0 0.56509579243166053 0.39588847936247551 0 0.58612580217118482 0.27813894450229909 0 0.49255105193724569 0.22337579986912359 0 0.5565830077206213 0.19095699352548859 0 0.59999999999951659 0 0 0.57505385014294308 0.072457888465917331 0 0.49999999999959438 0 0 0.50264032148191051 0.12292784096123539 0 0.43504744109702559 0.077628892606360606 0 0.39999999999966429 0 0 0.35933948296838258 0.073809900849860513 0 0.33604819894646598 0.23280286076243209 0 0.41589935411558732 0.26752529264016389 0 0.40428440976105728 0.1643886070295453 0 0 1 0 0.099999999999999645 1 0 0.14716362552681639 0.93861610753355362 0 0.19999999999999929 1 0 0.30000000000000071 1 0 0.29792158491427922 0.79537096033156995 0 0.2235202862591317 0.88873896332704583 0 0.1332109546178302 0.87498377138822103 0 0.075231054453351903 0.92314074346405706 0 0 0.89999999999958358 0 0 0.79999999999999982 0 0.074918724681641777 0.83311952320732263 0 0.1533088418661793 0.80370257472597129 0 0.089684836063650353 0.74720097194875412 0 0 0.7000000000006934 0 0.079752623936563252 0.65630726580969023 0 0.16551550920047911 0.70947866912672319 0 0.22047232289835689 0.77501739045979867 0 0.25446499951716589 0.69023946426646743 0 0.32437633398017029 0.65970549827478953 0 0.33985912385126898 0.73174041004507751 0 0.42824324229177341 0.6924957961634054 0 0.5174764925733939 0.65338828204098198 0 0.59670004617370476 0.65981579440137683 0 0.62152629835360762 0.73285157302339954 0 0.52912171753951986 0.73993242892488531 0 0.51076728641122882 0.81691863363193817 0 0.62017612851329729 0.81451802170669263 0 0.56701461556202259 0.86335846433862784 0 0.45907587517201498 0.90165918271477563 0 0.43819239467549531 0.79296936871720936 0 0.36912581253574028 0.83088590731704637 0 0.37337282601342481 0.92616598444216514 0 0.31535921456193688 0.88154045330654418 0 0.39999999999999952 1 0 0.49999999999999911 1 0 0.59999999999999964 1 0 0.5499999999999996 0.93976792513729512 0 0.70000000000000018 1 0 0.79999999999999982 1 0 0.89999999999999947 1 0 0.8793859710393791 0.93083561064221121 0 0.93540888248908083 0.88281232945237675 0 0.91372311269140116 0.80486176357476358 0 0.82192606283926717 0.87651855948129354 0 0.73937541854631073 0.9288754054780668 0 0.64588148000090029 0.91512139508160772 0 0.76404828705430583 0.78174230667165401 0 0.71722872346306721 0.85096302760907838 0 0.69085763855200755 0.76120667115691065 0 0.6754414170471299 0.67700559910555169 0 0.74547688787239819 0.70026419381674654 0 0.81910554849723838 0.69100245438023977 0 0.84477163403336131 0.77519844632340484 0 0.90192269692920224 0.70295054578552552 0 0.9749171938312049 0.68304286407835557 0 0.98491966670915287 0.745702719141624 0 1.0785590511537511 0.75365885686631617 0 1.05 0.67063679245255348 0 1.1595355377629719 0.69612720023346242 0 1.2316049928421089 0.71268197388690568 0 1.130022579458912 0.80264790230838934 0 1.2104878010462079 0.79638517641579154 0 1.246238897717278 0.90016207822659 0 1.1492841477515361 0.89495863909300122 0 1.035017143854235 0.92577305964649748 0 1.039491394416145 0.83402983011495258 0 0.99999999999999911 1 0 0.94997493298435887 0.94717135651053852 0 1.1000000000000001 1 0 1.1999999999999991 1 0 0.8520969719592798 0.19112077159544111 0 0.81051762114363357 0.25355176211442859 0 0.91043121937362004 0.26518856856736223 0 0.87151744524583186 0.1145610820769897 0 0.89999999999870417 0 0 0.8072276847200428 0.07509171132446453 0 0.79999999999899607 0 0 0.75434135135171976 0.12888799631625769 0 0.73796379772146625 0.059893436010741673 0 0.69999999999928797 0 0 0.66267222434682926 0.078497159578092612 0 0.64669101990832323 0.1799054750174742 0 0.75284581776561577 0.20455093921856349 0 0.7545004114404561 0.31098089234202853 0 0.68811979868824935 0.26566684131589419 0 0.65823561246403328 0.35502292901158627 0 0.64897033023755402 0.45530630145656431 0 0.71094001953927277 0.41472992215547572 0 0.65500944633069913 0.60601350811213128 0 0.66278242936710119 0.53985356489900171 0 0.74775703275407246 0.49059679564787018 0 0.74991769371388628 0.60451627361984739 0 0.85383906663538056 0.62014574817393608 0 0.82099888937423493 0.54529350322201742 0 0.89730215834238125 0.56352362508531118 0 0.79315209058920677 0.38802315963964318 0 0.83603391221093415 0.31708941802047369 0 0.84897848255088726 0.46000674997733482 0 0.9184189969982266 0.43608586792060411 0 0.89716106756302072 0.36571612550017968 0 0.97284972811175952 0.32057650487681749 0 0.97803218086495292 0.39957666910545891 0 1.049999999998295 0.45311778235774403 0 1.0499999999982661 0.33749999999944968 0 0.95554667482020261 0.61387123313571723 0 0.95438428234324713 0.50021891445525024 0 1.0610070115193291 0.56187728740506249 0 1.160572984923127 0.60155304747043781 0 1.1544259370261769 0.49580194535795907 0 1.11366617971111 0.39530889117858181 0 1.1787318575418491 0.43180077319900678 0 1.2482752740169289 0.44264463249545388 0 1.193211192060164 0.36417169501775798 0 1.2189485028845071 0.28846717556219142 0 1.225209211892335 0.20648826945283069 0 1.14543293599463 0.16096823716187 0 1.1317936052402791 0.27327200211975772 0 1.0273907165533489 0.25089655084417212 0 1.0673059847957449 0.1861726764986896 0 0.96758455917765662 0.17206502793490561 0 0.99999999999841238 0 0 0.95940036225003311 0.0802667348803804 0 1.0527907183502181 0.1005001786211816 0 1.1494214575391031 0.075340014825429069 0 1.09999999999812 0 0 1.199999999997829 0 0 1.2999999999975369 0 0 1.254652873386052 0.105753482544517 0 1.3681535985071449 0.13698083382674339 0 1.399999999997245 0 0 1.349999999997392 0.060567969661089648 0 1.291408388555241 0.26372433042992383 0 1.316869459340541 0.18778020585802921 0 1.3878996413210389 0.26723502210068018 0 1.473286192129879 0.27883707652097373 0 1.4156792278190771 0.19574754335211339 0 1.4905184776249101 0.20629734327603311 0 1.545236949037224 0.29434567071731399 0 1.456639397274391 0.1016053838939758 0 1.53341268746562 0.14194251306413061 0 1.542152768646126 0.073248247890105089 0 1.4999999999969531 0 0 1.599999999996661 0 0 1.6999999999963691 0 0 1.6799832100487111 0.082202015566833181 0 1.609545399082946 0.1308291592921435 0 1.567491488875842 0.20218805454405439 0 1.6351951680630969 0.23707571199064051 0 1.714493154391862 0.28897291620938281 0 1.7304700827703301 0.17386188770806579 0 1.799219293849516 0.26438879273789773 0 1.8480644103363271 0.19193194889233381 0 1.8299024103288899 0.1151394713368583 0 1.799999999996077 0 0 1.75369588639865 0.074917217572982864 0 1.7537858687071439 0.50406839622489796 0 1.742806034420483 0.6006074591026016 0 1.8544400981153091 0.62488101477716596 0 1.8316048184152021 0.54157006606434721 0 1.850967139686138 0.45738417241574703 0 1.8620515405159661 0.32644761881501039 0 1.787749129254824 0.36176402170097799 0 1.7808296409871709 0.43587276890434401 0 1.71976181471802 0.39635806210359681 0 1.645895854313963 0.45222881216869149 0 1.6419306970571019 0.3436055112169133 0 1.645263810758179 0.55814977621663464 0 1.5386621965636409 0.60828218080060537 0 1.550364457075788 0.50467902559054656 0 1.4795754400412069 0.53983964974648579 0 1.445918816848357 0.6075709531782556 0 1.551956040519719 0.40384519109247291 0 1.4491802319415681 0.4666714614197911 0 1.4507225717793131 0.3561247496431208 0 1.347125314110625 0.32447518420453242 0 1.385017785528226 0.40713366384701549 0 1.3198129865007471 0.39133224900025881 0 1.2615469736996101 0.34090999671933891 0 1.3860523322451299 0.56073196187600105 0 1.3462106466432811 0.48060664220838062 0 1.2709684905841181 0.55537862536316829 0 1.2546738886072291 0.63615646469940468 0 1.3545060270195819 0.65002758689694418 0 1.4000454837723419 0.73943313674757749 0 1.3035852436207409 0.73866974635260263 0 1.2914654457895349 0.81843301378315825 0 1.3255948392482531 0.88328132587465524 0 1.3864786876100039 0.92208751032957958 0 1.386174597084219 0.82350876346868962 0 1.482119963281066 0.782586299849238 0 1.463012078585596 0.89209645917012148 0 1.546104640467868 0.9195568013001878 0 1.535346256113697 0.70153336654872078 0 1.4534042830965781 0.68426123045930609 0 1.2999999999999989 1 0 1.399999999999999 1 0 1.5 1 0 1.599999999999999 1 0 1.6999999999999991 1 0 1.7999999999999989 1 0 1.6597641702579149 0.778
[...]
<CellData Scalars="pressure_p0," Vectors="velocity_p0," Tensors="">
<DataArray type="Float64" Name="pressure_p0" format="ascii">
0.027599669619832314 0.060933002542173285 0.022120471224386939 0.049720140589821181 0.096503834985328357 0.14328048111761732 0.12983012194603677 0.16889712154099323 0.18810004968379881 0.23846677885564402 0.26604753517611296 0.23556378088740604 0.30901984160250728 0.25217981310176329 0.29177653609553872 0.17693026104168921 0.21275672499611786 0.21939930355921036 0.13374495756655583 0.13420370710161847 0.098596843544380197 0.051813151582150975 0.05076247403923579 0.029692681620338376 0.048867456268148188 0.021069791983679167 0.027797663609749598 0.12907818557559439 0.1239307652578145 0.095192393682252754 0.097087414227861074 0.0501020849766496 0.023517923066935301 0.068975182506746779 0.064695441541718454 0.11910954677249799 0.10451619075623673 0.16047574457056404 0.21150180638031338 0.22871507642932704 0.17915717224586844 0.29891714865728813 0.3066725723779945 0.26378996228993901 0.2478231229874312 0.18034232949385437 0.18311408303855514 0.20711291554725786 0.16922862625282792 0.25211635034706981 0.29341454228513963 0.27606569000504122 0.38485551725714651 0.34299913223374623 0.4294986576075443 0.4650948662008848 0.44469097922192197 0.39484209596469177 0.33564874380910314 0.32779588198280518 0.3445835441765539 0.43845771614683859 0.39539898972876208 0.39421961843983722 0.43302003289537239 0.4934836813098773 0.5152012121900893 0.49569082717504442 0.52458463708698932 0.62313009398231456 0.5947374799336318 0.60516680296256598 0.51164455585823831 0.53328145423328133 0.62410008201194422 0.59056787601631644 0.54798282298196876 0.60315193768668252 0.52380128771757251 0.51725782520700792 0.54508624851942644 0.59646627512814276 0.59277572419628399 0.61257527557161151 0.55835124150978732 0.52589794303724702 0.47922912936895856 0.54475884417566756 0.44732383957661082 0.39955693365410361 0.44501576532732912 0.39812888872955959 0.3531131211618731 0.31693020217252449 0.35169157938763068 0.34392774708577717 0.38541029710539343 0.36504265321604945 0.46705913145469091 0.46649162866766369 0.43757789673663999 0.025077007205817257 0.058410340636626257 0.10746485974291663 0.14905452174908268 0.1902279009849997 0.24117337658912846 0.27962638032124976 0.24730448967471902 0.27893347220277515 0.19910028496269766 0.17001321008442732 0.16796484627261637 0.11853513978606203 0.094453500135979279 0.050049887162989457 0.024972882958697061 0.054867785315122375 0.12047938281333763 0.10597067117973852 0.11165081154311479 0.13616954116272256 0.029894902204992916 0.056479061010103415 0.026584162070987485 0.13617001146535124 0.23143921023239644 0.19440738390477483 0.21348397196011668 0.17976532390380684 0.25761931213220068 0.29741485542621832 0.30623306095122727 0.28515039709711737 0.37833988167719962 0.36415910477722269 0.46518533711579535 0.40209781343032236 0.42499314845457392 0.49161331645931472 0.47001812196235948 0.54776557534685466 0.55932247969066218 0.59027429776494644 0.58244887303546933 0.46934485753380684 0.49269339663999934 0.55335465869026979 0.56598568547053052 0.58763184773776411 0.61102381876599077 0.52536329106976742 0.51228564093052165 0.40052459598138068 0.42213103147601422 0.3823920433153899 0.3356351333240708 0.32746857506055532 0.32957722471468737 0.35261904725002968 0.3577908915493605 0.41081610802127011 0.45302521702406162 0.50302517365078336 0.54999995675171376 0.59862706524883647 0.69508554659011756 0.64862710762665077 0.74645844076432899 0.85979530818894401 0.90978695247636898 0.87890691613855565 0.92158990509669003 0.86014014279493956 0.89035261738165761 0.81024847496840358 0.83377062657550827 0.787100420156712 0.75950991837434212 0.70082837875605863 0.66109520171991898 0.67608718537599788 0.72404460184353081 0.76773415668125433 0.77620993950862871 0.70392492807916207 0.73346061442399835 0.66260802509975891 0.64418629888349843 0.69345572226741214 0.63122210392231781 0.64238313191458252 0.72361159506022599 0.77149969635215498 0.80762045139400351 0.85828887735107662 0.85526641337787035 0.80930823948277997 0.93352174197641635 0.88680566964434959 0.9037693260298163 0.94412876875224416 0.99348795433178028 1.003278970065967 0.95391978898722796 1.0378263054250518 1.0343234398466801 1.1233696949572454 1.1915944098361917 1.215271761608298 1.248559623306158 1.2005430226274103 1.0960316709644848 1.1666821718426514 1.1227058879405638 1.1632649927862175 1.1062661513805987 1.2493975658303078 1.1985077503035066 1.2020037509147092 1.0745976296367452 1.0826911272959125 0.97937806258429405 0.96287445995594667 0.97346699071617615 1.0033058310766143 0.94999164647137913 0.99499737590399995 1.0450057322888955 1.0947671481028185 1.1497614190683021 1.2487463359684412 0.78642786396747533 0.8051532680689053 0.85232739333108676 0.8003503831958021 0.85768177715878435 0.91003749003883416 0.89706623072067737 0.93283407239158134 0.91030589961240638 0.8595816564911346 0.83574253892263906 0.78173044535605196 0.82598512037563887 0.81102871211947258 0.71832566948518706 0.76651083470908454 0.74598790873251741 0.65422403433634579 0.70021194156031985 0.62813885795711899 0.68790134590927665 0.69588525407932622 0.71795917111525887 0.77262101320711984 0.73182169581492551 0.64031185418669334 0.70028488882214146 0.64415999223962594 0.67271485024333411 0.70255533080680865 0.75061598838422372 0.75286380892615523 0.70789160506447968 0.6892360244842678 0.6271942587608047 0.68650277116282254 0.72015191679425883 0.7728908144034643 0.80825155565720075 0.85737979950343624 0.85575959489637832 0.80591113402418557 0.90022146821893279 0.93574426785408382 0.90222914277248578 0.84211544544593564 0.79456183595997387 0.84643029700514527 0.79662886421686885 0.88818599814364319 0.90726042486332714 0.93120397009184863 0.88120856290173566 0.92681390569560729 0.94934758755937909 1.0002939947017926 0.95027839890937094 0.99413881603633569 1.0712221911986322 1.026010783678293 0.99031265448956263 1.0884778038395155 1.0217971450630996 1.0905268232128646 1.0221846169110371 1.1253355192340488 1.224556902090479 1.1953227702195981 1.2287387848919742 1.146223909043635 1.0984867826530589 1.1489415757367261 1.1060308903229656 1.1618700158099395 1.1938113334618214 1.2067397754816629 1.2343448481702255 1.2245692321423414 1.2451890256793814 1.1919840521889906 1.1813180552330476 1.2084318832648688 1.1674788147990567 1.1148443634185528 1.016746889768348 1.0697282730551427 1.0754969322620012 1.0207604821401146 0.96846881588607647 0.97022387598288007 1.0040637034131024 0.9531334496164674 0.99325855036995536 1.0292271398503701 1.0885100009850142 1.0509302548099784 1.1498071791369724 1.100737440154588 1.1158818145912812 1.1831692314242837 1.2013581903217538 1.2515510109073438 1.301551048174266 1.3242689894950126 1.3132255445341094 1.3915978272636493 1.4022132233778026 1.3500000344420902 1.3000272802419888 1.2573016467739921 1.2655774512157385 1.2778293538147691 1.3669010350705295 1.3734830912168969 1.3320595096546686 1.3421448205588178 1.4373031369980307 1.4256220009858698 1.4598282436818817 1.4542792750439093 1.5344158548830247 1.5304744142936428 1.4897488529246117 1.5030141309467917 1.452213186523313 1.4134909712556498 1.5107350874237357 1.493523721427036 1.5617037294577805 1.5473842821304034 1.4995974693126195 1.6298429123114926 1.5838994460372426 1.659994415997045 1.7112263824216516 1.6733329545681173 1.5701500017898997 1.6040774830860542 1.6074543900398197 1.5826413640581292 1.663873044076901 1.6584036305312759 1.6933861771281831 1.7925846003091837 1.748060843095629 1.7671538067247816 1.8502510361177951 1.8455886870808249 1.8028123162019107 1.8648109604886245 1.8414451000550911 1.794532772775578 1.7512319661174482 1.7213830996749837 1.7713561526619888 1.7760654977615278 1.8096168899328544 1.8121191447490008 1.8065151798875021 1.8335891664496797 1.8163399262004862 1.7406679460302028 1.7514589833234111 1.7951940778441766 1.7627800848985917 1.7064811099123292 1.6691961095624803 1.6920618469462774 1.5797080386793811 1.5827389351571142 1.6132609509877474 1.6138414814498294 1.681648509427951 1.7139518975549186 1.6764359103016331 1.5780969959922262 1.6083880575853131 1.5228676159079355 1.4880524592133266 1.493040330431247 1.4382696873293694 1.4371825473186024 1.5159721006008016 1.5171671711027876 1.4283072409465736 1.4839532604062682 1.394288958319795 1.3952495561680416 1.3506524437204732 1.3934699554960774 1.3503475511805363 1.3047667158743537 1.2765454911655956 1.3094955091269194 1.3371760073084102 1.3954927665900327 1.3938148059522621 1.334410900278223 1.2884851997237077 1.2933831757881458 1.2632883764590601 1.3042554145030483 1.4026522719464367 1.3527125833049858 1.3632687215415666 1.2685130885880886 1.3270753535783952 1.2906113330666624 1.2877665566430507 1.3660828641196374 1.3373579243756286 1.3344118269717735 1.4437690786806163 1.4227802795070992 1.4118886043594987 1.5030389751944737 1.5250841640120085 1.5037559942127543 1.5428293017538177 1.4902904708597027 1.5325662947599268 1.5091378914175348 1.4793287690052943 1.4179434039823806 1.4451902201010154 1.3621595960866164 1.4543374044902782 1.4164970028785675 1.5487015744110315 1.6377529320850528 1.7152564023448285 1.6619616499872101 1.753294752228951 1.807224974344769 1.8539302185972 1.688075073612425 1.7157556475679261 1.5717489460999015 1.627078069305171 1.5856054890031186 1.6177578884776977 1.6020439811048555 1.5798713756236811 1.5911595271713155 1.6751519483709139 1.7085958601092088 1.6664450484569056 1.7508046812244826 1.7905251019529203 1.7193220878837541 1.752824008929416 1.8026885468058154 1.8265132280494529 1.8699409489109666 1.8701834605431582 1.8190331936845552 1.7828025669506899 1.7256045611980089 1.7868230290820994 1.8267270837549936 1.9150008497071225 1.8863698577770811 2.0013759674119651 1.9681521791208711 1.9843101661617459 2.0255159438004791 1.9071145034184911 1.9519034796515626 1.9198571401289488 1.9308106835107375 1.9847135462530585 2.021083563705373 1.9648886292298662 2.0524857624376431 2.0318992706924504 2.1193781164157972 2.1498785227364978 2.122617185647337 2.1450827967787416 2.1290919885165618 2.1411882258019461 2.05783618790079 2.0498541987977004 2.0493041776757881 2.1031719801319011 2.1060343816211891 1.9498448307120506 1.9037750449597861 1.9910112252386392 2.0411663854307038 2.0715302728751044 2.1556808903223423 2.2144319694948273 2.2587510837727161 2.3650059703086916 2.4190092631859166 2.454003295028389 2.3367900739054717 2.3190010282976017 2.2727514264373747 2.1901614454045539 2.2070451084211555 2.2234665532876159 2.2476850070381498 2.2459824466758329 2.2115990382178383 2.3436605071396555 2.3237570650790849 2.3037547105723464 2.3020521455814089 2.4133029468751341 2.4474028055775152 2.4344200451226277 2.4994431962802333 2.4362261256238291 2.4907455076916185 2.3991979513321335 2.3529660392450347 2.3997022863598714 2.4322870261081642 2.4788915769309563 2.4285835066473416 2.4773459610313897 2.4888686303522558 2.4268599996068851 2.3970172207457265 2.3450228249103149 2.3982944336532075 2.299021231139629 2.2948441876644541 2.3420421297068046 2.2485412528793693 2.1971252219147215 2.215677213659192 2.260714838508822 2.1877955326859913 2.24049704046916 2.2671075966774046 2.320392200988266 2.2713540332550832 2.3197121209184126 2.342139727366916 2.3894546855764349 2.4226822479453007 2.4680323491667089 2.4775272330743832 2.4639585638448849 2.4413818187867014 2.4521340103394693 2.4357405915932335 2.3758611056182386 2.3447873761615892 2.3986593760263126 2.3575484181268327 2.4500000039831056 2.4958004546927524 2.4802751130518201 2.4970784351249278 2.4227549092128853 2.4069442678234507 2.3627267764188309 2.4049469120818334 2.3549469067455102 2.309316421103929 2.3162402567845053 2.267012458279412 2.2087099014053959 2.2029907910416879 2.2543695149691092 2.291689823878182 2.2609599848949875 2.2050111293222088 2.2039521387070198 2.2560927754120463 2.1586937035866978 2.1189085880973471 2.1066792311394078 2.0510297893880636 2.0600797841459695 2.1486212767443251 2.1719820371028011 2.0846002834472532 2.0986212851646204 2.0500000056945864 1.9993509092481252 2.0186632369625688 1.8907959998024033 1.875339847104998 1.9314776272687819 1.9474951962999465 1.9664246785778738 1.9936632616951542 2.0067115975186272 1.9850203024757658 1.8955393341179536 1.9150627822971811 1.9252099295944567 1.8962033489405381 1.8783220881437717 1.9070251655139689 1.9632703270268128 1.9776815663479339 2.0195472837525674 1.9924505238947168 1.9177415696537219 1.9269245363152596 1.8773561060579387 1.8781519285688653 1.9098374882091669 2.0084228756353646 1.9776475092567565 2.0106921270946012 2.0740478791058283 2.0989328324788712 2.0663524332199206 2.0859561474374031 2.176155313931627 2.1655998705699324 2.1629900555075872 2.1519288405000054 2.0908643720348241 2.0703207582068179 2.1065797473692776 4.7532410636009796 4.7100127959762697 4.798664908120613 4.8769304471927377 4.9131033994029512 4.8454238454398268 4.9482634716360483 4.981596805941602 4.9464367338663511 4.9394572318193948 4.974617297163908 4.941428592485833 4.8846324335976501 4.8826610815275462 4.8534676450460772 4.9772366170812585 4.9440478997860424 4.9668112920502603 4.8915643585951472 4.7944280193261601 4.7908469279307733 4.8424756740357617 4.8381630545523082 4.6976499306003614 4.7392314727016069 4.7124652706247243 4.7439085892205082 4.8085354204034729 4.7771980834144996 4.7854382842364336 4.7304529299655247 4.6971115910195511 4.7064714825592127 4.6174592736444389 4.654344963347647 4.6362444420546343 4.5647379550436735 4.6645208463013041 4.6314448579547065 4.6471920075388953 4.6034143683477167 4.5472787458340784 4.5330804349361244 4.5734689045987 4.456195369917161 4.4824786553914366 4.4386775623747523 4.4417141569788168 4.3964190468738105 4.405346541687976 4.5190956901472559 4.4914217804358447 4.4997135969738826 4.4221055766183213 4.3951865749494932 4.4071988055767664 4.4344899994607463 4.4566289349738994 4.4992096246114217 4.6567717240456759 4.6245529462830142 4.5781852444649527 4.5437373528025642 4.7223044083554218 4.758918350739286 4.7611709446386863 4.8109949688312623 4.805461747160189 4.8953033932973025 4.8948068746321614 4.8465433980962835 4.9482634707718134 4.9815968024824144 4.9417804623290857 4.948759982505389 4.8525731558044178 4.8806470279995082 4.8802951054670274 4.9746172805920921 4.9414285497130646 4.966811265061521 4.9432517364603639 4.8446316428668688 4.8347383931105741 4.7703711124937094 4.73802991617994 4.7303993542363241 4.7498594112340848 4.7263155384679338 4.7396533139258619 4.7605938548436617 4.829103446666692 4.7702433011344585 4.8038369295619514 4.7997244138422266 4.8895771281422915 4.8920115471098162 4.9764404829331239 4.9408173566202063 4.9643768807471691 4.8463097265567638 4.8609799438911185 4.9294264590454411 4.9650496021065429 4.9422862417832141 4.8898027099756467 4.8371329014344395 4.821169921106879 4.7587034512760038 4.7238545546883932 4.7400350966014058 4.6405804809568538 4.6723443673110614 4.6483499736766962 4.5946976166376681 4.5656723771833878 4.5587710176591836 4.5928066389919007 4.4697467638668051 4.5145300110542443 4.4473923670811564 4.4045486465388066 4.3965159834379115 4.5096288106580023 4.492175606548642 4.5023791836937495 4.4776961846675842 4.4297795713206041 4.3978066283415753 4.4124034001996284 4.3776038708587617 4.469059334016328 4.5569684968655393 4.5808108219863009 4.588329064181746 4.6808099733550774 4.6498143006705002 4.6383559667873762 4.6759989073332573 4.6692125390118626 4.6495355985505231 4.6783812185508582 4.548122035118185 4.6000055441851231 4.5365577259235943 4.4793955517575998 4.3910456059481229 4.4361813628153151 4.422170523598238 4.4411917493856086 4.4974049051355509 4.515585269454049 4.47712497548246 4.39401222248895 4.411765094142253 4.394608441095853 4.4477869729596655 4.4933016526408824 4.5897871847971006 4.5455146878534975 4.5760344623415126 4.6097376060301345 4.653543053367093 4.6442724884696096 4.6743252241220912 4.0848943243904738 4.1314893813546014 4.1761108900773465 4.214722457390673 4.1609214140110602 4.2538010360554246 4.3468214499347742 4.3006224806038436 4.2785773499780131 4.2260106406998972 4.2961770471029537 4.2555034078777254 4.3662369377981047 4.348256326478813 4.351734751853785 4.3110072082047504 4.2682897905709591 4.2138155303359426 4.1741558081990853 4.2018508360090419 4.1662709678595276 4.0700396151246663 4.11049642878573 4.0859282649452791 4.1235215964942729 4.0828542754848147 4.1209494817744403 4.0879945503188644 4.1887360021156441 4.2278938426871049 4.2931659319085993 4.3204517579258086 4.3120762685755514 4.3546315860998108 4.2776715064159596 4.2220984501671222 4.2955471435719899 4.3078465441275791 4.3536724077319473 4.3124309351020731 4.35505472631269 4.2697558001962372 4.2528720216742038 4.1743927258117122 4.208015027817968 4.1852056926370373 4.1188882778102442 4.0960828064900188 4.128777928373971 4.0381301667202507 3.9923744376684818 4.0531721426566314 3.9885324324184861 4.0074164217006389 3.9242750526875119 3.9226885426500364 3.9647693406510758 3.8494676721901948 3.8962517363934284 3.8515569213411203 3.7715474542927652 3.7583903920107575 3.8081690950489344 3.8046296518450333 3.9024037267216336 3.8418454553696044 3.8489862767690175 3.7987216859999102 3.7596232100972431 3.7794656638455768 3.8888329378964341 3.8933739428103387 3.9311316411669366 4.0246165339115372 3.9890870819704647 4.0143698807365951 3.9847286086304958 3.9981684609434618 4.0308837345976745 4.0280202456195262 3.9557611879153627 3.932866876768629 3.93693227766168 3.9503721276107582 3.8446475488223699 3.7539672597139511 3.7944875950705539 3.7555583599716442 3.77637717555716 3.8755934422079745 3.8656877700762076 3.8366827011303957 3.8682681368161966 3.8366598745188165 3.7931038889302826 3.7884954088358782 3.8429318741687606 3.8791486132452642 3.9362167388524911 3.9581362436422243 3.9139224345592023 3.9163321293320861 4.0621856766774336 3.9944261038248969 4.0135371914610758 4.002912521339506 4.0476596830400684 4.1484542426204785 4.0984485445827188 4.2511680993519976 4.367823333504214 4.3032590713716443 4.3017379877597417 4.3517265433442791 4.3473109023732519 4.2705442737033419 4.2594164919363386 4.3176408706714193 4.3594924391053089 4.3257035772380288 4.3456880773874946 4.2288774918983805 4.2265595938687408 4.2506106587112686 4.2718471584258992 4.200104576413521 4.1832482608550681 4.1245550753487219 4.1303237453234152 4.1015652420263766 4.2063496308130714 4.199622339623363 4.1660795204428247 4.1751616904645381 4.085250663634346 4.110917576749368 4.0833472325751989 4.0169582740656251 4.0331962188178618 3.9924741804608748 3.9353565453802455 4.0187715335054106 4.0538281347964773 4.0086855223639564 3.9550783800193758 3.9224714505262623 3.9754684890024237 3.9423858048915577 3.8906245697650488 3.899622691115491 3.8638577329479196 3.8537015543230737 3.7707293831489874 3.7588935354420174 3.8009471458337476 3.805711392970931 3.8789137159205112 3.8900281085116379 3.836224491880655 3.8229391832957926 3.7941092698674956 3.8158476168666731 3.7523325060823907 3.8023324992433269 3.849999994374909 3.8987319543543322 3.948731969560785 4.0499943113325179 3.9987262733495821 3.449100830760611 3.4991008331100715 3.5499999968897455 3.5975488293958837 3.6475488231581541 3.6998813258261576 3.7004857343556203 3.7478652212535675 3.5990609177127464 3.651590611195866 3.7109414442111466 3.6845990960618042 3.6951200459844511 3.7377706508275681 3.6563195118132779 3.6066431558105201 3.6191013440769728 3.5606726301699547 3.5049575306589271 3.476957344864088 3.4829609999725775 3.5789568839734023 3.5578192733945584 3.5106431122124446 3.486770112236167 3.5138422203828403 3.397081014820313 3.4002415411307494 3.4355348546105065 3.3529710561795834 3.3090841854079738 3.3140750540695625 3.389058509408315 3.4156071331173572 3.4341562849728788 3.4023237826794341 3.3595923951408162 3.3251881779934154 3.2950983847508293 3.2943357563502813 3.3371048236979357 3.2510487053061432 3.2103163167979849 3.2293904647399292 3.2413516710498902 3.1484399437858426 3.1288082676426683 3.1998566352030275 3.2