<?xml version="1.0"?>
<VTKFile type="UnstructuredGrid" version="0.1" byte_order="LittleEndian">
<UnstructuredGrid>
<Piece NumberOfPoints="6444" NumberOfCells="2148">
<Points>
<DataArray type="Float64" NumberOfComponents="3" format="ascii">
0 0.1020408163265305 0 0 0 0 0.073634588831630737 0.063733304865559531 0 0.073634588831630737 0.063733304865559531 0 0 0 0 0.10526315789448409 0 0 0.10526315789448409 0 0 0.15706204793571721 0.065730414421860325 0 0.073634588831630737 0.063733304865559531 0 0.073634588831630737 0.063733304865559531 0 0.15706204793571721 0.065730414421860325 0 0.1058477383279523 0.15089529357940679 0 0.1058477383279523 0.15089529357940679 0 0 0.20408163265306101 0 0 0.1020408163265305 0 0.1058477383279523 0.15089529357940679 0 0 0.1020408163265305 0 0.073634588831630737 0.063733304865559531 0 0.096326094416150879 0.2738115102943669 0 0 0.20408163265306101 0 0.1058477383279523 0.15089529357940679 0 0 0.3061224489795924 0 0 0.20408163265306101 0 0.096326094416150879 0.2738115102943669 0 0.096326094416150879 0.2738115102943669 0 0.19912213507755991 0.24170113105785579 0 0.17099478320065239 0.33418874558395761 0 0.096326094416150879 0.2738115102943669 0 0.1058477383279523 0.15089529357940679 0 0.19912213507755991 0.24170113105785579 0 0.1058477383279523 0.15089529357940679 0 0.2227417586060364 0.14198457667505321 0 0.19912213507755991 0.24170113105785579 0 0.19912213507755991 0.24170113105785579 0 0.28395937666824012 0.33632665726232341 0 0.17099478320065239 0.33418874558395761 0 0.28395937666824012 0.33632665726232341 0 0.19912213507755991 0.24170113105785579 0 0.3065290384860177 0.21845328511822379 0 0.2227417586060364 0.14198457667505321 0 0.32203054174603751 0.1135564938669265 0 0.3065290384860177 0.21845328511822379 0 0.3065290384860177 0.21845328511822379 0 0.19912213507755991 0.24170113105785579 0 0.2227417586060364 0.14198457667505321 0 0.2458590500629341 0.061570842006046268 0 0.32203054174603751 0.1135564938669265 0 0.2227417586060364 0.14198457667505321 0 0.2227417586060364 0.14198457667505321 0 0.15706204793571721 0.065730414421860325 0 0.2458590500629341 0.061570842006046268 0 0.2227417586060364 0.14198457667505321 0 0.1058477383279523 0.15089529357940679 0 0.15706204793571721 0.065730414421860325 0 0.15706204793571721 0.065730414421860325 0 0.2105263157889683 0 0 0.2458590500629341 0.061570842006046268 0 0.10526315789448409 0 0 0.2105263157889683 0 0 0.15706204793571721 0.065730414421860325 0 0.2458590500629341 0.061570842006046268 0 0.2105263157889683 0 0 0.31578947368345239 0 0 0.31578947368345239 0 0 0.32203054174603751 0.1135564938669265 0 0.2458590500629341 0.061570842006046268 0 0.32203054174603751 0.1135564938669265 0 0.31578947368345239 0 0 0.42091535253335821 0.074985042685527997 0 0.42091535253335821 0.074985042685527997 0 0.31578947368345239 0 0 0.4210526315779366 0 0 0.41201455634411649 0.1897984988829047 0 0.32203054174603751 0.1135564938669265 0 0.42091535253335821 0.074985042685527997 0 0.42091535253335821 0.074985042685527997 0 0.51310137082636131 0.1341294928157436 0 0.41201455634411649 0.1897984988829047 0 0.52631578947244417 0 0 0.42091535253335821 0.074985042685527997 0 0.4210526315779366 0 0 0.51310137082636131 0.1341294928157436 0 0.42091535253335821 0.074985042685527997 0 0.52631578947244417 0 0 0.52631578947244417 0 0 0.59443945123281217 0.088717840836347678 0 0.51310137082636131 0.1341294928157436 0 0.52631578947244417 0 0 0.6315789473670218 0 0 0.59443945123281217 0.088717840836347678 0 0.59443945123281217 0.088717840836347678 0 0.61110205716185617 0.19633559899170319 0 0.51310137082636131 0.1341294928157436 0 0.51310137082636131 0.1341294928157436 0 0.50098672486132223 0.25062984267919391 0 0.41201455634411649 0.1897984988829047 0 0.61110205716185617 0.19633559899170319 0 0.50098672486132223 0.25062984267919391 0 0.51310137082636131 0.1341294928157436 0 0.58188516883365671 0.30239275902164231 0 0.50098672486132223 0.25062984267919391 0 0.61110205716185617 0.19633559899170319 0 0.58188516883365671 0.30239275902164231 0 0.61110205716185617 0.19633559899170319 0 0.67269763957089668 0.28766618318192039 0 0.41201455634411649 0.1897984988829047 0 0.50098672486132223 0.25062984267919391 0 0.39980317448743058 0.29844098685688902 0 0.41201455634411649 0.1897984988829047 0 0.3065290384860177 0.21845328511822379 0 0.32203054174603751 0.1135564938669265 0 0.3065290384860177 0.21845328511822379 0 0.39980317448743058 0.29844098685688902 0 0.28395937666824012 0.33632665726232341 0 0.41201455634411649 0.1897984988829047 0 0.39980317448743058 0.29844098685688902 0 0.3065290384860177 0.21845328511822379 0 0.28395937666824012 0.33632665726232341 0 0.39980317448743058 0.29844098685688902 0 0.37751055495358538 0.39126393687673539 0 0.4068115365931686 0.48491119452919718 0 0.29845534578569238 0.44756390809804841 0 0.37751055495358538 0.39126393687673539 0 0.28395937666824012 0.33632665726232341 0 0.37751055495358538 0.39126393687673539 0 0.29845534578569238 0.44756390809804841 0 0.37751055495358538 0.39126393687673539 0 0.49852334123339559 0.38907693763721879 0 0.4068115365931686 0.48491119452919718 0 0.39980317448743058 0.29844098685688902 0 0.49852334123339559 0.38907693763721879 0 0.37751055495358538 0.39126393687673539 0 0.39980317448743058 0.29844098685688902 0 0.50098672486132223 0.25062984267919391 0 0.49852334123339559 0.38907693763721879 0 0.50098672486132223 0.25062984267919391 0 0.58188516883365671 0.30239275902164231 0 0.49852334123339559 0.38907693763721879 0 0.58188516883365671 0.30239275902164231 0 0.61404777858908499 0.38779589852573809 0 0.49852334123339559 0.38907693763721879 0 0.58188516883365671 0.30239275902164231 0 0.67269763957089668 0.28766618318192039 0 0.61404777858908499 0.38779589852573809 0 0.61404777858908499 0.38779589852573809 0 0.58768653706651386 0.46412604547642611 0 0.49852334123339559 0.38907693763721879 0 0.4068115365931686 0.48491119452919718 0 0.49852334123339559 0.38907693763721879 0 0.50993157348022133 0.5222808145795188 0 0.50993157348022133 0.5222808145795188 0 0.49852334123339559 0.38907693763721879 0 0.58768653706651386 0.46412604547642611 0 0.58768653706651386 0.46412604547642611 0 0.61394540470706838 0.57099007365173216 0 0.50993157348022133 0.5222808145795188 0 0.51775152288730519 0.64920465993269849 0 0.50993157348022133 0.5222808145795188 0 0.61394540470706838 0.57099007365173216 0 0.51775152288730519 0.64920465993269849 0 0.42059707578191508 0.59585436944894388 0 0.50993157348022133 0.5222808145795188 0 0.50993157348022133 0.5222808145795188 0 0.42059707578191508 0.59585436944894388 0 0.4068115365931686 0.48491119452919718 0 0.29845534578569238 0.44756390809804841 0 0.4068115365931686 0.48491119452919718 0 0.31454340936270092 0.54916538087209121 0 0.42059707578191508 0.59585436944894388 0 0.31454340936270092 0.54916538087209121 0 0.4068115365931686 0.48491119452919718 0 0.42059707578191508 0.59585436944894388 0 0.33591602694935457 0.66131199390812068 0 0.31454340936270092 0.54916538087209121 0 0.23580292830338159 0.61156435780913132 0 0.22205887719093709 0.51085764442280845 0 0.31454340936270092 0.54916538087209121 0 0.33591602694935457 0.66131199390812068 0 0.23580292830338159 0.61156435780913132 0 0.31454340936270092 0.54916538087209121 0 0.1247920390493031 0.5981384238717109 0 0.22205887719093709 0.51085764442280845 0 0.23580292830338159 0.61156435780913132 0 0.19230207234368041 0.42267882596596917 0 0.22205887719093709 0.51085764442280845 0 0.099581482345633993 0.49355644173513979 0 0.29845534578569238 0.44756390809804841 0 0.31454340936270092 0.54916538087209121 0 0.22205887719093709 0.51085764442280845 0 0.19230207234368041 0.42267882596596917 0 0.29845534578569238 0.44756390809804841 0 0.22205887719093709 0.51085764442280845 0 0.19230207234368041 0.42267882596596917 0 0.28395937666824012 0.33632665726232341 0 0.29845534578569238 0.44756390809804841 0 0.19230207234368041 0.42267882596596917 0 0.17099478320065239 0.33418874558395761 0 0.28395937666824012 0.33632665726232341 0 0.079886347472302513 0.39267504564254302 0 0.19230207234368041 0.42267882596596917 0 0.099581482345633993 0.49355644173513979 0 0.079886347472302513 0.39267504564254302 0 0.096326094416150879 0.2738115102943669 0 0.17099478320065239 0.33418874558395761 0 0.079886347472302513 0.39267504564254302 0 0.17099478320065239 0.33418874558395761 0 0.19230207234368041 0.42267882596596917 0 0.096326094416150879 0.2738115102943669 0 0.079886347472302513 0.39267504564254302 0 0 0.3061224489795924 0 0 0.3061224489795924 0 0.079886347472302513 0.39267504564254302 0 0 0.40816326530612201 0 0.079886347472302513 0.39267504564254302 0 0.099581482345633993 0.49355644173513979 0 0 0.40816326530612201 0 0.099581482345633993 0.49355644173513979 0 0 0.51020408163265341 0 0 0.40816326530612201 0 0.063661092758028087 0.55935793480215701 0 0 0.51020408163265341 0 0.099581482345633993 0.49355644173513979 0 0.099581482345633993 0.49355644173513979 0 0.22205887719093709 0.51085764442280845 0 0.1247920390493031 0.5981384238717109 0 0.063661092758028087 0.55935793480215701 0 0.099581482345633993 0.49355644173513979 0 0.1247920390493031 0.5981384238717109 0 0.1247920390493031 0.5981384238717109 0 0.078882305155223195 0.67085170501850533 0 0.063661092758028087 0.55935793480215701 0 0.078882305155223195 0.67085170501850533 0 0 0.61224489795918391 0 0.063661092758028087 0.55935793480215701 0 0 0.61224489795918391 0 0 0.51020408163265341 0 0.063661092758028087 0.55935793480215701 0 0 0.61224489795918391 0 0.078882305155223195 0.67085170501850533 0 0 0.71428571428571441 0 0.078882305155223195 0.67085170501850533 0 0.110872549238551 0.75326234048887408 0 0 0.71428571428571441 0 0 0.81632653061224492 0 0 0.71428571428571441 0 0.110872549238551 0.75326234048887408 0 0.15874693748826191 0.67632714848704367 0 0.110872549238551 0.75326234048887408 0 0.078882305155223195 0.67085170501850533 0 0.15874693748826191 0.67632714848704367 0 0.078882305155223195 0.67085170501850533 0 0.1247920390493031
[...]
<PointData Scalars="conc_conc," Vectors="" Tensors="">
<DataArray type="Float64" Name="conc_conc" format="ascii">
0.00026669819678208932 0.0002407739450688979 -3.1764965310266953e-06 0.00011203991301097271 0.00031376293627140338 -0.00024892048022807738 -0.00071015714907617057 -0.0027092523590717876 0.00038272417765555057 0.00041074959345277566 -0.0027432186188826634 -0.00083110314860431692 -0.00013735908895067892 0.00030073852410196522 0.0002769527011447272 -0.00013237252453815221 0.0002705289107683825 -1.0059720792412871e-05 -0.00012388136810364574 0.00030668189475962989 -0.00014858740848857762 0.00036489411181917165 0.00033606820017379797 -0.0001540453313834811 0.00019389051489192912 -0.0065067666611583128 -0.0049651260200130757 0.00011282115704337941 -0.00023657780154539442 -0.0063584079329985247 -0.0012183075139633238 -0.0051331261852932911 -0.0061642753094125905 -0.00485561408822775 0.0057167878459613384 -0.0088188507880802829 0.006111346869747989 -0.0058694209380004718 0.010695056674056793 -0.0033581537796341979 0.014780381242350987 0.011236260072090278 0.01041711835054278 -0.005679569872250846 -0.0021639778659098487 0.00063458031945620393 0.014536920037815801 -0.0031917047599548335 -0.0045662027155039392 -0.0040340823588084053 -0.0020010219237661382 -0.0050828008109528892 -0.001260831411251844 -0.0026420242723807336 -0.004010777992884621 -0.0025914545741397392 -0.0020191798022362803 -0.0011751381573354286 -0.0036339167042894549 -0.003357473685384161 -2.3860470496992978e-05 -0.0047534913373287919 0.011529311919534995 0.011889194820431524 0.014357200362924902 0.00091659741229726307 0.019706259031029981 0.01401128391335464 0.045885278913935255 0.045615249801761057 0.014484142705869518 0.042192923116415683 0.050575179989613479 0.01978609664140342 0.046115458432439749 0.040842557880571631 0.031521372331527561 0.047776429573112116 0.022060376752325913 0.041678067136486523 0.038305700993017583 0.030656599968869276 0.041850583090810231 0.021781741045652794 0.017909958326511027 0.00010864047903922154 0.024265626444990068 0.016006207404398752 -0.0062897671138462171 -0.00065191800270478001 -0.00044865554278962288 -0.0048769915862547208 0.024662234382951259 0.031235251022925875 0.040869527152516523 0.04801857295859057 -0.0052186008688012587 0.031936043669327105 0.025209838544492047 0.0038506560049374893 0.032421500249473531 -0.0059799886746392406 -0.00075441748154209641 -0.0016920941687485337 -0.0044125526797515885 0.04628290000796078 0.042098190300527201 0.053507429318696849 0.051274068043057328 0.01637895032924808 0.018270546253730608 0.014187236507195805 0.05548719329163531 0.007985717846394319 0.051965357215334997 0.054838832557331955 0.015994444272656567 0.0073906069660627108 0.056452368540560266 0.050428730141645804 0.065142441261364536 0.018300847911230805 0.04818293326213912 0.0082656572775995502 0.04823428723040632 0.017613737179214221 0.061313650323211739 0.050847900465617504 0.073948342022780611 0.053367505566286555 0.050968225635340557 0.06116867487235593 0.05367730102860168 0.041940135117649484 0.050629412909254858 0.033148358023255838 0.0052754299442790828 0.038622600121093413 0.0044524739595902894 -0.0074743891068589138 0.039124471958943231 -0.0007026853722499741 -0.004481749802104148 -0.0051353563020947917 -0.0079635465404977873 0.001821740619620156 0.039799597966722208 0.077141255707132164 0.043467940175250172 0.048049723613736335 0.038924201067992707 0.041196507623862254 0.0025970195892278162 0.0032604393472764979 -0.0070989089181030789 0.038019826790170019 0.03732317325590178 0.038721807763545495 -0.0075899316924642078 0.048200605026255269 0.088318013038063747 0.043899328715279601 0.047725386739101275 0.086655848960937587 0.07788062530416795 0.017695039521960915 0.065630653199413136 0.029168118550019179 0.079016320513642282 0.029668410078126605 0.06564405252859018 0.079586458032912311 0.046234973179948027 0.02884890635547762 -0.0084173534779745426 -0.011852896300043944 0.025068729864287834 0.039762380092395085 -0.008939873084078712 0.02701074268001364 -0.0033667650868960336 -0.0060968004199588493 -0.0071716651015442242 -0.0047385618863511709 -0.0063609709615454922 -0.0013461318449382669 0.017140120969273132 0.024689380437471767 -0.011284449462993855 -0.011390807106908681 0.012731124734614426 -0.0097464540418974004 -0.010943748698406867 0.0086453860369526837 0.012450226488092773 -0.0096527066478543401 -0.0089893805503158224 0.0059503764849807581 8.7695031238139889e-05 -0.0048768214352039501 -0.0011342685051001706 -1.9797091929047996e-05 -0.00050303390783351589 -0.0035526094021090301 2.1856420895924469e-05 -0.0036203408429589965 -0.0048306656122173329 -0.00016682545848649308 4.8533994137998598e-05 0.00037167083601132364 0.00030327665838565085 5.994192138189894e-05 0.00033564627496463861 5.2741062444879503e-05 -9.7428162984004591e-06 0.00033967040870981277 -1.4535337274320508e-05 0.00037951247176931939 0.00034684989348028405 0.00048434040456050135 0.00038502517681636601 -2.4778807135624184e-05 -0.0012831719006410186 -0.0064093444708613863 -0.0031151582504619297 0.00096405597876479611 -0.00075116135222273468 -0.00207825904694202 -0.0021139876647615738 0.00075910661113343049 0.0010030934278225535 0.00022700995247109065 0.00028512948795262271 0.00021542492525583791 0.00028327087099625468 0.00025098738314974803 0.00021831699019574162 0.0002886647224585041 0.0002248326778800947 0.00032306659315666956 0.00022048500787716366 0.00019612092271363387 0.00032563765196748059 0.00036392211601776595 0.0003296960706329714 0.00019305743753656113 -0.005708274501992917 -0.0020386840166493679 0.0010347187074286864 -0.0056450313258485556 0.00096695696477863452 -0.002625470592386 -0.007177086410849999 -0.0080244111178020064 -0.0049291998695970181 -0.0033124893527376933 -0.0072098275730840119 -0.0051502531854187598 -0.0097095906008974418 0.040310086030134994 -0.0090429930323054995 0.012066513867225107 -0.010469416770760428 0.060999376869567724 -0.0034936703547631676 -0.0080968871419284088 -0.0093172987003377339 -0.0048794517776037001 -0.008057112007692907 -0.0035251349461246939 0.0095574914602393531 -0.012158796461491707 -0.013938008406161473 -0.013688746984523662 -0.0025755736027473636 0.0093007895825831886 0.014792216126792474 0.030108476603608627 -0.013753960155479118 -0.0094281300472125289 -0.0092796479749555141 -0.0031085152693537798 -0.0093760025891476799 -0.0031756839031520838 -0.0072009672235532627 -0.0032124930068839399 -0.0028130633061789019 -0.0071208369097518079 0.00036787940989289317 0.00018579961174878978 0.00043040754016369166 0.0012357139779772218 0.00025533175769504015 0.00051369638351873295 0.00051454161096244186 0.00025461450607670426 0.0002214057290702901 -7.9504414653588161e-05 -9.8916217123217341e-05 0.00083316503027381467 -0.0011432826139615949 -0.0061391343088159191 0.0021391647804247715 -0.006242748727588618 0.00071895792982387197 0.0022302305414368452 0.00063469526549020155 -0.0066927160669129401 -0.012996784939340427 0.0011570729375237391 -6.897449361825404e-05 -9.4370990593919005e-05 0.0011503369350404954 -8.4472938747649209e-05 0.00084361773744771396 -7.5080960049588079e-05 0.0011697465991164439 0.0009884976796659512 0.00070719187076819488 9.8459676750794158e-05 7.1864165140122756e-05 -0.0062079102327146874 -0.0094701658247928738 0.0023870828554183915 0.0023022686053027668 0.00060651100362319702 -0.0060812447023671232 -0.0090611013831400477 0.00077269658463929457 -0.013124097451853148 -0.013137307473519917 -0.0095634465211945976 -0.0073806443032942452 -0.013194204332581635 -0.0073259451869311411 -0.019271595561362345 0.025209553105874145 -0.011663130791315108 0.079084643162741289 0.016688377659070587 -0.023335080890534547 -0.00045187567526283536 -0.011027156044351389 0.018309883628860362 0.078298142343377619 0.0093526662246982417 -0.0089708588527141302 -0.014981153145767086 0.0013828487930661762 0.0091474375903634192 -0.014723335335153132 0.064464156471485456 0.016216697621939228 -0.0045849760661603057 -0.011698178837155737 -0.003768103500225948 -0.013858400532108303 -0.011596534659738943 -0.0058649194575804559 -0.0038467073934756795 -0.0143020432888885 0.030550390498144831 -0.0036733278278877094 0.0638097912508266 -0.0038192821039019762 0.036410070674856777 0.11870076916589441 0.071129152060984135 0.038006673995010426 0.11621128926010829 0.13608725830043591 0.074054159445654466 0.07207255711151267 0.14195987085019734 0.13477941277908595 0.091907664737022624 0.073317671071512672 0.13659981821841288 0.077803070737520158 0.019092004604012548 0.064911418986471014 0.083109847675775173 0.15709734494039329 0.032200668684261913 0.062525520272662727 0.17197481078684035 0.13155804391818177 0.16174546493214703 0.092528589619090273 0.157601877586728 0.13497259928592006 0.15712407966593261 0.093210292240449424 0.13057957667214284 0.062303142078087785 0.063066445025958512 0.060444229439360266 0.13570857188386237 0.14468797192105515 -0.021694344742686708 0.043232147369733499 -0.019800342088234668 0.044166333690742278 0.049264104196528553 -0.021056645568457079 -0.020497281933121506 0.048610502790256832 0.0056405946523634242 0.050488445167584162 0.060356937232989988 0.0031201644761363399 0.066353920631726793 0.06107481252320171 0.14362534874337426 0.06112042556824037 -0.010946527863117391 0.059592351830514735 0.072524181235113186 0.13388111515870529 0.068657617389438194 0.0021090469532013129 0.059372419482747449 -0.01089642640146387 0.0059613290057115784 -0.010310145888657344 0.060215616675660576 -0.00079980872521307649 0.012081212929721393 -0.01155868445212703 0.021466054890169846 0.0066991554456557641 0.057432179008382177 0.060134086682835201 0.05809411402063281 0.0061858478952434934 0.11827172855865523 0.069264335379256498 0.075146436524885896 0.074878611963970748 0.13122712891467586 0.11886261570662955 0.037281710799852437 0.012303111884651035 0.098606591487847201 0.039158999870758548 0.098605295989324687 0.11794347349633798 0.013351264865726863 0.065332541386834586 0.097741953241123489 0.096013098641853492 0.1098890521740358 0.079156833384499845 0.069665468803235236 0.11773548561677996 0.080411276160037445 0.079307830885337549 0.083955161555283694 0.095848348302643605 0.041368001239237541 0.060343358999892807 -0.0095582140761124642 0.047099891676176363 0.091368079462196036 0.07360645090985099 0.047650764845864106 0.078466157614810753 0.09098078374451371 0.093548814345218237 0.089238262697315426 0.047772571542715844 0.087742091795726507 0.094336640974397049 0.044919470833265016 0.083112466345011599 0.04240704766253979 0.020774450692646256 0.084016873957733704 0.020007951273579693 0.062372984283543001 0.00049822252146208758 -0.011311273036877623 0.011836655855002333 0.015746512733484829 0.038360188264752675 -0.0055396584549624924 -0.0049394792095184843 0.036949830861767279 -0.00739665403451402 -0.008991240057118698 -0.0014237008267349385 -0.001833403239470549 -0.0020387379567845267 -0.0069683900339317182 -0.00566407018935456 -0.010378755729028489 -0.0013511224267404077 -0.0091209407912834269 -0.00016979312532570129 -0.0070143553651542739 -0.0019728121606232885 -0.0056174696198232265 -0.0028743888424757158 -0.0020721421525282647 0.00059377856152412201 0.00048265575507194206 0.00089217575956259125 -0.001222832976561377 0.00016117135812742487 0.0011818796105094731 0.00033270042897326501 -0.00015531538604192626 0.00061479982302440109 -0.00016633623239976008 0.00025666558937919383 0.00062387600898560337 0.00049303271529348982 0.00066105723851432737 0.00052834394529392963 -0.0012513125919168388 0.0012074763157797195 0.00034799160500047043 0.0011943540855517917 0.00066167701543706488 0.00049278899096565391 6.6946712455139351e-05 0.00098902604706195356 0.00020641464994329445 3.831326030289563e-05 -0.00012040096920145847 -8.9170518795509619e-05 5.8369738555194849e-05 0.0010286535215774906 0.0010025060120588162 -0.0020926783245066374 -0.0048040421083924856 0.0017093961215436976 -0.0071138164413276439 -9.6073018530132561e-05 -0.0056210065643639987 -0.0047184868006844077 -0.00035723925828145571 0.0016423225061846449 -0.0058767186655372203 -0.0078286328436642499 -0.0035282913899975627 -0.009365051269318303 -0.0034509903660024542 -0.0078935721295808337 -0.0091330002843224168 -0.0052510668606797362 -0.0043627869403994931 -0.010155902464643766 -0.0091858511129043873 -0.0043258576142260691 0.00026784197724316849 -0.0011493802294582787 0.001098498620920881 0.00010435106523495916 -0.0069209104742208932 0.0010490059833576715 0.00097267120826589578 -0.0068364425708062207 -0.0022301139453094242 -0.005276838360969904 -0.012657024605650645 -0.0040184879940664371 -0.016555714192402406 -0.00392908552419331 -0.012791296871188644 -0.0074193682341714678 0.00027530585240984978 -0.012941388256424912 -0.01340411836957032 -0.013098502212619012 -0.0028879978933590827 -0.013063681250063576 0.00041737128911793005 -0.0025570815356935868 -0.001063580678111092 -0.00053363470599402209 0.0015470616356177769 0.0011864130129071151 0.0015277664597342277 -0.00050191773789264309 -0.00019693984062966042 0.0011661773914582979 -0.00048867919387872633 -4.4091748096160596e-05 -0.00023577231243075404 0.00042198685493851691 -0.0002495371749232169 0.00059932244760115656 0.00096559760458282272 -0.00016899270078936789 -0.00024069497807602098 0.00094945044970177388 -0.00015502188318268365 0.00096903618443299811 0.0010456764697366523 -0.00017827719608625193 0.00089159673971726371 0.0011543562418069328 -0.0011147736147369212 0.00063252666998142657 0.0010757647926393785 -3.9804537401625594e-05 -0.00014397210616172868 0.0010264718095880565 -0.00012820319591031249 -3.6486602355457731e-05 -0.00014745388644285746 6.0349865603743904e-06 1.0331301992726837e-05 -2.3355995575987003e-05 -2.5184856974446519e-05 1.1778005156590417e-05 9.8349737194274991e-06 -2.4687753186279847e-05 -2.4202352579784091e-05 1.0844718893165586e-05 -2.4573322420248401e-05 -2.3587074687637788e-05 -0.00014874993717706121 -0.00014197386821609924 -0.00015020557397362461 -2.2835647789177338e-05 -4.5243168251321397e-05 -0.00013569634861297224 -2.9604694784846666e-05 -0.00013540972160121367 -4.5933718057634188e-05 -0.00014646996685841734 -3.3675391714140696e-05 2.0303691830005056e-05 -7.557916677244842e-06 1.1767221037507424e-05 1.9722738145967457e-05 -3.2744580741883921e-05 -2.6808193744327485e-05 1.0851526025172198e-05 -3.2209057407861948e-05 0.00014365490886417584 2.2385805491613112e-06 0.00010142518442595965 2.9292103503906763e-05 0.00014790807715508899 0.00018934966090363245 0.00014492215673308549 2.826637521574231e-05 5.3952185271221479e-07 -0.00030911684463361236 0.00054014516498751249 0.00047288732146985634 -0.00030069394574651776 0.00046131784777167511 -0.00010216005203991929 0.00038069336076625881 0.00027453970981636104 3.5755116775220657e-05 0.00027196740654286905 0.0001437470131208358 3.8245287821956092e-05 9.9769954502424135e-05 3.1694582569832884e-06 1.0575061259260762e-05 0.00022863221611304263 0.00017288186514071588 3.5476753802710349e-06 0.00013812307970823915 0.00022670947258348056 5.7806445300924093e-06 7.5870391197460866e-06 -1.2733947513333237e-05 0.00013075092138569957 0.00027340093889814476 -1.7542556018507233e-05 0.00032315973905103223 0.00027053292626456763 0.00017425929364953528 -1.3894879318707823e-05 -0.00054208004688482644 -7.4887602102878789e-05 0.00032517078180399161 0.00012367319416718662 0.00012829539233434679 0.00025081765266973187 -4.8223135903007051e-05 -0.00053222126556582078 0.00031619579112219864 -2.67839479576358e-05 5.3161670412638295e-05 0.00021312907121903905 0.00016341368050910236 -2.946166313800898e-05 0.00021644723364502093 -3.3345606926536731e-05 8.9831256897077654e-06 -2.4980273152911312e-05 -3.280488845040736e-05 -6.771506247417897e-06 8.5248472138754976e-06 -4.5078718532326978e-05 -3.6966808928505924e-05 -0.00012738142544156106 -4.4487413115644987e-05 -6.9888533581458334e-05 8.7723336289137244e-06 3.6247921439733529e-05 -9.8957679581965606e-05 -0.00011918663744026504 -6.0136046406622985e-05 1.0531716140912262e-05 3.467612583284313e-06 2.6946968888545402e-05 -8.5426863365899313e-06 -1.3494505175568374e-05 -1.3117805996313916e-05 -2.6021550357843359e-06 2.6429867618967316e-05 -9.7117202289471454e-05 3.3830410004337128e-05 -5.4897830388683345e-05 -7.8030870086998107e-05 1.0634993039081114e-05 -6.7638878490068659e-05 -7.567379631574592e-05 -5.5592109846326776e-05 -3.8476432854647878e-08 9.8016752773366419e-06 -7.6593487265505481e-05 1.2572819945411462e-06 0.0001160050973089793 -1.7683925921371429e-05 -2.6760368406458953e-05 6.8761544750648454e-05 -2.5387165243570101e-05 0.00013985792854159158 0.00013867428145666216 -2.3218677240694081e-05 0.00012753677637588126 0.00011790891958802142 0.00012834759679996948 0.00012357194518039936 0.00023127683549682324 -0.00017968520980038243 0.00010411528407884038 0.00021394736388070771 -5.5938667530273169e-05 -0.00016638599432285589 0.00022649219312311314 0.00021890146146004793 -0.00017013594507381429 -3.8190679281325462e-05 0.00020455192194391761 0.00018216188456284397 5.9738618230305751e-06 0.00019795712704174793 -0.00015320979451646281 0.00011401393195574597 -2.3358500300681748e-05 9.7172396737798983e-05 -2.1412088035444698e-05 5.8256842211618357e-05 9.0630079201558673e-05 -0.0001492561038665861 0.00019265954608568814 -5.3608954728076374e-05 -1.1336648789846103e-06 0.0001650172285203434 0.00012871259944139906 2.1320817962826308e-07 0.00012662708587833887 2.1112731674844847e-05 2.2729257039115316e-05 0.00012491861441142808 6.7558827561034138e-05 0.00012926956568944621 -0.00015150233956674367 9.2655721361778023e-05 9.7751165401409657e-05 7.352239462441216e-05 -3.4521861197088102e-06 4.5978838437355886e-05 -1.3619520832712746e-05 -3.6636234637592165e-05 -3.5297613291486502e-05 5.4656121076521457e-06 4.4658293492735498e-05 -6.6690538578289795e-05 -8.7004600896164311e-05 1.5806091645503998e-05 -4.4841692975300183e-05 -0.00013848693503800099 0.0002274856365372419 7.138655390963265e-05 -0.00010528536709177657 -0.00011734431322198834 -0.00013392411744018109 -0.00014323954453306881 0.00010447084434533992 -1.7533700512667778e-06 -5.4087804353471042e-05 -4.5386897987046026e-05 -4.4952045173706368e-05 -3.2345246185120131e-05 -2.33460535490058e-06 -2.1092555839293532e-05 -2.3851729827638712e-05 9.2442182701915358e-05 -1.1466454064847164e-06 -6.1177884318630132e-07 -5.4467129997514197e-05 0.00028076924431723321 -0.00016374274051801266 -0.00013587607211192092 -0.00015651071013608069 0.00027501429126127483 0.00013083234119478632 0.000441853055693228 0.00018877755586176083 0.00060516928274546443 0.00060804241827087707 0.00018539164971377467 0.00042298890666039873 0.00053458845359248802 0.00048301928599739168 0.00059313571267794775 0.00055065154357645824 0.00046172291860709666 -0.002451073959037803 -0.0025051019553413269 0.00048604172208722356 -0.0014505136464679806 -0.0046744016912649575 -0.0047426241965466366 -0.0075179761721437212 -0.0053158817058606795 -0.0016784913606343488 -0.0053796063046714282 -0.0042357486517273979 -0.0047344615984849219 -0.0046779048551674144 -0.0031625035350963267 -0.004817554026992972 0.00089704590568685664 -0.0047293276299995623 -0.0013289030780793789 0.00082037959652688799 -0.0017156414220143037 -0.002463139623381223 -0.0053267493819697835 -0.0050100151472897017 -0.0039366264658780709 -0.0026279935468802641 -0.0026405757981224978 -0.0039199116297544351 -0.0029898490641061333 -0.0021146916293558818 -0.0035749006942401417 -0.00058938548348423181 -0.00040959380233995731 -0.00019294202657135903 0.00069585756820371718 0.00071728308748923459 -0.00081580604481108418 0.00094817798981040088 0.00077706028432198207 -0.00042490566858610347 0.00071878858187151716 0.00027545451580250196 0.00019147870402118125 0.00043858718940573718 -0.00014363933190487369 0.0001022239509339012 0.00023466154972920901 0.00024125311773801671 0.00026825472373386445 -6.6610278996364532e-05 0.00026097233493509799 -3.2723345931066058e-05 -6.2438109710432078e-05 0.00025778912618584104 0.0002183765222420499 -2.7432637997608443e-05 -0.0001637210923493