<?xml version="1.0"?>
<VTKFile type="UnstructuredGrid" version="0.1" byte_order="LittleEndian">
<UnstructuredGrid>
<Piece NumberOfPoints="6444" NumberOfCells="2148">
<Points>
<DataArray type="Float64" NumberOfComponents="3" format="ascii">
0 0.1020408163265305 0 0 0 0 0.073634588831630737 0.063733304865559531 0 0.073634588831630737 0.063733304865559531 0 0 0 0 0.10526315789448409 0 0 0.10526315789448409 0 0 0.15706204793571721 0.065730414421860325 0 0.073634588831630737 0.063733304865559531 0 0.073634588831630737 0.063733304865559531 0 0.15706204793571721 0.065730414421860325 0 0.1058477383279523 0.15089529357940679 0 0.1058477383279523 0.15089529357940679 0 0 0.20408163265306101 0 0 0.1020408163265305 0 0.1058477383279523 0.15089529357940679 0 0 0.1020408163265305 0 0.073634588831630737 0.063733304865559531 0 0.096326094416150879 0.2738115102943669 0 0 0.20408163265306101 0 0.1058477383279523 0.15089529357940679 0 0 0.3061224489795924 0 0 0.20408163265306101 0 0.096326094416150879 0.2738115102943669 0 0.096326094416150879 0.2738115102943669 0 0.19912213507755991 0.24170113105785579 0 0.17099478320065239 0.33418874558395761 0 0.096326094416150879 0.2738115102943669 0 0.1058477383279523 0.15089529357940679 0 0.19912213507755991 0.24170113105785579 0 0.1058477383279523 0.15089529357940679 0 0.2227417586060364 0.14198457667505321 0 0.19912213507755991 0.24170113105785579 0 0.19912213507755991 0.24170113105785579 0 0.28395937666824012 0.33632665726232341 0 0.17099478320065239 0.33418874558395761 0 0.28395937666824012 0.33632665726232341 0 0.19912213507755991 0.24170113105785579 0 0.3065290384860177 0.21845328511822379 0 0.2227417586060364 0.14198457667505321 0 0.32203054174603751 0.1135564938669265 0 0.3065290384860177 0.21845328511822379 0 0.3065290384860177 0.21845328511822379 0 0.19912213507755991 0.24170113105785579 0 0.2227417586060364 0.14198457667505321 0 0.2458590500629341 0.061570842006046268 0 0.32203054174603751 0.1135564938669265 0 0.2227417586060364 0.14198457667505321 0 0.2227417586060364 0.14198457667505321 0 0.15706204793571721 0.065730414421860325 0 0.2458590500629341 0.061570842006046268 0 0.2227417586060364 0.14198457667505321 0 0.1058477383279523 0.15089529357940679 0 0.15706204793571721 0.065730414421860325 0 0.15706204793571721 0.065730414421860325 0 0.2105263157889683 0 0 0.2458590500629341 0.061570842006046268 0 0.10526315789448409 0 0 0.2105263157889683 0 0 0.15706204793571721 0.065730414421860325 0 0.2458590500629341 0.061570842006046268 0 0.2105263157889683 0 0 0.31578947368345239 0 0 0.31578947368345239 0 0 0.32203054174603751 0.1135564938669265 0 0.2458590500629341 0.061570842006046268 0 0.32203054174603751 0.1135564938669265 0 0.31578947368345239 0 0 0.42091535253335821 0.074985042685527997 0 0.42091535253335821 0.074985042685527997 0 0.31578947368345239 0 0 0.4210526315779366 0 0 0.41201455634411649 0.1897984988829047 0 0.32203054174603751 0.1135564938669265 0 0.42091535253335821 0.074985042685527997 0 0.42091535253335821 0.074985042685527997 0 0.51310137082636131 0.1341294928157436 0 0.41201455634411649 0.1897984988829047 0 0.52631578947244417 0 0 0.42091535253335821 0.074985042685527997 0 0.4210526315779366 0 0 0.51310137082636131 0.1341294928157436 0 0.42091535253335821 0.074985042685527997 0 0.52631578947244417 0 0 0.52631578947244417 0 0 0.59443945123281217 0.088717840836347678 0 0.51310137082636131 0.1341294928157436 0 0.52631578947244417 0 0 0.6315789473670218 0 0 0.59443945123281217 0.088717840836347678 0 0.59443945123281217 0.088717840836347678 0 0.61110205716185617 0.19633559899170319 0 0.51310137082636131 0.1341294928157436 0 0.51310137082636131 0.1341294928157436 0 0.50098672486132223 0.25062984267919391 0 0.41201455634411649 0.1897984988829047 0 0.61110205716185617 0.19633559899170319 0 0.50098672486132223 0.25062984267919391 0 0.51310137082636131 0.1341294928157436 0 0.58188516883365671 0.30239275902164231 0 0.50098672486132223 0.25062984267919391 0 0.61110205716185617 0.19633559899170319 0 0.58188516883365671 0.30239275902164231 0 0.61110205716185617 0.19633559899170319 0 0.67269763957089668 0.28766618318192039 0 0.41201455634411649 0.1897984988829047 0 0.50098672486132223 0.25062984267919391 0 0.39980317448743058 0.29844098685688902 0 0.41201455634411649 0.1897984988829047 0 0.3065290384860177 0.21845328511822379 0 0.32203054174603751 0.1135564938669265 0 0.3065290384860177 0.21845328511822379 0 0.39980317448743058 0.29844098685688902 0 0.28395937666824012 0.33632665726232341 0 0.41201455634411649 0.1897984988829047 0 0.39980317448743058 0.29844098685688902 0 0.3065290384860177 0.21845328511822379 0 0.28395937666824012 0.33632665726232341 0 0.39980317448743058 0.29844098685688902 0 0.37751055495358538 0.39126393687673539 0 0.4068115365931686 0.48491119452919718 0 0.29845534578569238 0.44756390809804841 0 0.37751055495358538 0.39126393687673539 0 0.28395937666824012 0.33632665726232341 0 0.37751055495358538 0.39126393687673539 0 0.29845534578569238 0.44756390809804841 0 0.37751055495358538 0.39126393687673539 0 0.49852334123339559 0.38907693763721879 0 0.4068115365931686 0.48491119452919718 0 0.39980317448743058 0.29844098685688902 0 0.49852334123339559 0.38907693763721879 0 0.37751055495358538 0.39126393687673539 0 0.39980317448743058 0.29844098685688902 0 0.50098672486132223 0.25062984267919391 0 0.49852334123339559 0.38907693763721879 0 0.50098672486132223 0.25062984267919391 0 0.58188516883365671 0.30239275902164231 0 0.49852334123339559 0.38907693763721879 0 0.58188516883365671 0.30239275902164231 0 0.61404777858908499 0.38779589852573809 0 0.49852334123339559 0.38907693763721879 0 0.58188516883365671 0.30239275902164231 0 0.67269763957089668 0.28766618318192039 0 0.61404777858908499 0.38779589852573809 0 0.61404777858908499 0.38779589852573809 0 0.58768653706651386 0.46412604547642611 0 0.49852334123339559 0.38907693763721879 0 0.4068115365931686 0.48491119452919718 0 0.49852334123339559 0.38907693763721879 0 0.50993157348022133 0.5222808145795188 0 0.50993157348022133 0.5222808145795188 0 0.49852334123339559 0.38907693763721879 0 0.58768653706651386 0.46412604547642611 0 0.58768653706651386 0.46412604547642611 0 0.61394540470706838 0.57099007365173216 0 0.50993157348022133 0.5222808145795188 0 0.51775152288730519 0.64920465993269849 0 0.50993157348022133 0.5222808145795188 0 0.61394540470706838 0.57099007365173216 0 0.51775152288730519 0.64920465993269849 0 0.42059707578191508 0.59585436944894388 0 0.50993157348022133 0.5222808145795188 0 0.50993157348022133 0.5222808145795188 0 0.42059707578191508 0.59585436944894388 0 0.4068115365931686 0.48491119452919718 0 0.29845534578569238 0.44756390809804841 0 0.4068115365931686 0.48491119452919718 0 0.31454340936270092 0.54916538087209121 0 0.42059707578191508 0.59585436944894388 0 0.31454340936270092 0.54916538087209121 0 0.4068115365931686 0.48491119452919718 0 0.42059707578191508 0.59585436944894388 0 0.33591602694935457 0.66131199390812068 0 0.31454340936270092 0.54916538087209121 0 0.23580292830338159 0.61156435780913132 0 0.22205887719093709 0.51085764442280845 0 0.31454340936270092 0.54916538087209121 0 0.33591602694935457 0.66131199390812068 0 0.23580292830338159 0.61156435780913132 0 0.31454340936270092 0.54916538087209121 0 0.1247920390493031 0.5981384238717109 0 0.22205887719093709 0.51085764442280845 0 0.23580292830338159 0.61156435780913132 0 0.19230207234368041 0.42267882596596917 0 0.22205887719093709 0.51085764442280845 0 0.099581482345633993 0.49355644173513979 0 0.29845534578569238 0.44756390809804841 0 0.31454340936270092 0.54916538087209121 0 0.22205887719093709 0.51085764442280845 0 0.19230207234368041 0.42267882596596917 0 0.29845534578569238 0.44756390809804841 0 0.22205887719093709 0.51085764442280845 0 0.19230207234368041 0.42267882596596917 0 0.28395937666824012 0.33632665726232341 0 0.29845534578569238 0.44756390809804841 0 0.19230207234368041 0.42267882596596917 0 0.17099478320065239 0.33418874558395761 0 0.28395937666824012 0.33632665726232341 0 0.079886347472302513 0.39267504564254302 0 0.19230207234368041 0.42267882596596917 0 0.099581482345633993 0.49355644173513979 0 0.079886347472302513 0.39267504564254302 0 0.096326094416150879 0.2738115102943669 0 0.17099478320065239 0.33418874558395761 0 0.079886347472302513 0.39267504564254302 0 0.17099478320065239 0.33418874558395761 0 0.19230207234368041 0.42267882596596917 0 0.096326094416150879 0.2738115102943669 0 0.079886347472302513 0.39267504564254302 0 0 0.3061224489795924 0 0 0.3061224489795924 0 0.079886347472302513 0.39267504564254302 0 0 0.40816326530612201 0 0.079886347472302513 0.39267504564254302 0 0.099581482345633993 0.49355644173513979 0 0 0.40816326530612201 0 0.099581482345633993 0.49355644173513979 0 0 0.51020408163265341 0 0 0.40816326530612201 0 0.063661092758028087 0.55935793480215701 0 0 0.51020408163265341 0 0.099581482345633993 0.49355644173513979 0 0.099581482345633993 0.49355644173513979 0 0.22205887719093709 0.51085764442280845 0 0.1247920390493031 0.5981384238717109 0 0.063661092758028087 0.55935793480215701 0 0.099581482345633993 0.49355644173513979 0 0.1247920390493031 0.5981384238717109 0 0.1247920390493031 0.5981384238717109 0 0.078882305155223195 0.67085170501850533 0 0.063661092758028087 0.55935793480215701 0 0.078882305155223195 0.67085170501850533 0 0 0.61224489795918391 0 0.063661092758028087 0.55935793480215701 0 0 0.61224489795918391 0 0 0.51020408163265341 0 0.063661092758028087 0.55935793480215701 0 0 0.61224489795918391 0 0.078882305155223195 0.67085170501850533 0 0 0.71428571428571441 0 0.078882305155223195 0.67085170501850533 0 0.110872549238551 0.75326234048887408 0 0 0.71428571428571441 0 0 0.81632653061224492 0 0 0.71428571428571441 0 0.110872549238551 0.75326234048887408 0 0.15874693748826191 0.67632714848704367 0 0.110872549238551 0.75326234048887408 0 0.078882305155223195 0.67085170501850533 0 0.15874693748826191 0.67632714848704367 0 0.078882305155223195 0.67085170501850533 0 0.1247920390493031
[...]
<PointData Scalars="conc_conc," Vectors="" Tensors="">
<DataArray type="Float64" Name="conc_conc" format="ascii">
-1.0722785433512003e-10 -9.1920847983874582e-11 1.5741957267637943e-10 2.1193846100374602e-10 -6.2755797189772224e-11 1.8848184066011345e-10 1.1870805407269872e-11 -6.0690674937031395e-10 3.6285223656221772e-10 3.9533257838944056e-10 -6.4599338738393581e-10 5.5983213488061484e-11 3.9822414598193525e-10 -1.4206663357090126e-10 -1.3965426082874929e-10 3.7914076495103364e-10 -1.1801603348723913e-10 1.772544489074682e-10 5.3884059427028777e-10 -1.6294887752111009e-10 4.3974530872376082e-10 -2.2428500154641303e-10 -2.1509030102715266e-10 5.7085163903589361e-10 7.9536648941111574e-10 -3.6635819483628732e-09 -3.0776080286263543e-09 6.1095627043509241e-10 4.8579301136244671e-10 -3.3117528305940107e-09 -4.8854953977237639e-11 -2.2479570138940767e-09 -3.0699549657384723e-09 -2.9012335415430773e-09 8.5798138220367255e-10 -5.6384220114144566e-09 1.2225034253220885e-09 -3.062952614005756e-09 2.6776560616183936e-09 -1.6460571948017689e-09 3.3813804495646146e-09 2.7785608241460471e-09 2.3566090246680821e-09 -2.8227082036494864e-09 -1.3453650859794253e-09 -4.7044900433743792e-10 3.1486803252932964e-09 -1.4867638841989959e-09 -1.9180266926749782e-09 -1.0609137151061799e-09 -1.0436104424580242e-09 -2.1404319494100139e-09 -1.2792332194618965e-10 -6.7340152799046227e-10 -1.0538048968972254e-09 -7.8010700416525793e-10 -1.0379419642838367e-09 -4.8516132313384452e-11 -9.8917216434880437e-10 -8.1883499790414704e-10 -4.7856825406709373e-10 -1.2627073353837606e-09 1.7418597870312783e-09 1.8883933378641253e-09 2.9691387628378832e-09 -2.4678529658201974e-10 5.3646478948812151e-09 1.9382493735668775e-09 1.2127647973854225e-08 1.1778287908714313e-08 2.3997217402673654e-09 9.0136167507846932e-09 1.8814722785090573e-08 5.3678219196414243e-09 1.2723407924850398e-08 1.087338524458097e-08 8.940974766287828e-09 1.7740764086226419e-08 3.7670866197609356e-09 1.0460505084269228e-08 7.8768109490747738e-09 8.4530412053755122e-09 1.0725323786450394e-08 3.4584577433297415e-09 3.2464062991602618e-09 -8.7873354384759771e-10 6.0789234830548071e-09 2.5661947277640965e-09 -1.8380671994593611e-09 -1.0284325388227699e-09 -1.4150792047057279e-09 -2.9367323019030489e-09 6.552544475336124e-09 8.4920874310037672e-09 1.726350878049127e-08 1.839540376488342e-08 -3.3440063875738997e-09 1.1746030988942271e-08 7.1986824137110929e-09 1.2107149701346415e-10 1.2572718790569652e-08 -4.4235627329235726e-09 -3.4004874707023895e-09 -1.9579986361920383e-09 -2.390483113357147e-09 1.7991769527998761e-08 1.8376512166483022e-08 2.9087263822448615e-08 1.9830307767008254e-08 5.9993173615933092e-09 4.1089463448695901e-09 3.3910557894744472e-09 3.0496794207136083e-08 3.1757656769241019e-09 2.0962734349678622e-08 2.9068846273219848e-08 5.5412715114454883e-09 2.0197619673311228e-09 3.2780640276672068e-08 3.5932913675931402e-08 6.5095543726067232e-08 1.3260148277972755e-08 3.6663443077178983e-08 1.3674957839011017e-09 3.47900455798952e-08 1.2637876846497231e-08 4.795310216490795e-08 3.5763586897241721e-08 7.500433908691143e-08 2.9911731724857511e-08 3.5939093465728991e-08 4.6971447344662012e-08 2.9937597595717491e-08 1.7973527378058029e-08 3.4504156543253738e-08 1.3590019360275481e-08 1.0177211953536161e-09 2.2005076418371204e-08 -7.1629556818619187e-10 -8.1681315151188429e-09 2.3522598438499797e-08 -3.4933775315351556e-09 -2.3693900473237612e-09 -5.7670567069796643e-09 -9.4426266117714194e-09 -2.3382082226295442e-09 2.5344124440628513e-08 8.1281097789210461e-08 2.6576277490768638e-08 5.0253756844906024e-08 3.482104896858774e-08 2.7781202573336704e-08 -1.7515080291991467e-09 -3.2155709629396341e-09 -1.3968421422769202e-08 3.4897274921985271e-08 4.6232293742877452e-08 3.8011413134597365e-08 -1.6101679646948192e-08 7.6233999220375423e-08 1.3603957188000942e-07 4.0306414065322714e-08 4.9892281784567835e-08 1.2844592041321458e-07 8.5461494539994852e-08 1.0880511252360609e-08 6.7631617985644721e-08 3.3297598043705572e-08 1.1551897606061799e-07 3.4361273301979425e-08 7.0384861452279334e-08 1.2051268604303903e-07 8.1261333663858439e-08 2.9720237855079029e-08 -1.9312102355403809e-08 -1.9340878401916119e-08 2.6130666407091188e-08 6.2265717191716606e-08 -2.1831860380384869e-08 3.2219939520423068e-08 -3.1221944158458826e-09 -9.910433836340736e-09 -1.5830740552989292e-08 -5.0003835442126051e-09 -9.0863572268779593e-09 3.9433162858263082e-10 1.3408890855961577e-08 2.4265604648688175e-08 -1.6781263259944443e-08 -1.1469188396869554e-08 7.3044622369801909e-09 -1.3898563491491173e-08 -1.0212946225697292e-08 3.7463157498695394e-09 6.5061293789382085e-09 -8.6794833499402186e-09 -5.9654222858693437e-09 1.2220412195206742e-09 1.4925360915398112e-09 -4.5472326275064956e-09 4.1329775150137217e-10 1.0449115371141483e-09 4.8235307610899189e-10 -2.2566061016805867e-09 1.2033068549847077e-09 -2.5045215404913732e-09 -4.3174352153134669e-09 6.3155439177278068e-10 6.8756369275462926e-10 -2.5513464177488203e-10 -3.0629711184240871e-10 6.653553352158057e-10 -3.3846128262280495e-10 7.4109203065163254e-10 1.301442075644875e-09 -3.7812329990859918e-10 1.3720007445720082e-09 -4.6856194869061371e-10 -4.6632336351418613e-10 1.4895275863057425e-09 -5.3896670425066448e-10 1.5126989033662849e-09 8.6556866192190604e-10 -9.5159728307268996e-09 -2.725646177737388e-09 2.4706390616307779e-09 4.0018567209777474e-10 -6.0626708487956794e-10 -7.4382879902596312e-10 3.9775452175545344e-09 2.6434234892761574e-09 2.1412812083283802e-09 -9.9740822716107534e-10 1.1473348240954103e-09 -9.1785833410444402e-10 -7.5615033781081655e-10 1.0064606980356012e-09 -1.1953187794210163e-09 2.2960583407727059e-09 -1.3590271982389858e-09 2.5683617323815027e-09 5.2127021060542716e-09 -1.5043139669491013e-09 -1.7747599472879729e-09 -1.7905859166059416e-09 5.4609667209392196e-09 -9.4192197836051053e-09 -1.8864619319161823e-10 5.4924118505156506e-09 -8.8383547651209435e-09 4.895097301962805e-09 -2.2643942740629392e-09 -1.6953589506473476e-08 -2.6420947248260544e-08 -1.0011021626179843e-08 -2.3963031937340079e-09 -1.6523864983780136e-08 -9.6420899454894678e-09 -2.7124909637320659e-08 6.6637484952882603e-08 -2.8850114202159574e-08 2.0144685067860662e-08 -4.2488877432270124e-08 1.4798334543193581e-07 -2.8756575961532247e-09 -2.8643315213445376e-08 -3.1682636555872866e-08 -8.9801471581788755e-09 -2.7561619919134506e-08 -3.6209557638445969e-09 8.367090808832521e-09 -6.4618672501835713e-08 -4.9222570338563164e-08 -4.6476345343348663e-08 -1.4747718117737137e-08 5.9729786851097834e-09 3.2982341867980386e-08 9.962721680706972e-08 -7.6274564437557282e-08 -5.2118644369014374e-08 -4.5149008967081629e-08 -2.2307072774830982e-09 -4.9911326498958734e-08 -4.4548598720835816e-09 -2.7423073452665088e-08 -5.2080056269689487e-09 -1.1282293639752435e-09 -2.5338238917695187e-08 -2.0489082215137141e-09 6.0115528581457025e-09 9.1873486570397364e-09 1.3337768881562163e-08 -4.0186679333114627e-09 1.1253398629712322e-08 1.0214093690210342e-08 -3.4981514780431607e-09 -3.4766071858922833e-09 -7.7644364455922244e-09 -6.6103340793467815e-09 1.0769073716288544e-08 1.4246379870667682e-09 -2.6751557518494852e-08 2.0883595472533993e-08 -2.9662635324514682e-08 1.9390593156333672e-08 2.3457356719050372e-08 2.0611797630112426e-08 -3.7196845741415978e-08 -1.0863618512053048e-07 2.3626384944131506e-08 -1.1040343095071034e-08 -1.0172286834136305e-08 2.2302809005025519e-08 -8.5093934766687587e-09 1.2129706567818235e-08 -1.2381401863156647e-08 2.6212353328518572e-08 2.4142146046171325e-08 1.9860649833224804e-08 -1.2609429093610003e-08 -1.0968828077064864e-08 -6.0015398781275357e-08 -1.2170439057635211e-07 5.893640890784803e-08 5.2807234675356249e-08 2.3881685498009981e-08 -5.1724695259073107e-08 -7.8229322783320739e-08 2.6994831006397392e-08 -1.1548136932319708e-07 -1.1838117207192074e-07 -9.5879260922632912e-08 -1.5293559043231657e-07 -1.1807348756753151e-07 -1.5552608175581471e-07 -2.7127642435360913e-07 2.6387460692918765e-07 -2.0865552229586572e-07 7.6748169390764794e-07 7.1177312913403441e-08 -3.4365531780136723e-07 -6.8790389692186474e-08 -1.7609414486329736e-07 7.6929553872850903e-08 7.2379757871060777e-07 -3.1949307861195066e-09 -1.5827032811904238e-07 -1.4104461213266852e-07 -2.9738746000742379e-08 -7.9709429292261463e-09 -1.336482426326697e-07 4.0328041053296875e-07 7.9366783251904851e-08 -8.7517977400120589e-08 -6.1304379832036748e-08 -6.167281058667569e-08 -1.1842587143664844e-07 -6.0582306045539341e-08 -4.0007984963577863e-08 -6.0967600329818945e-08 -8.6351879904238431e-08 1.0820306580139651e-07 -5.8676554784516589e-08 3.7985087521288654e-07 -6.4381098750773209e-08 1.5339585918077954e-07 6.6410370656399881e-07 4.6230509182371799e-07 1.3996242222762821e-07 6.7100493663525779e-07 1.0773702881501589e-06 5.0359470936404037e-07 4.0569699159132284e-07 1.1192597848142922e-06 8.0211225148713107e-07 9.4695470697794138e-07 4.7748157167994261e-07 1.1118078218212948e-06 6.9099624130858443e-07 1.1145585462996532e-07 4.2276272858627095e-07 8.1730690720291919e-07 2.4110029170542128e-06 4.2550519192948052e-07 6.8417253329768681e-07 2.7077766472105476e-06 1.5026922836376226e-06 2.4305850970029385e-06 9.6082371075828889e-07 1.797595242084013e-06 1.1121121506446557e-06 1.7515230551093953e-06 9.900122010079053e-07 1.433222960567537e-06 4.1615257225772496e-07 7.019380200593415e-07 4.4077037362391952e-07 1.4594862155711679e-06 1.2246626532671273e-06 -3.8682585637362912e-07 3.4310281732973711e-07 -2.8010250001542398e-07 3.4278159918509415e-07 3.2935045434121417e-07 -2.6093264078573851e-07 -2.3830603092531774e-07 3.0302271837922812e-07 -2.8635345726861374e-08 3.1753801803326519e-07 3.1122836171167078e-07 -3.2274291558904796e-08 3.2634591588992205e-07 4.6090886380104098e-07 1.1703426466312083e-06 2.3371061884912264e-07 -8.9384176892778171e-08 2.768707431878446e-07 4.1279972767953769e-07 7.7113919160603279e-07 2.5435278041552141e-07 -3.5734314943514965e-08 2.8451154438285147e-07 -1.0639508583654514e-07 -1.5021981234100949e-08 -7.7254686624967999e-08 2.1581490565378974e-07 -2.8238262568516327e-08 7.8987615746096764e-09 -3.3427234439764227e-08 3.1067555389276376e-08 8.7594302172431019e-10 1.5721960330595941e-07 2.0973040513173898e-07 1.6708096895550219e-07 -5.6358849602129448e-09 4.6578965409372701e-07 2.060076526631479e-07 3.1117449897526591e-07 3.0967435391916533e-07 7.2676795682828746e-07 4.7822909831549809e-07 1.5344069601882164e-07 8.4743956216284626e-09 3.6875411188379497e-07 1.6720538141808006e-07 3.8618677553031758e-07 6.3570662544064444e-07 2.5022014163066897e-08 1.7192458493691757e-07 3.5109633787515366e-07 2.5997341690556835e-07 4.00425573921105e-07 2.0947189154653926e-07 2.1305056131546087e-07 4.5068547143720426e-07 2.0192549104776592e-07 2.0974635621501373e-07 1.7264455826252458e-07 2.5630275356984196e-07 7.5166367419863995e-08 1.4013232523641999e-07 -3.3202511005161107e-08 8.2426825407511337e-08 1.899404429695681e-07 1.8570992444028108e-07 8.6643194302864511e-08 1.2266365449299711e-07 1.8491138160595462e-07 1.8916535587396135e-07 1.4322816727586594e-07 7.5124639363106435e-08 2.1394732819701182e-07 1.9535107768031921e-07 6.4849743476607714e-08 1.9678469325665159e-07 6.1879007204132154e-08 3.3956256663729861e-08 2.08552742374994e-07 2.6410752144890254e-08 1.769050683763403e-07 -8.3611447284035817e-09 -3.1567591155648121e-08 6.2947409810331469e-09 1.821913662801225e-08 5.3289051997657105e-08 -2.0093027164036317e-08 -1.7465028829916738e-08 4.7348227033938298e-08 -1.9346495037422695e-08 -1.5181670883583879e-08 -1.3244940342580743e-08 -8.5981630384022182e-09 -1.8288580858800721e-09 -1.5884355351423762e-08 -9.7331532182639852e-09 -2.7542475720276295e-08 -1.3335080166078199e-08 -1.5489648126785604e-08 3.2313320597738549e-09 -1.6573842857902934e-08 -1.0789623025719323e-09 -9.2879968987158145e-09 -2.7148151116808532e-09 -2.0820891173639441e-09 1.9247426790176553e-09 3.21668478658035e-10 1.9374379025393047e-09 7.2381361747318171e-10 1.3608118260276585e-09 2.8310070829696532e-09 4.0740092444891138e-10 -7.1120978929452388e-10 1.1678154801652373e-09 -8.2697433173599779e-10 -1.6526132607437864e-10 1.2697874365652839e-09 3.7722419156867391e-10 4.5411634041442261e-09 1.6249564940856421e-09 6.3773406538422606e-10 2.9421429615401283e-09 3.9012990337379963e-09 5.748210309583859e-09 4.7826872798545308e-09 1.9265752086685028e-10 -9.6930311583243246e-10 4.7092764619022272e-09 -2.5708927168597255e-10 -8.1437015791539292e-10 -2.1766247267132436e-10 -1.3489060555001988e-09 -1.2222534961350014e-09 5.5479916184201865e-09 5.1308956945675687e-09 -2.5519567334775059e-10 -1.1253209320059724e-08 9.4974940323805915e-09 -1.7903977079228552e-08 4.139576317973197e-09 -1.4008966144169743e-08 -1.01250741601672e-08 2.1266508255377453e-09 8.5820180458026228e-09 -1.6981955280718235e-08 -2.4914227762911267e-08 -4.0340198839368887e-08 -6.8006924165804923e-08 -4.1965516756807426e-08 -2.4608592714031885e-08 -6.8422265676575081e-08 -1.606603064632572e-08 -1.0567333193232514e-08 -6.2925820346463103e-08 -7.2285399934938351e-08 -8.3471868153997243e-09 1.2109766810556543e-08 4.1620487088067539e-09 7.5590322140229336e-09 1.7572458907184758e-08 -4.6770223593115918e-08 2.2175032348360456e-08 1.9147635745085382e-08 -4.3225746167325328e-08 -4.7061418605004588e-09 -5.9751749893625736e-08 -8.007024346289486e-08 -9.7051591676173511e-08 -1.8348710726295026e-07 -9.905828256615971e-08 -8.0244760135454893e-08 -5.6241502788902474e-08 2.1138032476891607e-08 -1.4382306691003047e-07 -2.3413254946421575e-07 -1.6090238816530504e-07 -2.5246039216662302e-08 -1.5306553749720267e-07 3.0012680976966864e-08 -1.9032537811130199e-08 1.8073183756549905e-08 1.2217143279587062e-08 1.6986897215851354e-08 1.0037093534532532e-08 1.6543762473212144e-08 1.2314619671562623e-08 8.2048398739501816e-09 1.0035168276651061e-08 1.2136780359326716e-08 -2.1629151355772998e-09 -4.8179255635421807e-09 2.1890707754952959e-10 -4.6206160036481673e-09 2.7394372173084815e-09 6.5458350851057907e-09 -3.0429930885658313e-09 -4.2117385708144923e-09 5.8542929032208963e-09 -2.9024638653723203e-09 6.0540376120214716e-09 6.1140937179913085e-09 8.2049093143436366e-09 6.3436627181388057e-09 9.8502530005794881e-09 4.291669307267781e-09 4.3661392275726154e-09 7.3215833790636448e-09 -1.6153540111930516e-09 -2.5183422541838987e-09 5.4620385039883773e-09 -1.6376238972374169e-09 3.0471505060159526e-10 -2.0365797959411914e-09 -1.3054180372933932e-11 -2.0311628197978557e-11 1.8569253547321284e-10 2.2576822547932918e-10 -2.3629215840214464e-11 2.4728281217719111e-11 2.2801994561258007e-10 2.0344818205969228e-10 -2.9665790795258755e-11 4.5632192973092657e-10 5.1157491235220137e-10 -2.1117817177392018e-09 -2.6721895624776294e-09 -2.3216805654035447e-09 6.1977655097058916e-10 4.0502718377966186e-10 -2.707546943739348e-09 7.0622332812436188e-10 -3.0392579764665977e-09 5.3254162862367034e-10 -2.3955654292485568e-09 4.1883996522179946e-10 -3.5044055408141084e-11 5.1042198943609966e-10 4.985575694790424e-14 -2.0031742443021026e-11 3.9090101829294298e-10 2.4081930442900116e-10 2.300896707585469e-11 3.7150792768619604e-10 4.5219517771440691e-12 -2.8782961747250405e-11 -1.31497876412009e-12 -6.2080719779217128e-11 2.3358932453377921e-11 4.7611080148208355e-11 5.8276066673592791e-12 -5.1865197533989583e-11 -3.0770483188493655e-11 1.7052377189304808e-11 1.1038415156982993e-10 6.2668026057133494e-11 1.8547073131013422e-11 5.93261325065981e-11 1.5800014708156012e-11 4.4392026787012458e-11 1.1972981871738078e-11 3.2454960264720668e-11 1.2585402487701518e-11 1.5288856946456999e-11 3.143710331724001e-11 -2.8764992326726205e-12 -2.7406851810925667e-11 -1.7101562645229394e-11 1.8726424560995526e-11 3.5647482056973534e-12 -1.8802712194548806e-11 4.1312310770891943e-12 1.737051033550185e-11 -1.7232055960690851e-11 -1.6723345999545879e-11 -1.4099727531533272e-11 2.6604049609207481e-12 9.5035482731038016e-12 1.5546616938449141e-11 2.5992727216392483e-11 9.6006143318542846e-12 7.5073148281706901e-12 1.5148586259458817e-11 -8.6794140201735299e-13 1.4114659287346902e-11 1.2806109699807078e-11 -2.1061894885001394e-12 8.9653481426452905e-12 9.2749697188509811e-12 4.7353356452641529e-12 -3.2755671939545063e-13 1.2192499835068685e-11 -1.2852609689537272e-11 -4.0453167952297578e-12 8.0517331120635417e-12 3.9768145515464272e-12 -1.38680057438802e-11 9.192181241073243e-12 1.4357645493325248e-10 1.4997660550865884e-12 1.8458700228379811e-10 1.3702338187519066e-10 3.8395299459224676e-11 6.1549484383754092e-12 8.7655905302883716e-11 2.3683740895193877e-10 -1.5177700924594369e-09 8.3968838431473366e-11 -2.941245961386324e-11 1.0693929542707229e-10 -7.8420367844364871e-10 -1.7764965985863022e-10 -2.3063158405538353e-10 3.5302366834919414e-12 5.3335511440878866e-11 8.6396854003003402e-11 -1.7218542166604155e-11 -2.5515194448992147e-12 3.008013070974176e-11 2.8567191206997084e-11 1.3493423217285484e-11 -1.5352846248886431e-11 -1.9881352778113336e-10 -7.4187114546404447e-10 -1.9976660511278119e-10 -1.3237432385173573e-10 1.0018620951982288e-10 -3.892579006593871e-11 -1.0862243865359691e-10 -5.6699427164442356e-11 4.4584311861024937e-11 9.0701408363660269e-11 -1.1748543379608976e-10 5.5573947791573827e-11 -1.4712355387673894e-11 1.3588014321598632e-11 2.9107634720932844e-11 -9.0325416979295479e-12 3.1428801058155305e-12 -3.4308632668494369e-12 -3.2674608022676389e-12 2.8512374397699702e-12 -2.7418372035874875e-12 1.7262110577288666e-12 8.5986003493625034e-12 -1.8129334416285e-12 3.9575340046593871e-12 3.8181606986550818e-12 8.7138404460819833e-12 2.3570909353845241e-12 2.487079606836946e-12 3.9342681855920394e-12 3.7735697305074027e-12 2.3133495661697199e-12 4.018633442134467e-12 3.6126585057309985e-12 1.4189508662084329e-12 -1.2603878992316666e-12 4.3641889862382442e-12 -5.4517813780260153e-13 3.3537244704364928e-12 -1.2794299445061548e-11 2.5623993195508425e-11 -1.0223070620093416e-11 1.7389424003101082e-11 -2.330368926775429e-12 -7.082807461972356e-12 3.191060836765403e-12 -3.7334022954672524e-13 1.6069882450156033e-12 2.392481338313202e-12 -1.9083144542515433e-12 -3.3496438582687761e-12 2.202911972215218e-12 -3.0755630898440263e-12 1.0377315023018547e-12 8.4961229308089466e-13 -2.8708443926752826e-12 -7.4473030313247418e-13 -1.9714251003818677e-14 8.8326284037238916e-13 1.6852227681680101e-12 -1.6508981165864823e-12 2.5203929746733307e-12 4.7396079087542231e-12 6.0334683569237025e-12 1.8430277633233183e-11 2.5549467758636306e-12 2.6875285996468706e-12 2.6899136978535692e-12 5.7826666719053297e-12 -2.5259604925189504e-11 -4.9076523061271726e-11 2.1179219489960438e-11 -4.1489582673206268e-11 -9.0303597745185562e-11 2.7412431428582729e-11 -6.5736115627858956e-11 -7.1314317677282782e-11 -1.3572834466462352e-10 -1.619740404543344e-10 -2.5287379780316577e-10 -2.9553084270054379e-11 2.5715982570614942e-11 -4.6845855546581526e-11 -3.2003808810082253e-11 -2.9750343591368647e-11 -1.4205116253751985e-11 2.2757256688531985e-11 2.4448814046646596e-11 1.9335393797176482e-11 -8.3678116618851776e-12 2.9197597585517078e-11 4.0104908888681367e-11 -4.9183055173456606e-11 1.6974434159947006e-10 -3.201538188357776e-10 -5.5156893395121419e-10 -2.8918361930229913e-10 1.4663180854079442e-10 2.4509411289510695e-11 5.7061861653222384e-10 -9.601882957771426e-11 1.1157613354406428e-09 1.1572132949952785e-09 -1.4034483879197593e-10 3.4818566046094403e-10 1.2658077658825513e-09 4.0998150320380041e-10 1.8470145338628428e-09 1.6234029882819962e-09 1.9823601047520064e-09 -1.6841582871997979e-09 -1.9666216132677033e-09 2.1421392612637643e-09 -4.1431991138455519e-11 -1.1701069845987934e-08 -4.143976649767902e-09 -1.2435007866506194e-08 -1.1532559013224269e-08 -7.0476718011121883e-09 -5.0594394783858644e-09 -4.0747234515183202e-09 -4.3813113681832328e-09 -1.1191515301307779e-08 -2.4525102760350221e-09 -4.1092664809278277e-09 1.9879113628413376e-09 -3.753451341682836e-09 -2.9614206142068694e-10 1.6910363801393634e-09 -6.9221218556216152e-09 -4.515116543768794e-09 -5.0951674747358187e-