<?xml version="1.0"?>
<VTKFile type="UnstructuredGrid" version="0.1" byte_order="LittleEndian">
<UnstructuredGrid>
<Piece NumberOfPoints="6444" NumberOfCells="2148">
<Points>
<DataArray type="Float64" NumberOfComponents="3" format="ascii">
0.073634588831630737 0.063733304865559531 0 0 0 0 0.10526315789448409 0 0 0 0.1020408163265305 0 0 0 0 0.073634588831630737 0.063733304865559531 0 0.1058477383279523 0.15089529357940679 0 0 0.20408163265306101 0 0 0.1020408163265305 0 0.1058477383279523 0.15089529357940679 0 0 0.1020408163265305 0 0.073634588831630737 0.063733304865559531 0 0.073634588831630737 0.063733304865559531 0 0.15706204793571721 0.065730414421860325 0 0.1058477383279523 0.15089529357940679 0 0.10526315789448409 0 0 0.15706204793571721 0.065730414421860325 0 0.073634588831630737 0.063733304865559531 0 0.15706204793571721 0.065730414421860325 0 0.2105263157889683 0 0 0.2458590500629341 0.061570842006046268 0 0.10526315789448409 0 0 0.2105263157889683 0 0 0.15706204793571721 0.065730414421860325 0 0.2227417586060364 0.14198457667505321 0 0.15706204793571721 0.065730414421860325 0 0.2458590500629341 0.061570842006046268 0 0.2227417586060364 0.14198457667505321 0 0.1058477383279523 0.15089529357940679 0 0.15706204793571721 0.065730414421860325 0 0.2458590500629341 0.061570842006046268 0 0.32203054174603751 0.1135564938669265 0 0.2227417586060364 0.14198457667505321 0 0.2458590500629341 0.061570842006046268 0 0.2105263157889683 0 0 0.31578947368345239 0 0 0.31578947368345239 0 0 0.32203054174603751 0.1135564938669265 0 0.2458590500629341 0.061570842006046268 0 0.28395937666824012 0.33632665726232341 0 0.19912213507755991 0.24170113105785579 0 0.3065290384860177 0.21845328511822379 0 0.2227417586060364 0.14198457667505321 0 0.32203054174603751 0.1135564938669265 0 0.3065290384860177 0.21845328511822379 0 0.3065290384860177 0.21845328511822379 0 0.19912213507755991 0.24170113105785579 0 0.2227417586060364 0.14198457667505321 0 0.1058477383279523 0.15089529357940679 0 0.2227417586060364 0.14198457667505321 0 0.19912213507755991 0.24170113105785579 0 0.19912213507755991 0.24170113105785579 0 0.28395937666824012 0.33632665726232341 0 0.17099478320065239 0.33418874558395761 0 0.096326094416150879 0.2738115102943669 0 0.19912213507755991 0.24170113105785579 0 0.17099478320065239 0.33418874558395761 0 0.096326094416150879 0.2738115102943669 0 0.1058477383279523 0.15089529357940679 0 0.19912213507755991 0.24170113105785579 0 0.096326094416150879 0.2738115102943669 0 0 0.20408163265306101 0 0.1058477383279523 0.15089529357940679 0 0 0.3061224489795924 0 0 0.20408163265306101 0 0.096326094416150879 0.2738115102943669 0 0 0.3061224489795924 0 0.079886347472302513 0.39267504564254302 0 0 0.40816326530612201 0 0.096326094416150879 0.2738115102943669 0 0.079886347472302513 0.39267504564254302 0 0 0.3061224489795924 0 0.079886347472302513 0.39267504564254302 0 0.099581482345633993 0.49355644173513979 0 0 0.40816326530612201 0 0.079886347472302513 0.39267504564254302 0 0.19230207234368041 0.42267882596596917 0 0.099581482345633993 0.49355644173513979 0 0.079886347472302513 0.39267504564254302 0 0.096326094416150879 0.2738115102943669 0 0.17099478320065239 0.33418874558395761 0 0.079886347472302513 0.39267504564254302 0 0.17099478320065239 0.33418874558395761 0 0.19230207234368041 0.42267882596596917 0 0 0.61224489795918391 0 0 0.51020408163265341 0 0.063661092758028087 0.55935793480215701 0 0.078882305155223195 0.67085170501850533 0 0 0.61224489795918391 0 0.063661092758028087 0.55935793480215701 0 0.099581482345633993 0.49355644173513979 0 0 0.51020408163265341 0 0 0.40816326530612201 0 0.063661092758028087 0.55935793480215701 0 0 0.51020408163265341 0 0.099581482345633993 0.49355644173513979 0 0.099581482345633993 0.49355644173513979 0 0.22205887719093709 0.51085764442280845 0 0.1247920390493031 0.5981384238717109 0 0.1247920390493031 0.5981384238717109 0 0.078882305155223195 0.67085170501850533 0 0.063661092758028087 0.55935793480215701 0 0.063661092758028087 0.55935793480215701 0 0.099581482345633993 0.49355644173513979 0 0.1247920390493031 0.5981384238717109 0 0.1247920390493031 0.5981384238717109 0 0.22205887719093709 0.51085764442280845 0 0.23580292830338159 0.61156435780913132 0 0.19230207234368041 0.42267882596596917 0 0.22205887719093709 0.51085764442280845 0 0.099581482345633993 0.49355644173513979 0 0.29845534578569238 0.44756390809804841 0 0.31454340936270092 0.54916538087209121 0 0.22205887719093709 0.51085764442280845 0 0.23580292830338159 0.61156435780913132 0 0.22205887719093709 0.51085764442280845 0 0.31454340936270092 0.54916538087209121 0 0.33591602694935457 0.66131199390812068 0 0.23580292830338159 0.61156435780913132 0 0.31454340936270092 0.54916538087209121 0 0.19230207234368041 0.42267882596596917 0 0.17099478320065239 0.33418874558395761 0 0.28395937666824012 0.33632665726232341 0 0.19230207234368041 0.42267882596596917 0 0.29845534578569238 0.44756390809804841 0 0.22205887719093709 0.51085764442280845 0 0.19230207234368041 0.42267882596596917 0 0.28395937666824012 0.33632665726232341 0 0.29845534578569238 0.44756390809804841 0 0.28395937666824012 0.33632665726232341 0 0.39980317448743058 0.29844098685688902 0 0.37751055495358538 0.39126393687673539 0 0.4068115365931686 0.48491119452919718 0 0.29845534578569238 0.44756390809804841 0 0.37751055495358538 0.39126393687673539 0 0.28395937666824012 0.33632665726232341 0 0.37751055495358538 0.39126393687673539 0 0.29845534578569238 0.44756390809804841 0 0.37751055495358538 0.39126393687673539 0 0.49852334123339559 0.38907693763721879 0 0.4068115365931686 0.48491119452919718 0 0.39980317448743058 0.29844098685688902 0 0.50098672486132223 0.25062984267919391 0 0.49852334123339559 0.38907693763721879 0 0.39980317448743058 0.29844098685688902 0 0.49852334123339559 0.38907693763721879 0 0.37751055495358538 0.39126393687673539 0 0.42059707578191508 0.59585436944894388 0 0.33591602694935457 0.66131199390812068 0 0.31454340936270092 0.54916538087209121 0 0.29845534578569238 0.44756390809804841 0 0.4068115365931686 0.48491119452919718 0 0.31454340936270092 0.54916538087209121 0 0.42059707578191508 0.59585436944894388 0 0.31454340936270092 0.54916538087209121 0 0.4068115365931686 0.48491119452919718 0 0.50993157348022133 0.5222808145795188 0 0.42059707578191508 0.59585436944894388 0 0.4068115365931686 0.48491119452919718 0 0.51775152288730519 0.64920465993269849 0 0.42059707578191508 0.59585436944894388 0 0.50993157348022133 0.5222808145795188 0 0.58768653706651386 0.46412604547642611 0 0.61394540470706838 0.57099007365173216 0 0.50993157348022133 0.5222808145795188 0 0.51775152288730519 0.64920465993269849 0 0.50993157348022133 0.5222808145795188 0 0.61394540470706838 0.57099007365173216 0 0.50098672486132223 0.25062984267919391 0 0.58188516883365671 0.30239275902164231 0 0.49852334123339559 0.38907693763721879 0 0.4068115365931686 0.48491119452919718 0 0.49852334123339559 0.38907693763721879 0 0.50993157348022133 0.5222808145795188 0 0.50993157348022133 0.5222808145795188 0 0.49852334123339559 0.38907693763721879 0 0.58768653706651386 0.46412604547642611 0 0.61404777858908499 0.38779589852573809 0 0.58768653706651386 0.46412604547642611 0 0.49852334123339559 0.38907693763721879 0 0.58188516883365671 0.30239275902164231 0 0.61404777858908499 0.38779589852573809 0 0.49852334123339559 0.38907693763721879 0 0.58188516883365671 0.30239275902164231 0 0.67269763957089668 0.28766618318192039 0 0.61404777858908499 0.38779589852573809 0 0.58188516883365671 0.30239275902164231 0 0.50098672486132223 0.25062984267919391 0 0.61110205716185617 0.19633559899170319 0 0.58188516883365671 0.30239275902164231 0 0.61110205716185617 0.19633559899170319 0 0.67269763957089668 0.28766618318192039 0 0.61110205716185617 0.19633559899170319 0 0.50098672486132223 0.25062984267919391 0 0.51310137082636131 0.1341294928157436 0 0.51310137082636131 0.1341294928157436 0 0.50098672486132223 0.25062984267919391 0 0.41201455634411649 0.1897984988829047 0 0.59443945123281217 0.088717840836347678 0 0.61110205716185617 0.19633559899170319 0 0.51310137082636131 0.1341294928157436 0 0.52631578947244417 0 0 0.6315789473670218 0 0 0.59443945123281217 0.088717840836347678 0 0.52631578947244417 0 0 0.59443945123281217 0.088717840836347678 0 0.51310137082636131 0.1341294928157436 0 0.51310137082636131 0.1341294928157436 0 0.42091535253335821 0.074985042685527997 0 0.52631578947244417 0 0 0.42091535253335821 0.074985042685527997 0 0.51310137082636131 0.1341294928157436 0 0.41201455634411649 0.1897984988829047 0 0.52631578947244417 0 0 0.42091535253335821 0.074985042685527997 0 0.4210526315779366 0 0 0.32203054174603751 0.1135564938669265 0 0.31578947368345239 0 0 0.42091535253335821 0.074985042685527997 0 0.42091535253335821 0.074985042685527997 0 0.31578947368345239 0 0 0.4210526315779366 0 0 0.41201455634411649 0.1897984988829047 0 0.32203054174603751 0.1135564938669265 0 0.42091535253335821 0.074985042685527997 0 0.41201455634411649 0.1897984988829047 0 0.3065290384860177 0.21845328511822379 0 0.32203054174603751 0.1135564938669265 0 0.41201455634411649 0.1897984988829047 0 0.39980317448743058 0.29844098685688902 0 0.3065290384860177 0.21845328511822379 0 0.3065290384860177 0.21845328511822379 0 0.39980317448743058 0.29844098685688902 0 0.28395937666824012 0.33632665726232341 0 0.41201455634411649 0.1897984988829047 0 0.50098672486132223 0.25062984267919391 0 0.39980317448743058 0.29844098685688902 0 0.29535040693981252 1.2487814442762459 0 0.24652255435168349 1.16362252184999 0 0.35285320778342583 1.1463879991197961 0 0.29535040693981252 1.2487814442762459 0 0.18186396436738239 1.2489010184241831 0 0.24652255435168349 1.16362252184999 0 0.24652255435168349 1.16362252184999 0 0.28348777954110133 1.081709374779469 0 0.35285320778342583 1.1463879991197961 0 0.28348777954110133 1.081709374779469 0 0.24652255435168349 1.16362252184999 0 0.20223978045739341 1.0824581785913561 0 0.1560221044846879 1.15671384061
[...]
<PointData Scalars="conc_conc," Vectors="" Tensors="">
<DataArray type="Float64" Name="conc_conc" format="ascii">
4.4645768350091443e-07 2.5668638404010298e-08 2.5886087875365745e-07 -4.119017628230817e-08 -5.384863511113795e-08 2.9061189452579911e-07 5.6760740427182065e-07 -3.3313917437969721e-08 -6.6325354238930452e-08 5.5247111238590454e-07 -4.9195432290968593e-08 3.0774983107459571e-07 9.161617647701283e-07 -2.5228781247115889e-06 -3.7554922536410955e-07 -2.8780860979693642e-07 -2.431890450818514e-06 8.4223592858944266e-07 -3.8760346776747339e-06 -2.6675100405345056e-06 -2.8580854240440282e-06 -6.1390857265806522e-07 -3.5468212715883964e-06 -3.1294586854290622e-06 -5.6774799513546994e-06 -3.9132890538952353e-06 -2.8436673948459992e-06 -6.364294340668024e-06 -9.2824690167307784e-07 -2.5262276947094235e-06 -5.4240481008987524e-07 1.3155880899550344e-05 -4.0880740148274977e-06 -8.1997546600949781e-07 -4.5635616826806786e-06 8.5334663299384632e-06 9.0070283424904406e-06 1.2690780872435459e-05 7.3788227724918922e-08 6.483816412968707e-06 -8.2668820636030276e-06 1.1047191018264333e-05 -4.4884872468972713e-06 1.3751993772843585e-05 1.1380272338273602e-05 1.0265639679576487e-05 -7.7192217801200105e-06 -3.4543064725057785e-06 -7.8039120591383721e-07 -6.5589847819358951e-06 -8.5130075167643678e-06 -7.4668103657950036e-06 5.6574838196704244e-06 -1.4042185333640958e-05 1.2277487033369263e-06 -9.6264988360084014e-06 -7.8095889035582335e-06 9.1186603128825e-07 6.3472711560484752e-07 -9.020499903655028e-06 6.7513094955193327e-07 -4.7490962568918983e-08 5.9865230750610121e-07 -2.0392355976871023e-08 -6.4067339244986915e-08 6.7709670037881117e-07 -1.1527823333940426e-07 8.4172052429877588e-07 -6.9456236744488286e-08 7.1268756002891871e-07 8.7022103107205296e-07 -3.6397550006881681e-08 8.8832330399027773e-07 1.369789122345709e-06 -9.0831373004175771e-08 1.7828877854676456e-06 -9.6460769002305043e-06 -8.0478458270242037e-07 1.1832004621707899e-06 2.8349892516881773e-07 -5.6752439011475982e-06 1.3982220833817541e-06 -6.0310521414037599e-06 -9.3488137311015839e-06 -4.0335359342427005e-07 -4.0919007724138903e-07 1.2013546028640743e-06 2.0856622227694669e-06 -4.4286419340270985e-07 1.2815346017884949e-06 1.4094813351662079e-06 -5.3323707301195854e-08 -1.406706046773701e-07 1.970009736471079e-06 -8.7045445393618443e-08 1.4839454512426964e-06 -5.766748944015292e-07 -1.6417978254963972e-05 -6.4437735076537627e-06 -3.4116207637535803e-06 4.2623882151755783e-06 3.6754169820619647e-06 3.4379375670709227e-06 -4.0795189981577743e-07 -3.1973907261718779e-06 -7.1538817118396719e-06 -1.6362796223619101e-05 -2.3078599504915805e-05 -9.9732731782934908e-06 -1.5974236952441541e-05 -1.0827708168616956e-06 3.1551660076720242e-05 5.1876493934841727e-05 -2.8485013387161926e-05 -2.6832188930603685e-05 -3.1891841427402394e-05 5.4317406902619517e-05 0.00010747920388552117 -2.9644945077360228e-05 6.2444368501572478e-05 -1.8475824697921924e-05 -1.4674816466843106e-05 6.4502716033820655e-06 -2.3451503653108327e-05 2.0591786207594477e-05 -2.4040195893122524e-05 -2.1399111265867223e-05 1.1873257605737734e-05 1.9257653519906501e-05 8.9214377203093579e-06 8.4923149113772382e-05 8.5877181040751622e-05 0.00013409729703512768 3.2711226735493572e-05 8.5006677470413257e-05 8.5943015673163959e-06 8.2710842301916447e-05 3.1384480125319395e-05 0.00010922740088032122 8.6159442313130607e-05 0.00015320852420628577 7.9108621044636388e-05 5.3849433170842795e-05 8.4565878630617672e-05 7.8890996180625944e-05 8.6493549942154099e-05 0.00010803501887778949 0.00020712354191631949 0.00013316323464491713 6.2364584330601336e-05 2.9423920113223371e-05 0.00013730424506769431 6.6348355005689378e-05 0.00020193068434544754 6.787715040855913e-05 0.00014030899678545741 0.00010220500441366688 0.00022282561994237641 0.00016784702638722167 0.00013165592180014468 0.00023146560868724444 8.8951092672606523e-05 -1.3174441336365608e-07 -2.0523247677797562e-05 7.6544748764428313e-05 9.0202602719813716e-05 8.074586359179817e-05 -2.3363025906255836e-05 4.1793390703887155e-05 5.5113193943041093e-06 5.902356806348121e-05 0.00016281561272509488 6.946709305524716e-05 0.00010308428123612429 7.7272455746109445e-05 6.8773556800089963e-05 1.2021382189925852e-06 -1.7884144526715384e-05 -1.9081089471388867e-07 6.4510467100681312e-05 2.3583645856831667e-06 -1.5776280599543739e-05 6.1497320891404564e-05 -5.1053964426461801e-06 -6.4506448656768438e-06 -1.1161132287459387e-05 3.2328408786697439e-06 3.9678643530446347e-05 -1.0450686075608932e-05 -5.1141283386953132e-06 -3.9999989253222817e-06 -6.3523003675859091e-06 -8.1488935830822326e-06 3.8008555027040454e-05 2.587603114407122e-05 3.1266041923011776e-05 5.2083241694572751e-05 5.7240024756137923e-05 -2.7604910868441913e-06 -7.2372585338563532e-06 2.4391136779570936e-05 1.2023300682439842e-05 -6.3668973359872814e-06 -2.0915225594023597e-06 1.4247598155309202e-05 -1.4250906440741925e-06 2.3277688965308487e-05 3.0868449970542838e-05 3.9786695852582378e-05 1.6340308965539099e-05 3.9600663554562866e-05 3.2160101436173402e-05 5.6093778749528404e-05 1.7065888692987398e-05 3.9217529496148967e-05 3.2105405003867112e-05 1.975017041978608e-05 9.9984320041046707e-06 4.4200033645934783e-05 4.3418995230155384e-05 1.1128290711453292e-05 3.5992191964450578e-05 5.9279372163538518e-05 1.9748273292761547e-05 4.5464676471233038e-05 6.1281931327203398e-05 1.9665929113032349e-05 1.6778939151111009e-05 6.3529449396311038e-05 7.8630015049391676e-05 1.865141348715963e-05 1.4288713722672562e-05 8.1025972187909797e-05 1.1014824763826238e-05 5.5595635588183408e-05 5.4498483733571156e-05 7.7904783064611558e-05 0.00021586891708935284 -0.00012104941140335045 0.00060691245622123606 0.00010681753515045438 -0.00022522247630557963 -2.5892390133814996e-05 -0.00010451147554809037 9.7258533545106977e-05 0.00058509546917467675 3.3446329038938706e-05 -9.307445688820866e-05 -0.00011113462715320109 -9.7431485091461814e-05 -7.3500827499138626e-05 -8.7448177224876247e-05 -9.8120202398672423e-05 -8.745352241709021e-05 -0.00018161967843313866 -4.7881385171277981e-05 -8.609490515975484e-05 3.1302466806148606e-05 1.0450194695813047e-05 -4.1690142781962691e-06 -4.0695844012447413e-06 -5.3921003256177596e-06 1.5161092604891929e-05 1.3210683756886152e-05 -6.5829298377730641e-05 1.4295978145207209e-05 -9.4419470630502456e-05 2.8638326962246522e-05 1.2433210278893061e-05 -4.3996101255574607e-05 1.0929403240390318e-05 -3.7290736258119369e-05 -9.0939656771774259e-05 -3.225674187598775e-05 1.0750844450917645e-05 1.7929832389280259e-05 1.4228637968884538e-05 -4.9265323675050116e-06 -4.9122055833575942e-06 1.3739943382584411e-05 -4.2730201063683012e-06 8.3019996886732633e-06 -3.9799014647483697e-06 -3.7242246850005052e-06 7.7322887556746749e-06 -1.7402203140725455e-06 -3.0344984820448281e-05 1.6288486505115298e-05 -6.2540421735510806e-05 -3.5683172675494248e-05 -4.0058375572372168e-05 -6.3701319691446877e-05 -3.9600767562760964e-05 -9.7216078816794222e-05 -8.8150210630380489e-06 2.9710444944016319e-05 -0.00010616609819259011 0.00038466051861183657 9.2336046896895972e-05 -5.3657892630630163e-05 0.00037068826765840362 -3.9236305340300768e-05 0.00017460994621443311 -8.1504070034347365e-05 0.00013554044512570373 -3.6862166076692993e-05 5.1812154380546153e-05 0.00012896074004771615 -7.3782364902120218e-05 -5.6411130073738157e-05 -1.463541514158383e-05 2.30223261258937e-05 2.5587076236609355e-05 -6.3866535978286305e-05 -5.9056542561374035e-05 -5.1378281165280242e-05 -4.8229557239647859e-05 -8.5508590814562372e-06 -5.0122534648024596e-05 -9.8814795788734303e-06 -3.1651216153548699e-05 7.1657854256411193e-06 -1.4127897917328338e-06 -1.6154728050570864e-06 1.0134088070976534e-05 -1.6173351108977023e-06 7.59092681270357e-06 -6.0991601093250834e-07 4.3979408184266296e-06 6.4894323416924769e-06 -1.0363816181588635e-05 -5.939686712288082e-06 -3.0273449273703604e-05 -5.0070784345671519e-07 -6.8449287908716909e-07 4.1650239970132345e-06 2.2996393396270793e-06 4.05599958137938e-06 -5.565229747235672e-07 -5.464764640557273e-07 2.1669001004026781e-06 -4.9261763451514539e-07 -1.5500797485297699e-05 5.2662035129415844e-06 -5.4368755013392997e-06 -1.6091946621864915e-05 -3.6790773599568522e-06 5.8696492371566802e-06 -2.3923267641503623e-05 -3.2551496097616967e-05 -1.5231472766730195e-05 -6.5292187530548317e-06 -2.3639385715950687e-05 -1.5305782067259873e-05 -1.4468713932294043e-05 -3.3307633050127711e-05 -8.7538148545145461e-06 -8.2433937955773192e-06 -3.4038568956353536e-05 -3.8553130690806594e-05 3.8857524418384312e-05 -4.7309842830444214e-05 0.00021026717468976375 -3.555258724411499e-05 0.00011216483806546215 -3.4102212616659264e-05 0.00013509934263999571 0.00028453133460914619 0.00025831742861613671 0.0001210627191433431 0.00020313568593813519 -3.8450700674289063e-05 0.00028481470723967209 0.00026054880058117599 0.00034517462023104758 0.00013950761013712404 0.00020781118035438908 0.00028007458396628782 0.00028710573339117722 0.00023899129565585643 0.00012985097253883864 0.00030196322467332496 0.00029295267084105444 0.00011753218687351837 -2.032007164795956e-05 9.0999794994744285e-05 -2.6724589357607581e-05 4.0751188885827203e-05 9.847121970271636e-05 -2.3480410509323883e-05 -5.6287695317132914e-06 -4.128562630677817e-05 2.5125829897277646e-05 0.00029249945637618342 5.4192494070857806e-05 0.00023751126675911077 0.00028215325343026971 0.00011121140919659211 6.136917338116808e-05 -1.8414824608601508e-05 2.7119192231717468e-05 -4.3373260708116641e-05 5.9515940192742042e-05 1.638040517011209e-05 0.00021516670310318194 3.8163382719120264e-06 -6.4065008536893974e-05 0.00026396132553053504 0.0005304640414172426 0.0002698889306402609 0.00035300973849831371 0.00025983333693123921 0.00022342006073015737 1.0734808410802754e-05 0.00035107904071578016 0.0007186966796958158 0.00053920264074352119 0.00027511031228854259 0.00052050816492088287 0.00028184249830395114 0.0003478903643043444 0.00047405071851489906 0.00028411015587746498 4.5100801024867698e-05 0.00023450945775838403 0.00041849432279657337 0.00017785919761708691 3.1970232660991148e-05 0.00043144442650863159 0.00018996886453054938 0.00044242352098217483 0.00063698408503693002 0.00065372675392874732 0.00043314498411226802 0.00017157333851559533 0.00072732374549597354 0.00044608958590521084 0.00093259414360559283 0.0005692312042242096 0.00011596521652404127 0.00039607478157480201 0.00040546415126848452 0.00095363916547976958 0.00076598316763724927 0.00065166251024786285 0.00091604698975253644 0.00046110471925404212 0.0004109732833234891 0.0007477910694268275 0.00030632249528670459 0.0002773193243228039 -7.3057528335374272e-05 0.00030570036953897305 -6.4759308574749692e-06 0.00030982000092743552 -8.3604151369432526e-05 0.00031284953590941057 0.0003274948775755881 -1.8861114610364209e-06 0.00035156943415006234 0.00041248400566648043 0.00098089706748032005 0.0010637249462619317 0.00039665677034258248 0.00053452636193810515 0.00040072230362259712 0.0010938551002677092 0.0010084101248868942 0.00031775107254272754 0.00031583484779544498 -0.00018013688938985417 -0.00016740729552214401 0.00030067625160018838 5.7416175875124445e-06 -0.00022617119248354652 0.00031596598208090616 -0.00018662763501301334 0.00052419225598350147 0.0017228213587967244 0.0010948037776243441 0.0015809752584557463 0.00073179284597822973 0.001306399001827109 0.00092923469586944109 0.0012871768389813934 0.00074748928414798655 0.00064211741682227569 0.0015505132106265161 0.00030609268094480119 -1.0877660256128721e-06 -2.7567310360781576e-06 2.0608981181931987e-06 -1.958986566887973e-06 -2.5725597539756915e-06 5.8861988634032642e-06 -2.7895366238207344e-06 3.67304867646244e-06 6.27720642964224e-06 2.9827741136308215e-06 8.4529290746051926e-06 3.077699864027607e-06 8.6870712280544994e-06 1.2566147526347869e-05 2.9587477902957171e-06 -0.00011049539315493903 1.309164671341944e-05 -1.8883571922079132e-05 1.4402178436378127e-06 2.5300045951830597e-06 1.2932882185342405e-05 -0.00014378415995781475 -0.00011365481587918148 -2.2589887797303639e-05 -4.9091789836901362e-05 8.9369073622040665e-06 -0.00010637232853013663 6.9548618130597636e-06 -4.3302497972227899e-05 1.3208550682802729e-05 1.1525285203813241e-05 -4.1319476378504693e-05 -8.4087069814620729e-06 -4.3802103713475415e-05 -7.5715815305964318e-05 -5.5895744002671008e-05 -0.00013323949871647676 -5.5629336283302879e-05 -7.7076872068488351e-05 -6.019799220260854e-05 -6.1216377953799176e-05 -1.5942212710835183e-05 6.304623566257021e-06 -1.092951850231943e-06 6.9177669516258457e-06 -7.6191353005129951e-07 4.1506119884854689e-06 6.6556573538095444e-06 3.1738497161867355e-06 5.868774616105059e-06 8.2746671185165758e-06 -1.8326077021450659e-06 6.0135800066026419e-06 6.1043664300301187e-06 -9.9804349001000919e-07 -1.6067044850941855e-06 5.7039900969786276e-06 -3.8020644244524641e-07 5.0830657141526629e-06 2.5894381422515187e-07 -4.4292166736360553e-07 -3.9816019562536287e-07 -9.9182703501861302e-07 6.0972388409026035e-06 4.5009264846143982e-06 1.0938821897470434e-06 -5.3989393550613737e-07 5.7208639412145544e-06 5.3522828524069888e-06 -5.6186307529926375e-06 -1.7462632715390667e-05 9.4454372914593571e-06 -5.9373402524300637e-05 -2.1291786725557215e-05 -1.7012075315738817e-05 -5.9190907681665006e-05 -3.1883482693089579e-05 -3.191018001367119e-05 -2.2461324167412701e-05 -3.1627818946166754e-05 -3.1668821477254183e-05 -2.5124593953075239e-05 2.55203262727487e-06 -2.0517416978545283e-05 -1.6433013648210861e-05 8.3938927569357685e-07 8.6470013028147392e-06 1.7631658774629913e-06 -2.3970914260511406e-05 -3.8435375307637858e-06 -4.5379319114661515e-06 -2.3376851099210952e-05 -1.6105375137297954e-05 -3.6912793124245799e-05 -1.2400962995786554e-05 -2.5670201336252344e-05 -2.5000114683641447e-05 -1.2640803336523082e-05 -9.8002334583925911e-06 -1.5662838904927384e-05 -6.0808020965267862e-06 -4.8014574650893635e-06 2.4986270784809697e-06 9.3524972098853711e-07 2.898506401536017e-06 -1.2677594158279482e-06 1.4341697718355369e-06 4.0131656817029572e-06 -1.4358748326311442e-06 4.1776431728041764e-06 3.3173779068965677e-06 1.1855574958766639e-06 4.3795382081318854e-06 2.1162730547761039e-06 -9.1646407557482149e-07 3.6338895605893152e-07 2.0025474869927929e-06 8.0853063193767322e-07 -8.0476211681607465e-07 1.9042658178525623e-06 -2.0951077174796571e-07 -1.2547006832291382e-07 4.2832045078371539e-08 -3.2384982752285992e-07 -4.3474046720320335e-07 -2.5709463794670381e-07 -2.3445754698283458e-07 9.9964920053155139e-08 -1.5059264748221127e-07 9.0963803408497157e-08 -2.1922003876535666e-07 5.4985421587579606e-08 7.0488690999832771e-08 -1.2730268025114813e-08 8.6031827124604516e-10 2.04163010921492e-07 1.7339869174897157e-07 -1.0453388488065083e-08 1.6740323012440566e-07 3.062104919563102e-08 -6.3641996068184902e-09 2.1058996241685387e-07 -2.1355784397775341e-08 2.0580999690144653e-07 1.2113735159877935e-07 2.1502982724058276e-07 9.6201254135942287e-08 1.1749601064619096e-07 -3.1042459742032088e-08 9.8678272766540491e-08 3.7747815568654959e-08 -3.6215858023627388e-08 1.206038213979959e-07 -6.7775711644698754e-08 3.6194654053186949e-08 2.7031373914494645e-07 5.8491372434322566e-08 -3.5391405231945949e-07 3.9706685496408672e-07 9.4193200189058574e-08 2.1800758813572842e-07 3.125065656924656e-07 -3.7695688755552348e-07 1.2925526900190466e-07 4.1861398885239877e-07 3.642118896266998e-07 2.4907734951747818e-07 1.8532794578773171e-07 2.1827390304474778e-07 -7.8144795729834504e-08 2.8373805936688043e-07 2.3586607956134852e-08 1.2842946561719933e-08 1.0726879466893522e-08 2.3832722582010466e-08 1.0590941540382691e-08 5.823892042195173e-08 -1.0733545170308556e-07 6.2687797257182619e-08 6.8618596163668753e-08 -8.2687344036496524e-09 -2.6524770536093929e-08 7.5639775113217917e-09 7.2900419111996876e-09 3.0088827843832136e-09 -7.8957958640381453e-09 -3.4051795288694971e-08 -1.5007433924069369e-07 9.0361165943235734e-08 -4.4108340384550256e-07 -3.2345508274227976e-07 -3.9712033912198848e-07 -6.4428376052311511e-08 2.828437869870713e-08 -1.1734905876220167e-06 -1.2271010717816296e-06 5.8302737738383153e-08 -1.4496176001898565e-06 1.5322938946484094e-07 1.574651818302027e-07 -1.4850388786012015e-06 6.6162141630643362e-08 6.9628923081762707e-08 -2.1448452161933522e-08 6.3723493734256409e-08 -1.7350527733895752e-08 2.9907443511499257e-10 -1.0114745197611294e-08 -1.8900031782183831e-08 6.5305932047426534e-08 -3.8065013637303604e-08 -5.9156569605960445e-08 1.7783603980676846e-07 2.0715829339448546e-07 4.1742535837984467e-07 -4.8762309215620342e-08 3.701705284959183e-07 1.8031498005347911e-07 5.9150255291120577e-07 4.6520216880781753e-07 3.191424982622397e-07 3.3809596435706686e-07 1.6912273045974412e-07 -6.458929386184324e-08 -3.9612654982862397e-08 4.30195433871011e-07 2.9242130058065689e-07 -6.2400710296584375e-08 3.1641497899109156e-07 -7.1687074806006485e-08 1.8130698322070702e-07 -2.08918602585864e-07 1.066423298510492e-06 4.707229279161041e-08 8.6271685254320969e-07 4.7062401219909468e-07 3.3577314437806042e-07 -2.4845501509363966e-07 1.6044492872636619e-06 1.1254103203153961e-06 -5.8264881165191473e-08 3.7789009137981838e-07 5.9311687497200418e-07 3.2808320924269638e-07 -4.109701094093153e-08 -8.5982308295881169e-08 8.3585350919320118e-08 -7.3926401068491629e-09 1.9110257127120401e-07 2.1921249679248463e-09 -5.560213956152467e-09 8.0406525201242095e-08 5.9424890523259e-08 5.1100628981515914e-09 7.8358764532377503e-08 -1.6787891890217444e-06 -1.5710717365381775e-06 2.0058645601599924e-07 -3.3741032927168234e-08 -1.6669344930592594e-06 2.0406972565016132e-07 -1.7698634299372208e-06 -3.3665457164656265e-09 -1.5734508686560168e-06 4.4907924167676312e-07 6.493688611435184e-07 3.0728987934518343e-07 2.9400442254541909e-07 2.4177643916292773e-07 6.9556391704428895e-07 2.8446735360911737e-07 7.1809674454600506e-07 9.9242716856689766e-07 2.4636823133374405e-07 2.6141626089956398e-07 -1.1964475821749591e-07 2.4156087094408146e-07 -7.0132183087803115e-08 -1.0803677148506606e-07 2.3280077782306147e-07 1.7368910475540944e-07 -5.7056186180539532e-08 3.8840540604941101e-07 9.1761891481991525e-08 3.3513289193155605e-07 6.2927912611490228e-08 -5.0341975914205344e-08 1.6715467050025103e-07 7.0622791100018583e-08 2.268342974790317e-07 -4.3597288499980072e-08 3.796887280886146e-07 2.3260787729690611e-07 1.0017214937453197e-07 -5.3807676246999335e-07 5.9233444194525968e-07 6.2988752033518379e-07 2.7754301168598276e-07 4.4272314265764511e-07 3.0967175757827491e-07 8.6995114728542359e-07 4.6121689539016361e-07 -2.0310206579946034e-06 7.5925804712865218e-07 -1.9331495633586343e-06 -8.3500513322643598e-07 -2.6457579285756554e-06 -8.9596690936058871e-07 -2.2048493758904643e-06 -3.9593958407688373e-06 -2.558515759452794e-06 -2.3889337058196372e-06 -2.3474551110300496e-06 -5.0831963564174176e-06 -4.0309200282665579e-06 -3.0519118678143683e-06 -5.784124412229481e-06 -4.8996910834325516e-06 -4.7991832784312535e-06 -2.3740290275832402e-06 -3.0760206902064327e-06 -2.2507461992962403e-06 -2.4576585696809477e-06 5.7634863003156373e-07 3.8917433665648047e-08 -2.1445029639193435e-06 5.7636712921806967e-07 -2.3169964920069931e-06 2.5956345254901498e-08 -5.1502681184399254e-06 -3.2395857355755245e-06 -9.0159427096849585e-06 -4.7762008672994185e-06 -9.635833590720229e-06 -9.2689013456512502e-06 -3.0551352818409472e-06 -8.9305255329244367e-06 -7.3366511409633329e-06 -1.0680653297201309e-05 -8.8411559009304444e-06 -1.5078982043612702e-06 2.5669210395370749e-06 -2.4257132322435817e-06 -5.3093410116257506e-06 1.7535085600806627e-07 -1.6256235280077405e-05 -9.740073404530328e-06 -2.074846238233799e-05 -8.7042699099617431e-06 -9.8563290207876659e-06 -1.5936430490568023e-05 -1.6841164059942393e-05 -8.9209217264078496e-06 -1.079028532159227e-05 -6.1356673666139591e-06 -9.3472172726825002e-06 2.9850158314741595e-06 2.2606524214081406e-06 2.3102383509389059e-06 -4.5838259886310335e-06 -4.9517120501046389e-06 2.4904287515817805e-06 -2.1997909761648567e-06 1.863919948122511e-06 