<?xml version="1.0"?>
<VTKFile type="UnstructuredGrid" version="0.1" byte_order="LittleEndian">
<UnstructuredGrid>
<Piece NumberOfPoints="1896" NumberOfCells="677">
<Points>
<DataArray type="Float64" NumberOfComponents="3" format="ascii">
0.000000000000000e+00 3.750000000000000e+00 0.000000000000000e+00 5.624999999964863e-01 3.999999999998438e+00 0.000000000000000e+00 5.624999999964863e-01 3.999999999998438e+00 0.000000000000000e+00 1.124999999995812e+00 4.249999999998138e+00 0.000000000000000e+00 1.124999999995812e+00 4.249999999998138e+00 0.000000000000000e+00 1.687499999998485e+00 4.499999999999327e+00 0.000000000000000e+00 1.687499999998485e+00 4.499999999999327e+00 0.000000000000000e+00 2.250000000000000e+00 4.750000000000000e+00 0.000000000000000e+00 2.250000000000000e+00 4.750000000000000e+00 0.000000000000000e+00 1.750000000000000e+00 5.000000000000000e+00 0.000000000000000e+00 2.250000000000000e+00 4.750000000000000e+00 0.000000000000000e+00 2.875000000000000e+00 4.375000000000000e+00 0.000000000000000e+00 2.875000000000000e+00 4.375000000000000e+00 0.000000000000000e+00 3.500000000000000e+00 4.000000000000000e+00 0.000000000000000e+00 3.500000000000000e+00 4.000000000000000e+00 0.000000000000000e+00 2.750000000000000e+00 4.000000000000000e+00 0.000000000000000e+00 2.250000000000000e+00 4.750000000000000e+00 0.000000000000000e+00 2.687500000002093e+00 5.000000000001196e+00 0.000000000000000e+00 2.687500000002093e+00 5.000000000001196e+00 0.000000000000000e+00 3.125000000002093e+00 5.250000000001196e+00 0.000000000000000e+00 3.125000000002093e+00 5.250000000001196e+00 0.000000000000000e+00 3.562500000002093e+00 5.500000000001196e+00 0.000000000000000e+00 3.562500000002093e+00 5.500000000001196e+00 0.000000000000000e+00 4.000000000000000e+00 5.750000000000000e+00 0.000000000000000e+00 4.000000000000000e+00 5.750000000000000e+00 0.000000000000000e+00 3.500000000000000e+00 5.000000000000000e+00 0.000000000000000e+00 4.000000000000000e+00 5.750000000000000e+00 0.000000000000000e+00 3.250000000000000e+00 6.250000000000000e+00 0.000000000000000e+00 4.000000000000000e+00 5.750000000000000e+00 0.000000000000000e+00 4.500000000000000e+00 6.000000000000000e+00 0.000000000000000e+00 4.500000000000000e+00 6.000000000000000e+00 0.000000000000000e+00 5.000000000000000e+00 6.250000000000000e+00 0.000000000000000e+00 4.750000000000000e+00 7.250000000000000e+00 0.000000000000000e+00 4.500000000005181e+00 6.750000000010362e+00 0.000000000000000e+00 4.500000000005181e+00 6.750000000010362e+00 0.000000000000000e+00 4.250000000005181e+00 6.250000000010362e+00 0.000000000000000e+00 4.250000000005181e+00 6.250000000010362e+00 0.000000000000000e+00 4.000000000000000e+00 5.750000000000000e+00 0.000000000000000e+00 4.000000000000000e+00 5.750000000000000e+00 0.000000000000000e+00 4.625000000000000e+00 5.375000000000000e+00 0.000000000000000e+00 4.625000000000000e+00 5.375000000000000e+00 0.000000000000000e+00 5.250000000000000e+00 5.000000000000000e+00 0.000000000000000e+00 5.250000000000000e+00 5.000000000000000e+00 0.000000000000000e+00 4.750000000000000e+00 4.750000000000000e+00 0.000000000000000e+00 3.500000000000000e+00 4.000000000000000e+00 0.000000000000000e+00 4.250000000000000e+00 3.500000000000000e+00 0.000000000000000e+00 4.250000000000000e+00 4.750000000000000e+00 0.000000000000000e+00 4.750000000000000e+00 4.375000000000000e+00 0.000000000000000e+00 4.750000000000000e+00 4.375000000000000e+00 0.000000000000000e+00 5.250000000000000e+00 4.000000000000000e+00 0.000000000000000e+00 4.250000000000000e+00 1.500000000000000e+00 0.000000000000000e+00 4.624999999997918e+00 1.874999999997918e+00 0.000000000000000e+00 4.624999999997918e+00 1.874999999997918e+00 0.000000000000000e+00 5.000000000000000e+00 2.250000000000000e+00 0.000000000000000e+00 5.000000000000000e+00 2.250000000000000e+00 0.000000000000000e+00 5.250000000000000e+00 1.750000000000000e+00 0.000000000000000e+00 5.250000000000000e+00 1.750000000000000e+00 0.000000000000000e+00 5.500000000000000e+00 1.250000000000000e+00 0.000000000000000e+00 5.500000000000000e+00 1.250000000000000e+00 0.000000000000000e+00 5.750000000000000e+00 7.500000000000000e-01 0.000000000000000e+00 5.000000000000000e+00 2.250000000000000e+00 0.000000000000000e+00 4.750000000000000e+00 2.750000000000000e+00 0.000000000000000e+00 5.000000000000000e+00 2.250000000000000e+00 0.000000000000000e+00 5.500000000000000e+00 2.750000000000000e+00 0.000000000000000e+00 5.500000000000000e+00 2.750000000000000e+00 0.000000000000000e+00 5.750000000000000e+00 2.500000000000000e+00 0.000000000000000e+00 3.500000000000000e+00 4.000000000000000e+00 0.000000000000000e+00 4.125000000008327e+00 4.000000000000000e+00 0.000000000000000e+00 4.125000000008327e+00 4.000000000000000e+00 0.000000000000000e+00 4.750000000000000e+00 4.000000000000000e+00 0.000000000000000e+00 4.750000000000000e+00 4.000000000000000e+00 0.000000000000000e+00 5.250000000000000e+00 4.000000000000000e+00 0.000000000000000e+00 5.500000000000000e+00 2.750000000000000e+00 0.000000000000000e+00 5.125000000000000e+00 3.375000000000000e+00 0.000000000000000e+00 5.125000000000000e+00 3.375000000000000e+00 0.000000000000000e+00 4.750000000000000e+00 4.000000000000000e+00 0.000000000000000e+00 6.000000000000000e+00 3.750000000000000e+00 0.000000000000000e+00 6.750000000000000e+00 4.000000000000000e+00 0.000000000000000e+00 5.250000000000000e+00 5.000000000000000e+00 0.000000000000000e+00 5.749999999991033e+00 4.666666666672645e+00 0.000000000000000e+00 5.749999999991033e+00 4.666666666672645e+00 0.000000000000000e+00 6.249999999991033e+00 4.333333333339311e+00 0.000000000000000e+00 6.249999999991033e+00 4.333333333339311e+00 0.000000000000000e+00 6.750000000000000e+00 4.000000000000000e+00 0.000000000000000e+00 5.500000000000000e+00 2.750000000000000e+00 0.000000000000000e+00 5.916666666666667e+00 3.166666666666667e+00 0.000000000000000e+00 5.916666666666667e+00 3.166666666666667e+00 0.000000000000000e+00 6.333333333333333e+00 3.583333333333333e+00 0.000000000000000e+00 6.333333333333333e+00 3.583333333333333e+00 0.000000000000000e+00 6.750000000000000e+00 4.000000000000000e+00 0.000000000000000e+00 5.250000000000000e+00 5.000000000000000e+00 0.000000000000000e+00 5.750000000000000e+00 5.250000000000000e+00 0.000000000000000e+00 5.750000000000000e+00 5.250000000000000e+00 0.000000000000000e+00 6.250000000000000e+00 5.500000000000000e+00 0.000000000000000e+00 6.250000000000000e+00 5.500000000000000e+00 0.000000000000000e+00 6.750000000000000e+00 5.750000000000000e+00 0.000000000000000e+00 6.750000000000000e+00 5.750000000000000e+00 0.000000000000000e+00 7.250000000000000e+00 6.000000000000000e+00 0.000000000000000e+00 7.250000000000000e+00 6.000000000000000e+00 0.000000000000000e+00 6.875000000000000e+00 5.625000000000000e+00 0.000000000000000e+00 6.875000000000000e+00 5.625000000000000e+00 0.000000000000000e+00 6.500000000000000e+00 5.250000000000000e+00 0.000000000000000e+00 7.250000000000000e+00 6.000000000000000e+00 0.000000000000000e+00 7.600000000000000e+00 6.400000000000000e+00 0.000000000000000e+00 7.600000000000000e+00 6.400000000000000e+00 0.000000000000000e+00 7.950000000000000e+00 6.800000000000000e+00 0.000000000000000e+00 7.950000000000000e+00 6.800000000000000e+00 0.000000000000000e+00 8.300000000000001e+00 7.200000000000000e+00 0.000000000000000e+00 8.300000000000001e+00 7.200000000000000e+00 0.000000000000000e+00 8.650000000000000e+00 7.600000000000000e+00 0.000000000000000e+00 8.650000000000000e+00 7.600000000000000e+00 0.000000000000000e+00 9.000000000000000e+00 8.000000000000000e+00 0.000000000000000e+00 7.250000000000000e+00 6.000000000000000e+00 0.000000000000000e+00 7.750000000000000e+00 6.250000000000000e+00 0.000000000000000e+00 6.750000000000000e+00 4.000000000000000e+00 0.000000000000000e+00 7.249999999991033e+00 4.333333333327355e+00 0.000000000000000e+00 7.249999999991033e+00 4.333333333327355e+00 0.000000000000000e+00 7.749999999991033e+00 4.666666666660689e+00 0.000000000000000e+00 7.749999999991033e+00 4.666666666660689e+00 0.000000000000000e+00 8.250000000000000e+00 5.000000000000000e+00 0.000000000000000e+00 8.250000000000000e+00 5.000000000000000e+00 0.000000000000000e+00 7.500000000000000e+00 4.750000000000000e+00 0.000000000000000e+00 7.750000000000000e+00 5.500000000000000e+00 0.000000000000000e+00 8.250000000000000e+00 5.000000000000000e+00 0.000000000000000e+00 8.250000000000000e+00 5.000000000000000e+00 0.000000000000000e+00 9.000000000000000e+00 5.500000000000000e+00 0.000000000000000e+00 8.250000000000000e+00 5.000000000000000e+00 0.000000000000000e+00 8.750000000000000e+00 5.166666666666667e+00 0.000000000000000e+00 8.750000000000000e+00 5.166666666666667e+00 0.000000000000000e+00 9.250000000000000e+00 5.333333333333333e+00 0.000000000000000e+00 9.250000000000000e+00 5.333333333333333e+00 0.000000000000000e+00 9.750000000000000e+00 5.500000000000000e+00 0.000000000000000e+00 8.250000000000000e+00 5.000000000000000e+00 0.000000000000000e+00 8.750000000000000e+00 4.666666666666667e+00 0.000000000000000e+00 8.750000000000000e+00 4.666666666666667e+00 0.000000000000000e+00 9.250000000000000e+00 4.333333333333333e+00 0.000000000000000e+00 9.250000000000000e+00 4.333333333333333e+00 0.000000000000000e+00 9.750000000000000e+00 4.000000000000000e+00 0.000000000000000e+00 8.250000000000000e+00 3.750000000000000e+00 0.000000000000000e+00 8.750000000000000e+00 3.833333333333334e+00 0.000000000000000e+00 8.750000000000000e+00 3.833333333333334e+00 0.000000000000000e+00 9.250000000000000e+00 3.916666666666667e+00 0.000000000000000e+00 9.250000000000000e+00 3.916666666666667e+00 0.000000000000000e+00 9.750000000000000e+00 4.000000000000000e+00 0.000000000000000e+00 9.750000000000000e+00 4.000000000000000e+00 0.000000000000000e+00 1.025000000000000e+01 4.083333333333333e+00 0.000000000000000e+00 1.025000000000000e+01 4.083333333333333e+00 0.000000000000000e+00 1.075000000000000e+01 4.166666666666667e+00 0.0000000000000
[...]
<PointData Scalars="A_conc," Vectors="" Tensors="">
<DataArray type="Float64" Name="A_conc" format="ascii">
7.141606795399895e-01 7.190564281063402e-01 7.190283932778129e-01 7.237505080255570e-01 7.237111444711005e-01 7.272204135952129e-01 7.271830658739150e-01 7.300841870888999e-01 7.769898685852733e-01 5.211942578508617e-01 8.175245804209519e-01 8.369780068211421e-01 8.355611529279808e-01 8.436373584840690e-01 9.673018149045667e-01 2.244169595583808e-01 6.471136744007659e-01 6.623179102136422e-01 6.625367625121023e-01 6.791433712529582e-01 6.801620495621076e-01 6.966409777754432e-01 6.967333165939876e-01 7.053247692673872e-01 1.019003823088293e-01 1.766496075658236e-01 7.843237371780081e-01 3.162411008106834e-01 5.015225964924778e-01 5.335748566052687e-01 5.360508154142579e-01 5.709966004836228e-01 2.189553509243836e-02 1.195422988369009e-02 1.390188384607351e-02 2.379842743642815e-01 2.879952649699206e-01 7.154390558246692e-01 8.196479236126452e-01 8.402232330264608e-01 8.396132382626589e-01 8.458335597002365e-01 3.787842481487091e-01 2.522857094679404e-02 4.311407496413003e-01 4.466387860905495e-01 4.837040348021860e-01 9.152589419067692e-01 8.357152487944463e-01 9.165553568383380e-01 3.327278596291822e-01 7.897269657231257e-01 7.147309599481770e-01 8.161382502424981e-01 1.910283167844685e-01 1.072375152842927e-01 1.112110250424587e-01 3.219748183965619e-02 4.993904822805802e-02 1.223450194510412e-01 9.256896825907959e-01 1.682999983532013e-01 8.782078040390655e-01 8.944578469788036e-01 9.315227034006438e-01 9.359567610846924e-01 8.622657413930646e-01 8.671375287105231e-01 8.670721930520209e-01 8.715131088876222e-01 8.850866983386445e-01 9.075312241447717e-01 8.927536502479385e-01 8.835106018024732e-01 8.839552990173644e-01 8.606558389762502e-01 9.225776441134595e-01 9.303924370784329e-01 9.077880143662818e-01 9.204404077079136e-01 9.195760667865253e-01 9.259903430246800e-01 9.256804936998436e-01 9.303856902739273e-01 5.835599343281367e-01 6.160598138239228e-01 6.193451304351473e-01 6.662965004462685e-01 6.755117889447187e-01 8.629869685514259e-01 4.043797897014466e-01 4.524618557557029e-01 4.535517884511936e-01 5.039741755159105e-01 4.986625123422753e-01 5.675137745421656e-01 5.720583237197311e-01 6.724521707368287e-01 6.470726667644255e-01 6.890517210115338e-01 6.616427946156808e-01 6.588715155923570e-01 7.473401307686758e-01 7.847008615580763e-01 7.844862588948853e-01 8.416499827031887e-01 8.417436701310398e-01 8.896245770537097e-01 8.835851101120221e-01 9.036017579608790e-01 9.025938234944210e-01 9.067766679304559e-01 4.842044555850039e-01 4.102295569195329e-01 9.301118255734329e-01 9.451858590558506e-01 9.441079507731338e-01 9.519841356052421e-01 9.510139966929035e-01 9.555940056887360e-01 1.003800864848960e+00 8.017367113357747e-01 7.907205433533621e-01 1.007455596944196e+00 9.544826578766497e-01 2.878561175447660e-02 6.990546142210179e-01 7.264421343811772e-01 7.279333175283689e-01 7.519059571225720e-01 7.514616488436274e-01 7.492266758613442e-01 9.903484433656068e-01 9.934762419441896e-01 9.931388704061603e-01 9.943443436845474e-01 9.941982722241250e-01 9.946688799207044e-01 7.814958656095092e-01 1.028813985706055e+00 9.726729322290345e-01 9.936790937977398e-01 9.898514620397575e-01 9.953984838018942e-01 9.945846465149185e-01 9.950918967319476e-01 9.950317813121519e-01 9.952468608790473e-01 9.952451615087228e-01 9.954497248593673e-01 1.020268485561898e+00 9.310384042974600e-01 9.777322813280114e-01 9.842698338047995e-01 9.999373821560057e-01 1.000013252557765e+00 9.999958912969723e-01 1.000001886820206e+00 1.000000000085500e+00 1.000000061462464e+00 9.511518493361731e-01 9.643956474563247e-01 9.638433048460828e-01 9.772876514177021e-01 9.765966642606165e-01 9.887420491050241e-01 9.881205208332263e-01 9.954657666971011e-01 5.516561406170453e-01 9.403728512066190e-01 8.658611950260671e-01 9.565855890912571e-01 9.419150591307012e-01 9.439648485939608e-01 9.439475024809826e-01 9.458898579126251e-01 1.033382568062607e+00 6.395826203405215e-01 9.584931738717244e-01 9.696951983959808e-01 9.689700106284739e-01 9.737878325548388e-01 2.451027811491241e-01 2.112145922654542e-01 2.728390054291122e-01 4.033149036142333e-01 4.151586735939912e-01 5.136968896815779e-01 9.070412949551246e-01 9.233498742138433e-01 6.014513777193768e-01 6.523440532793520e-01 6.555402053560805e-01 7.156697831435015e-01 7.160358931847267e-01 7.644182483880837e-01 7.633819214840002e-01 7.773823109797054e-01 7.770108729742816e-01 7.849190369964073e-01 7.847788929965352e-01 7.901793893712976e-01 7.901466860942138e-01 7.952347494411414e-01 7.952015330729741e-01 8.000859298084567e-01 8.000507309369396e-01 8.047088492544400e-01 7.654839061170599e-01 7.265695601925564e-01 7.288398774041559e-01 6.713425556076518e-01 6.745673662304597e-01 5.956420152271515e-01 6.024447900804625e-01 4.884468235954792e-01 5.255905830278518e-01 2.399509535450333e-01 7.053807288310617e-01 6.948606252235870e-01 6.950412118541718e-01 6.835863311875223e-01 6.839086841135229e-01 6.707819494454428e-01 6.714270239840697e-01 6.549985591858216e-01 6.567958581680228e-01 6.315902272815942e-01 6.485871142130542e-01 5.498003502302066e-01 9.734370420942375e-01 9.779530107487261e-01 9.777155388908043e-01 9.805451627296143e-01 9.880063922929671e-01 9.907573812669122e-01 9.906717777994600e-01 9.929485329313842e-01 9.927543103970882e-01 9.942733519619014e-01 9.943012231313424e-01 9.955666097607320e-01 9.558638036085786e-01 9.676082636051674e-01 9.673899869369685e-01 9.755666886792936e-01 9.755036623811980e-01 9.800897267782988e-01 9.757598154119266e-01 9.738054780497724e-01 9.734186230542631e-01 9.699338094847706e-01 9.697584819857736e-01 9.648444783953369e-01 9.647917454992097e-01 9.581848275036275e-01 9.581146064207496e-01 9.487894933605064e-01 5.714564704342543e-01 6.001547158823930e-01 6.002656849024024e-01 6.260059974393658e-01 6.258395954089618e-01 6.513316163460765e-01 6.511504425238539e-01 6.746261832371446e-01 9.357589879715356e-01 9.394118357537650e-01 9.392665793529189e-01 9.419386383204567e-01 7.166554726823616e-01 7.404290934325476e-01 5.849938703022185e-01 7.661982074931377e-01 7.608609830794074e-01 5.580152612995187e-01 2.059901717470821e-01 4.791445592400655e-01 1.537782326572181e-01 5.756290847430490e-01 6.360718182268520e-01 4.836259571225306e-01 5.124112183857313e-01 5.303564885734643e-01 1.337557298572895e-01 1.763176800558950e-01 4.956631363604676e-01 1.192973668012497e-01 5.178061818807255e-02 3.088226266398300e-02 1.654147057045836e-02 9.106351204087660e-01 9.166108073089393e-01 6.498408577444268e-01 5.329876848339609e-01 3.726927113781294e-01 1.682667774257623e-01 -5.737846911268334e-05 1.826596462707123e-02 1.267886730914737e-02 5.327460971988019e-01 5.673140081530494e-01 5.208382074366574e-01 4.242333618960168e-01 5.544710167491669e-01 5.081638938473069e-01 7.543215581196506e-01 5.056313822610249e-01 5.127373357947481e-01 6.279219929459106e-01 5.817053187225637e-01 5.900182869970528e-01 5.901472507404898e-01 5.818134912871675e-01 5.419898881257075e-01 -5.727078518432759e-02 -5.802119120884979e-02 1.787996827515505e-01 2.666355651672986e-01 -1.017631950350028e-01 4.895627311263237e-01 5.594517389071716e-01 4.948942550999439e-01 7.561671375609098e-01 7.511945978270486e-01 5.062249356148869e-01 7.531721628174115e-01 7.495506501273596e-01 5.220663902622590e-01 7.431193772546926e-01 7.440292268807593e-01 5.214916567003610e-01 5.812735089983260e-01 4.830552117908217e-01 5.328258143687591e-01 5.208306515089155e-01 5.559714601851460e-01 5.771185137559768e-01 4.554875443947562e-01 4.850987508825158e-01 4.536459120997198e-01 4.984215435851136e-01 5.283047217502974e-01 4.849421631899334e-01 4.986238889924373e-01 3.963990419649004e-01 4.470727832679138e-01 6.583406601056417e-01 -6.046448414363274e-02 -6.129784653127644e-02 1.869357106460184e-01 -6.436293034523047e-02 1.948297879129964e-01 1.650001381890448e-01 1.943227610918464e-04 1.346437476638280e-01 -2.444046067050855e-02 1.629458492749435e-02 1.903124051398799e-02 -9.050440750676190e-04 7.945048046740359e-02 3.053640342195321e-02 5.413581123005246e-02 8.638647465949362e-02 3.195013360698127e-02 1.424496689125090e-01 8.485806152694644e-02 3.890981477868369e-02 1.179521902598096e-02 8.957575518332465e-02 8.532405332140545e-02 1.404812246126258e-01 2.086440603898570e-02 9.161022136617857e-02 8.569203044564934e-02 5.232091818544097e-01 3.964165075549769e-01 3.328331530951589e-01 6.271197837372253e-01 5.767641491003931e-01 6.404805669291211e-01 3.956145885001473e-01 6.591882740365015e-01 6.158122746808814e-01 4.001081925086020e-01 6.877372853421500e-01 5.940093074393205e-01 5.223829540668076e-01 3.334134544965764e-01 3.851369402587554e-01 2.695152899346535e-01 1.856479479336211e-01 7.381000628262406e-02 8.662101751225756e-02 1.511201580789903e-01 2.569546083954047e-01 1.359394081432420e-02 1.116988219733428e-02 -1.325320612441451e-02 2.825331020985626e-02 -5.678594554957359e-02 1.591566160809286e-01 5.097268305514638e-01 1.877391881490740e-01 2.828607321350494e-01 1.368321638324407e-01 3.805428455775428e-02 9.121470972729977e-02 1.374760689795672e-01 8.024324907314023e-02 1.479713668867741e-01 3.950177120228326e-01 4.336542520370258e-01 5.037492651043994e-01 -8.723796452467363e-02 4.015726741467436e-01 2.410249016513251e-01 -1.720603140098955e-02 1.391591979000098e-02 -1.363761795309495e-02 2.277522924738326e-01 2.426807913261601e-01 5.923598931991534e-01 3.371060638798344e-02 3.492512869490173e-02 3.295313990916488e-03 -1.258330135586775e-02 -3.046768717408880e-02 1.444094056719869e-01 7.453876209085517e-01 7.836274834160818e-01 4.314351301615513e-01 5.598443471291108e-01 7.150316710307405e-01 4.064233227999111e-01 1.816349304386674e-02 2.950904322710430e-02 4.988208856434767e-02 8.862438069789756e-03 2.806186323709592e-02 1.823551624885976e-02 1.102865342816768e-01 2.254065906513739e-01 4.106159405256105e-01 4.059178902458421e-02 3.885257357542176e-01 -7.779960825972597e-02 1.053816110839618e-01 4.159874567815067e-01 3.600010886677289e-01 5.750634364117486e-01 5.973491458820297e-01 1.319132088187481e-01 7.112027478437377e-02 4.113315571125127e-01 1.929567068169157e-01 4.343422304983188e-01 5.103053078111235e-01 1.895671886890958e-01 2.320159564405621e-01 4.976696247451136e-01 4.388515614699018e-01 1.433337623423263e-01 8.753785568186730e-02 5.427910773647082e-01 1.771726259687853e-01 5.230601147888628e-02 6.268356405275738e-02 6.408138376944048e-02 5.359785545360257e-02 1.485840495468253e-01 5.243996524738421e-01 7.800528706086033e-01 5.070772962918719e-01 6.293710773292142e-01 6.470950715486705e-01 6.101217684484201e-01 5.955721294496628e-01 4.039038811763180e-01 2.261354631794702e-01 6.014537363715146e-01 6.878474836099499e-01 4.004791269266277e-01 2.728491741515331e-01 1.393050577560056e-01 1.507621617582396e-01 2.839494985411637e-01 2.761468815125989e-01 1.330835757357414e-01 1.057561321672317e-01 6.089945147059452e-01 5.055927595562337e-01 7.649331448402602e-02 2.766494477940411e-02 3.951087014254001e-01 1.885908080157685e-01 3.745481191672090e-01 4.682610375118855e-02 8.509326398699834e-01 5.490473310396160e-01 5.308727173450194e-01 7.825215445415236e-01 8.451314978824224e-01 5.023661388356235e-01 5.387123782575850e-01 2.588816886957145e-01 5.226889053893234e-01 5.168947234066282e-01 4.988667522908369e-01 2.611666663288141e-01 2.911641623863653e-01 5.024918171169998e-01 2.825011837626299e-01 8.516503902693935e-01 8.965900692049148e-01 5.495557004588507e-01 7.028940047627059e-01 5.338299188865326e-01 8.949344684363791e-01 6.779286670171154e-01 6.405654865564601e-01 3.656122818319787e-01 3.756884010985893e-01 5.503250326700942e-01 6.835811770784184e-01 9.110053908640915e-01 7.066735005996888e-01 8.879446514168002e-01 6.451598618694836e-01 6.821164783891768e-01 9.186809836085540e-01 7.765507736133737e-01 7.349026375924496e-01 3.294120731583934e-01 7.233527098931827e-01 7.425687151357216e-01 3.647193381137224e-01 7.427986992552478e-01 6.082010022907284e-01 3.648592388774795e-01 7.014368014244665e-01 6.680461827397809e-01 6.404792458715546e-01 6.693618131051305e-01 6.349790372038839e-01 6.377228631139333e-01 6.716262303628405e-01 6.549902641253338e-01 6.401589957603165e-01 6.561197870278467e-01 6.329715306724518e-01 6.419255962995560e-01 6.568623224198388e-01 6.315584370777867e-01 6.308103329394392e-01 6.454252099126950e-01 5.569262990550925e-01 6.481657831320041e-01 7.056162088834020e-01 2.381791491280402e-01 2.921845447724810e-01 7.630575265576888e-01 4.334251953079049e-01 5.042652393169601e-01 2.194719292573693e-01 -3.040370035185408e-02 1.648643640261582e-02 2.244018098591437e-01 2.198112075884714e-01 -2.946657228173674e-02 1.168600231690888e-02 7.188769427614817e-03 2.148489657350441e-02 6.559420166147265e-01 6.770211751585109e-01 6.519215962054745e-01 6.230937084627777e-01 6.672994430294309e-01 6.508577188788626e-01 6.677569476567210e-01 7.060823334129133e-01 6.722060741974121e-01 6.311466278992105e-01 6.431405239293094e-01 5.749887501458919e-01 4.981098930115909e-01 5.209319567036905e-01 5.672000307880484e-01 6.741764944685168e-01 6.781489028464784e-01 5.414997118385452e-01 4.683122231896318e-01 6.411245810917441e-01 6.703626667502536e-01 6.561817653909536e-01 5.389848294216517e-01 6.528140122777751e-01 4.655385486654464e-01 6.377471106086594e-01 5.419382393776654e-01 6.371994938314773e-01 6.104617065049913e-01 6.642883073249728e-01 6.790892440725586e-01 5.839582254110831e-01 5.408484009229836e-01 6.524657267411595e-01 6.451491021693473e-01 5.410860146232521e-01 5.709403203599521e-01 6.233255508063069e-01 6.514802539250614e-01 5.574276114245487e-01 6.664970172259447e-01 6.741973715629400e-01 6.756181730916629e-01 5.217527473935681e-01 5.568809568758831e-01 6.163424429017450e-01 2.448611526492849e-01 -7.723343970785568e-02 4.842357178692977e-01 4.445203093550495e-01 6.664449639060572e-01 2.258290647695014e-01 1.760841645930789e-01 3.963457725281383e-01 2.429286808161769e-01 5.550488504663973e-01 4.919770951506072e-01 4.146519551184872e-01 4.868658314395051e-01 2.216317503966974e-01 2.140673460520825e-01 7.227712078280840e-02 1.726024145356384e-01 1.615891921867191e-01 7.217976989670874e-02 2.257497832395141e-01 1.520676193406212e-01 5.655046837130107e-02 7.535555465044790e-02 5.235494760702779e-01 7.391404158940947e-01 7.114714569927979e-03 5.038089059307369e-02 1.624383905398027e-01 1.976628448768744e-01 1.714316613000621e-01 4.187747924783816e-01 2.064984610945400e-01 4.425882093363371e-01 1.551873989439593e-01 2.589012752352261e-01 2.576222509153401e-01 4.945209658741642e-01 4.589040131456120e-01 3.957484035426669e-01 1.804393552176354e-01 4.387949106387445e-01 6.904562433996252e-02 5.783827700163135e-02 1.842629967516220e-01 6.310773491509146e-01 -9.171347949186689e-02 4.788647340027211e-02 7.701608210393047e-01 1.256795997801726e-01 3.895071652882344e-01 7.530490224790641e-01 1.656217629221701e-01 1.354522850544366e-01 7.320067280230860e-01 3.756474730605863e-01 1.871840404210676e-01 4.532826743095002e-02 1.887732594221221e-01 3.573590485542404e-01 8.298027864472636e-01 8.185282002499223e-01 8.802501565760834e-01 8.766265506529373e-01 5.667081939629111e-01 8.706409799760172e-01 8.794027760366250e-01 8.051916802432888e-01 5.621830613195155e-01 8.781961720651504e-01 8.301960877587319e-01 9.178705525468921e-01 7.866302112798458e-01 4.108234699511714e-01 5.879657854699135e-01 7.868408344062042e-01 6.117985231162214e-01 4.112136151975270e-01 6.098929060645969e-01 3.679123316470893e-01 4.112359287412375e-01 6.072415222799513e-01 3.954567082673053e-01 3.693525787245507e-01 1.624761180394167e-01 8.566130533025201e-02 6.659834709971607e-02 3.844526551974088e-01 4.002906968542662e-01 2.169440583863587e-01 6.128616747432468e-02 1.030794139737382e-01 1.700543488452009e-01 8.886229197575727e-01 9.385730168784260e-01 8.717835265423329e-01 8.750576146948726e-01 8.813251727318596e-01 7.668426780750756e-01 8.945376315028559e-01 7.256088466779220e-01 7.166395244538593e-01 8.182822397671062e-01 4.979263899232153e-01 6.911153417551933e-01 5.745246018980897e-01 7.249213699383490e-01 4.803562901574879e-01 4.970442882890643e-01 7.000947497185984e-01 7.595700952137233e-01 7.191276714284982e-01 7.253015584620542e-01 5.745020151964558e-01 5.702699773669263e-01 4.783216029913814e-01 3.529596327591262e-01 6.986587987661108e-01 4.998597218177507e-01 3.661169160663727e-01 2.306216376874441e-01 2.200501156009240e-01 2.856566685200312e-01 2.287560348350293e-01 2.592729594587833e-01 4.178195068841534e-01 2.337606899105276e-01 1.863561214192060e-01 2.486727311082923e-01 9.674588578409681e-01 2.310613978238126e-01 8.296952652402356e-01 3.073749721216059e-01 1.629037172021322e-01 6.818194110461840e-01 1.702471075186857e-01 3.788290603485426e-01 6.742579751464298e-01 6.017552815407001e-01 6.417494554489468e-01 6.292213506834644e-01 6.390593099380392e-01 6.880443800101443e-01 6.382630493213676e-01 6.300608556334358e-01 5.211690340248708e-01 5.467126941398303e-01 6.411864450105170e-01 6.747542289081389e-01 5.961164021912699e-01 6.297786706483356e-01 6.398621043360190e-01 5.432528391960884e-01 6.377866023488939e-01 6.233836545390674e-01 6.919984604333510e-01 6.177634219845186e-01 6.300214028201992e-01 5.465840462992991e-01 6.921527329171380e-01 7.164061640987183e-01 6.372882769579247e-01 7.289454045217448e-01 6.406057795875911e-01 6.412582467503535e-01 6.605150239294004e-01 7.250684787498552e-01 6.756586372638811e-01 7.220655244910387e-01 7.160735258381714e-01 7.647968232791265e-01 6.557576558324408e-01 7.162976455879830e-01 6.338113429554302e-01 6.412454914558244e-01 7.166347975324951e-01 7.283059581307642e-01 7.325897285038036e-01 7.392405783547030e-01 7.655395988660076e-01 7.330050722209309e-01 7.062046861992480e-01 7.392306180949044e-01 6.607045669866510e-01 7.354701583077988e-01 7.245534389721653e-01 5.679741149167234e-01 6.137963419216658e-01 6.027032755855630e-01 6.134883935243324e-01 6.177462203283560e-01 6.026453266765273e-01 7.301408168682224e-01 6.731822183252753e-01 7.140025509112065e-01 6.737743820473189e-01 6.351071953456325e-01 7.138388980937854e-01 5.984883042513975e-01 5.365626968311523e-01 6.408507282338729e-01 5.368998313545136e-01 5.382707827157397e-01 6.406225896297989e-01 4.886784505898752e-01 5.322122000259022e-01 6.023366628464368e-01 5.244483516442363e-01 2.405338942451433e-01 2.268477380782670e-01 5.877179340196105e-01 5.212053156992605e-01 6.302009269538572e-01 6.798112649536217e-01 6.145781151924773e-01 6.586519529786100e-01 5.213339862029969e-01 5.876147541457245e-01 5.010395805616743e-01 6.197455938029236e-01 6.145307244816437e-01 6.800628228620124e-01 5.991013936865685e-01 6.310092192193830e-01 4.980804244417925e-01 2.553310832818613e-01 5.648744388321512e-01 5.126038252558752e-01 2.696727719532790e-01 5.754937110555567e-01 5.594903729334716e-01 8.904968762531358e-01 2.502348225481427e-01 9.139451381709690e-01 3.148634032180160e-01 2.876359563198616e-01 2.295555908151517e-01 6.784374585772777e-01 4.454225738899966e-01 4.978463024876478e-01 3.035794155677506e-01 4.212254983075438e-01 2.274351052929397e-01 2.891140396936491e-01 3.159110614333604e-01 3.880751023027396e-01 5.401310450908116e-01 4.329148579281142e-01 2.986915243812848e-01 4.424009042512330e-01 3.489053630577275e-01 4.966410825308917e-01 3.911224763759746e-01 3.140062837324333e-01 3.959059403066189e-01 4.889764189816129e-01 3.934517546536497e-01 3.956551167861867e-01 3.924107119661334e-01 4.779091916994536e-01 4.910497046265060e-01 4.735560494406265e-01 5.258007195866049e-01 6.863168715941276e-01 7.096565700780879e-01 5.148962396703498e-01 5.687854742410936e-01 6.830490305085296e-01 4.938428095523849e-01 4.768553568387124e-01 5.576437879152893e-01 5.160233776245869e-01 7.333590402545763e-01 -1.472249145435960e-02 1.282141962498049e-02 -1.918134015255421e-02 5.868501756194983e-02 3.739287010645177e-02 1.083726544533297e-01 5.583887883545285e-02 2.655927257638336e-02 3.771096071161423e-02 1.911689000278767e-02 2.337652534160649e-02 2.288591443333979e-02 7.0