<?xml version="1.0"?>
<VTKFile type="UnstructuredGrid" version="0.1" byte_order="LittleEndian">
<UnstructuredGrid>
<Piece NumberOfPoints="2028" NumberOfCells="724">
<Points>
<DataArray type="Float64" NumberOfComponents="3" format="ascii">
6.000000000000000e-01 7.000000000000000e-01 0.000000000000000e+00 9.499999999992372e-01 1.274999999998747e+00 0.000000000000000e+00 9.499999999992372e-01 1.274999999998747e+00 0.000000000000000e+00 1.299999999998378e+00 1.849999999997335e+00 0.000000000000000e+00 1.299999999998378e+00 1.849999999997335e+00 0.000000000000000e+00 1.649999999999066e+00 2.424999999998465e+00 0.000000000000000e+00 1.649999999999066e+00 2.424999999998465e+00 0.000000000000000e+00 2.000000000000000e+00 3.000000000000000e+00 0.000000000000000e+00 5.750000000000000e+00 7.000000000000000e-01 0.000000000000000e+00 5.500000000000827e+00 1.199999999998346e+00 0.000000000000000e+00 5.500000000000827e+00 1.199999999998346e+00 0.000000000000000e+00 5.250000000000705e+00 1.699999999998589e+00 0.000000000000000e+00 5.250000000000705e+00 1.699999999998589e+00 0.000000000000000e+00 5.000000000000000e+00 2.200000000000000e+00 0.000000000000000e+00 5.000000000000000e+00 2.200000000000000e+00 0.000000000000000e+00 4.400000000000134e+00 2.359999999999964e+00 0.000000000000000e+00 4.400000000000134e+00 2.359999999999964e+00 0.000000000000000e+00 3.800000000000203e+00 2.519999999999946e+00 0.000000000000000e+00 3.800000000000203e+00 2.519999999999946e+00 0.000000000000000e+00 3.200000000000143e+00 2.679999999999962e+00 0.000000000000000e+00 3.200000000000143e+00 2.679999999999962e+00 0.000000000000000e+00 2.600000000000082e+00 2.839999999999978e+00 0.000000000000000e+00 2.600000000000082e+00 2.839999999999978e+00 0.000000000000000e+00 2.000000000000000e+00 3.000000000000000e+00 0.000000000000000e+00 2.000000000000000e+00 3.000000000000000e+00 0.000000000000000e+00 2.083333333332920e+00 3.599999999997022e+00 0.000000000000000e+00 2.083333333332920e+00 3.599999999997022e+00 0.000000000000000e+00 2.166666666666273e+00 4.199999999997162e+00 0.000000000000000e+00 2.166666666666273e+00 4.199999999997162e+00 0.000000000000000e+00 2.250000000000000e+00 4.800000000000000e+00 0.000000000000000e+00 2.250000000000000e+00 4.800000000000000e+00 0.000000000000000e+00 1.750000000000000e+00 5.000000000000000e+00 0.000000000000000e+00 2.250000000000000e+00 4.800000000000000e+00 0.000000000000000e+00 2.833333333333118e+00 5.099999999999890e+00 0.000000000000000e+00 2.833333333333118e+00 5.099999999999890e+00 0.000000000000000e+00 3.416666666667265e+00 5.400000000000308e+00 0.000000000000000e+00 3.416666666667265e+00 5.400000000000308e+00 0.000000000000000e+00 4.000000000000000e+00 5.700000000000000e+00 0.000000000000000e+00 4.000000000000000e+00 5.700000000000000e+00 0.000000000000000e+00 3.625000000007225e+00 5.999999999994220e+00 0.000000000000000e+00 3.625000000007225e+00 5.999999999994220e+00 0.000000000000000e+00 3.250000000000000e+00 6.300000000000000e+00 0.000000000000000e+00 4.000000000000000e+00 5.700000000000000e+00 0.000000000000000e+00 4.499999999999542e+00 5.999999999999726e+00 0.000000000000000e+00 4.499999999999542e+00 5.999999999999726e+00 0.000000000000000e+00 5.000000000000000e+00 6.300000000000000e+00 0.000000000000000e+00 6.000000000000000e+00 3.800000000000000e+00 0.000000000000000e+00 6.374999999999935e+00 3.899999999999983e+00 0.000000000000000e+00 6.374999999999935e+00 3.899999999999983e+00 0.000000000000000e+00 6.750000000000000e+00 4.000000000000000e+00 0.000000000000000e+00 6.000000000000000e+00 3.800000000000000e+00 0.000000000000000e+00 5.625000000000065e+00 3.899999999999983e+00 0.000000000000000e+00 5.625000000000065e+00 3.899999999999983e+00 0.000000000000000e+00 5.250000000000000e+00 4.000000000000000e+00 0.000000000000000e+00 4.250000000000000e+00 4.800000000000000e+00 0.000000000000000e+00 4.750000000000338e+00 4.399999999999729e+00 0.000000000000000e+00 4.750000000000338e+00 4.399999999999729e+00 0.000000000000000e+00 5.250000000000000e+00 4.000000000000000e+00 0.000000000000000e+00 4.750000000000000e+00 4.000000000000000e+00 0.000000000000000e+00 5.250000000000000e+00 4.000000000000000e+00 0.000000000000000e+00 3.500000000000000e+00 4.000000000000000e+00 0.000000000000000e+00 3.083333333334594e+00 4.266666666665859e+00 0.000000000000000e+00 3.083333333334594e+00 4.266666666665859e+00 0.000000000000000e+00 2.666666666668059e+00 4.533333333332442e+00 0.000000000000000e+00 2.666666666668059e+00 4.533333333332442e+00 0.000000000000000e+00 2.250000000000000e+00 4.800000000000000e+00 0.000000000000000e+00 3.500000000000000e+00 4.000000000000000e+00 0.000000000000000e+00 3.874999999992375e+00 3.750000000005084e+00 0.000000000000000e+00 3.874999999992375e+00 3.750000000005084e+00 0.000000000000000e+00 4.250000000000000e+00 3.500000000000000e+00 0.000000000000000e+00 1.000000000000000e+00 6.200000000000000e+00 0.000000000000000e+00 1.599999999997112e+00 6.100000000000482e+00 0.000000000000000e+00 1.599999999997112e+00 6.100000000000482e+00 0.000000000000000e+00 2.199999999995692e+00 6.000000000000719e+00 0.000000000000000e+00 2.199999999995692e+00 6.000000000000719e+00 0.000000000000000e+00 2.799999999997127e+00 5.900000000000479e+00 0.000000000000000e+00 2.799999999997127e+00 5.900000000000479e+00 0.000000000000000e+00 3.399999999998564e+00 5.800000000000240e+00 0.000000000000000e+00 3.399999999998564e+00 5.800000000000240e+00 0.000000000000000e+00 4.000000000000000e+00 5.700000000000000e+00 0.000000000000000e+00 4.750000000000000e+00 7.200000000000000e+00 0.000000000000000e+00 4.500000000000000e+00 6.699999999999999e+00 0.000000000000000e+00 4.500000000000000e+00 6.699999999999999e+00 0.000000000000000e+00 4.250000000000000e+00 6.200000000000001e+00 0.000000000000000e+00 4.250000000000000e+00 6.200000000000001e+00 0.000000000000000e+00 4.000000000000000e+00 5.700000000000000e+00 0.000000000000000e+00 2.750000000000000e+00 4.000000000000000e+00 0.000000000000000e+00 3.124999999988985e+00 4.000000000000000e+00 0.000000000000000e+00 3.124999999988985e+00 4.000000000000000e+00 0.000000000000000e+00 3.500000000000000e+00 4.000000000000000e+00 0.000000000000000e+00 5.000000000000000e+00 2.200000000000000e+00 0.000000000000000e+00 4.750000000000000e+00 2.800000000000000e+00 0.000000000000000e+00 5.000000000000000e+00 2.200000000000000e+00 0.000000000000000e+00 5.249999999999616e+00 2.499999999999539e+00 0.000000000000000e+00 5.249999999999616e+00 2.499999999999539e+00 0.000000000000000e+00 5.500000000000000e+00 2.800000000000000e+00 0.000000000000000e+00 5.500000000000000e+00 2.800000000000000e+00 0.000000000000000e+00 5.250000000000325e+00 3.199999999999480e+00 0.000000000000000e+00 5.250000000000325e+00 3.199999999999480e+00 0.000000000000000e+00 5.000000000000298e+00 3.599999999999522e+00 0.000000000000000e+00 5.000000000000298e+00 3.599999999999522e+00 0.000000000000000e+00 4.750000000000000e+00 4.000000000000000e+00 0.000000000000000e+00 5.500000000000000e+00 2.800000000000000e+00 0.000000000000000e+00 5.916666666666305e+00 3.199999999999653e+00 0.000000000000000e+00 5.916666666666305e+00 3.199999999999653e+00 0.000000000000000e+00 6.333333333333001e+00 3.599999999999680e+00 0.000000000000000e+00 6.333333333333001e+00 3.599999999999680e+00 0.000000000000000e+00 6.750000000000000e+00 4.000000000000000e+00 0.000000000000000e+00 5.500000000000000e+00 2.800000000000000e+00 0.000000000000000e+00 5.750000000000000e+00 2.500000000000000e+00 0.000000000000000e+00 5.750000000000000e+00 2.500000000000000e+00 0.000000000000000e+00 6.374999999999980e+00 2.350000000000005e+00 0.000000000000000e+00 6.374999999999980e+00 2.350000000000005e+00 0.000000000000000e+00 7.000000000000000e+00 2.200000000000000e+00 0.000000000000000e+00 7.000000000000000e+00 2.200000000000000e+00 0.000000000000000e+00 7.499999999999977e+00 2.349999999999993e+00 0.000000000000000e+00 7.499999999999977e+00 2.349999999999993e+00 0.000000000000000e+00 8.000000000000000e+00 2.500000000000000e+00 0.000000000000000e+00 7.500000000000000e+00 2.000000000000000e+00 0.000000000000000e+00 7.750000000000000e+00 2.250000000000000e+00 0.000000000000000e+00 7.750000000000000e+00 2.250000000000000e+00 0.000000000000000e+00 8.000000000000000e+00 2.500000000000000e+00 0.000000000000000e+00 8.000000000000000e+00 2.500000000000000e+00 0.000000000000000e+00 8.166666666666181e+00 1.900000000001745e+00 0.000000000000000e+00 8.166666666666181e+00 1.900000000001745e+00 0.000000000000000e+00 8.333333333332911e+00 1.300000000001518e+00 0.000000000000000e+00 8.333333333332911e+00 1.300000000001518e+00 0.000000000000000e+00 8.500000000000000e+00 7.000000000000000e-01 0.000000000000000e+00 8.000000000000000e+00 2.500000000000000e+00 0.000000000000000e+00 8.499999999999950e+00 2.599999999999990e+00 0.000000000000000e+00 8.499999999999950e+00 2.599999999999990e+00 0.000000000000000e+00 9.000000000000000e+00 2.700000000000000e+00 0.000000000000000e+00 9.000000000000000e+00 2.700000000000000e+00 0.000000000000000e+00 9.466666666664466e+00 2.566666666667295e+00 0.000000000000000e+00 9.466666666664466e+00 2.566666666667295e+00 0.000000000000000e+00 9.933333333329530e+00 2.433333333334420e+00 0.000000000000000e+00 9.933333333329530e+00 2.433333333334420e+00 0.000000000000000e+00 1.040000000000000e+01 2.300000000000000e+00 0.000000000000000e+00 1.040000000000000e+01 2.300000000000000e+00 0.000000000000000e+00 1.078333333333231e+01 1.900000000001070e+00 0.000000000000000e+00 1.078333333333231e+01 1.900000000001070e+00 0.000000000000000e+00 1.116666666666699e+01 1.499999999999660e+00 0.000000000000000e+00 1.116666666666699e+01 1.499999999999660e+00 0.000000000000000e+00 1.155000000000000e+01 1.100000000000000e+00 0.000000000000000e+00 8.000000000000000e+00 2.500000000000000e+00 0.000000000000000e+00 8.437500000000002e+00 2.875000000000001e+00 0.000000000000000e+00 8.437500000000002e+00 2.875000000000001e+00 0.000000000000000e+00 8.875000000000004e+00 3.250000000000002e+00 0.0000000000000
[...]
<PointData Scalars="A_conc," Vectors="" Tensors="">
<DataArray type="Float64" Name="A_conc" format="ascii">
4.316440475621360e-01 8.671166547116798e-01 8.009572155698831e-01 9.181602527023889e-01 9.023933571153487e-01 9.383841808434066e-01 9.346085951895776e-01 9.514707731960701e-01 5.779017042907734e-01 4.584552284971963e-01 4.090630141044032e-01 5.089548016518122e-01 5.165020590638244e-01 6.273756455322160e-01 9.549282824050782e-01 9.541297743903918e-01 9.541355972976715e-01 9.533007141817113e-01 9.533065594915670e-01 9.524365442478082e-01 9.524591800464952e-01 9.514492690613379e-01 9.515809477902721e-01 9.497177974793057e-01 9.499542499424234e-01 9.472530359277478e-01 9.475997679078851e-01 9.428195194857155e-01 9.433626725110736e-01 9.368095465586098e-01 9.564379482890839e-01 8.317334905387276e-01 9.438085213561179e-01 9.469606806079134e-01 9.470217949242853e-01 9.551837350060267e-01 9.550153123584952e-01 9.570822936749580e-01 9.594860737603452e-01 9.363770373669782e-01 9.712686931082830e-01 8.097397777858771e-01 9.099918260250280e-01 9.244974391061880e-01 9.262865901399080e-01 9.439946774660959e-01 9.940043981860456e-01 9.956843970601225e-01 9.955294583741863e-01 9.962189507792548e-01 9.943455139813441e-01 9.898556581456006e-01 9.903156238019089e-01 9.798532199529861e-01 9.413333125106755e-01 9.661231872700741e-01 9.610816397823835e-01 9.657163490228076e-01 9.485198284817264e-01 8.181310183312910e-01 8.998048701435454e-01 8.959010079636988e-01 8.952297008012107e-01 8.915496935444199e-01 8.922683850263402e-01 8.852393613077986e-01 9.311712832931848e-01 9.446345024879534e-01 9.485497746664413e-01 9.792706708184805e-01 9.206494414830011e-01 9.473618866619232e-01 9.424171237517668e-01 9.484177686909572e-01 9.479646329752007e-01 9.517789570640923e-01 9.516156497669033e-01 9.546033610072815e-01 9.545218125229264e-01 9.570846816680961e-01 2.619525841350287e-01 4.256946782485367e-01 3.502796009582168e-01 6.008778794616256e-01 6.392485559780665e-01 9.986907498768393e-01 7.171715191959660e-01 7.166443898004200e-01 7.154503164990238e-01 7.403493099238703e-01 1.005310028319412e+00 8.027361657954227e-01 9.844278719832174e-01 9.850446374185849e-01 9.849231808694597e-01 9.850961571486361e-01 9.855030785265125e-01 9.814558230106234e-01 9.829716760075058e-01 9.674750893258173e-01 9.712544806643011e-01 9.350139905552040e-01 9.074873362992689e-01 9.115848158044308e-01 9.116388940351273e-01 9.159111737072435e-01 9.198370274959109e-01 9.633756643242058e-01 9.942383613397998e-01 9.946663208023417e-01 9.946377676035817e-01 9.948698169263689e-01 9.948543339381029e-01 9.950241794604192e-01 9.950227126615419e-01 9.951538399295125e-01 9.951528021719350e-01 9.952774883711513e-01 9.517091184861637e-01 1.007028600060813e+00 9.924462221578993e-01 9.957403837938027e-01 7.296352778442412e-01 7.737465005705230e-01 8.094544088548803e-01 8.863726308355258e-01 8.883960411659366e-01 9.101008296184852e-01 9.986882939583132e-01 9.998721878095714e-01 9.996949224252413e-01 9.998335267663904e-01 9.997910249637902e-01 9.998442014413321e-01 9.998391171128566e-01 9.998593260508802e-01 9.998580549596036e-01 9.998736122759320e-01 9.997444970366023e-01 9.998169293977076e-01 9.998130869667976e-01 9.998585408214914e-01 9.998587194250600e-01 9.998659602183598e-01 9.979863126362476e-01 9.989863248989072e-01 9.988828908146812e-01 9.995443475369181e-01 9.994691524303173e-01 9.998555871408836e-01 9.998050518913586e-01 9.999561084454394e-01 9.999414088810336e-01 9.998637978158642e-01 9.999184418054381e-01 9.996377697395272e-01 1.004239142442863e+00 9.887369755402893e-01 9.330251844151701e-01 1.003896670223199e+00 9.858139047765851e-01 9.988975261784715e-01 9.961981289971108e-01 9.976385004923649e-01 9.973981598011354e-01 9.978110372422023e-01 9.976805787843414e-01 9.977933868002400e-01 9.862115292712073e-01 9.997634910555693e-01 9.965165977709313e-01 9.979612738333263e-01 9.823178908686929e-01 9.857594625102495e-01 9.857163901048883e-01 9.881821039400557e-01 9.883189851704937e-01 9.885970494576026e-01 1.017769018567666e+00 9.322675041595159e-01 9.567112688119730e-01 4.445488645240728e-01 9.860851820312680e-01 9.998496568883465e-01 9.965422412727153e-01 9.979632971842330e-01 9.999314984706542e-01 9.999212528570229e-01 9.999233399889218e-01 9.999087143859272e-01 9.999189232687974e-01 9.998634097697290e-01 9.999309070717787e-01 9.999384568430977e-01 9.999373527094014e-01 9.999404187542942e-01 9.999403892735969e-01 9.999432709788733e-01 9.999529118708343e-01 9.998892733561708e-01 1.000421433013144e+00 9.985787178199275e-01 9.999999970281714e-01 1.000000006013392e+00 1.000000000452749e+00 9.999999999483131e-01 1.000000000001832e+00 9.999999999991961e-01 9.991314332403891e-01 9.993749561024556e-01 9.993682219335887e-01 9.994793114021935e-01 9.994784275705960e-01 9.995297991575147e-01 9.995321989780640e-01 9.995357862787780e-01 9.999157309954425e-01 9.999246306865986e-01 9.999241844039655e-01 9.999311557595096e-01 9.999307254392968e-01 9.999366131000381e-01 9.999363813397858e-01 9.999432085451164e-01 9.999278687644054e-01 9.999251559994020e-01 9.999264788228698e-01 9.998936756081297e-01 9.799955067740894e-01 9.832708765193197e-01 9.828956230369423e-01 9.843330018584766e-01 9.843270155252316e-01 9.848063101278602e-01 9.944925288234181e-01 9.956429248782095e-01 9.955459910693891e-01 9.959789656878987e-01 9.959457036768323e-01 9.962032178422678e-01 8.611752607641291e-01 8.726447495968648e-01 6.821516629064611e-01 7.212522540833542e-01 7.496939175311724e-01 7.084242824302421e-01 9.442314245108624e-01 9.557385223563514e-01 9.555235458843422e-01 9.630391781743159e-01 9.625893610246552e-01 9.667024313724150e-01 9.664759641958951e-01 9.693065238804754e-01 9.888333742271974e-01 9.941704263771119e-01 9.931333216548084e-01 9.989012567768301e-01 9.981583604438268e-01 9.997485799413027e-01 9.990893888778321e-01 9.991813309406369e-01 9.768603269268059e-01 9.798070918486114e-01 9.762045876414542e-01 9.761314563480917e-01 8.733357158548115e-01 8.857729532494082e-01 8.861663996615986e-01 8.956273933184762e-01 8.966373591336141e-01 9.344647547485110e-01 9.343989059132032e-01 9.724029365623705e-01 8.683627741687788e-01 8.852796079918206e-01 9.562393004893668e-01 9.432795346691945e-01 9.655740426523615e-01 8.665279935626164e-01 9.255796026029711e-01 9.267390327696585e-01 9.267323406180574e-01 9.278693610781747e-01 9.278604462278661e-01 9.288837473835700e-01 9.288720210682655e-01 9.297785095785481e-01 4.671935804288824e-01 9.059070481873065e-01 4.761526498851875e-01 4.759695901590403e-01 9.062099057938858e-01 8.506139598838423e-01 9.437528525951189e-01 9.193649905814134e-01 9.360498878571715e-01 9.370378796982524e-01 9.098210841795557e-01 9.141230872059790e-01 9.329525520463332e-01 9.373764517503009e-01 9.106775369851003e-01 9.197175810862351e-01 9.150656508499797e-01 8.080868023897606e-01 8.341315325877297e-01 9.202566903067115e-01 8.078201278434689e-01 9.392453810504978e-01 9.207635958489471e-01 9.438245233133260e-01 9.478448820704456e-01 9.361962177187242e-01 9.428452506432787e-01 9.399332847696440e-01 9.124882940287340e-01 9.205761746534210e-01 9.396208974477612e-01 9.364932071029048e-01 9.143265363172591e-01 9.208333437622331e-01 9.154299344276033e-01 8.450564603513364e-01 9.061234496461376e-01 9.089012214925735e-01 9.367065244134637e-01 9.362136160179164e-01 9.314202347018572e-01 9.063912940066430e-01 9.444309700460393e-01 9.328735169726897e-01 9.380409694597986e-01 9.434162935128189e-01 9.472626333904248e-01 9.500683124797402e-01 9.380555622442670e-01 9.475920436222760e-01 9.442292950853084e-01 9.020196076991359e-01 9.328951105412078e-01 9.386243290647217e-01 9.017996889605665e-01 9.026544671889337e-01 9.333234027184806e-01 9.346039246554059e-01 9.465726087036350e-01 9.515913914382486e-01 9.345914527276975e-01 9.291859510512874e-01 9.467243720773799e-01 9.337343719377353e-01 9.454914604043477e-01 9.376030152333379e-01 9.289750969725149e-01 9.336574850232369e-01 9.470336814181102e-01 9.316105714036141e-01 9.105411504342864e-01 9.368084253230567e-01 9.377265354050008e-01 9.281707948323757e-01 9.337483734537650e-01 9.320331520229139e-01 9.067305868425216e-01 9.103829400976218e-01 9.114477152030693e-01 9.302333290000866e-01 9.304279299270011e-01 9.280797890575200e-01 9.379374531015551e-01 9.270785914490165e-01 3.769519932370215e-01 4.572591198723924e-01 5.746427076819931e-01 -5.616526910377902e-02 -7.078537777278213e-02 2.174762668770193e-01 3.961149629445766e-01 1.003612342771076e+00 7.687905273154326e-01 9.414731909048739e-01 9.512927755421403e-01 9.561491486800543e-01 2.254842424775882e-01 3.787407387478467e-01 -5.900188330872670e-02 3.847385680514121e-01 -4.077154149054135e-02 -6.641611072349915e-02 6.124508234370708e-01 4.018334664411404e-01 2.190200428884188e-01 1.875015139550089e-01 2.898785062728897e-01 2.410999765649753e-01 4.019640033621396e-01 2.276669172409097e-01 9.952895998872301e-01 9.152295583697831e-01 9.389593787228453e-01 9.502107484037631e-01 1.037643077121540e-01 4.858809730897454e-01 3.237806477863701e-01 9.056979435244842e-01 8.804952120025407e-01 9.256136742695199e-01 9.529533903494077e-01 9.287971156159017e-01 9.478396744330277e-01 8.917301447881313e-01 9.405103527869718e-01 9.154063753351811e-01 9.286255460129288e-01 9.177984687953384e-01 9.488403994231034e-01 8.958065095009453e-01 9.332363831037491e-01 9.513480953246499e-01 3.774997702070351e-01 1.073386458926535e+00 9.864970028483550e-01 4.155761526649103e-01 1.077695895637664e+00 3.750491040684000e-01 9.031938614966327e-01 8.763556263959469e-01 8.362803586050432e-01 9.285986827993606e-01 8.769735010896236e-01 8.997028293710940e-01 9.414711051226163e-01 9.315121805154261e-01 9.519103375984224e-01 9.515332366719205e-01 9.952730461221243e-01 7.432491813141268e-01 1.081726069476102e+00 4.126659893292575e-01 6.115437214495957e-01 9.529105977662803e-01 9.629004360697874e-01 8.726672059850212e-01 8.888027161696251e-01 9.550001853284068e-01 8.712883947681583e-01 8.897628976037339e-01 9.146657601440891e-01 9.425762738693632e-01 9.051761533004739e-01 9.559083290226267e-01 6.674460680732434e-01 5.833035653569430e-02 4.851054100837210e-01 1.031054779669083e-01 7.433540512990676e-01 8.848561180341336e-01 9.525284004265824e-01 2.424312833018453e-01 2.894357559464759e-01 2.974299367990906e-01 3.713613278475001e-01 2.726369245139154e-01 2.868924400645710e-01 6.875064500378986e-01 4.493540499552007e-01 9.675884483091998e-01 3.566196361088317e-01 4.840039304800372e-01 5.945093080640886e-02 4.494199767425573e-01 6.416154590549022e-01 9.679184060374271e-01 6.556655978920486e-01 4.907174601749069e-01 9.237729955828696e-01 2.095529461954181e-02 3.544076100430785e-01 5.937093284249973e-02 -2.179561948907739e-02 6.178157680298776e-01 3.868410866536317e-01 7.867561587526088e-01 7.876051967116221e-01 6.507381354544163e-01 7.804274563065180e-01 4.108882216212496e-01 6.130302135551665e-01 4.928265293572597e-01 7.829969787537049e-01 9.236125209767867e-01 4.588809814199933e-01 -4.372516299217834e-02 3.930066698495018e-01 4.931305935984714e-01 4.073940110163477e-01 7.821026713696084e-01 4.682152026091816e-01 6.157298678275042e-01 -1.862061667446381e-02 -5.018315337252260e-02 4.625741529001250e-01 -1.701525092162600e-02 9.177526248334587e-01 8.486102744692894e-01 8.553860914556652e-01 8.506481466429644e-01 9.143803141949332e-01 8.927769390034695e-01 8.332594381806998e-01 8.531582774480815e-01 9.066983673208387e-01 8.526250422084214e-01 7.931874670578085e-01 8.412981365695363e-01 8.499668358784559e-01 7.578293036432012e-01 8.565057903382080e-01 7.896851087170343e-01 7.701744861240631e-01 8.454321799838860e-01 2.848584058135294e-01 4.276679017723740e-01 3.748511351193300e-01 4.011207894587143e-01 3.116837443565604e-01 5.088823147376477e-01 8.916429650091156e-01 8.874255656270696e-01 9.820184819969454e-01 8.945329941354779e-01 7.003533110612602e-01 9.001940476947243e-01 4.037054117622477e-02 1.544599843738606e-04 1.963140805456843e-01 3.723323671309564e-01 8.816630882251095e-01 4.129856976391420e-01 9.344343443134810e-01 8.787717090104048e-01 3.794639986976320e-01 6.345014077703950e-01 9.195294134622379e-01 9.009410769641727e-01 6.014308882288349e-01 6.272755818820813e-01 9.170475181397569e-01 5.988740802773342e-01 3.515827688829394e-01 6.250948978806791e-01 3.421583312510721e-01 3.895786964758349e-01 4.851168285702576e-02 2.266027057763104e-01 4.369909881653411e-01 3.583027927828884e-02 1.740211029613201e-01 3.491016677492869e-01 5.794878952878366e-01 9.683785664864961e-01 9.859502720949016e-01 9.845958260123653e-01 9.839363834253196e-01 9.851059467849649e-01 9.945725757260218e-01 9.936469964726717e-01 9.854934100087256e-01 9.939154185052129e-01 9.999162507040369e-01 9.999009236630989e-01 9.999489326368004e-01 9.999399210892611e-01 9.997721658649429e-01 9.999531496047892e-01 9.997908513885165e-01 9.997617837981143e-01 9.999330257857952e-01 9.999261836237697e-01 9.998020457879455e-01 9.999080909920979e-01 9.983249097857158e-01 1.000234195426146e+00 9.982889890469404e-01 9.999483165270868e-01 9.997786025510791e-01 9.999525588945528e-01 9.998076525518040e-01 9.997713053897069e-01 9.999808992492951e-01 9.998729740553709e-01 9.992498896874134e-01 9.998353941203015e-01 9.999314750049189e-01 9.992436179924722e-01 9.992420747936214e-01 9.998337232835467e-01 9.998433813656963e-01 9.992946518523990e-01 9.994157921090311e-01 9.975749972367643e-01 9.994234695310273e-01 9.975965102523628e-01 9.971427934654232e-01 9.998446310134355e-01 9.992117144135110e-01 9.999626477689639e-01 9.993867840923015e-01 9.995525778320274e-01 9.978340349474645e-01 9.993426917111016e-01 9.980009834353201e-01 9.930191861634010e-01 9.974314484518637e-01 9.934442839807349e-01 9.984565379092956e-01 9.932398732181742e-01 9.991512232105925e-01 9.973139400849937e-01 9.974369502120052e-01 9.977652107830560e-01 9.975379402927657e-01 9.934198272154626e-01 1.000417052407136e+00 9.998693671095976e-01 9.984752844225103e-01 9.987893149480146e-01 1.000361443637534e+00 1.000175068333076e+00 9.997868603737905e-01 1.000084355156693e+00 9.994197819270211e-01 9.580543591198483e-01 5.059054548712839e-01 7.445653302488507e-01 9.151365503222607e-01 9.828072348013258e-01 9.178739198350304e-01 6.875251510860686e-01 9.887748212948110e-01 1.035957258941663e+00 5.148699531562851e-01 9.500772746443807e-01 7.098939588737905e-01 7.791199440463195e-01 9.214937225202002e-01 7.534227816085599e-01 9.313578925075112e-01 9.109345562600434e-01 7.839528572111119e-01 9.432208023973074e-01 7.998477986550793e-01 8.993547279869328e-01 7.815691386620394e-01 7.555444348450204e-01 5.930690797341757e-01 7.456059769973814e-01 7.947262061489174e-01 5.851077885881940e-01 7.999228476279922e-01 8.899598465963675e-01 8.992279913598196e-01 8.982966561650996e-01 7.968015972881195e-01 7.398142057047814e-01 8.925813164528325e-01 7.590501198096991e-01 8.831682303449698e-01 7.482775822979861e-01 5.832477658054523e-01 5.231107406539596e-01 7.022849508240863e-01 1.026989304034415e+00 9.325059296063447e-01 5.330654996337859e-01 5.580737400998429e-01 7.515940655460794e-01 7.497449188039231e-01 7.534801526150388e-01 5.345662425328696e-01 7.317194639789016e-01 8.896060727422394e-01 7.560427685894364e-01 9.248049983110447e-01 8.767181359173746e-01 9.297616202641694e-01 9.513559628796489e-01 8.524258676935969e-01 9.474154071869437e-01 9.323480272201081e-01 9.465237428181028e-01 9.452221603855544e-01 9.474633268812462e-01 9.497534829371170e-01 9.575014526630073e-01 9.434412126117691e-01 9.499955330408038e-01 9.522005252184474e-01 7.699254164259681e-01 7.829995905918576e-01 9.487398700635208e-01 9.593699171244993e-01 9.509707987193894e-01 9.333688245094314e-01 9.738570391843215e-01 8.414874278154543e-01 9.552586490305424e-01 9.693828430389896e-01 9.749043960610815e-01 8.537817494260272e-01 9.301071310420349e-01 7.101094734025676e-01 9.668826771702257e-01 9.357310473031294e-01 7.876076716343960e-01 7.056137218262155e-01 1.002505504456415e+00 9.831136340363785e-01 1.003032489329517e+00 9.731663495238146e-01 7.469835217495273e-01 9.017038492615354e-01 8.948543633366257e-01 9.399546270891646e-01 8.989788606912148e-01 9.377739371379973e-01 8.999310343915244e-01 9.274886929271681e-01 9.388340917582213e-01 9.423758636540053e-01 9.486355054249140e-01 8.561578886859683e-01 8.883467441983767e-01 8.781755959000067e-01 8.805425678036338e-01 8.595879608782809e-01 8.515051439765851e-01 9.278294134691141e-01 8.804179213807564e-01 8.599828039114655e-01 9.322827431064378e-01 9.238369082336237e-01 9.472151631351039e-01 9.254425270533690e-01 9.515652426092877e-01 9.504135926387094e-01 9.247603630822337e-01 9.268166776982510e-01 8.607837834734193e-01 8.663996871434793e-01 9.231609313452105e-01 8.634075806823071e-01 9.338944078209792e-01 8.283474848096288e-01 9.675522509469198e-01 9.283232782176793e-01 9.286470291347830e-01 8.799187737057111e-01 9.295893702266571e-01 8.776517462659167e-01 8.794684041343412e-01 9.263464394643762e-01 9.169633534366217e-01 9.353374485128860e-01 8.979754636453670e-01 9.233193375179369e-01 9.310072071374430e-01 9.523004943047935e-01 9.247506226715194e-01 9.376390182271762e-01 9.241223930241040e-01 8.959495343330756e-01 9.372166258364724e-01 9.378767291476511e-01 8.956711140489892e-01 8.939956791383871e-01 9.436770375669696e-01 9.254185610653527e-01 9.455335249761427e-01 9.439321358223198e-01 9.278612078586963e-01 9.252644566746060e-01 9.410478730807055e-01 8.993670862016305e-01 9.390087040972867e-01 7.042381259157281e-01 9.851527972404289e-01 1.013027435028615e+00 3.234227636695707e-01 5.960165709122286e-01 4.823258639166770e-01 3.481483042971975e-01 3.036477826107022e-01 3.597965526149925e-01 9.527828762300272e-01 1.011285878863552e+00 9.998769979780437e-01 9.384352417385722e-01 9.583344073810131e-01 8.495656254935888e-01 9.609739546110655e-01 9.476331975653061e-01 1.009607379427820e+00 9.505357783088113e-01 9.667499009790912e-01 8.790573726332739e-01 8.558731665882326e-01 9.700915730300471e-01 9.759936903798169e-01 9.400567224663723e-01 9.450329109237371e-01 9.567266498084838e-01 2.815519493731673e-01 2.354516130715601e-01 2.154908079671804e-01 9.289793874523199e-01 8.525950606863779e-01 9.789870907389119e-01 8.307188848741582e-01 8.518786628513378e-01 9.797409949913610e-01 2.799456494278355e-01 1.331890734780883e-01 1.756257774968896e-01 9.940042305978281e-01 9.510253737593920e-01 9.360732183363626e-01 1.002443614504227e+00 9.938862563828172e-01 9.432357643608097e-01 1.029733892970876e+00 9.941341267419310e-01 4.405993489917669e-01 4.037082570375384e-01 1.009252050240136e+00 1.630117867834086e-01 8.992930124078877e-01 1.000108034799240e+00 9.587914858237089e-01 9.919788625270846e-01 8.999560087915590e-01 9.862372775922558e-01 9.911053796327910e-01 1.011885176769336e+00 9.500248909203722e-01 6.170010644829298e-01 6.985206840031687e-01 1.027944951767219e+00 7.320916075986915e-01 -2.767936459797624e-02 4.159791781965364e-03 -1.641948980036051e-02 7.753622385181143e-01 1.012223883619929e+00 9.438747304800477e-01 7.370063403064491e-01 1.006869578064301e+00 1.043149025489643e+00 4.128299491118589e-01 6.707309179579048e-01 4.540674090076853e-01 3.556745111051182e-01 5.974502882696900e-01 3.288447225893472e-01 3.823353299587927e-01 2.763675146170228e-01 3.810830244568030e-01 2.792709919388410e-01 2.763732121819519e-01 1.002598968048849e+00 9.994622060773301e-01 9.894362248060651e-01 9.789505082539370e-01 1.010136845955721e+00 9.838771517744384e-01 2.125038364998034e-01 2.803943472963804e-01 1.763375940292405e-01 5.871947577447724e-01 9.237091970931295e-01 1.002927951610308e+00 1.623882752180441e-01 1.010055666057310e+00 4.173877161032594e-01 2.838248349688287e-01 2.916290155492764e-01 2.341750659695545e-01 2.915973816249203e-01 2.853990685783955e-01 4.079201722682296e-01 3.236574434955870e-01 4.758507056888869e-01 2.148943488495070e-01 9.244226619414264e-01 9.460996878580760e-01 9.442704825286097e-01 5.061757494625674e-01 6.736797850031375e-01 7.172012652491881e-01 6.744433878207841e-01 9.646933714037953e-01 7.195287633881304e-01 6.822116205476