<?xml version="1.0"?>
<VTKFile type="UnstructuredGrid" version="0.1" byte_order="LittleEndian">
<UnstructuredGrid>
<Piece NumberOfPoints="2028" NumberOfCells="724">
<Points>
<DataArray type="Float64" NumberOfComponents="3" format="ascii">
6.000000000000000e-01 7.000000000000000e-01 0.000000000000000e+00 9.499999999992372e-01 1.274999999998747e+00 0.000000000000000e+00 9.499999999992372e-01 1.274999999998747e+00 0.000000000000000e+00 1.299999999998378e+00 1.849999999997335e+00 0.000000000000000e+00 1.299999999998378e+00 1.849999999997335e+00 0.000000000000000e+00 1.649999999999066e+00 2.424999999998465e+00 0.000000000000000e+00 1.649999999999066e+00 2.424999999998465e+00 0.000000000000000e+00 2.000000000000000e+00 3.000000000000000e+00 0.000000000000000e+00 5.750000000000000e+00 7.000000000000000e-01 0.000000000000000e+00 5.500000000000827e+00 1.199999999998346e+00 0.000000000000000e+00 5.500000000000827e+00 1.199999999998346e+00 0.000000000000000e+00 5.250000000000705e+00 1.699999999998589e+00 0.000000000000000e+00 5.250000000000705e+00 1.699999999998589e+00 0.000000000000000e+00 5.000000000000000e+00 2.200000000000000e+00 0.000000000000000e+00 5.000000000000000e+00 2.200000000000000e+00 0.000000000000000e+00 4.400000000000134e+00 2.359999999999964e+00 0.000000000000000e+00 4.400000000000134e+00 2.359999999999964e+00 0.000000000000000e+00 3.800000000000203e+00 2.519999999999946e+00 0.000000000000000e+00 3.800000000000203e+00 2.519999999999946e+00 0.000000000000000e+00 3.200000000000143e+00 2.679999999999962e+00 0.000000000000000e+00 3.200000000000143e+00 2.679999999999962e+00 0.000000000000000e+00 2.600000000000082e+00 2.839999999999978e+00 0.000000000000000e+00 2.600000000000082e+00 2.839999999999978e+00 0.000000000000000e+00 2.000000000000000e+00 3.000000000000000e+00 0.000000000000000e+00 2.000000000000000e+00 3.000000000000000e+00 0.000000000000000e+00 2.083333333332920e+00 3.599999999997022e+00 0.000000000000000e+00 2.083333333332920e+00 3.599999999997022e+00 0.000000000000000e+00 2.166666666666273e+00 4.199999999997162e+00 0.000000000000000e+00 2.166666666666273e+00 4.199999999997162e+00 0.000000000000000e+00 2.250000000000000e+00 4.800000000000000e+00 0.000000000000000e+00 2.250000000000000e+00 4.800000000000000e+00 0.000000000000000e+00 1.750000000000000e+00 5.000000000000000e+00 0.000000000000000e+00 2.250000000000000e+00 4.800000000000000e+00 0.000000000000000e+00 2.833333333333118e+00 5.099999999999890e+00 0.000000000000000e+00 2.833333333333118e+00 5.099999999999890e+00 0.000000000000000e+00 3.416666666667265e+00 5.400000000000308e+00 0.000000000000000e+00 3.416666666667265e+00 5.400000000000308e+00 0.000000000000000e+00 4.000000000000000e+00 5.700000000000000e+00 0.000000000000000e+00 4.000000000000000e+00 5.700000000000000e+00 0.000000000000000e+00 3.625000000007225e+00 5.999999999994220e+00 0.000000000000000e+00 3.625000000007225e+00 5.999999999994220e+00 0.000000000000000e+00 3.250000000000000e+00 6.300000000000000e+00 0.000000000000000e+00 4.000000000000000e+00 5.700000000000000e+00 0.000000000000000e+00 4.499999999999542e+00 5.999999999999726e+00 0.000000000000000e+00 4.499999999999542e+00 5.999999999999726e+00 0.000000000000000e+00 5.000000000000000e+00 6.300000000000000e+00 0.000000000000000e+00 6.000000000000000e+00 3.800000000000000e+00 0.000000000000000e+00 6.374999999999935e+00 3.899999999999983e+00 0.000000000000000e+00 6.374999999999935e+00 3.899999999999983e+00 0.000000000000000e+00 6.750000000000000e+00 4.000000000000000e+00 0.000000000000000e+00 6.000000000000000e+00 3.800000000000000e+00 0.000000000000000e+00 5.625000000000065e+00 3.899999999999983e+00 0.000000000000000e+00 5.625000000000065e+00 3.899999999999983e+00 0.000000000000000e+00 5.250000000000000e+00 4.000000000000000e+00 0.000000000000000e+00 4.250000000000000e+00 4.800000000000000e+00 0.000000000000000e+00 4.750000000000338e+00 4.399999999999729e+00 0.000000000000000e+00 4.750000000000338e+00 4.399999999999729e+00 0.000000000000000e+00 5.250000000000000e+00 4.000000000000000e+00 0.000000000000000e+00 4.750000000000000e+00 4.000000000000000e+00 0.000000000000000e+00 5.250000000000000e+00 4.000000000000000e+00 0.000000000000000e+00 3.500000000000000e+00 4.000000000000000e+00 0.000000000000000e+00 3.083333333334594e+00 4.266666666665859e+00 0.000000000000000e+00 3.083333333334594e+00 4.266666666665859e+00 0.000000000000000e+00 2.666666666668059e+00 4.533333333332442e+00 0.000000000000000e+00 2.666666666668059e+00 4.533333333332442e+00 0.000000000000000e+00 2.250000000000000e+00 4.800000000000000e+00 0.000000000000000e+00 3.500000000000000e+00 4.000000000000000e+00 0.000000000000000e+00 3.874999999992375e+00 3.750000000005084e+00 0.000000000000000e+00 3.874999999992375e+00 3.750000000005084e+00 0.000000000000000e+00 4.250000000000000e+00 3.500000000000000e+00 0.000000000000000e+00 1.000000000000000e+00 6.200000000000000e+00 0.000000000000000e+00 1.599999999997112e+00 6.100000000000482e+00 0.000000000000000e+00 1.599999999997112e+00 6.100000000000482e+00 0.000000000000000e+00 2.199999999995692e+00 6.000000000000719e+00 0.000000000000000e+00 2.199999999995692e+00 6.000000000000719e+00 0.000000000000000e+00 2.799999999997127e+00 5.900000000000479e+00 0.000000000000000e+00 2.799999999997127e+00 5.900000000000479e+00 0.000000000000000e+00 3.399999999998564e+00 5.800000000000240e+00 0.000000000000000e+00 3.399999999998564e+00 5.800000000000240e+00 0.000000000000000e+00 4.000000000000000e+00 5.700000000000000e+00 0.000000000000000e+00 4.750000000000000e+00 7.200000000000000e+00 0.000000000000000e+00 4.500000000000000e+00 6.699999999999999e+00 0.000000000000000e+00 4.500000000000000e+00 6.699999999999999e+00 0.000000000000000e+00 4.250000000000000e+00 6.200000000000001e+00 0.000000000000000e+00 4.250000000000000e+00 6.200000000000001e+00 0.000000000000000e+00 4.000000000000000e+00 5.700000000000000e+00 0.000000000000000e+00 2.750000000000000e+00 4.000000000000000e+00 0.000000000000000e+00 3.124999999988985e+00 4.000000000000000e+00 0.000000000000000e+00 3.124999999988985e+00 4.000000000000000e+00 0.000000000000000e+00 3.500000000000000e+00 4.000000000000000e+00 0.000000000000000e+00 5.000000000000000e+00 2.200000000000000e+00 0.000000000000000e+00 4.750000000000000e+00 2.800000000000000e+00 0.000000000000000e+00 5.000000000000000e+00 2.200000000000000e+00 0.000000000000000e+00 5.249999999999616e+00 2.499999999999539e+00 0.000000000000000e+00 5.249999999999616e+00 2.499999999999539e+00 0.000000000000000e+00 5.500000000000000e+00 2.800000000000000e+00 0.000000000000000e+00 5.500000000000000e+00 2.800000000000000e+00 0.000000000000000e+00 5.250000000000325e+00 3.199999999999480e+00 0.000000000000000e+00 5.250000000000325e+00 3.199999999999480e+00 0.000000000000000e+00 5.000000000000298e+00 3.599999999999522e+00 0.000000000000000e+00 5.000000000000298e+00 3.599999999999522e+00 0.000000000000000e+00 4.750000000000000e+00 4.000000000000000e+00 0.000000000000000e+00 5.500000000000000e+00 2.800000000000000e+00 0.000000000000000e+00 5.916666666666305e+00 3.199999999999653e+00 0.000000000000000e+00 5.916666666666305e+00 3.199999999999653e+00 0.000000000000000e+00 6.333333333333001e+00 3.599999999999680e+00 0.000000000000000e+00 6.333333333333001e+00 3.599999999999680e+00 0.000000000000000e+00 6.750000000000000e+00 4.000000000000000e+00 0.000000000000000e+00 5.500000000000000e+00 2.800000000000000e+00 0.000000000000000e+00 5.750000000000000e+00 2.500000000000000e+00 0.000000000000000e+00 5.750000000000000e+00 2.500000000000000e+00 0.000000000000000e+00 6.374999999999980e+00 2.350000000000005e+00 0.000000000000000e+00 6.374999999999980e+00 2.350000000000005e+00 0.000000000000000e+00 7.000000000000000e+00 2.200000000000000e+00 0.000000000000000e+00 7.000000000000000e+00 2.200000000000000e+00 0.000000000000000e+00 7.499999999999977e+00 2.349999999999993e+00 0.000000000000000e+00 7.499999999999977e+00 2.349999999999993e+00 0.000000000000000e+00 8.000000000000000e+00 2.500000000000000e+00 0.000000000000000e+00 7.500000000000000e+00 2.000000000000000e+00 0.000000000000000e+00 7.750000000000000e+00 2.250000000000000e+00 0.000000000000000e+00 7.750000000000000e+00 2.250000000000000e+00 0.000000000000000e+00 8.000000000000000e+00 2.500000000000000e+00 0.000000000000000e+00 8.000000000000000e+00 2.500000000000000e+00 0.000000000000000e+00 8.166666666666181e+00 1.900000000001745e+00 0.000000000000000e+00 8.166666666666181e+00 1.900000000001745e+00 0.000000000000000e+00 8.333333333332911e+00 1.300000000001518e+00 0.000000000000000e+00 8.333333333332911e+00 1.300000000001518e+00 0.000000000000000e+00 8.500000000000000e+00 7.000000000000000e-01 0.000000000000000e+00 8.000000000000000e+00 2.500000000000000e+00 0.000000000000000e+00 8.499999999999950e+00 2.599999999999990e+00 0.000000000000000e+00 8.499999999999950e+00 2.599999999999990e+00 0.000000000000000e+00 9.000000000000000e+00 2.700000000000000e+00 0.000000000000000e+00 9.000000000000000e+00 2.700000000000000e+00 0.000000000000000e+00 9.466666666664466e+00 2.566666666667295e+00 0.000000000000000e+00 9.466666666664466e+00 2.566666666667295e+00 0.000000000000000e+00 9.933333333329530e+00 2.433333333334420e+00 0.000000000000000e+00 9.933333333329530e+00 2.433333333334420e+00 0.000000000000000e+00 1.040000000000000e+01 2.300000000000000e+00 0.000000000000000e+00 1.040000000000000e+01 2.300000000000000e+00 0.000000000000000e+00 1.078333333333231e+01 1.900000000001070e+00 0.000000000000000e+00 1.078333333333231e+01 1.900000000001070e+00 0.000000000000000e+00 1.116666666666699e+01 1.499999999999660e+00 0.000000000000000e+00 1.116666666666699e+01 1.499999999999660e+00 0.000000000000000e+00 1.155000000000000e+01 1.100000000000000e+00 0.000000000000000e+00 8.000000000000000e+00 2.500000000000000e+00 0.000000000000000e+00 8.437500000000002e+00 2.875000000000001e+00 0.000000000000000e+00 8.437500000000002e+00 2.875000000000001e+00 0.000000000000000e+00 8.875000000000004e+00 3.250000000000002e+00 0.0000000000000
[...]
<PointData Scalars="A_conc," Vectors="" Tensors="">
<DataArray type="Float64" Name="A_conc" format="ascii">
5.209327465357236e-01 9.459893121618821e-01 8.768044615595483e-01 9.692409864750476e-01 9.536587946133130e-01 9.695833706165211e-01 9.676120983194930e-01 9.755450227423708e-01 7.968910827432358e-01 7.058884015267058e-01 6.719082626061921e-01 7.160581650273586e-01 7.198033019016934e-01 7.821049348095422e-01 9.773219834431875e-01 9.769057570077160e-01 9.769084790227868e-01 9.764750872549095e-01 9.764777834095728e-01 9.760280965978843e-01 9.760381460613112e-01 9.755228590533408e-01 9.755811322995147e-01 9.746844522627874e-01 9.747934285398265e-01 9.734689875040861e-01 9.736297536171863e-01 9.713481736817111e-01 9.716061757211677e-01 9.684894896479337e-01 9.803220851290627e-01 9.208429836557733e-01 9.759173284984747e-01 9.774094231849796e-01 9.774702078972374e-01 9.822424481621715e-01 9.820879000655659e-01 9.830567569078174e-01 9.840471378276124e-01 9.748335167729808e-01 9.927964961973545e-01 9.149217324517464e-01 9.627167008928504e-01 9.697100210067381e-01 9.706084395716337e-01 9.794065815144926e-01 9.987152549585875e-01 9.992711174433289e-01 9.991957338525058e-01 9.993323108246603e-01 9.989794929044792e-01 9.966774959743250e-01 9.971558378234269e-01 9.902016239103811e-01 9.706618836599463e-01 9.800433321278927e-01 9.781638473691731e-01 9.800195233355264e-01 9.658090642629492e-01 8.751470780663196e-01 9.484173722786616e-01 9.461013828658408e-01 9.456855092526131e-01 9.448255760840741e-01 9.452366800669344e-01 9.425907796692825e-01 9.654535230808511e-01 9.726530842425315e-01 9.756130915066519e-01 9.954952585213035e-01 9.683801586486439e-01 9.793116032606848e-01 9.772573260133520e-01 9.796419623917680e-01 9.794592309542910e-01 9.809650235715566e-01 9.808995595399072e-01 9.820747679019604e-01 9.820421898831518e-01 9.830480710872023e-01 4.710208786378250e-01 6.177355555462016e-01 5.476820192555611e-01 7.960588155306269e-01 8.128254275806863e-01 1.018753364451240e+00 8.475187922521198e-01 8.477743951502312e-01 8.476517660115400e-01 8.630733639679221e-01 1.003426819055190e+00 9.001890674290207e-01 9.949041725727610e-01 9.950698541380478e-01 9.950334432514304e-01 9.950758348250788e-01 9.953322389581885e-01 9.936364933990758e-01 9.949984895175304e-01 9.845524023721879e-01 9.876142118324520e-01 9.593612471535856e-01 9.690932049667489e-01 9.704381596631680e-01 9.704274583993640e-01 9.722768508820097e-01 9.739315896044094e-01 9.900714219247837e-01 9.981382416714946e-01 9.982469658475741e-01 9.982409295509436e-01 9.983047478406812e-01 9.983009373087964e-01 9.983525380264209e-01 9.983521624620548e-01 9.983923031513218e-01 9.983920280069620e-01 9.984304381173915e-01 9.859403455114024e-01 1.001958321640800e+00 9.976098632233139e-01 9.985470016549746e-01 8.857007394946600e-01 9.183133946014789e-01 9.322964898231355e-01 9.651997290162817e-01 9.650238439969107e-01 9.722820700477365e-01 9.997920156317764e-01 1.000020488126413e+00 9.999763957028398e-01 9.999897658462218e-01 9.999827751803508e-01 9.999873266634605e-01 9.999867533346763e-01 9.999881653171370e-01 9.999880676903964e-01 9.999892205268570e-01 9.999811824481817e-01 9.999854869969880e-01 9.999853748507540e-01 9.999883550346812e-01 9.999884655873987e-01 9.999886591310413e-01 9.997473972337385e-01 9.998932295511457e-01 9.998742511593895e-01 9.999547664981840e-01 9.999440584236987e-01 9.999856905280669e-01 9.999797102973818e-01 9.999950896706370e-01 9.999935802681585e-01 9.999855003407923e-01 9.999911989222291e-01 9.999619451136318e-01 1.000812093384649e+00 9.980722977796626e-01 9.770028817248690e-01 1.001078278085393e+00 9.948589141053091e-01 1.000078913435848e+00 9.993276190891934e-01 9.996478147631384e-01 9.995683734177369e-01 9.996191285393448e-01 9.996000058459847e-01 9.996136791286275e-01 9.968840481056499e-01 1.000174064015063e+00 9.993566010536311e-01 9.996521796699350e-01 9.968443864265814e-01 9.975825336595692e-01 9.975574894140959e-01 9.980542323170238e-01 9.980777321334995e-01 9.981249147110662e-01 1.007396122944245e+00 9.773812444445563e-01 1.035179119464265e+00 6.210115702656914e-01 9.968496450476940e-01 1.000196024381695e+00 9.993619325664174e-01 9.996524117339494e-01 9.999925472686534e-01 9.999914368199569e-01 9.999916417011785e-01 9.999902876070172e-01 9.999914004200595e-01 9.999858917739595e-01 9.999924921108331e-01 9.999932770791987e-01 9.999931675774993e-01 9.999934902405107e-01 9.999934872265794e-01 9.999937910001785e-01 9.999947890842580e-01 9.999881470036454e-01 1.000054090591366e+00 9.998305352697276e-01 1.000000000077126e+00 9.999999999778101e-01 1.000000000004430e+00 9.999999999981988e-01 9.999999999999812e-01 9.999999999999947e-01 9.999004900257289e-01 9.999272672290898e-01 9.999265327341049e-01 9.999385054370064e-01 9.999385351684020e-01 9.999442939868929e-01 9.999447067913505e-01 9.999449505379553e-01 9.999918398341947e-01 9.999922904432301e-01 9.999922815245373e-01 9.999927162072406e-01 9.999927079560312e-01 9.999931747715307e-01 9.999931664880255e-01 9.999937966186546e-01 9.999944935874155e-01 9.999944243554478e-01 9.999944020679437e-01 9.999923346694107e-01 9.931493191358445e-01 9.946591811509574e-01 9.944497199662813e-01 9.950996857373583e-01 9.950969506999586e-01 9.952606035712791e-01 9.989449852868926e-01 9.992306751116665e-01 9.991968331935051e-01 9.992870747379594e-01 9.992785541704409e-01 9.993287118209629e-01 9.409175680422842e-01 9.381489694739371e-01 8.107252861594710e-01 8.431152867338548e-01 8.626483713279698e-01 8.380641269729426e-01 9.794983618519206e-01 9.848611343422696e-01 9.846814585206956e-01 9.876885390759021e-01 9.874238172800445e-01 9.886694569391186e-01 9.885713583440124e-01 9.893591053889617e-01 9.986487362745091e-01 9.997248367426740e-01 9.991524221293990e-01 9.999935542497362e-01 9.998608295305076e-01 1.000037878626058e+00 9.999459308209839e-01 9.999386757589246e-01 9.945620777305336e-01 9.958393098918090e-01 9.939586087499157e-01 9.940011511043305e-01 9.547618836491126e-01 9.614424996006236e-01 9.615694107338009e-01 9.665304154857411e-01 9.668221588233977e-01 9.800141692794631e-01 9.793744420058274e-01 9.904964572804663e-01 9.401718566514473e-01 9.471079531624548e-01 9.779305191584483e-01 9.714119790753796e-01 9.815908605000636e-01 9.358846766265206e-01 9.651945052948252e-01 9.657285798658373e-01 9.657254478423400e-01 9.662498396711190e-01 9.662455343275492e-01 9.667066341099740e-01 9.667010557065056e-01 9.670980471270869e-01 5.589236514083213e-01 9.823349778527162e-01 5.662902351618412e-01 5.664708654844347e-01 9.819470660745265e-01 9.288496858886179e-01 9.712850221582136e-01 9.612552138106394e-01 9.683755816885077e-01 9.681655515489939e-01 9.561001464968701e-01 9.581899744431903e-01 9.664822850393010e-01 9.685921608376643e-01 9.562202411338597e-01 9.698093790317043e-01 9.662311535751209e-01 8.837293838790253e-01 9.065695824956740e-01 9.703708593329494e-01 8.833802198935989e-01 9.691881095710203e-01 9.615948473571664e-01 9.714689721226404e-01 9.737279076388216e-01 9.680837133953473e-01 9.713565309200746e-01 9.694606015826007e-01 9.576286615331721e-01 9.615244351343738e-01 9.694255516267024e-01 9.679404061228724e-01 9.582758589079332e-01 9.660797072971110e-01 9.649447690887081e-01 9.174329489958798e-01 9.546592461865766e-01 9.554685464827857e-01 9.682636198602838e-01 9.679818871304262e-01 9.661733563226678e-01 9.548284934571691e-01 9.719837706396244e-01 9.664747623078831e-01 9.689729532171165e-01 9.715181045968769e-01 9.734735270626319e-01 9.748380847267666e-01 9.689786963720080e-01 9.736112784218339e-01 9.719060835360155e-01 9.534271192949405e-01 9.669266430477990e-01 9.697250088432557e-01 9.532788143260731e-01 9.530978380741654e-01 9.671962837682274e-01 9.676156854277477e-01 9.730761213951665e-01 9.755946411630797e-01 9.676079793862342e-01 9.649597356459078e-01 9.731464718077322e-01 9.668622048198415e-01 9.724916251219863e-01 9.687466516885788e-01 9.648527231678892e-01 9.669051757890192e-01 9.732898570803087e-01 9.656758382711295e-01 9.563860536302843e-01 9.680781527499396e-01 9.687923484866722e-01 9.642478384293272e-01 9.668681725056800e-01 9.658546012473540e-01 9.545934787422558e-01 9.563159537538256e-01 9.566348006483445e-01 9.651072093543093e-01 9.652466741260418e-01 9.642145013168626e-01 9.688713698976826e-01 9.637706032178193e-01 6.250058712867528e-01 7.046867769758557e-01 8.013006724350383e-01 4.041436355895208e-02 -7.263467852455380e-03 3.569413516193683e-01 6.362549226230176e-01 1.004517653451545e+00 8.671460329361699e-01 9.705071996925033e-01 9.754118345292234e-01 9.778598287052569e-01 3.596734147271340e-01 5.415836495559802e-01 4.095151243103789e-02 5.431593365186689e-01 9.610891683339223e-02 3.966400056010250e-02 7.958199934162143e-01 5.592027713801497e-01 3.643841373091397e-01 4.183387615106369e-01 4.965148829994082e-01 4.894465221488850e-01 6.391699816373361e-01 4.899661623235249e-01 1.010084434964570e+00 9.582517607842347e-01 9.692940335781726e-01 9.745865697522056e-01 3.450769471653961e-01 6.392249972824181e-01 5.252601279060537e-01 9.586500554448496e-01 9.561872546712316e-01 9.578461554956142e-01 9.761255571529605e-01 9.644148988392158e-01 9.736454125176525e-01 9.475623967450756e-01 9.700057982971187e-01 9.582558864999161e-01 9.643480286167460e-01 9.593791894266211e-01 9.740235811554976e-01 9.495046505164421e-01 9.667527035453787e-01 9.748705641710653e-01 5.850262289820617e-01 1.071078092134706e+00 1.001859359480080e+00 6.039284957328306e-01 1.077702009686485e+00 5.812755506484064e-01 9.486821604109004e-01 9.546009050820601e-01 9.352539914635477e-01 9.590200605040244e-01 9.547790657139215e-01 9.470425703995102e-01 9.705045064810544e-01 9.657101009315997e-01 9.756487045776644e-01 1.000640788944560e+00 1.024903005161853e+00 8.384149085383760e-01 1.084103493291764e+00 5.989486156495000e-01 7.414294131098965e-01 9.756465482474922e-01 9.803138165394418e-01 9.387487048136905e-01 9.462295055415881e-01 9.766147149454595e-01 9.380926121719724e-01 9.467960759502758e-01 9.582899006059636e-01 9.708069840658371e-01 1.002404148250480e+00 1.023436577820944e+00 7.862205185545389e-01 2.761434893951020e-01 6.438214861201320e-01 3.421448592780075e-01 8.367386890448431e-01 9.606496810983961e-01 1.002246413028570e+00 4.908250900111838e-01 4.946286233456421e-01 5.268642698580964e-01 6.294848063555304e-01 5.163317445204836e-01 5.189826357003323e-01 7.949038834388629e-01 6.034569646417339e-01 1.029980000771453e+00 5.219088995560677e-01 6.455894041244494e-01 2.732553920125128e-01 6.013003737762584e-01 7.658390537853345e-01 1.032616160127775e+00 7.780888997068357e-01 6.402323322202357e-01 1.021952778965303e+00 2.053455144230555e-01 5.245014055162838e-01 2.709922727104730e-01 1.670247944507343e-01 7.510976755135078e-01 5.513421214881125e-01 9.145368345667875e-01 9.339222961734772e-01 8.411780321664659e-01 9.262524895827405e-01 5.667516413922259e-01 7.867137881969301e-01 6.379785531674402e-01 9.202685009516473e-01 1.024479082445729e+00 6.153810049442435e-01 9.746942446791196e-02 5.434476555857572e-01 6.367530571112578e-01 5.675655805642144e-01 9.244481221962331e-01 6.123021356939928e-01 7.531013492862332e-01 1.638585783871283e-01 9.868951324431594e-02 6.149623144344543e-01 1.612772817861597e-01 9.600186344001393e-01 9.280109536614233e-01 9.321697023902223e-01 9.287923604897175e-01 9.585656457965124e-01 9.475987290064061e-01 9.336363702355587e-01 9.299557473924814e-01 9.504846271014569e-01 9.531994601451477e-01 9.372060668000397e-01 9.178193700008795e-01 9.278369444571199e-01 8.844870492944401e-01 9.338180083329590e-01 9.351169692238958e-01 8.925315863391150e-01 9.205533485576026e-01 5.178810118249603e-01 6.869784569390989e-01 6.302264485731496e-01 6.664284151639750e-01 5.309179895745779e-01 7.210675985113959e-01 9.641937032808253e-01 9.587307343210547e-01 9.996217991001244e-01 9.714819888081688e-01 8.603216489137857e-01 9.671463520501399e-01 1.714059018108300e-01 5.256804982857603e-02 4.013265850965569e-01 6.200212225780318e-01 1.009312362938515e+00 6.332643698652890e-01 1.016499775137054e+00 9.726021353587828e-01 6.438378055253796e-01 8.273911843860021e-01 9.840158387945633e-01 9.736448633017162e-01 8.012067497721476e-01 8.170719762183932e-01 9.974815168135437e-01 8.052323058444533e-01 5.943917324920182e-01 8.235699764567582e-01 6.031046237251491e-01 6.279627185616252e-01 2.020091264168574e-01 4.300985403575612e-01 7.073626539631704e-01 1.738223453859745e-01 3.867827844039163e-01 5.899360523434282e-01 8.103842271003424e-01 9.952002922261329e-01 9.983472973563795e-01 9.981511479839036e-01 9.979800295214293e-01 9.981282083892100e-01 9.995974043227812e-01 9.994055733012250e-01 9.982066673424689e-01 9.993685997996032e-01 9.999911346464611e-01 9.999893546290627e-01 9.999943535284910e-01 9.999936920096283e-01 9.999787665183478e-01 9.999944218393065e-01 9.999787768583533e-01 9.999746638013066e-01 9.999924347603436e-01 9.999921746391749e-01 9.999796943733911e-01 9.999899648995728e-01 9.998604479890483e-01 1.000050583005269e+00 9.998939220033474e-01 9.999945521486103e-01 9.999776476752604e-01 9.999946164499001e-01 9.999822242098403e-01 9.999766474505959e-01 9.999974548397237e-01 9.999893747967237e-01 9.999281826798263e-01 9.999821911153279e-01 9.999906816578527e-01 9.999262735066965e-01 9.999223785967327e-01 9.999810531565280e-01 9.999838838393862e-01 9.999309611216377e-01 9.999463266654049e-01 9.997536299898502e-01 9.999423322667554e-01 9.997764741520146e-01 9.997102886478023e-01 9.999957449249710e-01 9.999238218313632e-01 9.999975149394384e-01 9.999501832726957e-01 9.999698272826648e-01 9.998002732590549e-01 9.999361612687160e-01 9.998363875092913e-01 9.992428737068344e-01 9.997513442217660e-01 9.992809242804499e-01 9.998972058624798e-01 9.993258290947667e-01 9.999419943109460e-01 9.997996879947114e-01 9.997484977912418e-01 9.997895541571697e-01 9.998371679553846e-01 9.993616041455555e-01 1.000041261276016e+00 1.000009846473269e+00 9.998814908173860e-01 9.999121592711727e-01 1.000030943753179e+00 1.000018940469910e+00 9.999794904569107e-01 1.000006288976180e+00 9.999515593851077e-01 9.972168915328998e-01 7.552378956383872e-01 8.773380583168742e-01 9.731817336546956e-01 9.949830919791698e-01 9.739750106600549e-01 8.671686991180272e-01 9.998039537243634e-01 1.020960284205174e+00 7.627904942382314e-01 9.900951882171468e-01 8.811567595448373e-01 9.182548936331636e-01 9.819640522465205e-01 9.039528663334959e-01 9.820347006261524e-01 9.733284762280512e-01 9.215605343870227e-01 9.857030636732818e-01 9.280390285920110e-01 9.684467655290091e-01 9.233530076589899e-01 9.071916216091306e-01 8.112393039520808e-01 8.987549471579319e-01 9.308885791696626e-01 8.065678293505002e-01 9.275354429158786e-01 9.634693555481685e-01 9.689137548631787e-01 9.697840296869453e-01 9.263005408202374e-01 8.937252859467963e-01 9.664968068197798e-01 9.034629747670153e-01 9.603935185131727e-01 9.048486565528727e-01 8.045662417267296e-01 7.564494510368841e-01 8.760728832637374e-01 1.015546717447287e+00 9.802632092501630e-01 7.622814247548475e-01 7.733540970213194e-01 9.047874315220645e-01 8.997286704043538e-01 9.058159230974884e-01 7.654741336420818e-01 8.853275165469037e-01 9.658985283632626e-01 9.012795650627017e-01 9.648187129668572e-01 9.431688646395002e-01 9.668370983257452e-01 9.777123271736804e-01 9.309052533152844e-01 9.758909379613222e-01 9.727160840057016e-01 9.791092463217062e-01 9.783266725366957e-01 9.791643127826649e-01 9.801997111576708e-01 9.832279023835475e-01 9.776085064970070e-01 9.802846346161457e-01 9.811514651041899e-01 9.164704694283976e-01 9.092600734999188e-01 9.994820222535585e-01 9.840179119924489e-01 9.806810422784313e-01 9.736373528077129e-01 9.925936072696356e-01 9.310042582025042e-01 9.847965668518763e-01 9.901770125056861e-01 9.925261056885825e-01 9.371981258594642e-01 9.829145958494617e-01 8.755545263590565e-01 1.001788095746401e+00 9.877302341255078e-01 9.138988866495961e-01 8.715977622138373e-01 1.000556573726961e+00 9.980547736339785e-01 1.000593532154547e+00 1.004595344524737e+00 9.193186646832445e-01 9.802926638656551e-01 9.569274399490876e-01 9.770849188309065e-01 9.583881449344869e-01 9.760719292551353e-01 9.592556359226074e-01 9.717099708777773e-01 9.758296696762311e-01 9.772390359898138e-01 9.797373922478864e-01 9.342882210588171e-01 9.548474940835910e-01 9.477854020477354e-01 9.512513450550210e-01 9.358163974031736e-01 9.310592105949393e-01 9.652259975774539e-01 9.457517644639414e-01 9.384804936800222e-01 9.726692302501621e-01 9.696551261348884e-01 9.794452160964422e-01 9.704664717623216e-01 9.809339272102934e-01 9.805544127846408e-01 9.638916192701054e-01 9.647055783894816e-01 9.388878676339459e-01 9.387901549253531e-01 9.629343880850980e-01 9.405743995219111e-01 9.783410795375893e-01 9.545980836995176e-01 9.919782125411432e-01 9.657217982387520e-01 9.661536404280848e-01 9.450683622427468e-01 9.666489750472067e-01 9.437584623292460e-01 9.448301821988494e-01 9.692309571224760e-01 9.671634603904649e-01 9.737337446731252e-01 9.543571033838264e-01 9.710391504234477e-01 9.710113733899109e-01 9.812707936782653e-01 9.701430005133292e-01 9.753871134050720e-01 9.706194406353648e-01 9.554714089736684e-01 9.764191667707928e-01 9.767948009557003e-01 9.553035440719799e-01 9.553847818794036e-01 9.778212923246499e-01 9.703358484548620e-01 9.785569069663068e-01 9.779427710737749e-01 9.713597018648986e-01 9.702615051440794e-01 9.775395899842108e-01 9.585989285667338e-01 9.765806419605626e-01 8.526439976435185e-01 1.006363914727951e+00 1.018758102536804e+00 5.887317466822607e-01 8.404717962421185e-01 7.418761445797937e-01 5.674945087080213e-01 4.806373410957935e-01 6.097956937556859e-01 9.925568230689364e-01 1.003191719476760e+00 1.001010881386522e+00 9.912897762190405e-01 9.879865278956531e-01 9.627590852351805e-01 9.944405780504257e-01 9.907695553379262e-01 1.004069307218102e+00 9.922873460822382e-01 9.972237952220037e-01 9.716865927394831e-01 9.382121273599234e-01 9.904329560908507e-01 9.929341088144673e-01 9.758357819056609e-01 9.798088700985285e-01 9.837070084257784e-01 5.478578883729326e-01 4.518460876632289e-01 4.600843632238490e-01 9.724858375076957e-01 9.362918201403377e-01 9.946176906625981e-01 9.260656027922308e-01 9.361204325099445e-01 9.953189390264225e-01 4.694495502978941e-01 3.564857829156012e-01 4.195802704082713e-01 9.995575358091441e-01 9.849437052508315e-01 9.895641136687685e-01 1.002154914450025e+00 1.000194069217876e+00 9.898091439934047e-01 1.067148174517515e+00 1.052350280166583e+00 6.225784184861696e-01 5.923988558280997e-01 1.071018090672405e+00 3.929493465517170e-01 9.776771053451245e-01 1.004575966112888e+00 9.950327452636771e-01 1.002100073527350e+00 9.780741300325678e-01 9.997776300873464e-01 1.000053354754427e+00 1.003133073240607e+00 9.918637420512935e-01 7.968946548709902e-01 8.484326105465149e-01 1.030954231925877e+00 8.613098297263999e-01 1.876387869492188e-01 2.356580292305471e-01 2.067507686387665e-01 8.901604125942045e-01 1.078730981197238e+00 9.881660906078157e-01 8.635587797788277e-01 1.017099723460800e+00 1.074688430484635e+00 6.065977217863199e-01 8.109589959191644e-01 6.758969204141431e-01 5.483618152544320e-01 7.979276022078365e-01 5.130439893098931e-01 5.813151871862773e-01 4.968994576572678e-01 5.823719340689236e-01 4.805317502196464e-01 4.955429831607566e-01 1.000469494468313e+00 1.000006291161746e+00 9.992243228435306e-01 9.970228414963045e-01 1.002178371904763e+00 9.987863496605560e-01 4.317765337590637e-01 4.667423194585432e-01 4.214814372006149e-01 7.444815622342354e-01 1.001436128624923e+00 1.040461139444680e+00 3.872255768924911e-01 1.078278291910597e+00 5.914349647902416e-01 5.497080292253465e-01 5.059466330081192e-01 4.493639823633179e-01 5.043352807493698e-01 5.523129264416924e-01 6.620142895138988e-01 5.880090532889131e-01 7.429893865280495e-01 4.632133279953901e-01 9.695888810762895e-01 9.796007805884163e-01 9.778324640870313e-01 7.527686001382655e-01 8.650260843461303e-01 8.761832997621753e-01 8.616161271104797e-01 1.001357535442688e+00 8.770726661100736e-01 8.686741470255375e-01 9.9