<?xml version="1.0"?>
<VTKFile type="UnstructuredGrid" version="0.1" byte_order="LittleEndian">
<UnstructuredGrid>
<Piece NumberOfPoints="2028" NumberOfCells="724">
<Points>
<DataArray type="Float64" NumberOfComponents="3" format="ascii">
6.000000000000000e-01 7.000000000000000e-01 0.000000000000000e+00 9.499999999992372e-01 1.274999999998747e+00 0.000000000000000e+00 9.499999999992372e-01 1.274999999998747e+00 0.000000000000000e+00 1.299999999998378e+00 1.849999999997335e+00 0.000000000000000e+00 1.299999999998378e+00 1.849999999997335e+00 0.000000000000000e+00 1.649999999999066e+00 2.424999999998465e+00 0.000000000000000e+00 1.649999999999066e+00 2.424999999998465e+00 0.000000000000000e+00 2.000000000000000e+00 3.000000000000000e+00 0.000000000000000e+00 5.750000000000000e+00 7.000000000000000e-01 0.000000000000000e+00 5.500000000000827e+00 1.199999999998346e+00 0.000000000000000e+00 5.500000000000827e+00 1.199999999998346e+00 0.000000000000000e+00 5.250000000000705e+00 1.699999999998589e+00 0.000000000000000e+00 5.250000000000705e+00 1.699999999998589e+00 0.000000000000000e+00 5.000000000000000e+00 2.200000000000000e+00 0.000000000000000e+00 5.000000000000000e+00 2.200000000000000e+00 0.000000000000000e+00 4.400000000000134e+00 2.359999999999964e+00 0.000000000000000e+00 4.400000000000134e+00 2.359999999999964e+00 0.000000000000000e+00 3.800000000000203e+00 2.519999999999946e+00 0.000000000000000e+00 3.800000000000203e+00 2.519999999999946e+00 0.000000000000000e+00 3.200000000000143e+00 2.679999999999962e+00 0.000000000000000e+00 3.200000000000143e+00 2.679999999999962e+00 0.000000000000000e+00 2.600000000000082e+00 2.839999999999978e+00 0.000000000000000e+00 2.600000000000082e+00 2.839999999999978e+00 0.000000000000000e+00 2.000000000000000e+00 3.000000000000000e+00 0.000000000000000e+00 2.000000000000000e+00 3.000000000000000e+00 0.000000000000000e+00 2.083333333332920e+00 3.599999999997022e+00 0.000000000000000e+00 2.083333333332920e+00 3.599999999997022e+00 0.000000000000000e+00 2.166666666666273e+00 4.199999999997162e+00 0.000000000000000e+00 2.166666666666273e+00 4.199999999997162e+00 0.000000000000000e+00 2.250000000000000e+00 4.800000000000000e+00 0.000000000000000e+00 2.250000000000000e+00 4.800000000000000e+00 0.000000000000000e+00 1.750000000000000e+00 5.000000000000000e+00 0.000000000000000e+00 2.250000000000000e+00 4.800000000000000e+00 0.000000000000000e+00 2.833333333333118e+00 5.099999999999890e+00 0.000000000000000e+00 2.833333333333118e+00 5.099999999999890e+00 0.000000000000000e+00 3.416666666667265e+00 5.400000000000308e+00 0.000000000000000e+00 3.416666666667265e+00 5.400000000000308e+00 0.000000000000000e+00 4.000000000000000e+00 5.700000000000000e+00 0.000000000000000e+00 4.000000000000000e+00 5.700000000000000e+00 0.000000000000000e+00 3.625000000007225e+00 5.999999999994220e+00 0.000000000000000e+00 3.625000000007225e+00 5.999999999994220e+00 0.000000000000000e+00 3.250000000000000e+00 6.300000000000000e+00 0.000000000000000e+00 4.000000000000000e+00 5.700000000000000e+00 0.000000000000000e+00 4.499999999999542e+00 5.999999999999726e+00 0.000000000000000e+00 4.499999999999542e+00 5.999999999999726e+00 0.000000000000000e+00 5.000000000000000e+00 6.300000000000000e+00 0.000000000000000e+00 6.000000000000000e+00 3.800000000000000e+00 0.000000000000000e+00 6.374999999999935e+00 3.899999999999983e+00 0.000000000000000e+00 6.374999999999935e+00 3.899999999999983e+00 0.000000000000000e+00 6.750000000000000e+00 4.000000000000000e+00 0.000000000000000e+00 6.000000000000000e+00 3.800000000000000e+00 0.000000000000000e+00 5.625000000000065e+00 3.899999999999983e+00 0.000000000000000e+00 5.625000000000065e+00 3.899999999999983e+00 0.000000000000000e+00 5.250000000000000e+00 4.000000000000000e+00 0.000000000000000e+00 4.250000000000000e+00 4.800000000000000e+00 0.000000000000000e+00 4.750000000000338e+00 4.399999999999729e+00 0.000000000000000e+00 4.750000000000338e+00 4.399999999999729e+00 0.000000000000000e+00 5.250000000000000e+00 4.000000000000000e+00 0.000000000000000e+00 4.750000000000000e+00 4.000000000000000e+00 0.000000000000000e+00 5.250000000000000e+00 4.000000000000000e+00 0.000000000000000e+00 3.500000000000000e+00 4.000000000000000e+00 0.000000000000000e+00 3.083333333334594e+00 4.266666666665859e+00 0.000000000000000e+00 3.083333333334594e+00 4.266666666665859e+00 0.000000000000000e+00 2.666666666668059e+00 4.533333333332442e+00 0.000000000000000e+00 2.666666666668059e+00 4.533333333332442e+00 0.000000000000000e+00 2.250000000000000e+00 4.800000000000000e+00 0.000000000000000e+00 3.500000000000000e+00 4.000000000000000e+00 0.000000000000000e+00 3.874999999992375e+00 3.750000000005084e+00 0.000000000000000e+00 3.874999999992375e+00 3.750000000005084e+00 0.000000000000000e+00 4.250000000000000e+00 3.500000000000000e+00 0.000000000000000e+00 1.000000000000000e+00 6.200000000000000e+00 0.000000000000000e+00 1.599999999997112e+00 6.100000000000482e+00 0.000000000000000e+00 1.599999999997112e+00 6.100000000000482e+00 0.000000000000000e+00 2.199999999995692e+00 6.000000000000719e+00 0.000000000000000e+00 2.199999999995692e+00 6.000000000000719e+00 0.000000000000000e+00 2.799999999997127e+00 5.900000000000479e+00 0.000000000000000e+00 2.799999999997127e+00 5.900000000000479e+00 0.000000000000000e+00 3.399999999998564e+00 5.800000000000240e+00 0.000000000000000e+00 3.399999999998564e+00 5.800000000000240e+00 0.000000000000000e+00 4.000000000000000e+00 5.700000000000000e+00 0.000000000000000e+00 4.750000000000000e+00 7.200000000000000e+00 0.000000000000000e+00 4.500000000000000e+00 6.699999999999999e+00 0.000000000000000e+00 4.500000000000000e+00 6.699999999999999e+00 0.000000000000000e+00 4.250000000000000e+00 6.200000000000001e+00 0.000000000000000e+00 4.250000000000000e+00 6.200000000000001e+00 0.000000000000000e+00 4.000000000000000e+00 5.700000000000000e+00 0.000000000000000e+00 2.750000000000000e+00 4.000000000000000e+00 0.000000000000000e+00 3.124999999988985e+00 4.000000000000000e+00 0.000000000000000e+00 3.124999999988985e+00 4.000000000000000e+00 0.000000000000000e+00 3.500000000000000e+00 4.000000000000000e+00 0.000000000000000e+00 5.000000000000000e+00 2.200000000000000e+00 0.000000000000000e+00 4.750000000000000e+00 2.800000000000000e+00 0.000000000000000e+00 5.000000000000000e+00 2.200000000000000e+00 0.000000000000000e+00 5.249999999999616e+00 2.499999999999539e+00 0.000000000000000e+00 5.249999999999616e+00 2.499999999999539e+00 0.000000000000000e+00 5.500000000000000e+00 2.800000000000000e+00 0.000000000000000e+00 5.500000000000000e+00 2.800000000000000e+00 0.000000000000000e+00 5.250000000000325e+00 3.199999999999480e+00 0.000000000000000e+00 5.250000000000325e+00 3.199999999999480e+00 0.000000000000000e+00 5.000000000000298e+00 3.599999999999522e+00 0.000000000000000e+00 5.000000000000298e+00 3.599999999999522e+00 0.000000000000000e+00 4.750000000000000e+00 4.000000000000000e+00 0.000000000000000e+00 5.500000000000000e+00 2.800000000000000e+00 0.000000000000000e+00 5.916666666666305e+00 3.199999999999653e+00 0.000000000000000e+00 5.916666666666305e+00 3.199999999999653e+00 0.000000000000000e+00 6.333333333333001e+00 3.599999999999680e+00 0.000000000000000e+00 6.333333333333001e+00 3.599999999999680e+00 0.000000000000000e+00 6.750000000000000e+00 4.000000000000000e+00 0.000000000000000e+00 5.500000000000000e+00 2.800000000000000e+00 0.000000000000000e+00 5.750000000000000e+00 2.500000000000000e+00 0.000000000000000e+00 5.750000000000000e+00 2.500000000000000e+00 0.000000000000000e+00 6.374999999999980e+00 2.350000000000005e+00 0.000000000000000e+00 6.374999999999980e+00 2.350000000000005e+00 0.000000000000000e+00 7.000000000000000e+00 2.200000000000000e+00 0.000000000000000e+00 7.000000000000000e+00 2.200000000000000e+00 0.000000000000000e+00 7.499999999999977e+00 2.349999999999993e+00 0.000000000000000e+00 7.499999999999977e+00 2.349999999999993e+00 0.000000000000000e+00 8.000000000000000e+00 2.500000000000000e+00 0.000000000000000e+00 7.500000000000000e+00 2.000000000000000e+00 0.000000000000000e+00 7.750000000000000e+00 2.250000000000000e+00 0.000000000000000e+00 7.750000000000000e+00 2.250000000000000e+00 0.000000000000000e+00 8.000000000000000e+00 2.500000000000000e+00 0.000000000000000e+00 8.000000000000000e+00 2.500000000000000e+00 0.000000000000000e+00 8.166666666666181e+00 1.900000000001745e+00 0.000000000000000e+00 8.166666666666181e+00 1.900000000001745e+00 0.000000000000000e+00 8.333333333332911e+00 1.300000000001518e+00 0.000000000000000e+00 8.333333333332911e+00 1.300000000001518e+00 0.000000000000000e+00 8.500000000000000e+00 7.000000000000000e-01 0.000000000000000e+00 8.000000000000000e+00 2.500000000000000e+00 0.000000000000000e+00 8.499999999999950e+00 2.599999999999990e+00 0.000000000000000e+00 8.499999999999950e+00 2.599999999999990e+00 0.000000000000000e+00 9.000000000000000e+00 2.700000000000000e+00 0.000000000000000e+00 9.000000000000000e+00 2.700000000000000e+00 0.000000000000000e+00 9.466666666664466e+00 2.566666666667295e+00 0.000000000000000e+00 9.466666666664466e+00 2.566666666667295e+00 0.000000000000000e+00 9.933333333329530e+00 2.433333333334420e+00 0.000000000000000e+00 9.933333333329530e+00 2.433333333334420e+00 0.000000000000000e+00 1.040000000000000e+01 2.300000000000000e+00 0.000000000000000e+00 1.040000000000000e+01 2.300000000000000e+00 0.000000000000000e+00 1.078333333333231e+01 1.900000000001070e+00 0.000000000000000e+00 1.078333333333231e+01 1.900000000001070e+00 0.000000000000000e+00 1.116666666666699e+01 1.499999999999660e+00 0.000000000000000e+00 1.116666666666699e+01 1.499999999999660e+00 0.000000000000000e+00 1.155000000000000e+01 1.100000000000000e+00 0.000000000000000e+00 8.000000000000000e+00 2.500000000000000e+00 0.000000000000000e+00 8.437500000000002e+00 2.875000000000001e+00 0.000000000000000e+00 8.437500000000002e+00 2.875000000000001e+00 0.000000000000000e+00 8.875000000000004e+00 3.250000000000002e+00 0.0000000000000
[...]
<PointData Scalars="A_conc," Vectors="" Tensors="">
<DataArray type="Float64" Name="A_conc" format="ascii">
2.114538388952042e-01 5.412681904903980e-01 5.007747598739497e-01 6.409201254549562e-01 6.321793495580452e-01 7.242318834787942e-01 7.198025416366447e-01 7.801420681251223e-01 9.352655234317410e-02 4.187085019783532e-02 1.751265332028725e-02 1.152523932596644e-01 1.114497849356493e-01 2.199791333471896e-01 8.065573134495260e-01 8.018823611924895e-01 8.019236157571816e-01 7.969926098244323e-01 7.970340104973185e-01 7.918536366359269e-01 7.919673335598989e-01 7.859311826931477e-01 7.863058450716036e-01 7.766438898075805e-01 7.776579113159480e-01 7.618294643911721e-01 7.629090969970282e-01 7.395494818339421e-01 7.406104669188850e-01 7.137370410365401e-01 7.175803795877763e-01 3.882498583995392e-01 7.014658993380540e-01 7.144196026828856e-01 7.143821799019028e-01 7.317726351795852e-01 7.317247018519208e-01 7.391511747030289e-01 7.470932252517047e-01 6.496250445440528e-01 7.110696829170372e-01 3.329247657316656e-01 5.149880527521294e-01 5.446866424920898e-01 5.478379584884487e-01 5.825545507991708e-01 9.020250121059724e-01 9.146900768694087e-01 9.142089555093647e-01 9.231598971646922e-01 9.024769118041873e-01 8.848865697360718e-01 8.853750578581208e-01 8.603790709221547e-01 6.594362042822305e-01 8.194678412556460e-01 7.897654130370231e-01 8.251072642192164e-01 7.246893643235316e-01 4.367778952084597e-01 5.596807978104086e-01 5.473033388359803e-01 5.467404948186899e-01 5.258053880473580e-01 5.266640786086237e-01 4.999268638645739e-01 6.142453838738270e-01 6.534101109647851e-01 6.661524756103668e-01 7.532746283847129e-01 5.909845978024162e-01 6.917390375984882e-01 6.741998667197705e-01 6.996648436614641e-01 6.978891546858877e-01 7.147116082582917e-01 7.140683614293060e-01 7.276337552671748e-01 7.273199210196344e-01 7.392636351188436e-01 1.583556778802132e-02 7.176010271604491e-02 4.555927473561994e-02 1.126080063773028e-01 1.434814404560306e-01 7.148051253879536e-01 2.522678025329790e-01 2.499148637897581e-01 2.437029005566712e-01 2.758696991028974e-01 9.124642884306986e-01 3.237153873298083e-01 8.593488979816883e-01 8.660226901659065e-01 8.653925887090542e-01 8.689523253500693e-01 8.703262419348111e-01 8.431739535621788e-01 8.466191650319324e-01 7.961883894438615e-01 8.074065364598657e-01 7.011253265622537e-01 4.512808660266583e-01 4.696630408729846e-01 4.720956236511600e-01 4.933853295797429e-01 5.038656929818450e-01 6.984798627220941e-01 9.180280243210838e-01 9.241726431525461e-01 9.239364765446699e-01 9.286517066132467e-01 9.284646436414752e-01 9.318426098319937e-01 9.318101143504832e-01 9.344020528538279e-01 9.343790510153318e-01 9.368284619780348e-01 5.616334979954546e-01 9.563314437359250e-01 8.808018123176631e-01 9.451558243697669e-01 1.947990843526970e-01 1.820093688587779e-01 2.427941446122633e-01 3.554901076550353e-01 3.666931790133430e-01 4.222313305299501e-01 9.496640054085803e-01 9.631496676694054e-01 9.625149155387265e-01 9.682780886227678e-01 9.678717798538565e-01 9.716696179459885e-01 9.715513038262609e-01 9.741938146183390e-01 9.741272493165367e-01 9.763988053470419e-01 9.509555211125758e-01 9.653608868114720e-01 9.650026189548130e-01 9.755770645866971e-01 9.759049239377099e-01 9.809149619352274e-01 9.378989593857923e-01 9.548091886879100e-01 9.541730837835924e-01 9.713984868884776e-01 9.705946067640817e-01 9.858900683529062e-01 9.849363443463021e-01 9.947308439471382e-01 9.946912757525269e-01 9.877919857373736e-01 9.924979522403564e-01 9.663977788743014e-01 1.029609889863368e+00 7.449416279342612e-01 5.204907009694862e-01 9.349594077664916e-01 8.571332644355173e-01 9.525003675833678e-01 9.229391634317680e-01 9.407430245827175e-01 9.398230911702506e-01 9.502818589336480e-01 9.488598663745939e-01 9.540148052702980e-01 8.009457347256658e-01 9.725385352595967e-01 9.347339250320746e-01 9.562835956226983e-01 6.942110129679676e-01 7.271094940044662e-01 7.278857452947541e-01 7.548352894851742e-01 7.558820783796351e-01 7.629460698045368e-01 1.035408036009261e+00 5.763334982355615e-01 4.292120478380978e-01 8.354460408004054e-02 7.999192963158011e-01 9.734235526169862e-01 9.351222711299705e-01 9.563043659110229e-01 9.937266611264858e-01 9.928900737937001e-01 9.930218307904808e-01 9.915880733314428e-01 9.919466022241245e-01 9.883911317465292e-01 9.936589747877506e-01 9.943253821522491e-01 9.942422858866636e-01 9.945039190317659e-01 9.945017745622663e-01 9.947500275210744e-01 9.956518380455076e-01 9.900776288058631e-01 1.013927881320465e+00 9.200963614785536e-01 9.999087477173617e-01 1.000019847238274e+00 9.999940913518163e-01 1.000002527886196e+00 9.999999214147840e-01 1.000000075858587e+00 9.368344948882952e-01 9.514776343421921e-01 9.517057567367003e-01 9.608461367811223e-01 9.610158767665925e-01 9.668828278993286e-01 9.667113374391616e-01 9.670616695501179e-01 9.847487170989946e-01 9.884038141951085e-01 9.882795012335679e-01 9.912086056544802e-01 9.910056562207532e-01 9.931851975649486e-01 9.931134061042652e-01 9.946639615176197e-01 9.874238963509966e-01 9.847004614642766e-01 9.851785217540616e-01 9.760221401208611e-01 8.445564399701819e-01 8.555154373095042e-01 8.549412960945386e-01 8.611885605530839e-01 8.611492907676480e-01 8.643143494762605e-01 9.031253093232846e-01 9.149459312973561e-01 9.143829520244151e-01 9.198892253248978e-01 9.195662581494021e-01 9.230052474893523e-01 4.040461300491408e-01 4.869145376265426e-01 2.507646305695424e-01 2.885806376987791e-01 3.140328322195908e-01 2.613402169661883e-01 5.831031680345684e-01 6.098531314893902e-01 6.099701362521598e-01 6.337564696001441e-01 6.335589522352100e-01 6.569137598195212e-01 6.566892999397392e-01 6.773272130801423e-01 7.080459207829483e-01 7.650471636397245e-01 7.649840310308490e-01 8.522917782439570e-01 8.497134981539702e-01 9.006692160498895e-01 8.900747023790534e-01 9.064511685540143e-01 7.317071804745719e-01 7.454907331236068e-01 7.358770842120392e-01 7.262422797655406e-01 4.086688808402120e-01 4.223365347221705e-01 4.203151977989265e-01 4.146693649266680e-01 4.106819656273836e-01 4.861505151589129e-01 4.974204624964023e-01 6.735425627896141e-01 3.602351073548049e-01 4.832279724836307e-01 8.146594048198624e-01 7.362280169255304e-01 8.006571480042742e-01 4.313387669809395e-01 6.448046025976287e-01 6.495620358279872e-01 6.495305965827378e-01 6.541847647921765e-01 6.541423671502661e-01 6.583161183429317e-01 6.582656333795054e-01 6.620018636920110e-01 2.251282340305050e-01 5.566889466670260e-01 2.425966694741117e-01 2.415509125254816e-01 5.587623529270972e-01 5.311034517929301e-01 7.428287691828324e-01 6.213362326172307e-01 7.074650060350628e-01 6.920448472633708e-01 5.764060985122144e-01 5.991214881237429e-01 6.635257162602364e-01 6.999434123608204e-01 6.202824954178972e-01 6.326096947033514e-01 6.392509640960869e-01 5.060314358245602e-01 5.120122204027517e-01 6.319329956642969e-01 5.069171920559407e-01 7.132118793987057e-01 6.299904097194360e-01 7.426076734005184e-01 7.638422945421054e-01 6.995420818577738e-01 7.398843811157871e-01 7.137288500967570e-01 5.912951515741592e-01 6.301098120074438e-01 7.125607899414514e-01 6.916856361866820e-01 5.991476354104806e-01 6.253959328560282e-01 6.306666412130300e-01 5.197406211628035e-01 6.280197684367610e-01 6.153485500633559e-01 6.966007972146881e-01 6.967001267712026e-01 6.971436974522747e-01 6.275439565265694e-01 7.432505787298505e-01 6.785567802088212e-01 7.088390498077968e-01 7.384424183923723e-01 7.619763105859592e-01 7.783068062675924e-01 7.088219441255919e-01 7.632990926858365e-01 7.425761805044887e-01 6.322536720450348e-01 6.997370443700514e-01 7.243936954009668e-01 6.326177619704467e-01 6.205963828409249e-01 6.996699459491712e-01 7.205652919354388e-01 7.504052358292117e-01 7.805038165608196e-01 7.209098751907942e-01 6.934972095297793e-01 7.502563196829516e-01 6.817630480754923e-01 7.463731123483019e-01 7.053701412700890e-01 6.937135738551822e-01 6.922837661553127e-01 7.506553656952485e-01 6.616747654853194e-01 5.798709216295392e-01 6.906888488772298e-01 7.057558788012606e-01 6.510686734879017e-01 6.817765509142648e-01 6.618126791759653e-01 5.601879856990322e-01 5.798881026737656e-01 5.759025664582410e-01 6.565625175969774e-01 6.578503977188087e-01 6.508082647375839e-01 7.063084647565432e-01 6.465224687233023e-01 3.654365294945792e-02 4.377061584467295e-02 8.693439671191017e-02 -2.385689962279508e-02 -1.997140311686160e-02 3.052808010984096e-02 -6.216688648974664e-02 8.105595804406652e-01 4.732043383469230e-01 7.251890696751678e-01 7.844189890895906e-01 8.141414230885072e-01 3.495510962675554e-02 7.347385244612144e-02 -2.624666736790265e-02 7.814038923240701e-02 -3.322708791664291e-02 -3.178152340085108e-02 1.244906905749791e-01 8.215088091157269e-02 2.755197772501303e-02 -3.633617381570747e-04 3.926313170216839e-02 4.480961478328048e-03 -3.104512886160604e-02 -1.403070206535107e-01 7.296383243230876e-01 5.819078976340395e-01 7.068159795924390e-01 7.700134207187239e-01 -4.765053532725706e-02 1.633115987191918e-01 5.767333918869657e-02 5.233827514942807e-01 3.949531413698478e-01 6.247514868841956e-01 7.927993714397829e-01 6.507424841615586e-01 7.620863777783156e-01 4.788318360002172e-01 7.081651791365108e-01 5.816287820166034e-01 6.496796249662063e-01 5.928281034690788e-01 7.652818453542259e-01 5.269006299757061e-01 6.232028757641265e-01 7.115218267313526e-01 5.859511678052368e-02 7.266716206911096e-01 7.552699286927220e-01 9.647972667613518e-02 7.153779296781607e-01 6.497559051069877e-02 5.070919692123984e-01 3.978626124908624e-01 3.138687053710843e-01 6.229733095541460e-01 3.975054145334565e-01 5.104026948839383e-01 7.249091757163540e-01 6.661192636823859e-01 7.873660758818282e-01 5.086097012893072e-01 5.990724691166993e-01 3.674530728709691e-01 7.041351261714316e-01 1.053079453401264e-01 2.560821312508079e-01 7.262360716535028e-01 7.876344474773644e-01 4.592301140726461e-01 5.041894812949498e-01 7.258886688852576e-01 4.596783720761342e-01 4.776086169938864e-01 5.844307196212214e-01 7.095603341546787e-01 3.364039231321657e-01 4.299600591993821e-01 2.449519020845772e-01 -4.634823619102617e-02 1.548065572368139e-01 -4.357910360750158e-02 3.711500141860507e-01 3.972442775091644e-01 5.053302658664445e-01 3.839453057561832e-03 4.106673061826700e-02 2.786267041826754e-02 2.891104725848673e-02 1.555732836076284e-02 2.286782087292416e-02 3.232227573811927e-01 1.383707471220758e-01 4.473269226582129e-01 9.248256555181592e-02 1.504991294597667e-01 -4.056844970446033e-02 1.432221992743888e-01 2.284418133830378e-01 4.413047827358595e-01 2.342274341390770e-01 1.293051731200137e-01 3.401080246530529e-01 -3.669645567654284e-02 8.627291872014360e-02 -3.753318712475716e-02 -5.938982076136072e-02 2.048292332568301e-01 1.051397675653089e-01 2.357301195005315e-01 2.154183624884952e-01 1.246230106561100e-01 2.156272678843158e-01 8.633340373343049e-02 1.306292781787559e-01 1.362097043892130e-01 2.276129688545745e-01 3.335504940864860e-01 1.148838725802097e-01 -3.713374610559891e-02 8.593199946914228e-02 1.364347742880284e-01 8.120772930260134e-02 2.215223578426904e-01 1.300410793000618e-01 1.987895369178405e-01 -5.094179134170695e-02 -4.539146675608852e-02 1.201250122215931e-01 -4.604029534521722e-02 5.740584917361996e-01 3.521208741807930e-01 3.939079346515438e-01 3.511000248389592e-01 5.763449985168329e-01 4.803689861206077e-01 3.170248112771376e-01 3.713445295537720e-01 5.033411279185827e-01 3.193720624487859e-01 2.149409790102315e-01 3.605527753164581e-01 3.496774021736796e-01 2.096330414704302e-01 3.788103319248163e-01 2.178992980763079e-01 2.419387575419313e-01 3.558646248696279e-01 2.278936392880474e-02 3.343926044041527e-02 2.996265197614842e-02 2.344275905735371e-02 4.018219702102586e-02 1.057709310578163e-01 4.148961193073093e-01 5.329689167324904e-01 7.298436766112891e-01 4.024633503300504e-01 2.077192085166780e-01 5.260331327659565e-01 -6.634342338567202e-03 -1.645175031269472e-03 1.247546103392633e-02 5.270112220486762e-03 2.813265664879493e-01 5.418829438379922e-02 3.809948111134118e-01 3.464142329206560e-01 -3.491786273655668e-02 1.118232492198407e-01 4.395433329596768e-01 4.083897160087878e-01 1.154232532696423e-01 1.276808175760919e-01 3.707006197987667e-01 1.084046838125376e-01 2.190496674543127e-02 1.166387360359766e-01 4.823874752155054e-03 3.910916920112019e-02 -6.019662482190253e-03 1.825321859560359e-02 4.018844441200440e-02 -1.051751248103436e-02 1.016224278326914e-03 2.603266050588767e-02 8.874819489334319e-02 5.370532864073104e-01 6.545622038954569e-01 6.474334381326706e-01 6.475829980054253e-01 6.549175611846080e-01 7.584695809207541e-01 7.577405067423387e-01 6.553611273018078e-01 7.581316034402826e-01 9.912347585567672e-01 9.913179726769108e-01 9.953009550344784e-01 9.893580314209932e-01 9.711227771378723e-01 9.934837473600144e-01 9.790522284080192e-01 9.778694895111716e-01 9.947208424224844e-01 9.921364343759631e-01 9.801400707907942e-01 9.922322589730798e-01 8.823987207435001e-01 9.567940143275818e-01 8.704675675065502e-01 9.921717731997215e-01 9.771905385584804e-01 9.948954325887015e-01 9.747414434944893e-01 9.769688304551792e-01 9.951015619537751e-01 9.776605703970496e-01 9.312359130849256e-01 9.804384358381031e-01 9.866652875646422e-01 9.335207773872038e-01 9.346527316293970e-01 9.824330547482413e-01 9.817504309985488e-01 9.356808928943245e-01 9.365506941849913e-01 8.528447313129182e-01 9.378465507043661e-01 8.535865894525103e-01 8.405918627644242e-01 9.390280152512177e-01 9.301972536016567e-01 9.801892765746655e-01 9.342353453341652e-01 9.372356292078219e-01 8.588623127562416e-01 9.324245112833380e-01 8.556310366550253e-01 7.459438117390658e-01 8.416679223234583e-01 7.577708536197496e-01 8.569871075240224e-01 7.570245543438368e-01 9.098500402417417e-01 8.406584672657876e-01 8.530064063760348e-01 8.544278131202407e-01 8.418173564824962e-01 7.541341575647451e-01 9.956396325312413e-01 9.508362645363180e-01 8.851055984859694e-01 8.945421122697251e-01 1.004345603463068e+00 9.890319571151738e-01 9.713668596549871e-01 9.973476982430872e-01 9.371360597475915e-01 6.306996348534865e-01 -5.148320231417593e-02 3.308940622725504e-01 4.348194169094765e-01 6.666215207918091e-01 4.571144864560588e-01 6.212490165729018e-02 8.062950425114320e-01 9.422588767154987e-01 -6.088255585239772e-02 6.388972918325800e-01 1.152256226183490e-01 2.063608486024200e-01 4.023396851179029e-01 1.989721574594456e-01 4.390301517190964e-01 4.176328323229451e-01 2.000839516323912e-01 4.749232522051573e-01 2.264165586645307e-01 4.077510011015555e-01 1.993886612359889e-01 1.941388703114881e-01 8.686499501328987e-02 1.974074643877119e-01 2.158497562468875e-01 7.802348479061853e-02 2.316878713007210e-01 4.193509434089374e-01 4.094204834230595e-01 4.078896230045309e-01 2.348308882765159e-01 2.001384467279273e-01 4.137854093601429e-01 2.137355380152013e-01 4.105906405232189e-01 1.886854659801687e-01 8.126391642851050e-02 6.767507689171932e-02 6.049489720340381e-02 9.406122283940143e-01 5.980046075598608e-01 7.226313355519166e-02 9.294457905816417e-02 1.976539639753087e-01 2.049929735742482e-01 1.999414949074997e-01 6.765036325361860e-02 2.034180945579927e-01 4.010262757444581e-01 2.176774132091633e-01 6.307821853027801e-01 4.900317613461498e-01 6.494894567414919e-01 7.089275626497445e-01 4.375649009400153e-01 6.973403963831936e-01 6.400982039389603e-01 6.887796153931481e-01 6.866531734972003e-01 6.972157380731997e-01 7.054450590727027e-01 7.402236367615066e-01 6.792920155903258e-01 7.066069290639100e-01 7.163441376250272e-01 2.067796490239539e-01 2.616779869298118e-01 4.384492203200953e-01 7.456941198263082e-01 7.098984178354655e-01 6.369518947651674e-01 7.448596073890341e-01 3.925475521089676e-01 6.780852601239554e-01 7.402239433202523e-01 7.599121877037275e-01 4.157083702973326e-01 4.660810450074143e-01 1.530938812112119e-01 5.068773962302494e-01 4.577582642533349e-01 2.609686317314600e-01 1.598451679023067e-01 8.972000841670928e-01 6.055609677047150e-01 9.175944985691566e-01 4.452124086620842e-01 1.236056208775742e-01 3.153931454478154e-01 5.118298821449863e-01 6.505358905071859e-01 5.269562319791291e-01 6.436837607573496e-01 5.274075687282093e-01 6.079851763950639e-01 6.592398639956849e-01 6.741117065189189e-01 7.001477957400001e-01 4.395686626381181e-01 4.898673300769544e-01 4.764083895150911e-01 4.703128032270035e-01 4.484969077096080e-01 4.336432223655220e-01 6.490056741629512e-01 5.015452466367806e-01 4.328468827541138e-01 6.401043593670795e-01 6.028759457621999e-01 6.898093559375089e-01 6.065297744607605e-01 7.111919890957384e-01 7.059648152336132e-01 6.432413903363861e-01 6.486246115971358e-01 4.331644991289032e-01 4.678019007635465e-01 6.397169195153501e-01 4.381976017761986e-01 5.099889786926932e-01 1.787589124996462e-01 5.595992884971570e-01 6.505034568241566e-01 6.487968010240729e-01 4.995860417293724e-01 6.491046226064656e-01 4.936248584699733e-01 4.994572164549960e-01 6.301891058619993e-01 5.736479677982138e-01 6.536396215270912e-01 5.532346881955384e-01 5.870284497367778e-01 6.427624897415629e-01 7.124837933515487e-01 6.054618455328703e-01 6.531721852397575e-01 5.965268257228710e-01 5.288168764626979e-01 6.398305712306387e-01 6.400710852966152e-01 5.287603289499850e-01 5.177652656091932e-01 6.771926055415145e-01 6.088383669951729e-01 6.850757886763972e-01 6.775551799211691e-01 6.172422196615418e-01 6.086392400241694e-01 6.573848914038728e-01 5.271539757961197e-01 6.500288017911585e-01 2.314211799431346e-01 7.284474741761287e-01 7.677140760696511e-01 2.045494809022454e-02 6.737652545882743e-02 4.347672346001547e-02 2.946795747282485e-02 4.754486442850243e-02 1.965782579978499e-02 4.399059684466217e-01 8.532898098260346e-01 7.638206355201237e-01 3.887303640597997e-01 5.479014299989344e-01 2.127411113583962e-01 5.034121818297037e-01 4.474389085461526e-01 7.586176624008657e-01 4.431567998919239e-01 4.972058645319808e-01 2.905898371498260e-01 4.231563377179365e-01 7.436818804007225e-01 7.631411731786999e-01 6.735804916188833e-01 6.556727413026323e-01 7.170465056169529e-01 1.462979027593476e-02 1.283754550378340e-02 8.859769298200598e-03 6.115576538587943e-01 4.226158982889485e-01 7.643873738743969e-01 3.646906813873106e-01 4.147913973748550e-01 7.613867511248527e-01 3.588601424427248e-02 -6.259355662625901e-03 -3.940288206133501e-03 6.919036875660339e-01 5.608919430968889e-01 3.893496377766139e-01 7.626428445249968e-01 7.056261718785324e-01 4.213707569432431e-01 5.908957223801884e-01 4.990808417366975e-01 1.134452934159326e-01 9.486435779719664e-02 4.848551703466358e-01 -4.792616843618967e-02 3.193776080247722e-01 6.200685391768385e-01 4.647866744708336e-01 6.104636664011274e-01 3.018850117143901e-01 5.939206448972003e-01 6.484670519722692e-01 8.540559500225710e-01 4.378201764810381e-01 1.282892511425751e-01 2.337386668546894e-01 7.594015344364399e-01 2.516206965677023e-01 -7.599192120928291e-02 -7.322579717821250e-02 -1.226913690018791e-01 3.154942918216833e-01 5.038008097391355e-01 5.637974079823540e-01 3.259782792708725e-01 7.369641260814470e-01 6.145806582008191e-01 7.062486862047344e-02 2.758636580171334e-01 4.959190249981825e-02 5.109390496257712e-02 1.049545569546310e-01 4.848034785646481e-02 4.597100572886321e-02 1.855788917863473e-02 4.385949822373470e-02 2.243145872638959e-02 1.996662743678788e-02 9.088995667573642e-01 8.533777187034854e-01 6.540693115843558e-01 6.018707568645024e-01 9.032243014256895e-01 6.175730084966986e-01 -1.872983076930708e-03 3.788683052392415e-02 -4.809949246261547e-03 1.473253979143720e-01 4.414895502286454e-01 6.168062796445879e-01 -3.608774672999840e-02 4.695146686757375e-01 1.053435755517086e-01 1.492518389548002e-02 2.088141311089370e-02 1.295255749787466e-02 2.136332194928623e-02 1.476637444905937e-02 3.264375402924186e-02 2.094657798750967e-02 4.035595636358744e-02 7.790762557021614e-03 6.113150235732625e-01 6.715729993891514e-01 6.840172624762147e-01 4.752807083489290e-02 1.348661537211101e-01 1.891511771453500e-01 1.401581884190281e-01 4.892908082561768e-01 1.9788384280