<?xml version="1.0"?>
<VTKFile type="UnstructuredGrid" version="0.1" byte_order="LittleEndian">
<UnstructuredGrid>
<Piece NumberOfPoints="2148" NumberOfCells="716">
<Points>
<DataArray type="Float64" NumberOfComponents="3" format="ascii">
0 0.102040816326531 0 0 0 0 0.0736345888316307 0.0637333048655595 0 0.0736345888316307 0.0637333048655595 0 0 0 0 0.105263157894484 0 0 0.105263157894484 0 0 0.157062047935717 0.0657304144218603 0 0.0736345888316307 0.0637333048655595 0 0.0736345888316307 0.0637333048655595 0 0.157062047935717 0.0657304144218603 0 0.105847738327952 0.150895293579407 0 0.105847738327952 0.150895293579407 0 0 0.204081632653061 0 0 0.102040816326531 0 0.105847738327952 0.150895293579407 0 0 0.102040816326531 0 0.0736345888316307 0.0637333048655595 0 0.0963260944161509 0.273811510294367 0 0 0.204081632653061 0 0.105847738327952 0.150895293579407 0 0 0.306122448979592 0 0 0.204081632653061 0 0.0963260944161509 0.273811510294367 0 0.0963260944161509 0.273811510294367 0 0.19912213507756 0.241701131057856 0 0.170994783200652 0.334188745583958 0 0.0963260944161509 0.273811510294367 0 0.105847738327952 0.150895293579407 0 0.19912213507756 0.241701131057856 0 0.105847738327952 0.150895293579407 0 0.222741758606036 0.141984576675053 0 0.19912213507756 0.241701131057856 0 0.19912213507756 0.241701131057856 0 0.28395937666824 0.336326657262323 0 0.170994783200652 0.334188745583958 0 0.28395937666824 0.336326657262323 0 0.19912213507756 0.241701131057856 0 0.306529038486018 0.218453285118224 0 0.222741758606036 0.141984576675053 0 0.322030541746038 0.113556493866926 0 0.306529038486018 0.218453285118224 0 0.306529038486018 0.218453285118224 0 0.19912213507756 0.241701131057856 0 0.222741758606036 0.141984576675053 0 0.245859050062934 0.0615708420060463 0 0.322030541746038 0.113556493866926 0 0.222741758606036 0.141984576675053 0 0.222741758606036 0.141984576675053 0 0.157062047935717 0.0657304144218603 0 0.245859050062934 0.0615708420060463 0 0.222741758606036 0.141984576675053 0 0.105847738327952 0.150895293579407 0 0.157062047935717 0.0657304144218603 0 0.157062047935717 0.0657304144218603 0 0.210526315788968 0 0 0.245859050062934 0.0615708420060463 0 0.105263157894484 0 0 0.210526315788968 0 0 0.157062047935717 0.0657304144218603 0 0.245859050062934 0.0615708420060463 0 0.210526315788968 0 0 0.315789473683452 0 0 0.315789473683452 0 0 0.322030541746038 0.113556493866926 0 0.245859050062934 0.0615708420060463 0 0.322030541746038 0.113556493866926 0 0.315789473683452 0 0 0.420915352533358 0.074985042685528 0 0.420915352533358 0.074985042685528 0 0.315789473683452 0 0 0.421052631577937 0 0 0.412014556344116 0.189798498882905 0 0.322030541746038 0.113556493866926 0 0.420915352533358 0.074985042685528 0 0.420915352533358 0.074985042685528 0 0.513101370826361 0.134129492815744 0 0.412014556344116 0.189798498882905 0 0.526315789472444 0 0 0.420915352533358 0.074985042685528 0 0.421052631577937 0 0 0.513101370826361 0.134129492815744 0 0.420915352533358 0.074985042685528 0 0.526315789472444 0 0 0.526315789472444 0 0 0.594439451232812 0.0887178408363477 0 0.513101370826361 0.134129492815744 0 0.526315789472444 0 0 0.631578947367022 0 0 0.594439451232812 0.0887178408363477 0 0.594439451232812 0.0887178408363477 0 0.611102057161856 0.196335598991703 0 0.513101370826361 0.134129492815744 0 0.513101370826361 0.134129492815744 0 0.500986724861322 0.250629842679194 0 0.412014556344116 0.189798498882905 0 0.611102057161856 0.196335598991703 0 0.500986724861322 0.250629842679194 0 0.513101370826361 0.134129492815744 0 0.581885168833657 0.302392759021642 0 0.500986724861322 0.250629842679194 0 0.611102057161856 0.196335598991703 0 0.581885168833657 0.302392759021642 0 0.611102057161856 0.196335598991703 0 0.672697639570897 0.28766618318192 0 0.412014556344116 0.189798498882905 0 0.500986724861322 0.250629842679194 0 0.399803174487431 0.298440986856889 0 0.412014556344116 0.189798498882905 0 0.306529038486018 0.218453285118224 0 0.322030541746038 0.113556493866926 0 0.306529038486018 0.218453285118224 0 0.399803174487431 0.298440986856889 0 0.28395937666824 0.336326657262323 0 0.412014556344116 0.189798498882905 0 0.399803174487431 0.298440986856889 0 0.306529038486018 0.218453285118224 0 0.28395937666824 0.336326657262323 0 0.399803174487431 0.298440986856889 0 0.377510554953585 0.391263936876735 0 0.406811536593169 0.484911194529197 0 0.298455345785692 0.447563908098048 0 0.377510554953585 0.391263936876735 0 0.28395937666824 0.336326657262323 0 0.377510554953585 0.391263936876735 0 0.298455345785692 0.447563908098048 0 0.377510554953585 0.391263936876735 0 0.498523341233396 0.389076937637219 0 0.406811536593169 0.484911194529197 0 0.399803174487431 0.298440986856889 0 0.498523341233396 0.389076937637219 0 0.377510554953585 0.391263936876735 0 0.399803174487431 0.298440986856889 0 0.500986724861322 0.250629842679194 0 0.498523341233396 0.389076937637219 0 0.500986724861322 0.250629842679194 0 0.581885168833657 0.302392759021642 0 0.498523341233396 0.389076937637219 0 0.581885168833657 0.302392759021642 0 0.614047778589085 0.387795898525738 0 0.498523341233396 0.389076937637219 0 0.581885168833657 0.302392759021642 0 0.672697639570897 0.28766618318192 0 0.614047778589085 0.387795898525738 0 0.614047778589085 0.387795898525738 0 0.587686537066514 0.464126045476426 0 0.498523341233396 0.389076937637219 0 0.406811536593169 0.484911194529197 0 0.498523341233396 0.389076937637219 0 0.509931573480221 0.522280814579519 0 0.509931573480221 0.522280814579519 0 0.498523341233396 0.389076937637219 0 0.587686537066514 0.464126045476426 0 0.587686537066514 0.464126045476426 0 0.613945404707068 0.570990073651732 0 0.509931573480221 0.522280814579519 0 0.517751522887305 0.649204659932698 0 0.509931573480221 0.522280814579519 0 0.613945404707068 0.570990073651732 0 0.517751522887305 0.649204659932698 0 0.420597075781915 0.595854369448944 0 0.509931573480221 0.522280814579519 0 0.509931573480221 0.522280814579519 0 0.420597075781915 0.595854369448944 0 0.406811536593169 0.484911194529197 0 0.298455345785692 0.447563908098048 0 0.406811536593169 0.484911194529197 0 0.314543409362701 0.549165380872091 0 0.420597075781915 0.595854369448944 0 0.314543409362701 0.549165380872091 0 0.406811536593169 0.484911194529197 0 0.420597075781915 0.595854369448944 0 0.335916026949355 0.661311993908121 0 0.314543409362701 0.549165380872091 0 0.235802928303382 0.611564357809131 0 0.222058877190937 0.510857644422808 0 0.314543409362701 0.549165380872091 0 0.335916026949355 0.661311993908121 0 0.235802928303382 0.611564357809131 0 0.314543409362701 0.549165380872091 0 0.124792039049303 0.598138423871711 0 0.222058877190937 0.510857644422808 0 0.235802928303382 0.611564357809131 0 0.19230207234368 0.422678825965969 0 0.222058877190937 0.510857644422808 0 0.099581482345634 0.49355644173514 0 0.298455345785692 0.447563908098048 0 0.314543409362701 0.549165380872091 0 0.222058877190937 0.510857644422808 0 0.19230207234368 0.422678825965969 0 0.298455345785692 0.447563908098048 0 0.222058877190937 0.510857644422808 0 0.19230207234368 0.422678825965969 0 0.28395937666824 0.336326657262323 0 0.298455345785692 0.447563908098048 0 0.19230207234368 0.422678825965969 0 0.170994783200652 0.334188745583958 0 0.28395937666824 0.336326657262323 0 0.0798863474723025 0.392675045642543 0 0.19230207234368 0.422678825965969 0 0.099581482345634 0.49355644173514 0 0.0798863474723025 0.392675045642543 0 0.0963260944161509 0.273811510294367 0 0.170994783200652 0.334188745583958 0 0.0798863474723025 0.392675045642543 0 0.170994783200652 0.334188745583958 0 0.19230207234368 0.422678825965969 0 0.0963260944161509 0.273811510294367 0 0.0798863474723025 0.392675045642543 0 0 0.306122448979592 0 0 0.306122448979592 0 0.0798863474723025 0.392675045642543 0 0 0.408163265306122 0 0.0798863474723025 0.392675045642543 0 0.099581482345634 0.49355644173514 0 0 0.408163265306122 0 0.099581482345634 0.49355644173514 0 0 0.510204081632653 0 0 0.408163265306122 0 0.0636610927580281 0.559357934802157 0 0 0.510204081632653 0 0.099581482345634 0.49355644173514 0 0.099581482345634 0.49355644173514 0 0.222058877190937 0.510857644422808 0 0.124792039049303 0.598138423871711 0 0.0636610927580281 0.559357934802157 0 0.099581482345634 0.49355644173514 0 0.124792039049303 0.598138423871711 0 0.124792039049303 0.598138423871711 0 0.0788823051552232 0.670851705018505 0 0.0636610927580281 0.559357934802157 0 0.0788823051552232 0.670851705018505 0 0 0.612244897959184 0 0.0636610927580281 0.559357934802157 0 0 0.612244897959184 0 0 0.510204081632653 0 0.0636610927580281 0.559357934802157 0 0 0.612244897959184 0 0.0788823051552232 0.670851705018505 0 0 0.714285714285714 0 0.0788823051552232 0.670851705018505 0 0.110872549238551 0.753262340488874 0 0 0.714285714285714 0 0 0.816326530612245 0 0 0.714285714285714 0 0.110872549238551 0.753262340488874 0 0.158746937488262 0.676327148487044 0 0.110872549238551 0.753262340488874 0 0.0788823051552232 0.670851705018505 0 0.158746937488262 0.676327148487044 0 0.0788823051552232 0.670851705018505 0 0.124792039049303 0.598138423871711 0 0.235802928303382 0.611564357809131 0 0.236384173514931 0.729687493468818 0 0.158746937488262 0.676327148487044 0 0.124792039049303 0.598138423871711 0 0.235802928303382 0.611564357809131 0 0.158746937488262 0.676327148487044 0 0.235802928303382 0.611564357809131 0 0.335916026949355 0.661311993908121 0 0.236384173514931 0.729687493468818 0 0.283519584889572 0.824186168388132 0 0.236384173514931 0.729687493468818 0 0.365259589174468 0.75455484928981 0 0.110872549238551 0.753262340488874 0 0.236384173514931 0.729687493468818 0 0.193654919780874 0.809084389625954 0 0.158746937488262 0.676327148487044 0 0.236384173514931 0.729687493468818 0 0.110872549238551 0.753262340488874 0 0.283519584889572 0.824186168388132 0 0.223539675574619 0.901416903867864 0 0.193654919780874 0.809084389625954 0 0.193654919780874 0.809084389625954 0 0.236384173514931 0
[...]
<PointData Scalars="conc_conc," Vectors="" Tensors="">
<DataArray type="Float64" Name="conc_conc" format="ascii">
0.00387000634878156 0.00379025010660248 0.00393621631659203 0.00393631513252393 0.00377966189909493 0.0039699784836743 0.00397967168473767 0.00423706814527764 0.00393682605083783 0.00393604423742354 0.00423957372230435 0.00411740906171419 0.00409356994829311 0.003936378280093 0.00386375740712646 0.00410238712267899 0.00385943095635992 0.00394904666169065 0.00418721498062236 0.003923430419521 0.00411358232125416 0.00401433416894266 0.00394355503818155 0.00417137060704775 0.00419299971843414 0.00467194795139733 0.00462981577700139 0.00420032656311992 0.00411996674664735 0.00466046530782761 0.00411246732962813 0.00466498153768918 0.00467022350472442 0.00467712352927479 0.00529923379069533 0.00463506800628492 0.00530104585012698 0.00468812886593107 0.00520785137529384 0.00467981098355244 0.00507164315701025 0.0052000181033863 0.00520578098605097 0.00468767158704954 0.00466468710197453 0.00465770268745574 0.00507080436616564 0.00467878368189909 0.00466858550977923 0.00424950573803399 0.00466072928016494 0.00466222427983418 0.00411666333960871 0.0042513942372604 0.00424758830567586 0.00441992278292574 0.00465696152845841 0.00397508584356191 0.00441892121353614 0.00423859715195729 0.00465249328662307 0.00443029368706423 0.00486518481491447 0.00485059144797299 0.00506104769316855 0.00466471188876951 0.00507109133080709 0.00485536981334472 0.00515588216014391 0.00513481110446641 0.00487737892021641 0.00502117093978402 0.00537948863990257 0.00508405554908914 0.00514547002876929 0.0051361591035028 0.00504116899040266 0.00538561263919432 0.00473743337301081 0.00513635920547639 0.00502087237780148 0.00501751722401031 0.00515914362743341 0.00471302696546745 0.00470370745386342 0.0044258856163438 0.00500746688136227 0.00473054582611693 0.00402311599016997 0.00440789428796929 0.00441584182657957 0.00448403948382886 0.00502021768122042 0.00502392256932598 0.00530913025649316 0.00539969582892072 0.0044962515649242 0.00531040338074353 0.0050119908760682 0.00488037089736527 0.00532553193583073 0.00447397322983449 0.00487624543634276 0.00445836963561983 0.00402452644452254 0.00537198090358019 0.00532640199947338 0.00560650725961817 0.00539474933279823 0.00521462330438922 0.00506095051663383 0.00519243782459852 0.00562155971480744 0.00533003002066501 0.00538724243472858 0.00560260544665279 0.00522181052634306 0.00533886703241432 0.00561323596056747 0.00576356892356029 0.00600896733016065 0.00559472658507637 0.00575501222261884 0.00531228350693445 0.00577041786483364 0.00557888754052277 0.00578769131150286 0.00563805865655959 0.00600864803075986 0.00559031872365605 0.00564333835887177 0.00577886557313202 0.00562020765469328 0.00530976289475227 0.00561669590957234 0.00530857656245891 0.00489005787879385 0.00560425404586193 0.00486827342725955 0.00475196631281597 0.00562314052083342 0.00488201034149827 0.0040182189857311 0.0047378352016341 0.00475299102122764 0.00511654254638685 0.00562731046854066 0.00602994132127618 0.00559302747143826 0.00582232479530911 0.00580669345406712 0.00560580998301022 0.00512659595167203 0.00509988395157527 0.00504890744398249 0.00582372423759851 0.0060249871520652 0.00581809987828758 0.00506051543780151 0.00603960613298198 0.00627186483563397 0.005804318712483 0.00584152007661175 0.00624831237828075 0.00601190225530896 0.00558654189885842 0.00601898566273898 0.00585979281601694 0.00624818481500378 0.00588159886703347 0.00598975524849548 0.0062644218039087 0.00617938344403157 0.00585964871680811 0.00543679903800374 0.00518962595342225 0.00584641671610734 0.00616407769854333 0.0054469045078243 0.00583827363073679 0.00460712379161461 0.00518956719246426 0.00542096406501849 0.00487321217141539 0.00517374274532246 0.00437249321196891 0.00557111785441288 0.00584075400687495 0.00519928386793036 0.00487238558526871 0.00557623875497194 0.00518891801184273 0.00488163859563626 0.0053030486039001 0.00556955673408219 0.00487404032885327 0.00463198340083572 0.00530412592278811 0.00421410547687239 0.00485231232241542 0.00437866242421131 0.00422823629334014 0.0042002143220629 0.00462364728257776 0.00421378166727933 0.00463745966554263 0.00485625589572922 0.00418822546229404 0.00423055534650128 0.00400249271867328 0.00402063472770659 0.00421999375437783 0.00408805848979257 0.00423207551810444 0.00436198091064463 0.00407741638963027 0.00434682110982237 0.00414506422035519 0.00408761225379079 0.00429441267889894 0.00413472784189795 0.00436396809238255 0.00437057251526788 0.00517293123621543 0.00461499520944714 0.00429251100320432 0.00438343767774802 0.00460881530645325 0.00460198648568144 0.00441547492513144 0.00429538113739269 0.00440924921881587 0.00419273963945757 0.00430037884273594 0.00420699738823732 0.0041532125904035 0.00428595872468854 0.00420291803507496 0.00439937516334114 0.00423565166014762 0.0044231930795721 0.00459097887991739 0.00421608197727399 0.00424578611155322 0.00422224023824044 0.00457925500287565 0.00489611686243408 0.00461395900783684 0.00440220187526731 0.00489724649078115 0.00440445355716781 0.00461518622772455 0.00543261938435543 0.00560063218049974 0.00491617065704507 0.00460041872248845 0.00542402543577191 0.00491313110451451 0.00543348555382088 0.00617335404252446 0.00563284477682516 0.00615407138506062 0.00563634158805239 0.00651099820266045 0.00460728670257487 0.00560057084174376 0.00532504710604613 0.00491331523795633 0.00559596505100671 0.0046118079306242 0.00614540693001872 0.00571920404125032 0.00533188440839908 0.00533492310436171 0.00560665354072753 0.00614107436094438 0.0061395963692847 0.00654280770927408 0.00573267552039754 0.00569967820506117 0.0051535936182293 0.00466534903466427 0.00570002741939609 0.00466933019280909 0.0053348080566366 0.00468234559448642 0.00461865799312416 0.00531611074426515 0.00422397466753746 0.00461251092892023 0.0046524709526304 0.00451889081660732 0.00425767222074839 0.0046562406919013 0.00462679101618734 0.00427622896974577 0.00425492483054189 0.00431047949064702 0.00429350681028102 0.00450276464982228 0.00468847526843171 0.00513364695445004 0.00451534173419133 0.00513475665249324 0.00465502857859964 0.0045091882517278 0.00464556157295921 0.005161404768684 0.00568319866099016 0.00461144173669013 0.00429953185187796 0.00430585768470693 0.00463271679448671 0.00428898775089802 0.00452562794125805 0.00427798066025766 0.00464469277113286 0.00456206987741959 0.00453521688600287 0.00432447865543044 0.0043145137332722 0.00527053456154329 0.005590119210951 0.00453942894707838 0.00456577999329828 0.00466324410516014 0.00524699117408523 0.00525936426502811 0.00463982141990733 0.00568662187064889 0.0052628907764001 0.00570654311303644 0.00629705555391382 0.00525748377736524 0.00630087617405941 0.0056201705776493 0.00699688009389581 0.00633868367032989 0.00727714337816338 0.00698121133037846 0.00563083668403425 0.0063068739769539 0.00633530016583929 0.00655585017936068 0.00727770834280456 0.00656942121375162 0.00631058350355702 0.00571359373542322 0.00617158927964381 0.00656411876378837 0.0057196916967789 0.00697818394292714 0.00656722764181648 0.00618178037578271 0.00515083621686061 0.00617168172692407 0.00570623706967194 0.00515820222335677 0.00571738076943805 0.00616646135526643 0.00572417272473178 0.00654896442416286 0.00617805730274801 0.00696617546125948 0.00619339821338367 0.0065344685878777 0.00710443806145329 0.00696970639435902 0.00656629673294244 0.00705927764853156 0.00730032235184832 0.00699548254218975 0.00685873814610828 0.00729989507551612 0.0070859371531475 0.00727447831322897 0.00697491727891112 0.00731883017590133 0.00725999457259368 0.00657555355363608 0.00696447275644898 0.00722621621212857 0.00780104067689811 0.00704311119138703 0.00711793271526143 0.00780743090247939 0.00745504569527004 0.00777413716136715 0.0072898410298215 0.00750829001129211 0.00727796988458593 0.0074910879260734 0.00730863962283962 0.0074792503870377 0.00692161017603092 0.00709464729232585 0.00695978307339607 0.00746557158235873 0.00731011621398985 0.00578334593341405 0.00713305150210066 0.00560771001800868 0.00710052245743563 0.00694112743637062 0.00565800923380965 0.00564667824320003 0.00694459028743068 0.0060456481911125 0.006924215933544 0.00683359593568548 0.00607682817347307 0.00681038683754934 0.00694210083941828 0.00733123211389921 0.00667250486261711 0.00570515011528198 0.00683365961369263 0.00684025042665526 0.00710978520521602 0.00665883017158927 0.00606509297879058 0.00685355270868978 0.00567030995972186 0.00579882518619771 0.00569208759137444 0.00668271892287359 0.005807839680806 0.00592506921224978 0.0047315003963133 0.00590222167409249 0.00581970137571574 0.00649581900241198 0.00666919708091416 0.00649680070990953 0.00582252238131817 0.00685945252059476 0.00649552941354603 0.00668417240046614 0.00670371776358877 0.00708195701265877 0.00683130609647659 0.00656238087435014 0.00616908037586191 0.00684984383096175 0.00659248337657075 0.00680397558397759 0.00708460779093688 0.00617970308459556 0.00647294357927859 0.0068350611788751 0.00653808583203173 0.0068215818719173 0.00651678080321604 0.00649814140572615 0.00684781295133893 0.00649411258546718 0.00652043295054197 0.00639706580660414 0.00652983719736102 0.00616118409061122 0.00650154380550733 0.00564825988493048 0.00619090915230515 0.00643520155924464 0.00649691557368307 0.00620399151192554 0.00623086583315697 0.00642231192766156 0.00641375575512429 0.00624850902753213 0.00605850895490407 0.00650954945729012 0.00642286466944712 0.00603570783026806 0.00652080139941254 0.00600652992666505 0.00593025072381028 0.00652280362795077 0.00593198680475762 0.00648461518274392 0.00523259671518594 0.00473540266052393 0.0059196093395922 0.00591203578178524 0.00603448806161441 0.00525741057073092 0.00524969778297862 0.0060425284901243 0.00502737949500163 0.00443410354804063 0.00523805442622885 0.00502486363135656 0.00364139483295593 0.00470900983941091 0.00442895702294725 0.00472017125685349 0.005241065051691 0.00442818099583335 0.00328330861465271 0.00470729163361139 0.00363892465713412 0.00442591114113777 0.00381339362468613 0.00364315940008963 0.00296215544456416 0.0022034660023621 0.00257363083303734 0.00362695195056656 0.00297326079642852 0.00257689377892872 0.00222515008779726 0.00166254880859902 0.00254743575383274 0.00166153455212932 0.00204147357456268 0.00254318123293588 0.00202818940409822 0.00324743361286606 0.00259198014599242 0.003631857262584 0.00257303027672993 0.00326906165507154 0.00282564120904983 0.00325303553645884 0.00201713742592838 0.00188380667720706 0.0028037599867601 0.00205350385011263 0.00203358135430025 0.00153603394974467 0.00188474556207726 0.00186669858501481 0.00261002380451814 0.00282218668064074 0.00395379812096788 0.00438073925270021 0.00282459149288579 0.00471523463332316 0.0032782373686862 0.00438520937175188 0.00437082656593671 0.00328023041789553 0.00283381909008042 0.00470674506625063 0.00441101468168667 0.00581843094772018 0.00566296673967054 0.00582544176913494 0.00440715842697579 0.00566436110297011 0.0043848373484417 0.00397203696345721 0.00480320929633186 0.00567118716271648 0.00396845748648636 0.00344164466330363 0.0039529244121894 0.00260875429995778 0.00370547215710555 0.00479036426815167 0.00343765757905561 0.00344330326883814 0.00478556820670119 0.00396552437348883 0.00565756908915884 0.00482021382608652 0.00605895700943916 0.00561454559905424 0.00606596892710729 0.00481205868411616 0.00480049688720419 0.00370305084651087 0.00559747818954313 0.00573932407898464 0.00561184886907563 0.00413764609818062 0.0056050657259572 0.00369434092653141 0.00413211313380922 0.00410795533483559 0.0037083157550827 0.00227746136641328 0.00248540999965205 0.00229828401796193 0.00368484396445833 0.00344616481655623 0.00248104852698995 0.00369146012068166 0.00174090493751733 0.0015048612618773 0.00227470513311036 0.00171147188699645 0.0022981511706871 0.0024757778303639 0.00179925169961619 0.00172444438390487 0.00245578505897381 0.0017732382480944 0.00247856669789076 0.00261335810270589 0.0034332493913078 0.00262245173830477 0.00249261549214498 0.00393769984542471 0.00283850815142377 0.00261965943175766 0.00189543181490442 0.00179131259991641 0.0025893733316636 0.00188512411072347 0.00147747851847956 0.00178575525645816 0.00173991677314905 0.00174930780986149 0.00147895203834122 0.0014350874980322 0.00176073223687786 0.001681805376706 0.00145655689506824 0.00150327711635853 0.00172590953649604 0.00151308312809621 0.00145326150985818 0.00176082457336419 0.00171503713751167 0.00178972867237955 0.0014296465552117 0.00141022256599254 0.00169397625668684 0.00145864231949681 0.00172169036358892 0.00139684895315025 0.00151346830592231 0.00137893655094748 0.00170361808801749 0.00141403744773777 0.00169426882383471 0.00171800854942219 0.001359746001013 0.00146525945886174 0.00166087566239566 0.00139207761818476 0.00244757604868333 0.00166439390400725 0.00225676090973909 0.00172586521703653 0.00247305365869711 0.00264049488131195 0.00243665633538206 0.00174229328281111 0.00167290412251442 0.00369274146060273 0.00265548477954454 0.00245575815211704 0.00369660047442007 0.00245536782958756 0.00333931721263979 0.00246567436590485 0.00223528175920422 0.00331389504735722 0.00223879939907477 0.00274517387621178 0.00331520702312776 0.00223687404232762 0.00168739649505383 0.00176939609898216 0.00271630316535217 0.00224584137829072 0.00174094523289866 0.0023445008934241 0.00271637753611551 0.00174581720303667 0.00176624630657693 0.00172450882161203 0.00231881970669852 0.00232482690302733 0.00331454789759407 0.00273271387990077 0.00233067032934777 0.00259063816999744 0.00330840516336953 0.00371860301475539 0.00332287352498827 0.00257484371142514 0.00197255403925434 0.00301041963250512 0.00257950605384415 0.003035271375915 0.00371394239049727 0.00258118497151564 0.0017148404317921 0.00200524036475346 0.00256070351184073 0.00232921603255716 0.00170210500571251 0.00257020238443674 0.00154871596526343 0.00169946513009121 0.00150277002425331 0.00154238808646878 0.00163532686299096 0.00170961723034307 0.00156909624605565 0.00149805479923442 0.00186411055056711 0.00155827339050065 0.00160358655056417 0.00161473803991807 0.00201587832421788 0.0016151307503662 0.00154912810115112 0.00158938586692817 0.00167210012002474 0.0016218147039486 0.00198189590036813 0.00172855462018674 0.00160914999379711 0.00161679966233481 0.0016940520493771 0.00197852276110023 0.00161528927099534 0.00202197913725263 0.00170887788590018 0.00168091453765592 0.00163493925603788 0.00160912262607212 0.00168071664718716 0.00167722311913694 0.00164277583125414 0.00165486109235715 0.00165729102095637 0.00166531119473463 0.00228781157677422 0.00167106876306635 0.00163806152811923 0.00198920014714811 0.00166033323283047 0.00234066428049406 0.00234530984718298 0.00165505701247269 0.00231881211510977 0.00236478483290038 0.00301021678859086 0.00197899246687924 0.00234841512519316 0.00338591149882006 0.00302492481833092 0.0023177970907888 0.00303165106553962 0.00338303357161237 0.00235102956876176 0.00231813179440246 0.00337691323743259 0.00301538371065515 0.00232742526749027 0.00226422733368788 0.00302143083287243 0.00225127242081119 0.00331614283884383 0.00230395976357924 0.00162051898234036 0.00226899581423521 0.00165768879044163 0.00207709841392062 0.00224371336668515 0.00331665442228032 0.00225477910843477 0.00297016800845491 0.00294242132766073 0.0022660582076725 0.00205381902378035 0.00294830708096192 0.00204887921783642 0.00273390396914884 0.00272634332864503 0.0020589079170886 0.00233004857633218 0.00232051785651403 0.0031584723364655 0.00273043302071201 0.00230357006816684 0.0020535211757047 0.00173174233650055 0.00201788099308334 0.00167778234706517 0.00158995654411956 0.00159244098132903 0.00177303711496395 0.00202104553831034 0.00162086490071349 0.00168748654893057 0.00172278211987788 0.00172636382303997 0.0016079675588956 0.0021511300269518 0.0019620740621225 0.00162627560891371 0.00167566097137911 0.00166804060042302 0.00166415881347263 0.00197338502518152 0.0016650869973222 0.00166237023444579 0.00167481258945531 0.00167594332817845 0.00163635378577009 0.0016715720436772 0.00164774472392644 0.00166477838497454 0.00223094958477239 0.00167713215715966 0.00165944487446274 0.00165350771619022 0.0021815487445946 0.00165238772323243 0.00169033995845002 0.00164670694670945 0.00218988416996455 0.00199921596755692 0.00255107779436259 0.00196902779618506 0.00288370334423038 0.00287687050494367 0.00196880245964226 0.00220904456455105 0.0029040391006684 0.00220131653119116 0.00296563364691069 0.00290210198925002 0.00297254574699857 0.00380221490739056 0.00381161592224247 0.00296774660666049 0.00363581460337746 0.00503182904730066 0.00381820642453914 0.00442877226935073 0.00502556083382668 0.00511556202791899 0.00413939011579221 0.00412399179978245 0.00382225903404353 0.00502581985062001 0.00380945276073491 0.00412555831740114 0.00289829483226988 0.00411917242716536 0.00333128146752859 0.00290513105425967 0.00511253606498419 0.00473944500706937 0.00414106217193058 0.00412925122804773 0.00474758914972128 0.00333537703950536 0.00334291885611934 0.00473961485513044 0.00400518066288289 0.0033340443143903 0.00400286796826068 0.00301080354896813 0.00330827607194842 0.00302028786786089 0.0021809719100351 0.00290116175871302 0.00332016861074645 0.00253878302355195 0.00254335941232489 0.00330404411021901 0.00218240655669378 0.00219773217211709 0.00198455905060142 0.00254158891814677 0.00159037193838255 0.00198026130046435 0.00216996622805315 0.00217534320851765 0.0021900949701117 0.00170044957564751 0.00217206679332499 0.00174519346898135 0.00171362705952595 0.00218670000354417 0.00213822748825017 0.00173016606973092 0.00300403869970466 0.00282357693537447 0.00219058944898176 0.00213165216970989 0.00219872949360794 0.00280659703212815 0.00300120562279056 0.00219229612875093 0.0021925583188377 0.00349647128470549 0.00301399220787837 0.00400089013851929 0.0034997057962452 0.00401189113840514 0.00446850362682667 0.00446457496314256 0.00352980517959146 0.00350132844785206 0.00349372360682469 0.00353155448083294 0.00282010315580769 0.00301465795250762 0.00349125352695739 0.00281906360610695 0.00250683811134649 0.00282124400777004 0.00352056011609931 0.00354308217670465 0.00446393503734354 0.00442783731115461 0.00401141233943013 0.00310844463074925 0.00352503179506853 0.00441917820185337 0.00400018737549125 0.00354420598456669 0.0025095920024685 0.00351608177125166 0.0031049968964573 0.00309531621215458 0.00226099372105029 0.00250990425569558 0.0025041859449631 0.00227160537943906 0.00191857192617149 0.00252024630795494 0.00213218038747579 0.00280971738313527 0.00250390582973214 0.00191823787291288 0.00213974147439937 0.00193171796282889 0.00173638695040224 0.00213505922761047 0.00192188953463163 0.00224815877242411 0.00173407608929526 0.00164598497594662 0.00190691216651936 0.00176067678130298 0.00173187102250358 0.00166443906287616 0.00166182836997104 0.0016575954334742 0.00169082638934161 0.00179191261591443 0.00165615025375514 0.00178975745822857 0.00172769774922138 0.00167967802053042 0.00171150810003039 0.00171195561882588 0.00190408437927577 0.00164311702287806 0.00173757219838237 0.00166143659868798 0.00171056052759763 0.00173482332140502 0.00165432126629102 0.0019864179391718 0.0017433912992729 0.00172829476622038 0.00168767891706136 0.0016830888748737 0.00171552042424304 0.00167015298113695 0.00170368574808858 0.00198288815198082 0.00166120768239991 0.00174952743357705 0.00171941457946219 0.00223463243138103 0.00199961796063825 0.0017330312120528 0.00201713710309789 0.00230429941104743 0.00199080206464439 0.00270173397051172 0.00232516156782234 0.00272300097796559 0.00315587335599278 0.00232487888895526 0.00199605579908754 0.00225912445912308 0.00269860058312526 0.00281859359947976 0.0030497707036353 0.00224394572445662 0.00271312807087861 0.00224293776662125 0.00304902819018948 0.00180366299155209 0.00222698400554446 0.00172521218885054 0.0020790621667