<?xml version="1.0"?>
<VTKFile type="UnstructuredGrid" version="0.1" byte_order="LittleEndian">
<UnstructuredGrid>
<Piece NumberOfPoints="2148" NumberOfCells="716">
<Points>
<DataArray type="Float64" NumberOfComponents="3" format="ascii">
0 3.16326530612245 0 0.111951344119615 3.17967750712615 0 0 3.26530612244898 0 0.111951344119615 3.17967750712615 0 0.0912671921301906 3.3030534847155 0 0.197493618810026 3.24620015801126 0 0.111951344119615 3.17967750712615 0 0 3.26530612244898 0 0.0912671921301906 3.3030534847155 0 0 3.36734693877551 0 0.0694515998297709 3.39228183135043 0 0.0912671921301906 3.3030534847155 0 0 3.26530612244898 0 0 3.36734693877551 0 0.0912671921301906 3.3030534847155 0 0 3.36734693877551 0 0.0694515998297709 3.39228183135043 0 0 3.46938775510204 0 0.0694515998297709 3.39228183135043 0 0.168706590021732 3.3675083505807 0 0.0938988346741577 3.47186564208169 0 0.0912671921301906 3.3030534847155 0 0.168706590021732 3.3675083505807 0 0.197493618810026 3.24620015801126 0 0.0694515998297709 3.39228183135043 0 0.0912671921301906 3.3030534847155 0 0.168706590021732 3.3675083505807 0 0.168706590021732 3.3675083505807 0 0.299058335297796 3.32133186417395 0 0.197493618810026 3.24620015801126 0 0.168706590021732 3.3675083505807 0 0.258490864774894 3.41629632516781 0 0.190880348472602 3.48069227481756 0 0.258490864774894 3.41629632516781 0 0.299058335297796 3.32133186417395 0 0.340757662552379 3.42114971762547 0 0.168706590021732 3.3675083505807 0 0.258490864774894 3.41629632516781 0 0.299058335297796 3.32133186417395 0 0.299058335297796 3.32133186417395 0 0.299518483184667 3.19757959365724 0 0.197493618810026 3.24620015801126 0 0.0970775896926126 3.72552247468465 0 0 3.6734693877551 0 0 3.77551020408163 0 0 3.6734693877551 0 0.115552315246572 3.59706063011091 0 0 3.57142857142857 0 0.0970775896926126 3.72552247468465 0 0 3.6734693877551 0 0.115552315246572 3.59706063011091 0 0.0970775896926126 3.72552247468465 0 0.115552315246572 3.59706063011091 0 0.193985532863148 3.68506131538041 0 0.115552315246572 3.59706063011091 0 0.0938988346741577 3.47186564208169 0 0.190880348472602 3.48069227481756 0 0.115552315246572 3.59706063011091 0 0 3.57142857142857 0 0.0938988346741577 3.47186564208169 0 0 3.57142857142857 0 0 3.46938775510204 0 0.0938988346741577 3.47186564208169 0 0.0694515998297709 3.39228183135043 0 0 3.46938775510204 0 0.0938988346741577 3.47186564208169 0 0.168706590021732 3.3675083505807 0 0.0938988346741577 3.47186564208169 0 0.190880348472602 3.48069227481756 0 0.258490864774894 3.41629632516781 0 0.286102060941823 3.49892822510028 0 0.340757662552379 3.42114971762547 0 0.258490864774894 3.41629632516781 0 0.190880348472602 3.48069227481756 0 0.286102060941823 3.49892822510028 0 0.190880348472602 3.48069227481756 0 0.286102060941823 3.49892822510028 0 0.237071236615437 3.58741033252919 0 0.286102060941823 3.49892822510028 0 0.237071236615437 3.58741033252919 0 0.354062635553936 3.61172914122892 0 0.115552315246572 3.59706063011091 0 0.190880348472602 3.48069227481756 0 0.237071236615437 3.58741033252919 0 0.115552315246572 3.59706063011091 0 0.237071236615437 3.58741033252919 0 0.193985532863148 3.68506131538041 0 0.237071236615437 3.58741033252919 0 0.274164293287564 3.66925514917995 0 0.354062635553936 3.61172914122892 0 0.237071236615437 3.58741033252919 0 0.274164293287564 3.66925514917995 0 0.193985532863148 3.68506131538041 0 0.274164293287564 3.66925514917995 0 0.335182568700197 3.70560902072145 0 0.263252993879706 3.75025141972945 0 0.274164293287564 3.66925514917995 0 0.193985532863148 3.68506131538041 0 0.263252993879706 3.75025141972945 0 0.193985532863148 3.68506131538041 0 0.17970146537822 3.78887976330602 0 0.263252993879706 3.75025141972945 0 0.0970775896926126 3.72552247468465 0 0.193985532863148 3.68506131538041 0 0.17970146537822 3.78887976330602 0 0.42252155128195 3.71599569334352 0 0.335182568700197 3.70560902072145 0 0.356184391827633 3.7988771440165 0 0.42252155128195 3.71599569334352 0 0.335182568700197 3.70560902072145 0 0.354062635553936 3.61172914122892 0 0.274164293287564 3.66925514917995 0 0.335182568700197 3.70560902072145 0 0.354062635553936 3.61172914122892 0 0.354062635553936 3.61172914122892 0 0.431667252078919 3.54337921804584 0 0.472712586497609 3.63757779853199 0 0.42252155128195 3.71599569334352 0 0.354062635553936 3.61172914122892 0 0.472712586497609 3.63757779853199 0 0.286102060941823 3.49892822510028 0 0.354062635553936 3.61172914122892 0 0.365106117910463 3.4992447986014 0 0.354062635553936 3.61172914122892 0 0.431667252078919 3.54337921804584 0 0.365106117910463 3.4992447986014 0 0.365106117910463 3.4992447986014 0 0.433220101812195 3.45203853977455 0 0.340757662552379 3.42114971762547 0 0.286102060941823 3.49892822510028 0 0.365106117910463 3.4992447986014 0 0.340757662552379 3.42114971762547 0 0.431667252078919 3.54337921804584 0 0.365106117910463 3.4992447986014 0 0.433220101812195 3.45203853977455 0 0.431667252078919 3.54337921804584 0 0.433220101812195 3.45203853977455 0 0.539923670668636 3.54287540280753 0 0.433220101812195 3.45203853977455 0 0.539923670668636 3.54287540280753 0 0.514486449895809 3.41034782479467 0 0.622628749631717 3.45471960615845 0 0.539923670668636 3.54287540280753 0 0.641360722408704 3.53120201648524 0 0.622628749631717 3.45471960615845 0 0.539923670668636 3.54287540280753 0 0.514486449895809 3.41034782479467 0 0.539923670668636 3.54287540280753 0 0.63788658166007 3.61700594988489 0 0.641360722408704 3.53120201648524 0 0.431667252078919 3.54337921804584 0 0.539923670668636 3.54287540280753 0 0.472712586497609 3.63757779853199 0 0.539923670668636 3.54287540280753 0 0.472712586497609 3.63757779853199 0 0.566499740675289 3.65478783651362 0 0.539923670668636 3.54287540280753 0 0.566499740675289 3.65478783651362 0 0.63788658166007 3.61700594988489 0 0.566499740675289 3.65478783651362 0 0.625543564376873 3.72298572665107 0 0.63788658166007 3.61700594988489 0 0.566499740675289 3.65478783651362 0 0.529507903369422 3.72940974320478 0 0.625543564376873 3.72298572665107 0 0.472712586497609 3.63757779853199 0 0.566499740675289 3.65478783651362 0 0.529507903369422 3.72940974320478 0 0.42252155128195 3.71599569334352 0 0.472712586497609 3.63757779853199 0 0.529507903369422 3.72940974320478 0 0.299058335297796 3.32133186417395 0 0.299518483184667 3.19757959365724 0 0.413754685939067 3.24402453530014 0 0.299058335297796 3.32133186417395 0 0.413754685939067 3.24402453530014 0 0.414686441801804 3.35656436887501 0 0.299058335297796 3.32133186417395 0 0.340757662552379 3.42114971762547 0 0.414686441801804 3.35656436887501 0 0.433220101812195 3.45203853977455 0 0.340757662552379 3.42114971762547 0 0.414686441801804 3.35656436887501 0 0.433220101812195 3.45203853977455 0 0.414686441801804 3.35656436887501 0 0.514486449895809 3.41034782479467 0 0.413754685939067 3.24402453530014 0 0.414686441801804 3.35656436887501 0 0.501431897780356 3.31278713965279 0 0.414686441801804 3.35656436887501 0 0.501431897780356 3.31278713965279 0 0.514486449895809 3.41034782479467 0 0.622628749631717 3.45471960615845 0 0.514486449895809 3.41034782479467 0 0.633132849526405 3.34964916703868 0 0.501431897780356 3.31278713965279 0 0.594990607626668 3.24418120818188 0 0.633132849526405 3.34964916703868 0 0.501431897780356 3.31278713965279 0 0.514486449895809 3.41034782479467 0 0.633132849526405 3.34964916703868 0 0.594990607626668 3.24418120818188 0 0.511724813301557 3.23468821708934 0 0.576845879156526 3.15540938239119 0 0.501431897780356 3.31278713965279 0 0.594990607626668 3.24418120818188 0 0.511724813301557 3.23468821708934 0 0.413754685939067 3.24402453530014 0 0.501431897780356 3.31278713965279 0 0.511724813301557 3.23468821708934 0 0.594990607626668 3.24418120818188 0 0.576845879156526 3.15540938239119 0 0.670671928683462 3.15700199883871 0 0.670671928683462 3.15700199883871 0 0.762672546446852 3.17299913793375 0 0.702873663166256 3.25746382131753 0 0.670671928683462 3.15700199883871 0 0.762672546446852 3.17299913793375 0 0.76110629086622 3.06375817385364 0 0.762672546446852 3.17299913793375 0 0.702873663166256 3.25746382131753 0 0.807121323954102 3.26344228328316 0 0.594990607626668 3.24418120818188 0 0.670671928683462 3.15700199883871 0 0.702873663166256 3.25746382131753 0 0.702873663166256 3.25746382131753 0 0.633132849526405 3.34964916703868 0 0.734703527341189 3.34035699351431 0 0.594990607626668 3.24418120818188 0 0.702873663166256 3.25746382131753 0 0.633132849526405 3.34964916703868 0 0.622628749631717 3.45471960615845 0 0.633132849526405 3.34964916703868 0 0.714754888194296 3.42210389434834 0 0.633132849526405 3.34964916703868 0 0.714754888194296 3.42210389434834 0 0.734703527341189 3.34035699351431 0 0.714754888194296 3.42210389434834 0 0.819342232445977 3.38228396728686 0 0.785091255056639 3.49034264581094 0 0.714754888194296 3.42210389434834 0 0.734703527341189 3.34035699351431 0 0.819342232445977 3.38228396728686 0 0.702873663166256 3.25746382131753 0 0.734703527341189 3.34035699351431 0 0.807121323954102 3.26344228328316 0 0.819342232445977 3.38228396728686 0 0.885791492218095 3.30995762619863 0 0.807121323954102 3.26344228328316 0 0.734703527341189 3.34035699351431 0 0.819342232445977 3.38228396728686 0 0.807121323954102 3.26344228328316 0 0.819342232445977 3.38228396728686 0 0.921072085702129 3.37576071258942 0 0.899522646441396 3.47271479165558 0 0.921072085702129 3.37576071258942 0 0.885791492218095 3.30995762619863 0 1.00024685946745 3.29947316182676 0 0.819342232445977 3.38228396728686 0 0.921072085702129 3.37576071258942 0 0.885791492218095 3.30995762619863 0 0.885791492218095 3.30995762619863 0 0.909407150138764 3.22689411286806 0 0.807121323954102 3.26344228328316 0 0.885791492218095 3.30995762619863 0 0.909407150138764 3.22689411286806 0 1.00024685946745 3.29947316182676 0 0.762672546446852 3.17299913793375 0 0.83765433205951 3.16089850133082 0 0.807121323954102 3.26344228328316 0 0.762672546446852 3.17299913793375 0 0.83765433205951 3.1
[...]
<PointData Scalars="conc_conc," Vectors="" Tensors="">
<DataArray type="Float64" Name="conc_conc" format="ascii">
0.00146222644373958 0.00284182486261972 0.00115875868911214 0.00305696192568475 0.00220023614893485 0.00579812802288527 0.00294676662472075 0.00109607038907409 0.00220271159590987 0.000966031815330064 0.0015957495109999 0.00219914970114865 0.00124444332436876 0.00102930524552857 0.00211987392352189 0.00105034271988454 0.00155568480450172 0.000851253116191027 0.00151835038279843 0.00445093519777409 0.0018265968841615 0.00214285150018693 0.00451173170567737 0.00586297052922478 0.00155897265903543 0.00228118098431115 0.00441737448279474 0.00454298634161214 0.0105674764181894 0.0059556162921121 0.00452025415395863 0.00867613845876574 0.00530822323006638 0.00878211937983512 0.0106045481463121 0.0125487638699932 0.00450373130157689 0.00871171852999859 0.0106185108747102 0.010580392018245 0.0104362148933917 0.00600445915412029 0.0011451571959855 0.000303577987939297 0.000111986517388839 0.000194116287610181 0.00186613439135744 0.000471178922741836 0.00122845206966251 0.000129907583295693 0.00196985261449569 0.0011796036580893 0.00209370956430263 0.00478095939370211 0.00199065398003473 0.00177449749434462 0.00520452707181331 0.00194452936975866 0.000389198701780843 0.00187521870283078 0.000464377181944707 0.000787859239096019 0.00177330528489194 0.00161234201615614 0.000776480864935844 0.00180241597265011 0.00457853844883789 0.0017590219552661 0.00523241614358695 0.00876931483965373 0.010251808178664 0.012584465275021 0.00874195486096647 0.00529359447755038 0.0101672692311332 0.0052819602515716 0.0101665088644398 0.00749366781594441 0.010184999408626 0.00757121336841351 0.0139314539102047 0.00188215449424154 0.0053650430286235 0.00735309245788819 0.00186540141148551 0.00735007489604778 0.00490851050314304 0.00754111753878221 0.0097439126769227 0.0139800208531945 0.00751462955956386 0.00966837688932684 0.00494555075168372 0.00969936461199621 0.013351094486332 0.00903716313324957 0.00968688802588702 0.00491397833793761 0.00894131247359841 0.00495786323907649 0.00384304030784635 0.00889024458946652 0.00109177379914548 0.00485268360902942 0.00386253536030969 0.016067554582117 0.0134803970797213 0.0150234693763653 0.0160731644166489 0.0134366451164264 0.0138129552091822 0.00980028752926017 0.0133195133586901 0.0139002598380959 0.0142660254190068 0.0146593984913246 0.0151468449775877 0.0159917588373691 0.0142030689290196 0.0152315516349324 0.0103117417727394 0.0138870566282468 0.0137236104448736 0.0140282778454432 0.0148444289913243 0.0136601356137531 0.0136726930074582 0.0145696319481965 0.0126563806991774 0.0103456470085291 0.0136855388727782 0.0125083093957587 0.014791443808669 0.0137614659046969 0.0143882495095954 0.0149094632827289 0.01440005762324 0.012309157862177 0.0145170039873231 0.0121350187000165 0.012459279917964 0.0074861229508125 0.0118260371316613 0.00641099402446764 0.00758829061317191 0.0118668583838297 0.0125969210086482 0.0118512136604492 0.00649247455681501 0.0063939717967844 0.0150115678742206 0.0121681209057701 0.0149015144405609 0.0118024735981594 0.014954585108087 0.0107024692322981 0.0118638864444377 0.0105818514665192 0.00650519085083219 0.0105621429096383 0.00695823585397919 0.00647027693090035 0.0106050984208906 0.0128553423436386 0.00696814073886174 0.0149599565731708 0.010728131683088 0.012966689259085 0.0161919410168113 0.0147415146621728 0.013216518309092 0.0108552435959459 0.0104675065167928 0.0136416915545432 0.0109971611575979 0.013483612167106 0.0140053262439973 0.0108121046476576 0.0125910437094183 0.0141150037446012 0.0144650255606911 0.0127558172070924 0.0138497102232964 0.0144067851977394 0.01403043348174 0.0126663035686004 0.0134616660507602 0.0139725579429347 0.0127628890036435 0.0141120011265393 0.0125885509497687 0.0125907981954702 0.00756490416378398 0.0125926818270475 0.00706903546212798 0.0127077032995527 0.00874337671923107 0.00719705610553736 0.0127005787821639 0.0125270759622165 0.00720733011595129 0.00880547669144462 0.0120321361185767 0.00945054650516941 0.0126549731545069 0.00880654671848413 0.0120433381350481 0.013610684938871 0.0126789343979124 0.0120924237392947 0.00874692348833134 0.00946562367214829 0.00560086311712859 0.00553281613441667 0.00248565937264448 0.00421764384054512 0.00549512672200531 0.00251885685831291 0.00270970234833607 0.00257820922957406 0.0041418974634933 0.00129241995304249 0.00871885087197665 0.00560638234296447 0.00422410186167154 0.00425193853209715 0.00695854241587824 0.00293448146082727 0.00874860512912345 0.00419457682567746 0.00706452867039569 0.00743120406934381 0.0070617854066443 0.00339013690511813 0.00696197118533614 0.00342147888504273 0.00291583484733803 0.00332347185448036 0.000922410033773741 0.00135819686308145 0.00336993588605749 0.0029888666701367 0.000880960672987627 0.004148689522201 0.00297454155591376 0.00127994487282703 0.000999693992082496 0.000357041065491082 0.00135639887720283 0.0029395300031148 0.000943838415605412 0.00138812256011244 0.000961009300911592 0.000110981348361289 0.000112284464116437 0.000141559980755249 0.000369121344281527 -2.08183186181459e-05 0.000968581852964226 0.000118103537471536 0.000407147631019983 0.000379131568627633 0.000279459470954342 0.00130680432840199 0.000378323535937229 0.000316839383738783 -3.15269358767967e-05 0.00250950036278221 0.00102260801148468 0.00135787601024483 0.00253019856203927 0.000997632437880497 0.0027055203477472 0.000249946102144189 0.00108114752681564 0.00133724052114685 0.0025123645341281 0.00288133606769936 0.000495978804857215 0.00237479086740884 0.000500764177386816 0.000602608143348259 0.00231042925925321 0.00685674981780351 0.00647888417861963 0.00236736965487705 0.00680968104327122 0.00289307120980383 0.00242218896462842 0.00631132470373232 0.00215198817076369 0.00243521034799663 0.00225870131241045 0.000431037620601173 0.00219839702939981 0.00363185811170149 0.00132037455274489 0.00638423549966451 0.00207724134942414 0.00640926116770606 0.00213548819786363 0.0063757984005971 0.00371998830547782 0.00744408152241258 0.00640950478045244 0.00367105601174216 0.00738866644480395 0.00341930984573501 0.00369131437975334 0.00345125300425335 0.00366166326203815 0.00129350817175224 0.00103802785715588 0.00134461942593023 5.00387408892052e-05 0.00131490415542944 8.23858271144313e-05 0.000317050514262921 0.000173700527161211 0.000338421291230975 1.28045868695982e-06 0.00214309743304599 0.00143780524706507 0.000235050967489989 0.00211813285632169 0.000249553384159059 0.000509300789764774 0.000349616934872714 0.000526229338555057 -4.31228437614101e-05 0.000325972246994145 -1.42277376461104e-05 7.07452784150214e-06 0.000517134273215023 -3.90994160714512e-05 0.000115510089787629 1.03476377480507e-05 0.000109279037799163 -3.30843639515423e-05 0.000571008147993172 9.44376798424819e-05 0.000651282126501205 -3.04320955179276e-05 1.00943783081941e-06 -6.36165231344916e-06 5.27132287467347e-06 -3.05143147222733e-05 -2.06813110637109e-05 3.13947196419216e-06 -2.92662830321322e-05 -2.04647399105331e-05 5.5047603844648e-06 -2.71597072847466e-05 1.84109370062128e-05 -2.87917450068623e-05 -2.16323230185246e-05 -2.00450509499175e-06 -2.39897138938959e-05 -6.03467335703347e-06 8.73244503850364e-07 -2.07138313302812e-05 -8.91620449423541e-06 -1.93181334751239e-05 -1.07205711788708e-05 -2.75994590396868e-05 5.39896012183473e-05 -2.27080087291507e-05 1.68601788745055e-05 -1.83619853925623e-05 0.0001504229645059 1.76109348907565e-05 -3.42239921806625e-05 0.000139219796374589 -2.78183134233071e-05 -2.60092063481343e-06 -2.32172764540705e-05 4.4830806470453e-05 -2.29110346218876e-06 -2.10920627014652e-06 0.000839545741709205 0.000157439965373653 -3.18128047201455e-05 0.000866324521304672 0.000659157532290999 0.000941366442696664 8.90568222996541e-05 0.00147162420206292 -2.45189900635885e-05 7.01645954753146e-05 0.000172675177862223 -1.91000636711006e-05 0.000161758342828288 -4.46951510889961e-06 0.000183562102642996 -2.43162776570752e-05 0.000265459915433154 0.000158410528405288 0.00177122436695981 0.00155532266762509 0.000104463918889504 0.000233520604966014 0.00144440905136473 0.000275297460827478 0.00050992616878453 -6.2734811904998e-05 0.000197927659787311 0.000479292970904306 0.00174305647780066 -1.23629994056692e-05 0.000252265893299055 -2.48867377623349e-05 0.000137577900317938 1.45080163450875e-05 -5.07695224271146e-06 0.000142575560417069 0.00014451603002543 -1.40368330901932e-05 1.54481922581224e-05 -2.23435999915461e-06 5.02424608569889e-05 4.68964810352837e-05 -9.32643892881782e-06 5.52037899861486e-05 1.91025255975046e-05 3.11422220864206e-05 0.000597602495847262 0.000870303465909351 0.000556267297144883 0.00243441208703194 0.00945661123795916 0.00561083797530208 0.00702488963961573 0.00555929992596714 0.00696805427738435 0.00261619224157127 -0.000969140612067073 0.00286644529602542 -0.00189234138409288 0.00041237943393043 -0.000369460442712913 -0.000733081444300297 0.000149953364947353 -0.000327301574421527 9.06376761707819e-05 0.000117469386103385 -0.000115694934049151 4.16290778640953e-05 -0.000128829556532038 1.41052168634177e-05 5.08074053290329e-05 -0.000227950876169981 -0.000304443205098224 7.4633095150893e-05 -0.00131915862874689 0.000396015566990502 0.00384663227862289 -0.000780376919317776 -0.00069268679421005 0.00233447513895214 -0.00294772384519962 0.00821758178802962 0.0165209241975832 0.0083365123193982 0.00580923751152257 -0.00618905143179545 0.0188077725238355 0.0614618810330123 0.0123299285438623 0.0161813489220576 0.0561378878839957 0.0169297819730805 0.0384986269567938 0.0070980906103483 -0.00872577500468499 0.0366230001701541 -0.00758417060025612 0.0102421239847682 0.00421660840520917 -0.00123134809257328 -0.00123449944573714 0.00203184656104777 -0.000580414333014197 -0.00044389528956892 0.0019428544047816 -0.000524421901315469 -0.00159962221857128 -0.000100681205965704 -0.000492695676442382 0.000164339421746557 -4.81121036592787e-05 2.9220138141738e-05 2.22524076010861e-05 4.97747825251228e-06 3.04629888551718e-07 3.14877631600449e-07 -5.4926960238436e-05 2.56864576946483e-05 4.25437857039876e-07 2.71227238300336e-05 4.41155718891143e-05 -0.000190506963647483 -0.000114819694843156 2.26947157737416e-05 -0.000160486862661606 6.19627965995024e-07 1.06616092724891e-07 1.21262802571354e-05 9.84751973778872e-07 -5.38606171081511e-08 3.91565386749287e-07 3.00816485048654e-08 -6.92388456686637e-08 1.78057509623709e-07 -2.37997701413104e-08 1.14270927690154e-07 -4.41028637638727e-08 -2.23752086417935e-06 -5.88804335956653e-07 1.08102043646142e-05 -5.13760420271282e-07 1.60251619403891e-07 -2.45365631643846e-08 -2.96963239334597e-07 3.1208491419775e-08 -6.21033515751258e-07 -3.57162904458694e-07 4.19582681401213e-08 8.76501309802186e-12 -8.93632175963849e-09 7.92317556587668e-09 -1.98831428202723e-08 1.23209016726774e-08 4.47910505191903e-09 -1.67378175432442e-08 2.47435856439572e-06 -2.8710024669611e-06 5.87032256460914e-06 -1.36563019071275e-06 -2.01008337111855e-06 5.40332127783741e-06 -5.59743266912964e-06 1.12153612712868e-05 1.56952995820739e-05 3.38480366686406e-05 -4.88484107348639e-05 -5.27457846464353e-06 2.95103826907808e-05 -4.2235020603539e-05 4.40708753754674e-05 -6.46772727400789e-05 0.000214230030664127 -0.000833356177772763 0.000185916284190703 -0.000344088141170609 -0.000759874551778438 -2.23155185230387e-05 -0.00140849210288352 -0.000710031794547148 -0.00385420242608494 -0.00123004423852185 0.00796286965312545 -0.00183539873273001 0.0077021384535722 0.00879847367077851 -0.000473389075796309 0.00743126818981372 0.015416923926046 -0.000810625986996244 0.000540397291596643 0.00692218044722845 0.000503024291061347 -0.000448532874020653 -0.000238196188623733 -0.000347195280244189 0.000685830937614032 -0.000598280904082671 -6.16841432703697e-05 -0.000574598554942934 -0.000254838993395796 -5.95792918915214e-05 -0.000209424583117195 2.09865773339481e-05 7.90266725691831e-06 -1.72054347900148e-06 -0.000166445091341044 -0.000234990511432189 2.61844306521491e-05 -0.000186750511920936 -2.07685014477413e-06 9.56960798025164e-06 -9.32002016406084e-06 8.04149476850719e-06 -9.08962395643486e-06 6.33655100072215e-06 4.05226498239272e-06 1.15171518841459e-05 1.14899256913002e-06 4.49831368917383e-06 5.29660191841277e-07 4.95863751659426e-06 -1.69403310333589e-05 1.49479592566154e-05 -6.91015487422055e-05 -1.00917487117761e-05 -8.72431234952535e-05 -0.000130166809828828 -1.1087045730057e-05 1.67771847894512e-05 -7.41194531772034e-05 -0.000225548174696757 -0.000142492523042605 0.000116250745532858 -3.91366910614494e-06 -0.000165479538084064 -9.07522400614765e-05 -0.00014834884239076 0.000167534385404829 -0.000141696114394151 0.000718757092122132 -0.000366261641993763 0.000209784836583643 -0.000217090094553161 0.00990811226930494 0.0153848132980367 0.000613472893276784 -0.000769949686447279 0.00877481309022628 -0.00068533039744185 0.00881251336109383 0.00500677661211162 0.00982857357550991 0.0255864973589077 0.0166453577330877 0.00971486921165969 0.0259220475063793 0.0165254160408449 0.0265795489580398 0.0196626175915031 0.0192445476262061 0.0261703505685477 0.0287518049145913 0.0201747005204317 0.0252480400670275 0.0291322949043417 0.0176071627658107 0.0296461433738288 0.0171898971702567 0.0322142920281501 0.00679045011090768 0.0106926698134981 0.0334297015286201 0.00750673615978307 0.0159893549736638 0.0323775910352248 0.0379487086160815 0.0109868699167028 0.0339741054876868 0.0486484232659649 0.0347596424249333 0.0236857979346086 0.0286646480319662 0.0342193099906018 0.0225825940605658 0.0361092018836013 0.0209268498387662 0.0221945102948534 0.0212339498403665 0.0182488359287285 0.0081346144195441 -0.00196150766627991 0.0152166237821708 -0.000235184763879649 0.0162323375123856 -0.00061701200155005 0.0087663656274758 4.35550308123927e-05 0.00829460159475896 0.0026944927087316 0.0205311185395711 0.00835542738407574 0.00212190429008617 0.00270336754590118 0.0179776694279069 0.00412164225897492 0.0183815626880371 0.019509431616122 0.00404162302054071 0.02930932560241 0.0218477688948552 0.0189253480459936 0.0205519852319587 0.0021840060654595 0.0186669254044047 0.0126339202697919 0.0152924197028082 0.0233953164464383 0.0194436860283015 0.0126719109861597 0.0234875015546813 0.00442080715638809 0.0116283945718885 0.00299872066410255 0.0192986261864878 0.00428801795249225 0.0121182279356716 0.011500095350383 0.00378270746779012 0.00313103784623159 0.0119259535361104 0.0153698387207411 0.00349882110947273 0.00783528235139418 0.0152555530157095 0.00364492103463346 0.00795611245496214 0.0155370117993277 0.0169883055299084 0.0165523367315659 0.0208529556509064 0.0229283012397851 0.0202651001891318 0.0182967816597296 0.0174275666177036 0.0163633057304019 0.0209759809960967 0.0166731664282173 0.0196007980171721 0.0112907899705475 0.0182267165699372 0.0198303442605036 0.0146550977634467 0.0102335429984901 0.0198002241598776 0.0101905601663749 0.0108507818400346 0.0194478462057818 0.0151483333546499 0.0234022707518281 0.0148181192900326 0.023902384945055 0.0172148314318646 0.0257127322313771 0.0198655120110492 0.0226483989459724 0.0251176624315588 0.023435808338529 0.0176205275091265 0.00946032520592874 0.0164135314309952 0.00446405967719898 0.0147114492231866 0.0165196877614118 0.00448065849003992 0.0142330545053804 0.00239042639789174 0.0102039542691592 0.0141904439458109 0.00460533452568143 0.00238922608510595 -4.23140396712354e-05 0.00412086594368604 -0.000772510297471699 0.00428301430229686 0.00299096421824606 -0.000872762337804547 0.00268426817569143 -0.000536374756712503 -0.000188364626032477 -0.000153471929183624 -6.51245700153055e-05 -8.61466715602593e-05 -6.29635647899804e-05 -8.90613981720478e-05 -9.40815820383487e-05 -8.23117400144652e-06 -0.000127282693357065 -5.56329687078974e-05 -0.000114886323671866 -0.000117253380706019 -2.15335627742364e-05 -0.000192683451345325 -1.97664531852259e-05 0.000350993381716052 -4.88865635524838e-05 -0.00012008067324512 -2.50587728801421e-05 -0.000156564716794476 -0.000145307385866259 0.00227007390537367 -0.00012173691289205 0.00228791276555278 0.000439419666591432 0.00232678476501484 0.0105064515542996 0.00349602211583694 0.00245281769137633 0.00342379836222884 0.000210205156926501 0.00280325887874114 -0.000328319675497449 0.00252034181120385 0.00273028970295583 0.00222203169550008 0.00975103360143303 0.0020928824022451 0.00988002441738578 0.0107976715898697 0.0106615133147305 0.0107334387239982 0.00340390939044005 0.0106303641482504 0.00398157461706649 0.0101700003339375 0.00346175798778473 0.00031192520746914 0.00400411184103043 0.0105303333427373 0.00353495845515978 0.00401650576868797 0.0032961878820865 0.000301006175839163 0.000522798877998033 0.000520658467343146 -0.000126955604524904 2.50920322670079e-05 -0.000180292677219865 0.000324653545529573 -7.72959503024491e-05 0.000380685545604534 0.000571090182144075 -0.00016259042104323 0.00122342388902518 4.59974052571705e-05 0.00085374199671992 0.00056838777576727 -7.74135120747751e-05 0.000851717631303676 0.000170838603006457 -3.14786612780201e-05 0.000783110651748691 0.000695436539363749 0.00388458345209162 0.00399885987665175 0.000427245683969735 0.000837486152404718 0.00386161771545389 0.00125513571034133 0.000790423626157427 0.00377409603664244 0.00378080287759729 0.00407719852548606 0.0099809069509588 0.00374582162175107 0.010041687995603 0.0089903019273522 0.0102569553749239 0.00897697358766 0.0149349569748471 0.013349158399092 0.00906770904573248 0.0148817685955244 0.015732841164274 0.0153193276423917 0.0166062054571645 0.017015018507652 0.0174654514367974 0.016281284153263 0.015214918114822 0.0167102002220364 0.016799613535401 0.0103769139923878 0.0148690560632773 0.0164878681321717 0.0111336260050865 0.0164979463620452 0.0179992597777313 0.0109879261005564 0.0102114158434548 0.016616681732461 0.0111802635021522 0.0107890539668984 0.0182805255028968 0.0184143121116477 0.0172269948632189 0.0172442846989594 0.0166724447261355 0.0180384658407576 0.0176544977442283 0.0174956327227059 0.0111399379826953 0.0160302492938658 0.0176442842635694 0.0168503448572946 0.0109623526492548 0.00771887286650741 0.010486753093358 0.00327217674374854 0.0080022727713061 0.0168935236863115 0.0105737085769781 0.0108526751389269 0.00845992380372353 0.0162637328930242 0.0104137412393031 0.00842159672446667 0.0035279522865911 0.0128556817442005 0.0069630410124571 0.00843210829831327 0.0128277029674643 0.00854000937926206 0.0161639660470983 0.016227265797535 0.0132648584430893 0.0161925532464272 0.000435843654335617 0.00298051039706966 0.00351276676848884 0.000553237259527644 0.00281925774635295 0.000565264812812058 0.00701137454888771 0.00823389297739851 0.00276476863451052 0.0081913453047903 0.00278980388764561 0.00362798720825016 0.0103281913406572 0.00355043301924096 0.0033517732127053 0.00742198990284442 0.00351209484597458 0.00113753701632604 0.00324619486882189 0.000313232672121468 0.00133480929132391 0.000576711038043463 -0.000255980502807689 0.00130086472390671 0.00357204231259493 0.00332335264436546 0.000188889516971332 0.000549163554953737 0.00339487190032695 0.000333421119885046 0.000615254712752501 0.000496393618192415 -4.38309111168373e-05 0.000469655785747512 1.2109952257016e-05 -6.1959210272095e-05 0.00048387449987078 -7.7228409103071e-05 -0.000140040594993646 -3.31407268531257e-05 -5.23401189467011e-05 -8.67343373956755e-05 -3.17465075422101e-05 -4.96310792860704e-05 -2.42655479642323e-05 7.29664305508569e-06 -4.47390733617686e-05 -3.902948543584e-05 1.37652060427547e-05 7.10895066796478e-06 -4.4864011076106e-05 0.000557401654126638 -5.79118730691559e-06 -3.50667772121195e-05 0.000602918302983687 0.000649721947728098 -0.000104029904232144 0.000127220454087056 0.000619205015943765 -6.35524571497852e-05 0.000107949700018123 -9.23528426748718e-06 -3.8356407377009e-05 -3.20963605777275e-06 -1.96336425122514e-05 -2.45128964252611e-05 -2.58079600696534e-05 -1.99063089820544e-05 -2.316159