<?xml version="1.0"?>
<VTKFile type="UnstructuredGrid" version="0.1" byte_order="LittleEndian">
<UnstructuredGrid>
<Piece NumberOfPoints="2148" NumberOfCells="716">
<Points>
<DataArray type="Float64" NumberOfComponents="3" format="ascii">
2 1.93877551020104 0 2 2.04081632652749 0 1.89493489321982 1.97559113421455 0 1.89493489321982 1.97559113421455 0 1.89587064921605 1.87024409608125 0 2 1.93877551020104 0 1.87843277513132 2.09076500210372 0 1.89493489321982 1.97559113421455 0 2 2.04081632652749 0 2 2.04081632652749 0 2 2.14285714285393 0 1.87843277513132 2.09076500210372 0 1.9116631841757 2.18768981383729 0 1.87843277513132 2.09076500210372 0 2 2.14285714285393 0 1.8900698114938 2.28750462447683 0 1.9116631841757 2.18768981383729 0 2 2.24489795918038 0 1.8900698114938 2.28750462447683 0 2 2.34693877550683 0 1.90803132741441 2.36073137876098 0 1.90803132741441 2.36073137876098 0 1.83473725530052 2.36546076037345 0 1.8900698114938 2.28750462447683 0 1.8900698114938 2.28750462447683 0 2 2.24489795918038 0 2 2.34693877550683 0 1.9116631841757 2.18768981383729 0 2 2.14285714285393 0 2 2.24489795918038 0 2 2.44897959183327 0 1.92375480731745 2.53589557998503 0 1.90731824286334 2.44302135468682 0 1.90731824286334 2.44302135468682 0 1.90803132741441 2.36073137876098 0 2 2.44897959183327 0 1.90731824286334 2.44302135468682 0 1.83473725530052 2.36546076037345 0 1.90803132741441 2.36073137876098 0 1.90803132741441 2.36073137876098 0 2 2.34693877550683 0 2 2.44897959183327 0 1.21561951766934 1.59194274290609 0 1.26460526607657 1.51251090122814 0 1.29922055650034 1.61780880568869 0 1.29922055650034 1.61780880568869 0 1.32384729094 1.71008110856985 0 1.21918578810371 1.68683720482456 0 1.33125258636496 1.80031957530226 0 1.26372834194719 1.77071231816171 0 1.32384729094 1.71008110856985 0 1.21918578810371 1.68683720482456 0 1.32384729094 1.71008110856985 0 1.26372834194719 1.77071231816171 0 1.40109993257702 1.73420011230971 0 1.43507550364244 1.83616752147972 0 1.33125258636496 1.80031957530226 0 1.32384729094 1.71008110856985 0 1.40109993257702 1.73420011230971 0 1.33125258636496 1.80031957530226 0 1.33125258636496 1.80031957530226 0 1.43507550364244 1.83616752147972 0 1.33431190949741 1.89537271834105 0 1.33431190949741 1.89537271834105 0 1.22945253958572 1.85538367295154 0 1.33125258636496 1.80031957530226 0 1.33125258636496 1.80031957530226 0 1.22945253958572 1.85538367295154 0 1.26372834194719 1.77071231816171 0 1.38034216562507 1.98825579553081 0 1.25543501964378 1.95996481023575 0 1.33431190949741 1.89537271834105 0 1.25543501964378 1.95996481023575 0 1.22945253958572 1.85538367295154 0 1.33431190949741 1.89537271834105 0 1.25543501964378 1.95996481023575 0 1.38034216562507 1.98825579553081 0 1.28991071620346 2.06888920918508 0 1.33431190949741 1.89537271834105 0 1.43507550364244 1.83616752147972 0 1.40790874069308 1.91879341016811 0 1.40790874069308 1.91879341016811 0 1.38034216562507 1.98825579553081 0 1.33431190949741 1.89537271834105 0 1.22519903123562 2.16567694852442 0 1.28991071620346 2.06888920918508 0 1.31513718845767 2.18138574562694 0 1.38034216562507 1.98825579553081 0 1.39792856756228 2.11808415502665 0 1.28991071620346 2.06888920918508 0 1.31513718845767 2.18138574562694 0 1.28991071620346 2.06888920918508 0 1.39792856756228 2.11808415502665 0 1.31513718845767 2.18138574562694 0 1.39792856756228 2.11808415502665 0 1.41227254758132 2.23149922678942 0 1.39792856756228 2.11808415502665 0 1.49834267139949 2.16284369072321 0 1.41227254758132 2.23149922678942 0 1.49834267139949 2.16284369072321 0 1.39792856756228 2.11808415502665 0 1.49242646151081 2.05442802010519 0 1.49242646151081 2.05442802010519 0 1.39792856756228 2.11808415502665 0 1.38034216562507 1.98825579553081 0 1.49834267139949 2.16284369072321 0 1.49242646151081 2.05442802010519 0 1.58696969361197 2.10095324336986 0 1.49242646151081 2.05442802010519 0 1.6004312140001 1.9809323568532 0 1.58696969361197 2.10095324336986 0 1.49834267139949 2.16284369072321 0 1.58696969361197 2.10095324336986 0 1.59207788895471 2.20183950859051 0 1.40790874069308 1.91879341016811 0 1.43507550364244 1.83616752147972 0 1.48955724366176 1.93816456585628 0 1.48955724366176 1.93816456585628 0 1.38034216562507 1.98825579553081 0 1.40790874069308 1.91879341016811 0 1.38034216562507 1.98825579553081 0 1.48955724366176 1.93816456585628 0 1.49242646151081 2.05442802010519 0 1.49242646151081 2.05442802010519 0 1.48955724366176 1.93816456585628 0 1.6004312140001 1.9809323568532 0 1.57261295036813 1.9100082995687 0 1.6004312140001 1.9809323568532 0 1.48955724366176 1.93816456585628 0 1.64012728615195 1.88566469220142 0 1.6004312140001 1.9809323568532 0 1.57261295036813 1.9100082995687 0 1.64012728615195 1.88566469220142 0 1.71545826269664 1.94923408555443 0 1.6004312140001 1.9809323568532 0 1.75847668558765 1.84386730319972 0 1.71545826269664 1.94923408555443 0 1.64012728615195 1.88566469220142 0 1.68297248250566 2.04851059362832 0 1.6004312140001 1.9809323568532 0 1.71545826269664 1.94923408555443 0 1.68297248250566 2.04851059362832 0 1.58696969361197 2.10095324336986 0 1.6004312140001 1.9809323568532 0 1.65642778870522 2.1359620481195 0 1.59207788895471 2.20183950859051 0 1.58696969361197 2.10095324336986 0 1.68767253382462 2.20640895690611 0 1.65642778870522 2.1359620481195 0 1.75050082980341 2.10891168053787 0 1.68767253382462 2.20640895690611 0 1.59207788895471 2.20183950859051 0 1.65642778870522 2.1359620481195 0 1.65642778870522 2.1359620481195 0 1.68297248250566 2.04851059362832 0 1.75050082980341 2.10891168053787 0 1.68297248250566 2.04851059362832 0 1.65642778870522 2.1359620481195 0 1.58696969361197 2.10095324336986 0 1.79400183614779 2.0030950877864 0 1.75050082980341 2.10891168053787 0 1.68297248250566 2.04851059362832 0 1.79796629701502 2.20828136864072 0 1.68767253382462 2.20640895690611 0 1.75050082980341 2.10891168053787 0 1.79796629701502 2.20828136864072 0 1.75050082980341 2.10891168053787 0 1.87843277513132 2.09076500210372 0 1.9116631841757 2.18768981383729 0 1.79796629701502 2.20828136864072 0 1.87843277513132 2.09076500210372 0 1.75050082980341 2.10891168053787 0 1.79400183614779 2.0030950877864 0 1.87843277513132 2.09076500210372 0 1.79400183614779 2.0030950877864 0 1.81263221306452 1.92720897829156 0 1.89493489321982 1.97559113421455 0 1.79400183614779 2.0030950877864 0 1.89493489321982 1.97559113421455 0 1.87843277513132 2.09076500210372 0 1.81263221306452 1.92720897829156 0 1.75847668558765 1.84386730319972 0 1.89587064921605 1.87024409608125 0 1.89587064921605 1.87024409608125 0 1.89493489321982 1.97559113421455 0 1.81263221306452 1.92720897829156 0 1.71545826269664 1.94923408555443 0 1.75847668558765 1.84386730319972 0 1.81263221306452 1.92720897829156 0 1.79400183614779 2.0030950877864 0 1.71545826269664 1.94923408555443 0 1.81263221306452 1.92720897829156 0 1.71545826269664 1.94923408555443 0 1.79400183614779 2.0030950877864 0 1.68297248250566 2.04851059362832 0 1.72503432016303 2.37151799012051 0 1.78627228624566 2.30160034532817 0 1.83473725530052 2.36546076037345 0 1.83473725530052 2.36546076037345 0 1.80876480007818 2.43732806432541 0 1.72503432016303 2.37151799012051 0 1.80876480007818 2.43732806432541 0 1.72188391324008 2.49674558087338 0 1.72503432016303 2.37151799012051 0 1.72188391324008 2.49674558087338 0 1.80876480007818 2.43732806432541 0 1.8303684200152 2.5219987530903 0 1.8303684200152 2.5219987530903 0 1.80876480007818 2.43732806432541 0 1.90731824286334 2.44302135468682 0 1.83473725530052 2.36546076037345 0 1.90731824286334 2.44302135468682 0 1.80876480007818 2.43732806432541 0 1.8900698114938 2.28750462447683 0 1.83473725530052 2.36546076037345 0 1.78627228624566 2.30160034532817 0 1.78627228624566 2.30160034532817 0 1.79796629701502 2.20828136864072 0 1.8900698114938 2.28750462447683 0 1.79796629701502 2.20828136864072 0 1.9116631841757 2.18768981383729 0 1.8900698114938 2.28750462447683 0 1.68767253382462 2.20640895690611 0 1.79796629701502 2.20828136864072 0 1.71602833875098 2.27856635228819 0 1.71602833875098 2.27856635228819 0 1.79796629701502 2.20828136864072 0 1.78627228624566 2.30160034532817 0 1.72503432016303 2.37151799012051 0 1.71602833875098 2.27856635228819 0 1.78627228624566 2.30160034532817 0 1.71602833875098 2.27856635228819 0 1.72503432016303 2.37151799012051 0 1.61723202498443 2.31152821380892 0 1.71602833875098 2.27856635228819 0 1.61723202498443 2.31152821380892 0 1.68767253382462 2.20640895690611 0 1.61723202498443 2.31152821380892 0 1.50838086917587 2.27025799045762 0 1.59207788895471 2.20183950859051 0 1.68767253382462 2.20640895690611 0 1.61723202498443 2.31152821380892 0 1.59207788895471 2.20183950859051 0 1.61609166169173 2.42839361146384 0 1.52068466209185 2.37807940269308 0 1.61723202498443 2.31152821380892 0 1.72503432016303 2.37151799012051 0 1.61609166169173 2.42839361146384 0 1.61723202498443 2.31152821380892 0 1.61254537909286 2.54158818386359 0 1.61609166169173 2.42839361146384 0 1.72188391324008 2.49674558087338 0 1.72188391324008 2.49674558087338 0 1.61609166169173 2.42839361146384 0 1.72503432016303 2.37151799012051 0 1.53475422193428 2.46227866216389 0 1.61609166169173 2.42839361146384 0 1.61254537909286 2.54158818386359 0 1.61609166169173 2.42839361146384 0 1.53475422193428 2.46227866216389 0 1.52068466209185 2.37807940269308 0 1.53475422193428 2.46227866216389 0 1.42849147792494 2.46979910395125 0 1.52068466209185 2.37807940269308 0 1.42277345888684 2.35077768525003 0 1.52068466209185 2.37807940269308 0 1.42849147792494 2.46979910395125 0 1.49834267139949 2.16284369072321 0 1.59207788895471 2.20183950859051 0 1.50838086917587 2.27025799045762 0 1.61723202498443 2.31152821380892 0 1.52068466209185 2.37807940269308 0 1.50838086917587 2.27025799045762 0 1.50838086917587 2.27025799045762 0 1.42277345888684 2.35077768525003 0 1.41227254758132 2.23149922678942 0 1.52068466209185 2.37807940269308 0 1.42277345888684 2.35077768525003 0 1.50838086917587 2.27025799045762 0 1.50838086917587 2.27025799
[...]
<PointData Scalars="conc_conc," Vectors="" Tensors="">
<DataArray type="Float64" Name="conc_conc" format="ascii">
0.000556257668407927 0.000587211420403575 0.000685237758319945 0.000688992343252674 0.000640751787363189 0.00055171182180669 0.000778939773933557 0.00069734375757942 0.000578191344268725 0.000583873233415081 0.000614887616826341 0.000771788057831203 0.00075662682726322 0.000785608371146518 0.000606975580366352 0.000854970278588992 0.0007640519713049 0.000640703857151089 0.000863312143311254 0.000660760000789563 0.000846417549933634 0.000852413113671479 0.00117514110248993 0.00087070125189347 0.000847006642208723 0.000646260240921016 0.000670719641907586 0.000750482750711841 0.000620975017774311 0.000653008642287174 0.000682101687451042 0.000862189892959217 0.000887674239521297 0.000890631137164727 0.000852032191121643 0.000679888104258353 0.000895930697027974 0.00117743776492752 0.000850748860156288 0.000838479487606826 0.000670347503128567 0.000692139703333728 0.000307251890552125 0.000372171106140428 0.000480041193325939 0.000484619943949405 0.000582512528613974 0.000336531083604112 0.000660170618458277 0.000464771602165301 0.000587489481816713 0.000334326415641699 0.00058397592091122 0.000463706695493841 0.000798837445904159 0.000974793813423844 0.000664190444523454 0.000586351611973821 0.000798188056689682 0.000663363503772423 0.000659817414031545 0.000978900164903503 0.000738836268760568 0.000728882777248766 0.000403873596536211 0.000663710236655393 0.00066089930398661 0.00040633848433612 0.000463367707772373 0.000959290762518908 0.000512875599145634 0.000735880842529948 0.000514650301077167 0.00040173378508912 0.000728743695028838 0.000509003962964972 0.000962193866938336 0.000687072728232532 0.000740674935557492 0.00097978559306967 0.000984775001991587 0.000986446572705845 0.000966184362827345 0.000735886941987798 0.000489158004111252 0.000687599597692441 0.000857599378334387 0.000969000731933839 0.00116334395267074 0.000688766068183731 0.000867262376441833 0.000680678272740772 0.00116823969246045 0.000868724313131322 0.00117458763944358 0.00137461544751147 0.00117379868262962 0.0016042310795259 0.00138949636732578 0.00159441844504032 0.00118710914338711 0.00140657523192456 0.00140967514762893 0.00117904313785709 0.000966337720821408 0.00160290181657867 0.00140832510663272 0.00161170939887044 0.00142483526490166 0.00140394648541923 0.00160056606518864 0.00161515459334919 0.00160011495609561 0.00179312139544238 0.00098582011733361 0.000975777947850855 0.00122747098901576 0.0012338927503894 0.000976020034728404 0.000982451250510685 0.000979073746922817 0.00123428736474683 0.00140216454961551 0.00141420517634471 0.00123265293278192 0.00141594748989677 0.00128270689717367 0.00140902721435154 0.00123744079873242 0.00122875600878237 0.00140112628300288 0.00128892259063997 0.00122068138581425 0.00118249829373427 0.00140490764067835 0.000954520574142837 0.00117277549934702 0.0012305100046631 0.00138946657935086 0.00141024851625791 0.00117911025387052 0.00140091982128941 0.00160184882540906 0.00139511930799031 0.00159152739681936 0.00179008480966607 0.00160253841090932 0.00162867229414355 0.0015920528390179 0.00126800332463393 0.00163941931834032 0.00180180709491565 0.00158111469351727 0.00158694921162581 0.001382747915704 0.00127325723584893 0.00139128548844404 0.00158627177843153 0.00161133898034693 0.00100304755847693 0.00126417135227084 0.00138800232937401 0.00120554505625513 0.0016296573357969 0.00125850604145568 0.00118691888240675 0.00126083340119252 0.000792957577471732 0.000755198933485776 0.00117512106811215 0.000798215591650322 0.00125623286378847 0.00100281745524638 0.000799101017232316 0.000994860547915301 0.000880602244605895 0.000690311504326859 0.000994570281356861 0.00068850523688926 0.000798472313328253 0.000876444914957583 0.000946622973931342 0.000636721922643209 0.000639000723593175 0.00069519615625318 0.000873272748569328 0.00116722322985933 0.000947632993163516 0.000881112777766627 0.00100337128165184 0.00117123814279137 0.000877971194933101 0.00117062068210857 0.00100770062209743 0.00138390599813427 0.00177975429563655 0.00135883148556068 0.00118316350932236 0.00117956911105965 0.00140677194977842 0.00178463794542285 0.00141019835726117 0.00203392433473124 0.00178710467035061 0.00204078206182717 0.00139679573719336 0.00136439687389236 0.00135125344396792 0.00139692029266205 0.000883762174783691 0.00118619187311526 0.000889322911892942 0.00139610509365134 0.000864597172436062 0.00118075779840018 0.001354047369854 0.00135265409511203 0.00119747079634286 0.000869652564369829 0.00118143702559687 0.000748697586643708 0.000872451595783692 0.00163449115371974 0.00120281902469871 0.00164956527969986 0.00165287830696917 0.00119352558505987 0.00136202531260324 0.00178220631981952 0.0016566000414853 0.00136360247073398 0.00165092682511907 0.00180171033107993 0.0020253810149267 0.00165411379839604 0.00201584928059002 0.00162627216611712 0.00202431624762096 0.00185082708803911 0.00178576480911785 0.00164176947533368 0.00200744211296794 0.00180350980737767 0.00229720739271275 0.00212500625187216 0.00201518399181044 0.00181169326622831 0.00229408588323981 0.00201763842027271 0.00260898637018298 0.00229962868791425 0.00208719819345331 0.00206894560833686 0.00231392449131673 0.00178471319505209 0.00234817070711251 0.002298371827887 0.0026126597989809 0.00231314981681784 0.00233990194519019 0.00210526360182981 0.00234396111369917 0.00189643044435181 0.00209634869980219 0.00162077708256048 0.00210730374281556 0.00187959386253627 0.00160302881003644 0.00180313854486739 0.00183427453753192 0.00203952141843349 0.00210589209050809 0.00183853446487515 0.00183674545925162 0.00162456844236659 0.00138371214553502 0.00209530753502536 0.00163569795986564 0.00182945775421698 0.00182559894776574 0.00139819011917746 0.0015987362809725 0.00103928357014824 0.00086014227146382 0.00137994451382438 0.0016092711321048 0.00103964107021233 0.00138527455505899 0.00103083297702819 0.000669793835560306 0.000671388231837045 0.00086556884938453 0.00103070153717819 0.000673253137956862 0.000485104884910303 0.000859718624639797 0.000673106341662036 0.0018552081114251 0.00107509624679936 0.00115923879908998 0.00102984238299185 0.00161508092385577 0.00117045309849671 0.00162347276256243 0.0018518923882566 0.00116986792543065 0.000611683919518924 0.000665132095357194 0.00115045828021413 0.000666174776597208 0.00103776413324778 0.00115330707620121 0.00106346964604981 0.000606340391375024 0.00115909194199831 0.000613508417006146 0.00105359903066389 0.000530090512662454 0.000527735041335913 0.000276615417505556 0.00060765187406061 0.000607117145967782 0.000307134652547404 0.000662008212321878 0.000315905519614609 0.000599570174579029 0.000282718187088837 0.00015167049743724 0.000170126793650086 0.00030751651131765 0.000146951481213932 0.000313371781935351 0.000283430744050053 0.000136981722318067 0.00015496770322353 0.000277603353671939 0.000248780511964843 0.0001318753362368 0.000283940759313564 0.000152824512335761 0.000139344961264706 0.000109350229077765 0.000135945027938967 0.000105564623647432 0.000115128100525683 0.000147005701171469 0.000113717872547403 0.00012041309900349 0.000167317613002746 0.000152186543644377 0.000112901407840826 0.000112914696643962 0.000183917049882586 0.000200871553115472 0.000120195203624258 0.000114098156551206 0.000178650203751947 0.000109863928543615 0.000168486403929856 0.00018470139221428 0.000116162496761587 0.000104580747574948 0.000164011723504647 0.000122569177242062 0.000118195553879987 0.000193682906708785 0.000160602824883529 0.000118001961038049 0.000122824971475456 0.000112384909278931 0.000192333618086325 0.000166718309794298 0.000165687527336063 0.000198474405722911 0.000370051028020458 0.000375874405107439 0.000313809444672925 0.000160222285206152 0.000313367759803538 0.000384238974136783 0.000654823928919155 0.00066272494302321 0.000378036996244848 0.000672199196953283 0.000481944583804849 0.000379320732572078 0.000184629249330259 0.000668205014203408 0.000382488522276186 0.000491393277206548 0.000188641284456301 0.000350493498080093 0.000480365422379721 0.000343597192293609 0.000518332461826445 0.000676707633982547 0.000678755941324449 0.000489340643316374 0.000339797188623142 0.000340044434698779 0.000194831411294648 0.00016107054729252 0.000408925808512452 0.000509304497240304 0.000263166699278403 0.000510718182965569 0.000346352914190228 0.000260418481851116 0.000261538149829246 0.000167261856047562 0.000147838175089466 0.000161776277796824 0.00026849657510825 0.000340492471397989 0.000262863405032847 0.0001477533990669 0.00019101929679824 0.000183739836892336 0.000400464407686945 0.000266436588381122 0.000146256441120694 0.000124563679574977 0.00018263139872708 0.000149876855410192 0.00016575694178516 0.000126129545226371 0.000137446820679827 0.000128896887455038 0.000156371048700119 0.000126257817201386 0.000191210302449764 0.000168860738303817 0.000210033847702122 0.000124987905398518 0.000164951541283643 0.000138413127891246 0.000157025025955229 0.000135892885033345 0.000184565660751905 0.000117334361243374 0.000122174384544671 0.000168977688876813 0.00018954491183777 0.000117841211746159 0.00016204204973702 0.000123401314393004 0.000128437022977551 0.000128241823369588 0.000123716330784215 0.000187707704536939 0.000121938433919697 0.000117607070228927 0.000221113880614862 0.000118128087701165 0.000225812890310622 0.000194906767830311 0.000186781720110609 0.000232013382777765 0.00039358780952576 0.00055073646073437 0.000403752514942205 0.000226473613026745 0.000218483323348341 0.000166756419211577 0.00030348905460971 0.000166615247148291 0.000193147507631254 0.00030242454338917 0.000301628771936519 0.000400058033831404 0.000570342713996224 0.000393683091416345 0.00030933512532097 0.000187902513918357 0.000307400528914887 0.000449543545057326 0.000211763144856899 0.000304744323019669 0.000568555403616943 0.000457564522653045 0.000786544038561358 0.000451104120049792 0.000574254785323425 0.000759244810759758 0.0010254202285204 0.000569450212695569 0.000792461211068291 0.000573515734387737 0.0010221119344238 0.000793438685653322 0.00102823327286821 0.00103839169358901 0.00094231347180493 0.000759023685950991 0.000560541568255523 0.000748727718638128 0.000577255945735837 0.000398130996939378 0.000393907182625456 0.000559835523942186 0.000751328541360107 0.000762161088386218 0.0012345133445077 0.00103015730565436 0.00124029294438466 0.000753321050602966 0.000952131975151276 0.000759664400262725 0.0011283239392484 0.000949975489558934 0.00146049152097017 0.00094557739423416 0.00113723662850507 0.000758964330284685 0.000945086749450509 0.000555904956666052 0.000561355581521908 0.000450933296992515 0.000754205941288067 0.000757083649499195 0.000765482307482709 0.00112924914357023 0.000758411076283 0.000446498177834534 0.000757533919099616 0.00126826307109947 0.00113558624017899 0.000762591028812322 0.00128582824212914 0.00170813415506388 0.00112789775563225 0.00127441503410264 0.00120380606092903 0.00187674516869505 0.00127544334882799 0.000707128986602178 0.00119025353491276 0.000631559759118431 0.00118170207809738 0.000711914418993429 0.00126689059440782 0.000759817130377023 0.000712032424072425 0.000349291381529889 0.000698720620222074 0.000381023941131888 0.000757588148455934 0.000373199387996212 0.000706130564481269 0.00070698788073837 0.000343197408358045 0.000627688401366007 0.000343507534144272 0.000186535121340938 0.000167497326520399 0.000350287478652826 0.000162276708495261 0.000313064342634383 0.000372628479700364 0.000203282149318458 0.000184006787699357 0.00034921812429214 0.000378961494557757 0.000179028828568755 0.000199866512726169 0.000229350943748879 0.000112528108071884 0.000437558614179088 0.00023491338409245 0.000199643843947022 0.000221954371177837 0.000446828022115204 0.000552857503661778 0.000193920152845607 0.000378962287691927 0.000443962830380175 0.00075011389710391 0.000451653025268754 0.00037952439650814 0.000368026374877136 0.000306481248852327 0.000179824703119015 0.00017698881159428 0.000124544871790584 0.000112440919912904 0.000129795860421639 0.000116758207810865 0.000125725635109306 0.000159308452544629 0.000114372623129783 0.000130274668840907 0.000159310522307659 0.00013216713207038 0.000122541400363303 0.000160092419090191 0.000120986841609602 0.000138587636622479 0.000143666567731589 0.000125845278321682 0.000190159099671041 0.00012975237471581 0.000125336545457784 0.000125740895431231 0.000185814798883092 0.000126373330903732 0.000123691589988092 0.000188996764824903 0.000120650102569868 0.000184176573564323 0.000192036893342695 0.000184059910705892 0.000304195840126122 0.000337902635690067 0.000305794940953905 0.000481005931268424 0.0001893790705333 0.000307728528654266 0.000333144065726319 0.000190656213382464 0.00019152411880883 0.000123668440056022 0.000190876117812737 0.000330808612167974 0.000191996246596369 0.00019574542746998 0.000261273830431748 0.000139852395124994 0.000334162213642236 0.000266211112438119 0.000190177775598224 0.000339053355456468 0.000459278274711679 0.000266506504873228 0.000460798679610268 0.000404260845478953 0.000264549523340817 0.000270173040517099 0.000398712160976701 0.000186126661261935 0.000138970184776331 0.000261470506791354 0.000188409419400569 0.000183161717053184 0.00012456966885172 0.000148345644719568 0.000134676323406444 0.000130417987655117 0.000141522343456514 0.000143456527695778 0.000126166897191622 0.000208998996338543 0.000128775231663623 0.000135607217105886 0.000140135557715919 0.000214983728852242 0.000271276460471591 0.00013344146850604 0.000269315854748074 0.000167992281816771 0.000136178451672133 0.000277706132484065 0.000483267199591092 0.000366398609834586 0.000276019035582423 0.000452001876203936 0.000483780736001543 0.000215094661324265 0.000446357281662305 0.000280772820799246 0.000484525731812958 0.000456228739414194 0.00071072747639178 0.000796411982292558 0.00102192497110717 0.000710651439570449 0.000714345642445211 0.000453948967874095 0.000786314602704854 0.000618985181157602 0.000486589144295398 0.000709467312037531 0.000713609059021838 0.000839452775916072 0.000617780423882606 0.00036342196059727 0.000486485673955327 0.000615758683067529 0.000614220865192049 0.000508541025104195 0.000365695067276734 0.000727627179495746 0.000506887600208811 0.00061921254357992 0.000727848482501667 0.000621412920126027 0.000836859389537824 0.000365283833147487 0.000502980293521575 0.000285618336906935 0.00050158890846121 0.000391375116715117 0.00028740586263302 0.000358593415855611 0.000291673609626168 0.000158523415093761 0.000275724668198823 0.000357895589882306 0.000158210145455535 0.000129380105787245 0.000162846088914259 0.000161608915636051 0.000162790076327112 0.000286287106851496 0.000161339992196975 0.000241975611712315 0.000289069242345865 0.000387415878120399 0.000161176880595751 0.000286901025682414 0.000244804592196016 0.000904294026212533 0.000824629189989546 0.000780812858382816 0.000828374315936947 0.000904170937478562 0.000821035197095512 0.000901480651902409 0.000771615394911531 0.000816917285032883 0.000896801870127391 0.000767044018532582 0.000903999948769212 0.000899027052715578 0.00102754206640007 0.000902944408001138 0.00103043368874234 0.00104694592909279 0.000901883525509528 0.00090631604828908 0.000906565674279875 0.00102264214122581 0.000814905643918554 0.00090810284177068 0.000904134861960687 0.000905973105504 0.000906077962965317 0.000778945414264907 0.000731046347194971 0.00090463412191619 0.000775651800892195 0.000727459496905646 0.000841800990241994 0.000908540451149544 0.00101772404019036 0.000905426246434024 0.000846453056053351 0.00102040974852266 0.00103317058700019 0.000908128280442274 0.00102774637367777 0.000899091912820634 0.000911858543909275 0.000715273880344563 0.00101732141115106 0.000839534908831147 0.000842885520709811 0.00102057588886858 0.00102040905096741 0.00101325700102534 0.00103017669109966 0.00118521410623507 0.00118782918948365 0.00103066243922443 0.00125899707190653 0.00128645550439924 0.00121405758936923 0.00118053603586548 0.00118229318441143 0.001055330237793 0.00101940029343374 0.00102731653434936 0.00102431725196451 0.00117694441923608 0.00104911932194919 0.0011902000276261 0.0012069725326958 0.000933499654076787 0.00104461219653137 0.00120135646589606 0.000831959029889395 0.00089509479948594 0.00104300297188864 0.00104685759298102 0.000928118273061365 0.000828448514405526 0.000831108978885938 0.000915558741200404 0.000660361571430873 0.000611783086767098 0.000659274033075438 0.000913468550408848 0.000654500855920445 0.000611957770653502 0.000525002163503855 0.00053158847875758 0.000604773288108179 0.000500108607162955 0.000528069193331731 0.000470755118128616 0.000510036184703637 0.000505521048339102 0.000474847222859872 0.000525854374919801 0.000651367350841834 0.000527428794376017 0.000512461975814557 0.000507951409037159 0.000661170152979865 0.000656801068078627 0.000474457828773406 0.00044272958939662 0.000504457811852962 0.000828170406781817 0.000662115990989683 0.000662574496217729 0.000896640923469136 0.000829378332827338 0.000664011272530896 0.000668212373994338 0.000765232731928543 0.000893398408211255 0.00188463259929074 0.00214958082157548 0.0020315302839377 0.00187889588764017 0.00180756821476405 0.00164630265498244 0.00178947027677307 0.00189566522072512 0.0020171413776618 0.00159702182359525 0.00200687944920291 0.00161485264654222 0.00180698598764455 0.00199942675083034 0.00161174949746391 0.00201636361072312 0.00175426882924961 0.00161150843389146 0.0020103069639174 0.00228322845933572 0.00176298245590625 0.00203008837940486 0.0022897795982443 0.00259683705719276 0.00214563552531914 0.00243902820099641 0.0023106355845749 0.00260749149593875 0.00228928553921151 0.00245709502384854 0.00200756130642903 0.00216654811305826 0.00229167940170627 0.0021510308115721 0.001915020605958 0.00243490046227316 0.00128662417875643 0.00187464207461123 0.00171488714995489 0.00190162733902023 0.00215999419639181 0.00170722519750479 0.00146379943526606 0.00113900470791239 0.00170034093073931 0.00146317142530683 0.00171245954015675 0.00188312274381698 0.00187467040681099 0.00172324264894325 0.0021454836940352 0.00164133966471086 0.00147749623765401 0.00187175895483643 0.00145427937034766 0.00124466592567312 0.000954910979322851 0.00146792306832674 0.00164852422200659 0.00124492766157584 0.00102870980255789 0.0012492657683191 0.00145028872965161 0.00161754948443147 0.00144749144243212 0.00164526511492098 0.0014453803392325 0.0012582890502957 0.00163835429741979 0.00103391397435941 0.00103831747859523 0.00126814651828694 0.00103628230388831 0.00102205877518858 0.000798746346196387 0.00126173110749047 0.00101790239608204 0.00103702330987899 0.0014421903507991 0.00126806613361415 0.0010418710066474 0.00141638980305134 0.001267057165188 0.00145247955442056 0.00129074288823874 0.00140076333280853 0.00120678066352218 0.00127234974580189 0.00140913216139343 0.00128486432343915 0.00128590960717994 0.00117456209913022 0.0012678308074908 0.00115310458072469 0.00140957666030861 0.00136686016221944 0.0014043193055177 0.00115617679198618 0.00119832946043789 0.00179788952874619 0.00160523609081679 0.00165773163658934 0.00160649095264099 0.00140390196637495 0.00146324493913712 0.00161576059688784 0.00156815389007888 0.0013682783165582 0.00139580562249184 0.00160650107925405 0.00137791521748681 0.00156293569804306 0.00180499423274337 0.00160980563288677 0.00160785858799478 0.00179390869264754 0.00157314635772051 0.00122378518220976 0.00159933451950856 0.00116184622407942 0.00123209556583322 0.00157304473169202 0.00159916224213284 0.00136439417668484 0.0012287052721349 0.000968872611937775 0.0012372687269741 0.00136057766639761 0.00156821311281256 0.000762761702545672 0.000969893846181624 0.0012202650994351 0.000756845841627735 0.00122455028684099 0.00114437037798955 0.001206542819948 0.00114710573144164 0.000926078564294894 0.00084978331579572 0.0009207