<?xml version="1.0"?>
<VTKFile type="UnstructuredGrid" version="0.1" byte_order="LittleEndian">
<UnstructuredGrid>
<Piece NumberOfPoints="2148" NumberOfCells="716">
<Points>
<DataArray type="Float64" NumberOfComponents="3" format="ascii">
0 0.306122448979592 0 0 0.204081632653061 0 0.0963260944161509 0.273811510294367 0 2 0.102040816326328 0 2 0.204081632652656 0 1.91682606565592 0.163831378038849 0 0.335916026949355 0.661311993908121 0 0.365259589174468 0.75455484928981 0 0.236384173514931 0.729687493468818 0 1.7645878445382 0.551245651813427 0 1.66746359377432 0.561113176075504 0 1.68921100147206 0.452901491607104 0 0.420597075781915 0.595854369448944 0 0.335916026949355 0.661311993908121 0 0.314543409362701 0.549165380872091 0 0.973199829033225 0.570447143159581 0 0.871573099219186 0.599958933542136 0 0.902596400990451 0.482080093638731 0 1.17215537934514 0.671242575712059 0 1.07273920199841 0.741352938388404 0 1.05816995778224 0.632556428378151 0 0.769460470770621 0.273053164279476 0 0.863886156728703 0.241766334456221 0 0.867663912118382 0.362911290179403 0 0.746681771051909 0.387926434817699 0 0.769460470770621 0.273053164279476 0 0.867663912118382 0.362911290179403 0 0.420597075781915 0.595854369448944 0 0.314543409362701 0.549165380872091 0 0.406811536593169 0.484911194529197 0 1.17215537934514 0.671242575712059 0 1.05816995778224 0.632556428378151 0 1.16755621223674 0.544461386369183 0 0.614047778589085 0.387795898525738 0 0.587686537066514 0.464126045476426 0 0.498523341233396 0.389076937637219 0 1.05397680442352 0.511178337991362 0 1.05816995778224 0.632556428378151 0 0.973199829033225 0.570447143159581 0 0.714663424640052 0.204088718950095 0 0.769460470770621 0.273053164279476 0 0.672697639570897 0.28766618318192 0 0.581885168833657 0.302392759021642 0 0.672697639570897 0.28766618318192 0 0.614047778589085 0.387795898525738 0 0.420915352533358 0.074985042685528 0 0.315789473683452 0 0 0.421052631577937 0 0 1.7996967683109 0.384946776894333 0 1.68921100147206 0.452901491607104 0 1.68635617343798 0.324978289824945 0 1.68635617343798 0.324978289824945 0 1.68921100147206 0.452901491607104 0 1.58772819813486 0.385639264923741 0 0.235802928303382 0.611564357809131 0 0.335916026949355 0.661311993908121 0 0.236384173514931 0.729687493468818 0 0.19230207234368 0.422678825965969 0 0.298455345785692 0.447563908098048 0 0.222058877190937 0.510857644422808 0 0.736842105261599 0 0 0.842105263156177 0 0 0.813403882401762 0.0822309285457336 0 0.813403882401762 0.0822309285457336 0 0.699940620167892 0.10672435545698 0 0.736842105261599 0 0 0.869902069792691 0.140741363100657 0 0.863886156728703 0.241766334456221 0 0.78314504829354 0.17010051937666 0 0.714663424640052 0.204088718950095 0 0.699940620167892 0.10672435545698 0 0.78314504829354 0.17010051937666 0 0.714663424640052 0.204088718950095 0 0.672697639570897 0.28766618318192 0 0.611102057161856 0.196335598991703 0 0.335916026949355 0.661311993908121 0 0.420597075781915 0.595854369448944 0 0.434091974643088 0.682028344269046 0 0.335916026949355 0.661311993908121 0 0.434091974643088 0.682028344269046 0 0.365259589174468 0.75455484928981 0 1.66746359377432 0.561113176075504 0 1.7645878445382 0.551245651813427 0 1.74129687257472 0.644896004810703 0 1.66746359377432 0.561113176075504 0 1.74129687257472 0.644896004810703 0 1.64048997128055 0.668584523059047 0 0.235802928303382 0.611564357809131 0 0.222058877190937 0.510857644422808 0 0.314543409362701 0.549165380872091 0 0.335916026949355 0.661311993908121 0 0.235802928303382 0.611564357809131 0 0.314543409362701 0.549165380872091 0 1.58374734721708 0.489924248801578 0 1.58772819813486 0.385639264923741 0 1.68921100147206 0.452901491607104 0 1.66746359377432 0.561113176075504 0 1.58374734721708 0.489924248801578 0 1.68921100147206 0.452901491607104 0 0.863886156728703 0.241766334456221 0 0.869902069792691 0.140741363100657 0 0.953893262172477 0.166226831044512 0 0.587686537066514 0.464126045476426 0 0.614047778589085 0.387795898525738 0 0.682728929220303 0.47640034990436 0 0.793779443273457 0.505858952283911 0 0.902596400990451 0.482080093638731 0 0.871573099219186 0.599958933542136 0 0.682728929220303 0.47640034990436 0 0.614047778589085 0.387795898525738 0 0.746681771051909 0.387926434817699 0 0.682728929220303 0.47640034990436 0 0.746681771051909 0.387926434817699 0 0.793779443273457 0.505858952283911 0 0.769460470770621 0.273053164279476 0 0.714663424640052 0.204088718950095 0 0.78314504829354 0.17010051937666 0 0.769460470770621 0.273053164279476 0 0.78314504829354 0.17010051937666 0 0.863886156728703 0.241766334456221 0 0.19230207234368 0.422678825965969 0 0.170994783200652 0.334188745583958 0 0.28395937666824 0.336326657262323 0 0.19230207234368 0.422678825965969 0 0.28395937666824 0.336326657262323 0 0.298455345785692 0.447563908098048 0 0.581885168833657 0.302392759021642 0 0.614047778589085 0.387795898525738 0 0.498523341233396 0.389076937637219 0 0.500986724861322 0.250629842679194 0 0.581885168833657 0.302392759021642 0 0.498523341233396 0.389076937637219 0 1.05397680442352 0.511178337991362 0 1.141915868145 0.419781161550079 0 1.16755621223674 0.544461386369183 0 1.05816995778224 0.632556428378151 0 1.05397680442352 0.511178337991362 0 1.16755621223674 0.544461386369183 0 0.746681771051909 0.387926434817699 0 0.614047778589085 0.387795898525738 0 0.672697639570897 0.28766618318192 0 0.746681771051909 0.387926434817699 0 0.672697639570897 0.28766618318192 0 0.769460470770621 0.273053164279476 0 0.581885168833657 0.302392759021642 0 0.611102057161856 0.196335598991703 0 0.672697639570897 0.28766618318192 0 0.813403882401762 0.0822309285457336 0 0.869902069792691 0.140741363100657 0 0.78314504829354 0.17010051937666 0 0.813403882401762 0.0822309285457336 0 0.78314504829354 0.17010051937666 0 0.699940620167892 0.10672435545698 0 0.298455345785692 0.447563908098048 0 0.314543409362701 0.549165380872091 0 0.222058877190937 0.510857644422808 0 0.298455345785692 0.447563908098048 0 0.406811536593169 0.484911194529197 0 0.314543409362701 0.549165380872091 0 0.399803174487431 0.298440986856889 0 0.500986724861322 0.250629842679194 0 0.498523341233396 0.389076937637219 0 0 0.612244897959184 0 0 0.510204081632653 0 0.0636610927580281 0.559357934802157 0 2 0.510204081631641 0 2 0.612244897957969 0 1.88658850762887 0.550707857746562 0 1.94357452952373 0.758317595771228 0 2 0.714285714284297 0 2 0.816326530610625 0 0 0.816326530612245 0 0 0.714285714285714 0 0.110872549238551 0.753262340488874 0 0.631578947367022 0 0 0.736842105261599 0 0 0.699940620167892 0.10672435545698 0 0.611102057161856 0.196335598991703 0 0.699940620167892 0.10672435545698 0 0.714663424640052 0.204088718950095 0 0.105847738327952 0.150895293579407 0 0 0.204081632653061 0 0 0.102040816326531 0 0.0963260944161509 0.273811510294367 0 0 0.204081632653061 0 0.105847738327952 0.150895293579407 0 1.57894736841994 0 0 1.68421052631495 0 0 1.62495633134115 0.11872224752482 0 0.705895984353585 1.61122736129375 0 0.744065732793583 1.51169636364954 0 0.812348259702115 1.57774470582158 0 1.21561951766934 1.59194274290609 0 1.26460526607657 1.51251090122814 0 1.29922055650034 1.61780880568869 0 0.295350406939813 1.24878144427625 0 0.229706463221249 1.33823661400341 0 0.181863964367382 1.24890101842418 0 0.476404993143535 1.5275702791906 0 0.457031005009506 1.59627900052224 0 0.375841004922363 1.51668918134099 0 0.375841004922363 1.51668918134099 0 0.420944906731814 1.43929479484589 0 0.476404993143535 1.5275702791906 0 1.60114515576042 1.54443982870896 0 1.53318726575275 1.63322776708946 0 1.52359785028639 1.52757027918918 0 1.52359785028639 1.52757027918918 0 1.5771276053984 1.43142266012625 0 1.60114515576042 1.54443982870896 0 0.729836484144921 1.23236288424327 0 0.754371061972205 1.1438943646951 0 0.856429814884933 1.22094204632537 0 0.611014342578546 0.951968805613212 0 0.584422029155493 0.850865842495068 0 0.694671268182995 0.861804013605246 0 1.76398716255172 1.09754654802401 0 1.63508210317771 1.08461854393982 0 1.7048256954395 0.988948105378847 0 1.65209158108323 0.896295710779286 0 1.75987072913532 0.906694523256574 0 1.7048256954395 0.988948105378847 0 1.43600810953489 0.141255362919961 0 1.339082773418 0.226637907634606 0 1.35597190592473 0.0854652352735259 0 1.81622554596725 0.98532035675162 0 1.75987072913532 0.906694523256574 0 1.85303987256907 0.903730618401353 0 1.91490405761161 0.962785555309079 0 2 0.918367346936953 0 2 1.02040816326328 0 1.35597190592473 0.0854652352735259 0 1.339082773418 0.226637907634606 0 1.28015545428402 0.134253489113443 0 1.09131257763053 0.901819008479382 0 1.10381806911098 1.02673397416154 0 1.00374734117194 0.979124450324178 0 1.71142933611989 0.831631113528545 0 1.75987072913532 0.906694523256574 0 1.65209158108323 0.896295710779286 0 1.65209158108323 0.896295710779286 0 1.63366587099814 0.790222226508128 0 1.71142933611989 0.831631113528545 0 0.989422216948731 0.874911369871656 0 1.09131257763053 0.901819008479382 0 1.00374734117194 0.979124450324178 0 1.55777816744817 0.869231846744498 0 1.63366587099814 0.790222226508128 0 1.65209158108323 0.896295710779286 0 1.27584256296759 0.319951127291717 0 1.339082773418 0.226637907634606 0 1.35590977906976 0.336653253360248 0 1.12982447656133 0.800928218495745 0 1.23835111652904 0.784057456925547 0 1.19670960640353 0.868101575186357 0 1.62495633134115 0.11872224752482 0 1.68421052631495 0 0 1.74986152426765 0.0993571405544282 0 1.47368421052496 0 0 1.57894736841994 0 0 1.52726988652229 0.0935208475014348 0 1.52726988652229 0.0935208475014348 0 1.57894736841994 0 0 1.62495633134115 0.11872224752482 0 0.322030541746038 0.113556493866926 0 0.315789473683452 0 0 0.420915352533358 0.074985042685528 0 1.85303987256907 0.903730618401353 0 1.75987072913532 0.906694523256574 0 1.79979755245363 0.82511438199244 0 0.979535213804843 0.798043954551922 0 1.07273920199841 0.741352938388404 0 1.05139131088788 0.813433322551643 0 1.12982447656133 0.800928218495745 0 1.09131257763053 
[...]
<PointData Scalars="conc_conc," Vectors="" Tensors="">
<DataArray type="Float64" Name="conc_conc" format="ascii">
2.27571195130399e-05 2.02993172652042e-05 2.30031224971574e-05 1.90911361154665e-05 2.14579136079121e-05 2.11352182749836e-05 5.03067154754659e-05 5.82174576360096e-05 4.91689408679224e-05 4.04794343338938e-05 4.50121322233564e-05 3.84856725119957e-05 4.80073522815289e-05 5.03544881740528e-05 4.27615915184288e-05 1.20819325095308e-05 1.6380399137851e-05 1.34018928561098e-05 1.95302211062087e-05 1.49380470675837e-05 1.29863051419236e-05 1.65759501609638e-05 1.16545636752654e-05 1.3148463259801e-05 2.0321283876024e-05 1.67219046881327e-05 1.30897379693908e-05 4.77873102972159e-05 4.29614228596971e-05 4.11506615191091e-05 1.96005314679568e-05 1.29359901347046e-05 1.7143300487446e-05 2.96002041297276e-05 3.43565228293366e-05 3.52334290678871e-05 1.18405873873073e-05 1.32000332165207e-05 1.21251176091285e-05 1.81740866761307e-05 1.66638200659731e-05 2.25110912070363e-05 2.80526516244298e-05 2.26642246797055e-05 2.94271809583659e-05 2.36443101402118e-05 2.12871413825319e-05 2.2023969347323e-05 3.14722605378211e-05 3.83678384430356e-05 3.27623256770595e-05 3.26725376657671e-05 3.8601469630415e-05 3.66686322936855e-05 4.1933980060387e-05 5.03747093606689e-05 4.89589093235554e-05 3.12001737530796e-05 3.68296529485695e-05 3.62593534227984e-05 1.3411900995477e-05 9.73176518029369e-06 1.14800908945401e-05 1.15628930699403e-05 1.65838936837832e-05 1.33994506306434e-05 1.0324553875743e-05 1.17316193833308e-05 1.40591329319988e-05 1.8142755896293e-05 1.67759082465965e-05 1.41525890701695e-05 1.81880272753937e-05 2.26115110172313e-05 2.32060871106785e-05 5.0663156521712e-05 4.77323235616529e-05 5.35906808154903e-05 5.05573709549258e-05 5.3743825771547e-05 5.81854214049794e-05 4.51451213969472e-05 4.03962605182874e-05 4.68092546204463e-05 4.49880131315612e-05 4.70106051489117e-05 5.27235883415679e-05 4.19850348875543e-05 3.62634599356035e-05 4.26745220210619e-05 5.01857744889742e-05 4.21150411323395e-05 4.26297180299609e-05 4.19754146084328e-05 3.65387974641994e-05 3.88095250074766e-05 4.50978076612279e-05 4.21479877420253e-05 3.86338854303811e-05 1.16249045838952e-05 1.0391307454129e-05 8.61686143702553e-06 3.43142671596885e-05 2.95247734962873e-05 2.80224062441541e-05 1.98228641964873e-05 1.31325936510982e-05 1.66060179315187e-05 2.78635800974474e-05 2.95871686505355e-05 2.05795463594386e-05 2.77691788310455e-05 2.05290961814245e-05 2.00921142786569e-05 1.66404213674739e-05 1.81417844005609e-05 1.41146371865288e-05 1.65431188206013e-05 1.41720259058047e-05 1.16942674128475e-05 3.121173687821e-05 2.72047260419703e-05 3.14495057133592e-05 3.13039002708213e-05 3.1444242643895e-05 3.67087597386068e-05 2.79239349931022e-05 2.9607122417623e-05 3.5120696097451e-05 2.91121059628105e-05 2.8099617880081e-05 3.49299816870749e-05 1.17191344963723e-05 1.3788992588271e-05 1.68245003825598e-05 1.31597989680074e-05 1.1708788703653e-05 1.6794580389908e-05 2.0704758147065e-05 2.942223039357e-05 2.25782437086271e-05 2.05777003917734e-05 2.25734150367822e-05 1.66064827207021e-05 2.7963611808309e-05 2.31334293024346e-05 2.27407687767917e-05 1.16169902885057e-05 1.0355098396712e-05 1.40488391790292e-05 1.1523747441308e-05 1.41460438458486e-05 1.66927170575484e-05 3.68073190233935e-05 4.25520996668494e-05 3.63832744611041e-05 3.68871534242249e-05 4.13643131030713e-05 4.27296422161398e-05 3.2255197756539e-05 2.90911189967257e-05 3.50517735621747e-05 3.20395680920564e-05 2.86484493978029e-05 3.10791840615338e-05 3.00909580814578e-05 3.36520061658729e-05 3.38035854815843e-05 4.06670067939778e-05 3.78535111102353e-05 4.24041868386606e-05 3.96061284768948e-05 3.55508556882122e-05 4.03209614045154e-05 1.74941677902141e-05 1.34693063859204e-05 1.65779368536149e-05 2.31093940764329e-05 1.6714023920472e-05 1.82179042232123e-05 2.01324401140028e-05 2.02679765807039e-05 1.80848168954924e-05 2.30538008294914e-05 2.02133522411816e-05 2.0241846227823e-05 2.22366329178292e-05 2.18212545223539e-05 2.52402671759694e-05 0.000102569034621163 7.81635436337116e-05 5.82092523157707e-05 6.35069635244039e-05 7.55615713044124e-05 0.000100073088221136 0.000104249139602762 0.000103144031345618 8.31716534254939e-05 0.000166838009103384 0.000185147551215559 0.000164906153301285 0.000164812996417905 0.00014896808952543 0.000166655114459331 0.000175877245412561 0.000194050071394775 0.000166343364175397 0.000166535433223661 0.000149932977192791 0.000175298995780717 5.92739017879962e-05 4.89355040008887e-05 3.22620088694753e-05 6.15634390513205e-05 5.74802435121158e-05 4.36245876204405e-05 8.11144271902882e-05 9.28232985998402e-05 7.60073790042065e-05 7.11988213386861e-05 6.39489114938503e-05 7.63774441196667e-05 2.30761678773289e-05 2.10329688945535e-05 1.81906958077356e-05 6.36629415406992e-05 6.35810208063981e-05 5.4107414360924e-05 5.21930640513294e-05 4.71173317805538e-05 5.24765168968967e-05 1.82309835363405e-05 2.08986361575826e-05 1.5828243015922e-05 1.83703993207523e-05 2.0965715649604e-05 1.63611461068304e-05 6.14921542667674e-05 6.39695755804151e-05 7.10779170331977e-05 7.0816535873977e-05 6.22732061180752e-05 6.18082853889054e-05 1.53432872445942e-05 1.79049380949317e-05 1.66335117718986e-05 6.95877576333488e-05 6.20352653015501e-05 7.10520998881287e-05 1.96089254810626e-05 2.09555692521036e-05 2.50165992578398e-05 1.89969979183503e-05 2.92628654223958e-05 2.70342510234755e-05 2.55483832121607e-05 2.14903471288698e-05 2.32227039810292e-05 2.05875030582854e-05 2.22362830076898e-05 2.37635943164092e-05 2.40136863447317e-05 2.19252037462696e-05 2.55457594941949e-05 2.43394725735423e-05 2.10863530675672e-05 2.38940117617099e-05 5.42234138314475e-05 6.34266461701627e-05 5.38782819618803e-05 1.45767994136265e-05 1.48979661455468e-05 1.54235784958414e-05 1.90940232658496e-05 1.82216861063939e-05 1.52955321187506e-05 1.53840838642919e-05 1.50877444796938e-05 1.90297938915757e-05 2.09423304752013e-05 1.95259348782971e-05 1.50782251292237e-05 1.51386765506796e-05 1.58047281068998e-05 2.08546306254465e-05 4.10723679233989e-05 4.21531281761938e-05 4.86768108411306e-05 4.86731290810235e-05 4.18724774211211e-05 4.53743359028351e-05 4.20166960953553e-05 4.85652682098988e-05 4.02940989339798e-05 4.02113736791504e-05 4.86054410316588e-05 4.06674419883496e-05 2.08462334041122e-05 1.70818171600569e-05 1.35506544758369e-05 0.000165786493687099 0.000150239155166913 0.000145808653321668 0.000141574075995624 0.000151152490196691 0.000165780870232856 1.3864793336393e-05 1.35643471658883e-05 1.0152174758249e-05 3.06281382614627e-05 3.63978978083077e-05 3.21459446683763e-05 3.20069402952043e-05 2.73832281108537e-05 3.0719873016572e-05 5.26188045250268e-05 5.73372339713993e-05 6.29161664827817e-05 4.2289291873934e-05 4.70619670628375e-05 4.59447330758845e-05 2.06810739899737e-05 1.73546270113782e-05 1.68137279909145e-05 2.06879872479914e-05 2.32861156636796e-05 2.46366682527304e-05 1.68157471681047e-05 2.30914882079091e-05 2.07992255917565e-05 7.15986339286722e-05 6.31299837589292e-05 0.000100383728132936 7.07161230400309e-05 0.000124894954896803 0.000100516435591233 0.00010120529707031 0.000124451052130012 7.13266584823991e-05 2.15036238325499e-05 1.47952645356494e-05 1.98504407411659e-05 2.16914632828279e-05 2.91985728670162e-05 1.90972004049126e-05 1.91541751945831e-05 1.47884253115482e-05 2.14773698085172e-05 2.51685250986246e-05 3.13473961012549e-05 2.72369631064344e-05 0.000103943455133879 8.33739560136113e-05 8.56867510491779e-05 1.00497154512564e-05 1.04047593453865e-05 1.33323998429201e-05 1.33641695708071e-05 1.18498633533829e-05 1.00039458319543e-05 3.48705659909438e-05 3.63151173704656e-05 4.18213690095525e-05 3.12297205286822e-05 3.61206968711555e-05 2.98088493301322e-05 1.98351293368437e-05 2.49077492189427e-05 3.00757091932175e-05 5.29351912732254e-05 4.68596952362845e-05 5.44372321327784e-05 5.87787858218318e-05 5.29423550836314e-05 6.27842763082891e-05 1.95300873713334e-05 2.50913684751473e-05 2.42074182325022e-05 3.37795785809384e-05 3.77946409054213e-05 3.75508643030055e-05 3.77344081226738e-05 3.77015500878206e-05 4.07082620575928e-05 3.15062702774386e-05 2.51276342249879e-05 3.02916822839699e-05 0.000145531548015803 0.000150118344514496 0.000132853536276941 6.91504212715426e-05 6.01503080615546e-05 5.73673257195498e-05 6.91095756922183e-05 5.75538342792337e-05 6.2506922230087e-05 1.51469675451759e-05 1.94039423934693e-05 1.4020623569926e-05 2.97502624209918e-05 3.61770988131345e-05 3.48830677097937e-05 3.1134179227141e-05 2.98616398814273e-05 3.48060654025697e-05 1.01924223138678e-05 1.09924320138315e-05 1.38247456000495e-05 4.62352104549278e-05 4.68961315490727e-05 5.23260237038106e-05 5.40278917914776e-05 4.62160358301287e-05 5.24943612886915e-05 2.07024051611128e-05 1.75474853907129e-05 2.05319993704375e-05 2.04708086306433e-05 2.07402387129027e-05 2.45021126289315e-05 8.08450616442948e-05 7.05972832705388e-05 7.70168215863353e-05 8.0936711291794e-05 7.71021079806597e-05 9.24196144056178e-05 8.32261187180181e-05 8.20498911638221e-05 7.05170660449012e-05 8.29237801952259e-05 7.07396459377689e-05 6.96527935805967e-05 0.000118659218007548 0.000114541878542513 0.000133375030964133 6.3346602524225e-05 5.42307538705232e-05 5.23481118717158e-05 6.16999771631385e-05 5.39677675373964e-05 6.36127282679072e-05 6.38479512533204e-05 8.0208518729166e-05 7.64640578611447e-05 6.35450931838309e-05 6.39514315040381e-05 7.62788173405144e-05 3.47568264656975e-05 4.19305848865304e-05 4.0233147502536e-05 2.16150833679687e-05 1.9784153527262e-05 3.00671582455817e-05 2.15885295527533e-05 3.0205275266873e-05 2.9340360215201e-05 3.87399195467595e-05 3.76806022747996e-05 2.70333692663002e-05 2.94418419391876e-05 3.85832757350818e-05 2.71633148898141e-05 1.54751049962957e-05 1.4706496596541e-05 1.53591890189592e-05 1.52996432748377e-05 1.55677436830652e-05 1.79830110885847e-05 2.50705432956993e-05 3.14692819261639e-05 2.43145585056088e-05 2.28697971172603e-05 2.57754182453406e-05 1.89565562439823e-05 3.49870390580155e-05 2.62905644361471e-05 2.24369808945889e-05 2.10901511571127e-05 2.30978738693925e-05 2.66566410379538e-05 2.67667100211456e-05 2.30072462494613e-05 2.75060579856019e-05 2.7450192829434e-05 3.19121625182486e-05 2.6870980564185e-05 1.28937237059997e-05 1.11006964345532e-05 9.32445912814543e-06 1.80113767937137e-05 1.29343976765427e-05 1.71465144704101e-05 1.2816078004779e-05 1.81398615618485e-05 1.57960428822794e-05 1.28901239671954e-05 1.56994028043316e-05 1.11758758461762e-05 3.60720021680107e-05 3.19192140386209e-05 3.659872475332e-05 3.65781355985574e-05 4.19602437812327e-05 3.61595830757877e-05 3.03746112024663e-05 3.20434711654392e-05 3.59674116138678e-05 6.16124267689871e-05 4.32773657489691e-05 4.33124862669357e-05 0.000146213113771152 0.000175042066911359 0.000151235682277917 0.00016611431225965 0.000176404146996002 0.000144167733682671 8.95248666861909e-05 9.97494024838842e-05 0.000114908688282403 5.24368293711896e-05 5.83445226917615e-05 5.96454750871598e-05 5.22185980524627e-05 5.98451279701621e-05 5.25676793023945e-05 6.38090829520965e-05 6.02157055118319e-05 7.96989235249495e-05 6.34292581743616e-05 5.2246468853364e-05 6.03051046713879e-05 7.40359765811875e-05 6.71014152875424e-05 7.73896789574401e-05 0.000102933582311237 0.00010246177893067 7.81690257571214e-05 7.85177185472978e-05 8.31317076717137e-05 0.000102591393473989 7.9493676471315e-05 7.18079500369079e-05 7.93005218419477e-05 8.93393800142824e-05 8.0187004505685e-05 7.88113386680855e-05 2.74161213920692e-05 2.31604586309828e-05 2.41033555329217e-05 2.40363151338343e-05 2.57234074695876e-05 2.75084789049757e-05 4.06351064752831e-05 4.90179157230858e-05 4.69355712206637e-05 4.88635749078047e-05 4.5217872251709e-05 5.27237599919755e-05 3.28171857567707e-05 3.64622356622414e-05 3.05143729950826e-05 3.14007646672281e-05 3.27498228691043e-05 2.74091448094631e-05 5.27877522915643e-05 6.21990550371968e-05 5.78674058853551e-05 5.75295181690777e-05 4.85554255779467e-05 5.29805543088298e-05 5.73000545852095e-05 4.7107345821198e-05 4.89353443793392e-05 5.44121130023983e-05 6.16744202140818e-05 6.23782654747522e-05 6.20897026355288e-05 5.27362767712275e-05 5.46876401825555e-05 5.97122418121115e-05 7.10288194530764e-05 5.44750228134536e-05 3.87017221179498e-05 5.36646007126877e-05 3.7939146243017e-05 7.12482628443298e-05 8.02916922433427e-05 6.95068999104537e-05 6.9044755127023e-05 8.04023399888688e-05 7.19117353124843e-05 7.13384454389294e-05 5.98749694911406e-05 6.9531597437237e-05 3.59011658095776e-05 4.22021726987349e-05 4.09086593806759e-05 3.16961655242802e-05 3.01913683827925e-05 3.6116168008331e-05 0.000102967643429268 0.000114180344954366 0.000118963237039863 0.000114742351071914 0.000116151688871569 0.000144494076816834 2.95844085597035e-05 2.15140336635883e-05 2.95845668483185e-05 1.884686348052e-05 2.93563866141687e-05 2.16411237459718e-05 2.47116909206594e-05 1.98999465724137e-05 1.69951932035528e-05 1.81419948223478e-05 1.92840432934224e-05 2.68154888576798e-05 5.04557546025375e-05 3.78009135584864e-05 5.39261968950694e-05 5.38160848967058e-05 6.852858445812e-05 5.08009458066588e-05 7.13817807856284e-05 6.87427685966112e-05 5.40529855665168e-05 1.86100294180271e-05 1.48046501770041e-05 1.54095516344517e-05 0.000117882692720137 0.000134042980560959 0.000113096178225451 0.000144649468414846 0.000134238672831765 0.00011815014798545 4.06326950908066e-05 4.49765627491898e-05 3.78844725712522e-05 3.40166232066524e-05 3.35503724066168e-05 3.77020306505414e-05 0.000150033029681228 0.00016383566107898 0.000141655500770117 2.67586844001416e-05 2.51277961983609e-05 2.09302975806168e-05 3.02232734883894e-05 2.52270348969095e-05 2.67353056924335e-05 2.6690865024478e-05 3.20643353268924e-05 3.03053372665109e-05 5.89559715578455e-05 4.89955500852514e-05 5.84038813523736e-05 5.93129875096735e-05 5.80442469032028e-05 6.80551891667068e-05 6.98938948852256e-05 5.91502406234768e-05 6.83446998691806e-05 0.000151232552420209 0.000166239796647737 0.000193947165412289 0.000185187968432549 0.000166063673192898 0.000158393820634573 3.11365428167172e-05 2.85251199555176e-05 2.97358555629154e-05 2.31460371090854e-05 2.51825120007967e-05 2.71682938197793e-05 2.31723581343322e-05 2.02263581398311e-05 2.50701230994492e-05 2.0709824653041e-05 2.36512758334074e-05 2.20237499717044e-05 2.45725930997486e-05 2.39076970680029e-05 2.04934347345303e-05 0.000166118145038789 0.000150853901032441 0.000140426532983843 0.000144735548289506 0.000157922643693073 0.000166026615120453 5.37750223521081e-05 4.60912378413988e-05 5.41179074690839e-05 4.07959627740313e-05 4.22588876756797e-05 4.60211751931451e-05 4.05306593376656e-05 4.621913900729e-05 4.51351186337143e-05 5.36414275005619e-05 4.53380691838112e-05 4.62069689386952e-05 3.05448861693117e-05 2.75837797469623e-05 2.56499589734022e-05 2.29033228136678e-05 2.17484858592116e-05 1.99917584582999e-05 8.9121727863563e-05 7.9071533458578e-05 8.71192980396058e-05 9.92766435130902e-05 8.98831956220768e-05 8.65096191228374e-05 0.000157055678517279 0.000145477051471765 0.000124024100795467 0.000124072512948843 0.000145083555836084 0.000116794652316133 0.000188511529017671 0.000185609315503931 0.00015797302537187 0.000150069591308126 0.00019483551469265 0.000182559086425832 0.000183097621153529 0.000194397469426027 0.000216494867143834 7.08494082231187e-05 8.02301072786442e-05 8.81669413943701e-05 6.37611240294838e-05 5.85135290454469e-05 6.52699201957337e-05 6.01239412684392e-05 5.81148223321637e-05 6.39414660048273e-05 6.49399283422715e-05 7.08555736985629e-05 6.40918988323564e-05 7.76349585816808e-05 0.000103690502731166 0.000115844000284317 0.000157329066392644 0.000123356703688591 0.000116559462120961 0.000111836568135296 0.000100588315710475 7.52322935061651e-05 4.9457368519765e-05 4.43941002231515e-05 4.97171556335589e-05 0.000150172982359953 0.000103758750567804 0.00012992444343444 0.000150900668259282 0.000188199987873292 0.000157324205742611 0.00012563414194941 0.000100566062603955 0.000144611880845886 0.00014969750135916 0.000182281723329375 0.000145033128638557 0.000103775074549372 9.91846349961009e-05 8.64690704846616e-05 2.5991905364463e-05 3.1071133325202e-05 2.98163751375575e-05 7.58627846574649e-05 7.0927834003851e-05 8.81506772546949e-05 2.89631047911293e-05 2.27712753764479e-05 2.12446627407449e-05 3.50344760696591e-05 2.2453378902208e-05 2.9282750685375e-05 3.58342040479846e-05 4.03847744779151e-05 3.55224629744161e-05 4.00936363192909e-05 4.06219694237839e-05 3.56436118118445e-05 0.000102641070470006 8.9701625810576e-05 7.59612663866893e-05 4.13830082171034e-05 4.37522941649545e-05 5.71626251989076e-05 5.70202964732102e-05 5.2944648247418e-05 4.16939089744748e-05 0.000129226348595376 0.000103947829759047 0.000103802472273243 3.68357065786193e-05 5.25827308482732e-05 7.42258472823565e-05 7.47287716934891e-05 6.32940621638012e-05 3.62305466006842e-05 3.5479028524322e-05 2.88684510474489e-05 4.43920825292281e-05 7.02683998485444e-05 8.56409666729254e-05 8.30279905978162e-05 8.64133727534325e-05 0.000102879968924722 0.000115830038900832 3.09465243939643e-05 5.15597449645368e-05 3.22287223999609e-05 4.05878430895538e-05 4.87317454524193e-05 4.99264810776867e-05 5.89638923240147e-05 5.90356621567691e-05 5.00210183921698e-05 5.00960727522207e-05 4.87206525925884e-05 5.88041161868685e-05 8.21609825370935e-05 8.56365480606627e-05 7.10384009012935e-05 0.00012647531882766 0.000115512597256879 9.96019326485164e-05 2.08467790100324e-05 1.35759956251834e-05 1.78185428063854e-05 1.39451914646329e-05 1.94853277031231e-05 1.77662032756983e-05 1.77302254889628e-05 1.36643040297618e-05 1.40010083558595e-05 1.91712951258531e-05 2.56101729128391e-05 2.1654813275731e-05 3.32339692993884e-05 2.90847966661777e-05 2.0932149622331e-05 4.31040972321229e-05 2.96547484299057e-05 2.85643475191324e-05 2.8302854122636e-05 2.95263843087812e-05 1.86634748509336e-05 6.84460523683613e-05 6.29545290780462e-05 7.03422733974129e-05 2.55754449151511e-05 1.7037158875705e-05 2.10881977126821e-05 2.47588510411102e-05 1.69373605091527e-05 2.56271379388203e-05 4.07562027757132e-05 4.0294419094299e-05 3.40480124314158e-05 4.66996873803591e-05 4.03354057521853e-05 4.08403572377174e-05 0.000173653095378415 0.000182376991736598 0.000216987696911688 0.000217798632897634 0.000217122160966431 0.000173060635620515 1.36851787796428e-05 1.88619660779556e-05 2.12258523021201e-05 1.48286997019537e-05 1.86175043752658e-05 1.4109107595346e-05 2.12799109076355e-05 1.81176281287559e-05 2.61998672578459e-05 2.63040291444206e-05 1.79467365911896e-05 2.70102641830233e-05 2.65291569919729e-05 3.31514676829361e-05 2.10781133022145e-05 3.19658747725123e-05 3.2277377840203e-05 2.23565470803052e-05 2.28962038004341e-05 2.07627534678158e-05 3.14897176196007e-05 5.35165521693359e-05 4.7887727717902e-05 4.89080383849323e-05 1.95486738597344e-05 1.63412780759629e-05 2.08476125924294e-05 1.55621954642606e-05 1.6582749992506e-05 1.9278788589128e-05 1.8153381885301e-05 2.23555100571127e-05 1.94344015822168e-05 1.9689745447811e-05 2.19453816893736e-05 1.80636575949051e-05 8.61883767435016e-05 8.18727872212821e-05 9.75900069080666e-05 0.000102938639149633 0.000102992164105511 0.000130981645825463 0.000114580612881445 8.85675963776099e-05 9.76976061878407e-05 9.73020810485062e-05 8.87802813608234e-05 8.00615005415464e-05 9.76263240100995e-05 0.000115534413775644 0.000114977829123616 8.87777421164724e-06 1.08280832053054e-05 1.02311234886028e-05 8.413247711835e-05 6.89311767845136e-05 8.55294557401238e-05 8.5148830365225e-05 6.92154220225468e-05 7.1024297593141e-05 2.21548032498046e-05 1.99485620549355e-05 2.12648500393647e-05 2.12309599886309e-05 2.21199955485495e-05 2.1154195060488e-05 7.177466637989e-05 9.94869476445327e-05 5.76699412403506e-05 9.72037415259047e-05 8.22171561040365e-05 8.30866493784743e-05 2.86619381877155e-05 5.07767618639e-05 2.85245783609383e-05 0.00013139897893344 0.000103487976171063 0.00012995451726242 0.00014120037365471 0.000132257554