<?xml version="1.0"?>
<VTKFile type="UnstructuredGrid" version="0.1" byte_order="LittleEndian">
<UnstructuredGrid>
<Piece NumberOfPoints="2148" NumberOfCells="716">
<Points>
<DataArray type="Float64" NumberOfComponents="3" format="ascii">
0.633132849526405 3.34964916703868 0 0.734703527341189 3.34035699351431 0 0.714754888194296 3.42210389434834 0 0.633132849526405 3.34964916703868 0 0.714754888194296 3.42210389434834 0 0.622628749631717 3.45471960615845 0 0.819342232445977 3.38228396728686 0 0.785091255056639 3.49034264581094 0 0.714754888194296 3.42210389434834 0 0.714754888194296 3.42210389434834 0 0.734703527341189 3.34035699351431 0 0.819342232445977 3.38228396728686 0 0.885791492218095 3.30995762619863 0 0.819342232445977 3.38228396728686 0 0.807121323954102 3.26344228328316 0 0.819342232445977 3.38228396728686 0 0.734703527341189 3.34035699351431 0 0.807121323954102 3.26344228328316 0 0.899522646441396 3.47271479165558 0 0.819342232445977 3.38228396728686 0 0.921072085702129 3.37576071258942 0 1.00024685946745 3.29947316182676 0 0.921072085702129 3.37576071258942 0 0.885791492218095 3.30995762619863 0 0.921072085702129 3.37576071258942 0 0.819342232445977 3.38228396728686 0 0.885791492218095 3.30995762619863 0 0.885791492218095 3.30995762619863 0 0.807121323954102 3.26344228328316 0 0.909407150138764 3.22689411286806 0 0.885791492218095 3.30995762619863 0 0.909407150138764 3.22689411286806 0 1.00024685946745 3.29947316182676 0 1.19305194516464 3.26353802457581 0 1.18141089206936 3.38272384021274 0 1.11468676279584 3.31017344344597 0 1.11468676279584 3.31017344344597 0 1.18141089206936 3.38272384021274 0 1.07987441903817 3.37609166095687 0 1.19305194516464 3.26353802457581 0 1.26523174067488 3.34031727794078 0 1.18141089206936 3.38272384021274 0 1.28522162567389 3.42221814028258 0 1.21648376469023 3.49150677809714 0 1.18141089206936 3.38272384021274 0 1.18141089206936 3.38272384021274 0 1.26523174067488 3.34031727794078 0 1.28522162567389 3.42221814028258 0 1.07987441903817 3.37609166095687 0 1.18141089206936 3.38272384021274 0 1.10257038292044 3.4737138433196 0 1.10257038292044 3.4737138433196 0 1.00045719793773 3.41437401597926 0 1.07987441903817 3.37609166095687 0 1.07987441903817 3.37609166095687 0 1.00045719793773 3.41437401597926 0 1.00024685946745 3.29947316182676 0 1.11468676279584 3.31017344344597 0 1.07987441903817 3.37609166095687 0 1.00024685946745 3.29947316182676 0 1.00024685946745 3.29947316182676 0 1.00045719793773 3.41437401597926 0 0.921072085702129 3.37576071258942 0 0.921072085702129 3.37576071258942 0 1.00045719793773 3.41437401597926 0 0.899522646441396 3.47271479165558 0 1.00045719793773 3.41437401597926 0 0.999894114927612 3.51187556736582 0 0.899522646441396 3.47271479165558 0 0.941945039995894 3.56529748276352 0 0.999894114927612 3.51187556736582 0 1.00977723389631 3.6119166489954 0 0.899522646441396 3.47271479165558 0 0.999894114927612 3.51187556736582 0 0.941945039995894 3.56529748276352 0 1.0624994976017 3.5671178200175 0 0.999894114927612 3.51187556736582 0 1.10257038292044 3.4737138433196 0 1.00977723389631 3.6119166489954 0 0.999894114927612 3.51187556736582 0 1.0624994976017 3.5671178200175 0 1.10257038292044 3.4737138433196 0 0.999894114927612 3.51187556736582 0 1.00045719793773 3.41437401597926 0 1.21648376469023 3.49150677809714 0 1.1530050919725 3.573500709746 0 1.10257038292044 3.4737138433196 0 1.10257038292044 3.4737138433196 0 1.18141089206936 3.38272384021274 0 1.21648376469023 3.49150677809714 0 1.26294086129724 3.5830426180127 0 1.1530050919725 3.573500709746 0 1.21648376469023 3.49150677809714 0 1.1530050919725 3.573500709746 0 1.0624994976017 3.5671178200175 0 1.10257038292044 3.4737138433196 0 1.0624994976017 3.5671178200175 0 1.1530050919725 3.573500709746 0 1.09984598440204 3.65790062435156 0 1.1530050919725 3.573500709746 0 1.18488355491498 3.66691014368949 0 1.09984598440204 3.65790062435156 0 1.28303165064977 3.67911668065157 0 1.18488355491498 3.66691014368949 0 1.26294086129724 3.5830426180127 0 1.1530050919725 3.573500709746 0 1.26294086129724 3.5830426180127 0 1.18488355491498 3.66691014368949 0 1.12994987121014 3.78274750650766 0 1.18488355491498 3.66691014368949 0 1.2221172012644 3.73830704764342 0 1.28303165064977 3.67911668065157 0 1.2221172012644 3.73830704764342 0 1.18488355491498 3.66691014368949 0 1.18488355491498 3.66691014368949 0 1.12994987121014 3.78274750650766 0 1.09984598440204 3.65790062435156 0 1.02061058891815 3.71462277363012 0 1.09984598440204 3.65790062435156 0 1.12994987121014 3.78274750650766 0 1.02061058891815 3.71462277363012 0 1.00977723389631 3.6119166489954 0 1.09984598440204 3.65790062435156 0 1.00977723389631 3.6119166489954 0 1.0624994976017 3.5671178200175 0 1.09984598440204 3.65790062435156 0 0.926022219379733 3.65955351794696 0 1.00977723389631 3.6119166489954 0 1.02061058891815 3.71462277363012 0 0.926022219379733 3.65955351794696 0 0.941945039995894 3.56529748276352 0 1.00977723389631 3.6119166489954 0 0.926022219379733 3.65955351794696 0 1.02061058891815 3.71462277363012 0 0.949669301830865 3.75317304301513 0 0.926022219379733 3.65955351794696 0 0.949669301830865 3.75317304301513 0 0.870663804607734 3.72087172063954 0 0.926022219379733 3.65955351794696 0 0.870663804607734 3.72087172063954 0 0.818307864017085 3.65354272101767 0 0.818307864017085 3.65354272101767 0 0.870663804607734 3.72087172063954 0 0.796427282496464 3.75786215134963 0 0.818307864017085 3.65354272101767 0 0.739978492916818 3.57988603541632 0 0.853274246641702 3.57041627074742 0 0.926022219379733 3.65955351794696 0 0.818307864017085 3.65354272101767 0 0.853274246641702 3.57041627074742 0 0.926022219379733 3.65955351794696 0 0.853274246641702 3.57041627074742 0 0.941945039995894 3.56529748276352 0 0.899522646441396 3.47271479165558 0 0.941945039995894 3.56529748276352 0 0.853274246641702 3.57041627074742 0 0.785091255056639 3.49034264581094 0 0.819342232445977 3.38228396728686 0 0.899522646441396 3.47271479165558 0 0.899522646441396 3.47271479165558 0 0.853274246641702 3.57041627074742 0 0.785091255056639 3.49034264581094 0 0.785091255056639 3.49034264581094 0 0.853274246641702 3.57041627074742 0 0.739978492916818 3.57988603541632 0 0.739978492916818 3.57988603541632 0 0.704190273850347 3.49755310225555 0 0.785091255056639 3.49034264581094 0 0.785091255056639 3.49034264581094 0 0.704190273850347 3.49755310225555 0 0.714754888194296 3.42210389434834 0 0.704190273850347 3.49755310225555 0 0.622628749631717 3.45471960615845 0 0.714754888194296 3.42210389434834 0 0.641360722408704 3.53120201648524 0 0.622628749631717 3.45471960615845 0 0.704190273850347 3.49755310225555 0 0.641360722408704 3.53120201648524 0 0.739978492916818 3.57988603541632 0 0.63788658166007 3.61700594988489 0 0.739978492916818 3.57988603541632 0 0.641360722408704 3.53120201648524 0 0.704190273850347 3.49755310225555 0 0.739978492916818 3.57988603541632 0 0.722835440863061 3.69151763159982 0 0.63788658166007 3.61700594988489 0 0.739978492916818 3.57988603541632 0 0.818307864017085 3.65354272101767 0 0.722835440863061 3.69151763159982 0 0.796427282496464 3.75786215134963 0 0.722835440863061 3.69151763159982 0 0.818307864017085 3.65354272101767 0 0.700668455068662 3.79400953395823 0 0.722835440863061 3.69151763159982 0 0.796427282496464 3.75786215134963 0 0.722835440863061 3.69151763159982 0 0.625543564376873 3.72298572665107 0 0.63788658166007 3.61700594988489 0 0.625543564376873 3.72298572665107 0 0.722835440863061 3.69151763159982 0 0.700668455068662 3.79400953395823 0 0.625543564376873 3.72298572665107 0 0.529507903369422 3.72940974320478 0 0.566499740675289 3.65478783651362 0 0.539923670668636 3.54287540280753 0 0.63788658166007 3.61700594988489 0 0.566499740675289 3.65478783651362 0 0.566499740675289 3.65478783651362 0 0.63788658166007 3.61700594988489 0 0.625543564376873 3.72298572665107 0 0.539923670668636 3.54287540280753 0 0.566499740675289 3.65478783651362 0 0.472712586497609 3.63757779853199 0 0.42252155128195 3.71599569334352 0 0.472712586497609 3.63757779853199 0 0.529507903369422 3.72940974320478 0 0.566499740675289 3.65478783651362 0 0.529507903369422 3.72940974320478 0 0.472712586497609 3.63757779853199 0 0.335182568700197 3.70560902072145 0 0.42252155128195 3.71599569334352 0 0.356184391827633 3.7988771440165 0 0.42252155128195 3.71599569334352 0 0.335182568700197 3.70560902072145 0 0.354062635553936 3.61172914122892 0 0.335182568700197 3.70560902072145 0 0.274164293287564 3.66925514917995 0 0.354062635553936 3.61172914122892 0 0.472712586497609 3.63757779853199 0 0.354062635553936 3.61172914122892 0 0.431667252078919 3.54337921804584 0 0.354062635553936 3.61172914122892 0 0.472712586497609 3.63757779853199 0 0.42252155128195 3.71599569334352 0 0.365106117910463 3.4992447986014 0 0.354062635553936 3.61172914122892 0 0.286102060941823 3.49892822510028 0 0.431667252078919 3.54337921804584 0 0.354062635553936 3.61172914122892 0 0.365106117910463 3.4992447986014 0 0.340757662552379 3.42114971762547 0 0.433220101812195 3.45203853977455 0 0.365106117910463 3.4992447986014 0 0.286102060941823 3.49892822510028 0 0.340757662552379 3.42114971762547 0 0.365106117910463 3.4992447986014 0 0.539923670668636 3.54287540280753 0 0.431667252078919 3.54337921804584 0 0.433220101812195 3.45203853977455 0 0.433220101812195 3.45203853977455 0 0.431667252078919 3.54337921804584 0 0.365106117910463 3.4992447986014 0 0.433220101812195 3.45203853977455 0 0.514486449895809 3.41034782479467 0 0.539923670668636 3.54287540280753 0 0.431667252078919 3.54337921804584 0 0.539923670668636 3.54287540280753 0 0.472712586497609 3.63757779853199 0 0.539923670668636 3.54287540280753 0 0.641360722408704 3.53120201648524 0 0.63788658166007 3.61700594988489 0 0.514486449895809 3.41034782479467 0 0.622628749631717 3.45471960615845 0 0.539923670668636 3.54287540280753 0 0.641360722408704 3.53120201648524 0 0.539923670668636 3.54287540280753 0 0.622628749631717 3.45471960615845 0 0.633132849526405 3.3496491670
[...]
<PointData Scalars="conc_conc," Vectors="" Tensors="">
<DataArray type="Float64" Name="conc_conc" format="ascii">
0.00696197118534834 0.00291583484719194 0.00342147888492077 0.00706178540664634 0.00339013690498917 0.00743120406943196 0.000922410033703635 0.00135819686303043 0.00332347185438148 0.0033699358859521 0.00298886667000883 0.000880960672924954 0.000357041065456688 0.000999693992024356 0.00135639887709579 0.000943838415554533 0.00293953000298744 0.00138812255999561 0.00011228446410433 0.000961009300847748 0.000110981348351112 -2.08183186168123e-05 0.000141559980743146 0.00036912134424927 0.000118103537460394 0.000968581852901867 0.000407147630984793 0.000379131568596027 0.00130680432829303 0.000279459470912592 0.000378323535904943 0.000316839383696975 -3.15269358731912e-05 0.000907164037082451 0.000627310665785003 0.000183472087289873 0.000225301551545727 0.000604028003122248 3.61535107215641e-05 0.000933178961051265 0.0021497270706605 0.000572672618217231 0.00243441208719924 0.00087030346598506 0.000556267297191679 0.000515748200141517 0.00219285362016029 0.00247807140544373 3.11422220873954e-05 0.000597602495908239 1.91025255927189e-05 4.68964810362377e-05 -9.32643892880675e-06 5.52037899897555e-05 5.02424608614377e-05 -2.23435999929348e-06 1.54481922566777e-05 0.000197135290240082 5.34804378463083e-05 -1.1164536650591e-05 1.45080163437723e-05 -5.07695224095975e-06 0.000137577900306264 0.000142575560404995 -1.40368330877208e-05 0.000144516030016108 -2.60092063364355e-06 -2.78183134204117e-05 0.000139219796367059 1.68601788765044e-05 -1.83619853904859e-05 -2.27080087287169e-05 0.000150422964497561 -3.42239921772009e-05 1.76109348933962e-05 -1.07205711775417e-05 -2.7599459038317e-05 5.39896012201606e-05 -2.07138313300225e-05 -1.93181334734637e-05 -8.91620449325871e-06 4.48308064721439e-05 -2.32172764524156e-05 -2.29110346135396e-06 0.000839545741778051 0.000157439965384153 -2.10920627755916e-06 -3.18128047319023e-05 0.000659157532363029 0.000866324521370412 0.0014716242022317 8.90568223036302e-05 0.000941366442777697 0.000172675177872218 -2.45189900622614e-05 7.01645954767182e-05 -1.91000636709452e-05 0.000161758342838317 -4.46951510736234e-06 0.00018356210265581 0.000265459915455083 -2.43162776577904e-05 0.00177122436715051 0.000158410528410928 0.00155532266779181 0.000104463918895529 0.00144440905152703 0.00023352060497538 -6.2734811905227e-05 0.000275297460851057 0.000509926168836392 0.00174305647798565 0.00047929297094584 0.000197927659801323 0.000252265893321539 -2.48867377596221e-05 -1.23629994054918e-05 -3.04320955188435e-05 1.00943783291306e-06 -6.36165231107314e-06 -2.87917450075384e-05 -2.16323230183352e-05 -2.00450509337051e-06 -2.39897138938046e-05 -6.03467335591289e-06 8.73244505566531e-07 3.13947196679595e-06 -2.04647399101089e-05 -2.92662830327361e-05 5.50476038715591e-06 1.84109370082469e-05 -2.71597072841549e-05 5.27132287745284e-06 -3.05143147229146e-05 -2.06813110626837e-05 1.03476377510124e-05 -3.308436395099e-05 0.00010927903780794 -3.90994160692437e-05 0.000115510089798533 0.000517134273222637 0.000571008147999918 9.44376798555838e-05 0.000651282126541893 0.000509300789770133 0.00211813285628846 0.000249553384150321 -4.31228437562032e-05 0.000526229338560377 0.000349616934864308 -1.42277376418864e-05 0.00032597224698527 7.074527844266e-06 0.000173700527149461 1.28045869127575e-06 0.000338421291223632 0.00134461942587373 0.00103802785708824 5.00387408751488e-05 8.23858270966425e-05 0.00031705051426026 0.00131490415537135 0.00143780524701414 0.000235050967484074 0.00214309743301762 0.00219839702937378 0.0036318581116601 0.00132037455268124 0.00129350817170359 0.00366166326196918 0.00345125300415906 0.00369131437968488 0.00738866644489143 0.00341930984558856 0.00640950478064172 0.00744408152248841 0.00367105601170101 0.00640926116786145 0.00207724134936604 0.00638423549982066 0.00213548819783053 0.00637579840077018 0.00371998830544651 0.00215198817069979 0.00242218896458389 0.006311324703833 0.00225870131235496 0.000431037620606819 0.00243521034795467 0.000602608143396202 0.0023747908673742 0.000500764177386826 0.00288133606775413 0.00251236453410617 0.000495978804891668 0.00231042925922109 0.00685674981793715 0.00647888417872631 0.00680968104340713 0.0023673696548716 0.00289307120981095 0.00696814073896192 0.0128553423440481 0.010605098421249 0.0118638864449445 0.00650519085101396 0.0105818514668762 0.0105621429100145 0.00647027693107973 0.0069582358541089 0.0118024735986037 0.0107024692326724 0.014954585108557 0.0161919410170929 0.0147415146626111 0.0132165183097605 0.01072813168346 0.0129666892596162 0.0149599565736699 0.013480397079377 0.0160675545822814 0.0150234693760675 0.0160731644168052 0.0134366451160891 0.0138129552090127 0.013319513358372 0.00980028752880556 0.0139002598379155 0.015146844978021 0.014266025418873 0.0146593984917521 0.0142030689288532 0.0152315516354142 0.0159917588375567 0.0137236104451273 0.0138870566281403 0.0103117417724375 0.0148444289917141 0.0140282778454217 0.0136601356141025 0.0126563806994408 0.0145696319486182 0.0136726930077336 0.0103456470082323 0.0125083093960266 0.0136855388730429 0.0123091578626908 0.0149094632833439 0.0144000576235775 0.0143882495099803 0.0147914438091536 0.0137614659050129 0.0145170039875401 0.0124592799183956 0.0121350187004629 0.01501156787485 0.0121681209062762 0.014901514441011 0.0118512136610067 0.00639397179693135 0.00649247455699592 0.0125969210091134 0.00758829061330671 0.0118668583844141 0.00641099402464947 0.0118260371322955 0.00748612295089082 0.00706903546209981 0.00756490416392165 0.0125926818274712 0.01258855095005 0.0125907981959156 0.0141120011269713 0.00720733011588556 0.0125270759625631 0.0127005787824796 0.0134836121674364 0.0140053262444808 0.0109971611580016 0.0134616660511315 0.0127628890039413 0.0139725579433817 0.0127558172074449 0.0138497102236292 0.0144650255611447 0.0144067851979851 0.0140304334820755 0.0126663035690032 0.0108121046479453 0.0141150037451096 0.0125910437098656 0.00871171852985845 0.00450373130118643 0.0106185108748654 0.0106045481465711 0.0125487638704089 0.00878211937982474 0.00530822322965574 0.0045202541536417 0.00867613845864792 0.00595561629182145 0.0105674764182909 0.00454298634123914 0.00305696192530122 0.00579812802259971 0.00220023614862377 0.00294676662429355 0.00220271159564197 0.0010960703888212 0.00211987392320334 0.0010293052454116 0.00124444332415755 0.00159574951076923 0.000966031815210268 0.00219914970080217 0.00228118098389018 0.00441737448263795 0.00155897265879164 0.00586297052893037 0.00451173170547707 0.00214285149985151 0.00151835038259098 0.0044509351976017 0.00182659688385499 0.000851253116047432 0.00105034271973985 0.00155568480427946 0.000776480864807659 0.00161234201592701 0.00180241597239181 0.000787859238972839 0.0017733052846523 0.000464377181914542 0.00038919870174754 0.00187521870259841 0.00194452936956912 0.00520452707141538 0.00199065397980897 0.0017744974941099 0.0045785384486167 0.0052324161432104 0.00175902195500347 0.0102518081782195 0.00876931483974541 0.0125844652753996 0.0101672692309118 0.00529359447707642 0.00874195486096419 0.0101849994083617 0.0139314539100128 0.00757121336788925 0.0101665088642231 0.00749366781539332 0.00528196025118293 0.00188215449399988 0.00536504302823202 0.00735309245739926 0.00186540141127108 0.00735007489554316 0.00490851050292552 0.00494555075140896 0.0075146295591335 0.009668376888906 0.00974391267650445 0.00754111753830252 0.0139800208529695 0.00968688802547503 0.00894131247314458 0.00491397833762933 0.0133510944859878 0.00903716313274937 0.00969936461157312 0.004852683608713 0.00386253536005851 0.00109177379908486 0.00495786323878872 0.00889024458900943 0.00384304030756363 0.00117960365801674 0.00209370956413257 0.00478095939343025 0.000129907583268662 0.00196985261434348 0.00122845206959544 0.00186613439118657 0.000194116287578904 0.000471178922688029 0.000111986517383396 0.000303577987906318 0.00114515719591355 0.000853741996675136 4.59974052536094e-05 0.0012234238889476 0.00125513571026144 0.00377409603643128 0.000790423626106841 0.00386161771528929 0.000427245683951289 0.000837486152365395 0.00399885987644841 0.000695436539332158 0.00388458345186915 -3.14786612718736e-05 0.000170838602994414 0.000783110651711502 0.000851717631263598 0.000568387775751708 -7.74135120663339e-05 -0.000126955604512661 2.50920322692187e-05 0.000520658467334013 -0.000162590421030968 0.000571090182135162 0.000380685545610588 -0.000180292677200429 -7.72959502897886e-05 0.000324653545533881 0.000301006175849232 0.000522798877986663 0.00329618788194408 0.0105303333420713 0.00353495845495886 0.00401650576849397 0.00400411184086921 0.00346175798764264 0.000311925207452746 0.0107334387233339 0.0106615133139969 0.00340390939021517 0.00398157461685315 0.0101700003333291 0.0106303641475698 0.00407719852526781 0.00378080287736456 0.00998090695037416 0.0149349569744908 0.0102569553742787 0.00897697358713372 0.00374582162149012 0.00899030192687753 0.0100416879950319 0.0133491583987627 0.0148817685952224 0.00906770904520546 0.0103769139917141 0.0148690560629703 0.0164878681317519 0.0170150185074086 0.0162812841537336 0.0174654514372157 0.0167102002217394 0.0152149181145149 0.0167996135358875 0.0166062054576717 0.0153193276420823 0.0157328411644689 0.0162272657978112 0.0132648584438143 0.0161925532469941 0.0161639660475339 0.0128277029678143 0.00854000937955984 0.00843210829853614 0.0128556817445709 0.00696304101257953 0.00842159672464673 0.00352795228653797 0.0104137412394757 0.0108526751392428 0.0162637328935832 0.00845992380388939 0.0174956327230702 0.0160302492943844 0.0111399379830801 0.0168935236865564 0.0105737085771862 0.00800227277134201 0.00771887286652692 0.0104867530934641 0.00327217674378497 0.0109623526495879 0.016850344857647 0.0176442842640131 0.0172269948636583 0.0172442846992449 0.0184143121113823 0.0180384658406144 0.016672444725854 0.0176544977447119 0.0109879260997539 0.0102114158428093 0.0166166817320221 0.0164979463617179 0.0179992597776036 0.0111336260042091 0.0182805255026398 0.011180263501553 0.0107890539661085 0.01960079801692 0.0112907899698925 0.0182267165697323 0.0198002241596137 0.0101905601656713 0.0108507818393835 0.0102335429977801 0.0198303442602716 0.0146550977627432 0.0165523367317969 0.0229283012398493 0.0208529556508843 0.0202651001889866 0.0182967816595289 0.0174275666179282 0.0166731664283235 0.0163633057307997 0.0209759809960577 0.00795611245504425 0.0155370117995646 0.0169883055300681 0.00364492103478509 0.0152555530158318 0.00783528235149236 0.0153698387207957 0.00349882110963821 0.0119259535364059 0.0126339202699401 0.0233953164464958 0.0152924197029786 0.011500095350661 0.00378270746795057 0.00313103784656075 0.012118227935828 0.0042880179529465 0.019298626186496 0.011628394572068 0.00299872066444494 0.00442080715681039 0.0194436860282437 0.0234875015547821 0.0126719109862542 0.022648398946263 0.0198655120109108 0.0257127322307371 0.0148181192894279 0.0239023849455474 0.0172148314312826 0.0151483333537734 0.0194478462057564 0.0234022707520237 0.0176205275084166 0.0234358083391846 0.0251176624315378 0.00446405967720393 0.0164135314305958 0.00946032520585427 0.00448065849000951 0.0147114492226167 0.0165196877609581 0.00428301430228499 -0.00087276233775234 0.00299096421826263 -0.000772510297435022 0.00412086594368521 -4.23140395951905e-05 0.00238922608520002 0.0141904439451693 0.00460533452559863 0.0102039542685263 0.0142330545047218 0.0023904263979259 0.00988002441666912 0.002092882402193 0.0107976715891846 0.00342379836207365 0.00245281769130335 0.000210205156943033 0.00349602211568028 0.0105064515535263 0.00232678476494439 -0.000328319675441498 0.00252034181114585 0.00280325887874056 0.00273028970293445 0.00222203169549215 0.00975103360067175 0.00227007390533054 -0.000156564716749113 -0.000145307385836736 -0.000121736912860153 0.000439419666587235 0.00228791276549946 -0.000114886323658942 -2.15335627528152e-05 -0.000117253380704756 0.000350993381718756 -1.97664531614751e-05 -0.000192683451326656 -2.50587728555581e-05 -4.88865635242868e-05 -0.000120080673245463 -0.000153471929161145 -8.61466715660546e-05 -6.51245699910013e-05 -8.90613981773934e-05 -9.40815820367716e-05 -6.29635647666046e-05 0.00268426817571459 -0.000536374756669672 -0.000188364626007239 -5.56329687103602e-05 -0.000127282693340484 -8.2311740089895e-06 -1.00917487187965e-05 -0.000130166809812456 -8.72431234987204e-05 -6.91015487439119e-05 1.49479592565684e-05 -1.69403310366912e-05 -1.10870457315191e-05 1.67771847889724e-05 -7.41194531790902e-05 0.000116250745570983 -0.000225548174699378 -0.000142492523049693 -3.91366910804121e-06 -9.07522400632777e-05 -0.000165479538084849 0.000167534385447523 -0.000148348842400474 -0.00014169611437038 0.00881251336105784 -0.0006853303973213 0.00500677661208324 -0.00021709009440158 0.00990811226906281 0.0153848132972325 0.0087748130901942 0.000613472893281414 -0.000769949686328413 0.000718757092144172 -0.000366261641998618 0.000209784836631041 -0.000238196188625275 0.000503024291099048 -0.00044853287401878 -0.000598280904085215 0.000685830937663028 -0.000347195280229757 0.00743126818979843 -0.000473389075585949 0.0154169239252219 0.00692218044720271 -0.000810625986971473 0.00054039729168462 0.00879847367082331 -0.00183539873267262 0.0077021384535333 0.00796286965317057 -0.0038542024260882 -0.00123004423851622 -0.000254838993393314 -0.000574598554931973 -6.16841432715895e-05 2.09865773313849e-05 -0.000209424583114504 -5.95792918910047e-05 -0.000234990511428399 2.61844306476625e-05 -0.00018675051191922 7.90266725407209e-06 -1.7205434807377e-06 -0.000166445091341319 -9.32002016561803e-06 -2.07685014611859e-06 9.56960798050129e-06 8.04149476858397e-06 6.3365510001404e-06 -9.08962395777606e-06 4.95863751650291e-06 5.29660191078592e-07 4.49831368956398e-06 4.05226498269433e-06 1.1489925685212e-06 1.15171518842232e-05 5.87032256459289e-06 -2.87100246698113e-06 2.47435856453017e-06 -5.27457846581739e-06 -4.88484107341098e-05 3.38480366685743e-05 -4.22350206025955e-05 4.40708753740893e-05 2.95103826904157e-05 -5.59743266902922e-06 1.12153612711451e-05 1.56952995816982e-05 -2.01008337110077e-06 5.40332127779748e-06 -1.36563019071375e-06 -2.96963239336638e-07 3.12084914210931e-08 -6.2103351574645e-07 4.19582681410088e-08 -3.57162904459375e-07 8.76501476166294e-12 -1.6737817542484e-08 4.47910505138539e-09 1.23209016734722e-08 -8.93632175953149e-09 7.9231755655773e-09 -1.98831428197316e-08 1.14270927690692e-07 -2.37997701413127e-08 -4.41028637628113e-08 -5.88804335938551e-07 -2.23752086417049e-06 1.08102043644834e-05 1.60251619405256e-07 -2.4536563161916e-08 -5.13760420269094e-07 6.19627965851018e-07 1.06616092718254e-07 1.21262802571469e-05 9.84751973730158e-07 -5.38606170911787e-08 3.91565386744414e-07 3.00816485072769e-08 -6.92388456678482e-08 1.78057509622567e-07 4.97747825252978e-06 3.14877631605728e-07 3.04629888526968e-07 -5.49269602382893e-05 2.56864576946985e-05 4.25437856924351e-07 2.71227238293229e-05 4.41155718888551e-05 -0.000190506963644653 2.26947157732689e-05 -0.000160486862659876 -0.000114819694842897 -0.000344088141161577 0.000185916284190201 -0.000759874551792966 0.000214230030662737 -6.46772727363127e-05 -0.000833356177786132 -0.000710031794535233 -0.00140849210288683 -2.23155185237202e-05 0.0366230001701259 -0.00758417060026459 0.0102421239848581 0.00709809061043122 -0.00872577500475324 0.0384986269569498 0.0161813489223025 0.0561378878842303 0.0169297819738548 0.0188077725240133 0.0123299285439492 0.0614618810334029 0.00580923751156259 0.00833651231944394 -0.00618905143182842 -0.00123449944574395 0.00421660840523845 -0.00123134809256697 -0.000443895289569126 0.00203184656106237 -0.000580414333016379 2.92201381411616e-05 2.22524076012054e-05 -4.81121036590883e-05 -0.000100681205964786 -0.000492695676446434 0.000164339421745523 -0.000524421901319513 0.00194285440481598 -0.0015996222185908 -0.000969140612069793 -0.00189234138410217 0.00286644529604039 -0.00036946044271347 0.000412379433932034 -0.000733081444304399 0.000149953364948536 9.06376761709733e-05 -0.000327301574424763 5.08074053289987e-05 -0.000128829556531723 1.41052168636465e-05 0.000117469386103931 -0.000115694934049475 4.16290778641514e-05 7.463309515037e-05 -0.000227950876167976 -0.000304443205097126 -0.000780376919315545 0.00233447513895442 -0.000692686794206166 -0.00131915862874117 0.00384663227864995 0.000396015566992514 -0.00294772384532913 0.00821758178806246 0.0165209241980126 0.0152166237825414 -0.000235184763805506 -0.00196150766639804 -0.000617012001578709 0.0162323375128988 0.00876636562798071 0.00829460159524054 0.00269449270910024 4.35550307995944e-05 0.0205311185401389 0.00212190429053487 0.00835542738455865 0.00813461442005233 0.018248835929565 0.0212339498408852 0.0347596424240588 0.0236857979359353 0.0486484232658722 0.0379487086158015 0.0109868699171057 0.0339741054861756 0.032377591033716 0.00750673615980177 0.015989354972649 0.00679045011084949 0.0334297015271425 0.0106926698135909 0.0286646480307268 0.0225825940610289 0.0342193099896172 0.0221945102964639 0.0361092018827726 0.0209268498389169 0.0171898971694012 0.0296461433723546 0.0322142920268942 0.0176071627649297 0.025248040066346 0.029132294902778 0.025922047505739 0.016525416039935 0.00971486921140733 0.0255864973585957 0.00982857357530869 0.0166453577327076 0.0287518049132559 0.026170350567598 0.0201747005206218 0.0265795489571634 0.0192445476262527 0.0196626175916881 0.0183815626884049 0.0195094316161236 0.00404162302099196 0.0205519852324556 0.0186669254047432 0.00218400606611359 0.0189253480463162 0.0218477688954253 0.0293093256011135 0.0179776694283187 0.00412164225934232 0.00270336754663954 0.00412373038472985 -0.00098461513761361 0.00265617290258841 -0.000274430362241728 -0.000702903837114463 0.00215374877729379 -0.000270530052174686 -0.000196193093003079 -0.000138140545760694 -9.18540746541864e-05 1.17671338721708e-05 -1.97725428030017e-05 -0.000105382522209127 -1.75567456025716e-05 -0.000215996809321381 1.07743383560364e-05 -1.74283213447811e-05 -1.76072109837809e-06 9.80544670231194e-06 1.33305871557829e-05 -1.58600649873759e-05 -2.73983566183484e-05 3.78763595461214e-05 -0.000111084163437584 -0.000122706799479542 -0.000211674377406287 -2.41747341362434e-05 -0.000171790450385386 2.80881019837687e-05 2.8000127691165e-05 -0.000122066083156172 5.21434828477931e-05 -0.000207040255781297 3.60834464879955e-06 -4.81739423402597e-07 7.7081193845346e-06 7.66661211918075e-06 -4.1611375401287e-07 3.91095408023038e-06 8.82097730082743e-07 3.08388604557109e-06 3.61057540956221e-06 3.35983868293331e-06 1.63678277825541e-07 8.05694808386432e-07 4.97562970248904e-06 4.131516907093e-06 7.93055413551963e-06 -0.000168297452951487 -0.000204703950890916 4.92309161178666e-05 -0.000875555874502024 0.000476755066999009 0.00234097673843159 0.00026174636477029 -0.000324505334618943 -0.000262593485986278 -0.00031729164413748 -0.000321743065104127 0.000255399439411203 -0.000488480971269077 2.58220173941389e-05 -0.000182290475733605 -9.44771464667264e-05 -0.000183990218772898 -0.000113442251308389 -0.000158183200120766 2.48925238931068e-05 -7.58705118559417e-05 -5.42501369724199e-05 -3.17163854198579e-06 2.25330812981495e-05 2.10492308318064e-05 2.33916725889761e-05 -4.97423857301712e-05 7.29910687800087e-05 -0.000240265995587456 -0.000100370402775374 -0.000213991081934953 5.750116275229e-05 3.44709079222577e-05 -1.50502795492084e-05 1.90819815288442e-05 2.59604222085931e-05 -9.76728283981918e-06 1.70066508981458e-05 1.63360688916266e-05 -7.83457873950587e-06 1.50800593952112e-05 -4.02462790873417e-06 -1.38564641793613e-06 -1.60084034012775e-06 3.01740030531909e-06 5.69199215209533e-06 -3.78118000363087e-06 1.33969645488865e-05 -3.12345480012789e-07 5.44223070475836e-07 -1.42609870075931e-06 -2.45710258130103e-06 -2.14632248864354e-06 9.96104427490311e-07 7.09719031993655e-08 1.16247299561197e-07 -1.51193901031174e-07 -4.27438179426615e-07 3.74650420466004e-06 1.3019502817304