<?xml version="1.0"?>
<VTKFile type="UnstructuredGrid" version="0.1" byte_order="LittleEndian">
<UnstructuredGrid>
<Piece NumberOfPoints="2148" NumberOfCells="716">
<Points>
<DataArray type="Float64" NumberOfComponents="3" format="ascii">
0.0736345888316307 0.0637333048655595 0 0 0 0 0.105263157894484 0 0 0.0736345888316307 0.0637333048655595 0 0 0 0 0 0.102040816326531 0 0 0.102040816326531 0 0.105847738327952 0.150895293579407 0 0 0.204081632653061 0 0.0736345888316307 0.0637333048655595 0 0 0.102040816326531 0 0.105847738327952 0.150895293579407 0 0.0736345888316307 0.0637333048655595 0 0.105847738327952 0.150895293579407 0 0.157062047935717 0.0657304144218603 0 0.0736345888316307 0.0637333048655595 0 0.105263157894484 0 0 0.157062047935717 0.0657304144218603 0 0.210526315788968 0 0 0.157062047935717 0.0657304144218603 0 0.245859050062934 0.0615708420060463 0 0.105263157894484 0 0 0.210526315788968 0 0 0.157062047935717 0.0657304144218603 0 0.157062047935717 0.0657304144218603 0 0.222741758606036 0.141984576675053 0 0.245859050062934 0.0615708420060463 0 0.105847738327952 0.150895293579407 0 0.157062047935717 0.0657304144218603 0 0.222741758606036 0.141984576675053 0 0.222741758606036 0.141984576675053 0 0.245859050062934 0.0615708420060463 0 0.322030541746038 0.113556493866926 0 0.210526315788968 0 0 0.245859050062934 0.0615708420060463 0 0.315789473683452 0 0 0.245859050062934 0.0615708420060463 0 0.315789473683452 0 0 0.322030541746038 0.113556493866926 0 0.306529038486018 0.218453285118224 0 0.19912213507756 0.241701131057856 0 0.28395937666824 0.336326657262323 0 0.222741758606036 0.141984576675053 0 0.306529038486018 0.218453285118224 0 0.322030541746038 0.113556493866926 0 0.222741758606036 0.141984576675053 0 0.306529038486018 0.218453285118224 0 0.19912213507756 0.241701131057856 0 0.105847738327952 0.150895293579407 0 0.222741758606036 0.141984576675053 0 0.19912213507756 0.241701131057856 0 0.19912213507756 0.241701131057856 0 0.170994783200652 0.334188745583958 0 0.28395937666824 0.336326657262323 0 0.19912213507756 0.241701131057856 0 0.0963260944161509 0.273811510294367 0 0.170994783200652 0.334188745583958 0 0.105847738327952 0.150895293579407 0 0.19912213507756 0.241701131057856 0 0.0963260944161509 0.273811510294367 0 0.105847738327952 0.150895293579407 0 0.0963260944161509 0.273811510294367 0 0 0.204081632653061 0 0.0963260944161509 0.273811510294367 0 0 0.204081632653061 0 0 0.306122448979592 0 0 0.306122448979592 0 0 0.408163265306122 0 0.0798863474723025 0.392675045642543 0 0.0963260944161509 0.273811510294367 0 0 0.306122448979592 0 0.0798863474723025 0.392675045642543 0 0 0.408163265306122 0 0.0798863474723025 0.392675045642543 0 0.099581482345634 0.49355644173514 0 0.0798863474723025 0.392675045642543 0 0.099581482345634 0.49355644173514 0 0.19230207234368 0.422678825965969 0 0.0963260944161509 0.273811510294367 0 0.0798863474723025 0.392675045642543 0 0.170994783200652 0.334188745583958 0 0.0798863474723025 0.392675045642543 0 0.170994783200652 0.334188745583958 0 0.19230207234368 0.422678825965969 0 0.0636610927580281 0.559357934802157 0 0 0.612244897959184 0 0 0.510204081632653 0 0.0636610927580281 0.559357934802157 0 0 0.612244897959184 0 0.0788823051552232 0.670851705018505 0 0 0.408163265306122 0 0 0.510204081632653 0 0.099581482345634 0.49355644173514 0 0.0636610927580281 0.559357934802157 0 0 0.510204081632653 0 0.099581482345634 0.49355644173514 0 0.099581482345634 0.49355644173514 0 0.124792039049303 0.598138423871711 0 0.222058877190937 0.510857644422808 0 0.0636610927580281 0.559357934802157 0 0.124792039049303 0.598138423871711 0 0.0788823051552232 0.670851705018505 0 0.0636610927580281 0.559357934802157 0 0.099581482345634 0.49355644173514 0 0.124792039049303 0.598138423871711 0 0.124792039049303 0.598138423871711 0 0.222058877190937 0.510857644422808 0 0.235802928303382 0.611564357809131 0 0.099581482345634 0.49355644173514 0 0.222058877190937 0.510857644422808 0 0.19230207234368 0.422678825965969 0 0.222058877190937 0.510857644422808 0 0.298455345785692 0.447563908098048 0 0.314543409362701 0.549165380872091 0 0.222058877190937 0.510857644422808 0 0.235802928303382 0.611564357809131 0 0.314543409362701 0.549165380872091 0 0.235802928303382 0.611564357809131 0 0.314543409362701 0.549165380872091 0 0.335916026949355 0.661311993908121 0 0.170994783200652 0.334188745583958 0 0.19230207234368 0.422678825965969 0 0.28395937666824 0.336326657262323 0 0.222058877190937 0.510857644422808 0 0.19230207234368 0.422678825965969 0 0.298455345785692 0.447563908098048 0 0.19230207234368 0.422678825965969 0 0.298455345785692 0.447563908098048 0 0.28395937666824 0.336326657262323 0 0.28395937666824 0.336326657262323 0 0.377510554953585 0.391263936876735 0 0.399803174487431 0.298440986856889 0 0.298455345785692 0.447563908098048 0 0.377510554953585 0.391263936876735 0 0.406811536593169 0.484911194529197 0 0.298455345785692 0.447563908098048 0 0.28395937666824 0.336326657262323 0 0.377510554953585 0.391263936876735 0 0.377510554953585 0.391263936876735 0 0.406811536593169 0.484911194529197 0 0.498523341233396 0.389076937637219 0 0.498523341233396 0.389076937637219 0 0.500986724861322 0.250629842679194 0 0.399803174487431 0.298440986856889 0 0.377510554953585 0.391263936876735 0 0.498523341233396 0.389076937637219 0 0.399803174487431 0.298440986856889 0 0.314543409362701 0.549165380872091 0 0.420597075781915 0.595854369448944 0 0.335916026949355 0.661311993908121 0 0.298455345785692 0.447563908098048 0 0.314543409362701 0.549165380872091 0 0.406811536593169 0.484911194529197 0 0.314543409362701 0.549165380872091 0 0.406811536593169 0.484911194529197 0 0.420597075781915 0.595854369448944 0 0.406811536593169 0.484911194529197 0 0.420597075781915 0.595854369448944 0 0.509931573480221 0.522280814579519 0 0.420597075781915 0.595854369448944 0 0.509931573480221 0.522280814579519 0 0.517751522887305 0.649204659932698 0 0.509931573480221 0.522280814579519 0 0.613945404707068 0.570990073651732 0 0.587686537066514 0.464126045476426 0 0.509931573480221 0.522280814579519 0 0.613945404707068 0.570990073651732 0 0.517751522887305 0.649204659932698 0 0.498523341233396 0.389076937637219 0 0.581885168833657 0.302392759021642 0 0.500986724861322 0.250629842679194 0 0.406811536593169 0.484911194529197 0 0.509931573480221 0.522280814579519 0 0.498523341233396 0.389076937637219 0 0.509931573480221 0.522280814579519 0 0.498523341233396 0.389076937637219 0 0.587686537066514 0.464126045476426 0 0.498523341233396 0.389076937637219 0 0.587686537066514 0.464126045476426 0 0.614047778589085 0.387795898525738 0 0.498523341233396 0.389076937637219 0 0.614047778589085 0.387795898525738 0 0.581885168833657 0.302392759021642 0 0.614047778589085 0.387795898525738 0 0.581885168833657 0.302392759021642 0 0.672697639570897 0.28766618318192 0 0.581885168833657 0.302392759021642 0 0.500986724861322 0.250629842679194 0 0.611102057161856 0.196335598991703 0 0.581885168833657 0.302392759021642 0 0.611102057161856 0.196335598991703 0 0.672697639570897 0.28766618318192 0 0.500986724861322 0.250629842679194 0 0.611102057161856 0.196335598991703 0 0.513101370826361 0.134129492815744 0 0.500986724861322 0.250629842679194 0 0.513101370826361 0.134129492815744 0 0.412014556344116 0.189798498882905 0 0.611102057161856 0.196335598991703 0 0.594439451232812 0.0887178408363477 0 0.513101370826361 0.134129492815744 0 0.594439451232812 0.0887178408363477 0 0.526315789472444 0 0 0.631578947367022 0 0 0.594439451232812 0.0887178408363477 0 0.526315789472444 0 0 0.513101370826361 0.134129492815744 0 0.526315789472444 0 0 0.513101370826361 0.134129492815744 0 0.420915352533358 0.074985042685528 0 0.513101370826361 0.134129492815744 0 0.420915352533358 0.074985042685528 0 0.412014556344116 0.189798498882905 0 0.526315789472444 0 0 0.420915352533358 0.074985042685528 0 0.421052631577937 0 0 0.420915352533358 0.074985042685528 0 0.315789473683452 0 0 0.322030541746038 0.113556493866926 0 0.420915352533358 0.074985042685528 0 0.421052631577937 0 0 0.315789473683452 0 0 0.420915352533358 0.074985042685528 0 0.322030541746038 0.113556493866926 0 0.412014556344116 0.189798498882905 0 0.306529038486018 0.218453285118224 0 0.322030541746038 0.113556493866926 0 0.412014556344116 0.189798498882905 0 0.306529038486018 0.218453285118224 0 0.399803174487431 0.298440986856889 0 0.412014556344116 0.189798498882905 0 0.306529038486018 0.218453285118224 0 0.28395937666824 0.336326657262323 0 0.399803174487431 0.298440986856889 0 0.500986724861322 0.250629842679194 0 0.399803174487431 0.298440986856889 0 0.412014556344116 0.189798498882905 0 0.295350406939813 1.24878144427625 0 0.246522554351683 1.16362252184999 0 0.352853207783426 1.1463879991198 0 0.295350406939813 1.24878144427625 0 0.246522554351683 1.16362252184999 0 0.181863964367382 1.24890101842418 0 0.246522554351683 1.16362252184999 0 0.283487779541101 1.08170937477947 0 0.352853207783426 1.1463879991198 0 0.246522554351683 1.16362252184999 0 0.202239780457393 1.08245817859136 0 0.283487779541101 1.08170937477947 0 0.246522554351683 1.16362252184999 0 0.156022104484688 1.15671384061775 0 0.202239780457393 1.08245817859136 0 0.246522554351683 1.16362252184999 0 0.181863964367382 1.24890101842418 0 0.156022104484688 1.15671384061775 0 0.181863964367382 1.24890101842418 0 0.0769912270182558 1.21550350972786 0 0.156022104484688 1.15671384061775 0 0 1.22448979591837 0 0.0769912270182558 1.21550350972786 0 0 1.12244897959184 0 0.0769912270182558 1.21550350972786 0 0 1.12244897959184 0 0.0938420895696505 1.07913022382781 0 0.156022104484688 1.15671384061775 0 0.0938420895696505 1.07913022382781 0 0.202239780457393 1.08245817859136 0 0.0769912270182558 1.21550350972786 0 0.156022104484688 1.15671384061775 0 0.0938420895696505 1.07913022382781 0 0.0938420895696505 1.07913022382781 0 0.156323146912265 0.989428081563376 0 0.202239780457393 1.08245817859136 0 0.0938420895696505 1.07913022382781 0 0.0741199651049571 
[...]
<PointData Scalars="conc_conc," Vectors="" Tensors="">
<DataArray type="Float64" Name="conc_conc" format="ascii">
0.00381456761145957 0.00366079254654851 0.00384527178207003 0.00381469498078728 0.00367085597797854 0.00375212072513169 0.0037461020938646 0.00397129721235305 0.00382098121312382 0.0038272100739438 0.00374191030982145 0.00397985116659787 0.00381458281891547 0.00399446186714456 0.00410907128754626 0.00381526352270967 0.0038544836009501 0.00410651613347207 0.0042812060602336 0.00411676682347805 0.00451356269685263 0.00385022267513315 0.00428043383244949 0.00410776407630703 0.00411870535785629 0.00452905895723532 0.00451734347483205 0.00399375538372708 0.00412053730533488 0.00452286959970887 0.00453901225480861 0.00451437102639858 0.00491792782654295 0.00429144971192553 0.00450902587484165 0.00471298761604193 0.00452113718104964 0.00469860346255853 0.00490835586095008 0.00505695414029402 0.00455316037505075 0.00515421198663951 0.00453998072319697 0.00504921344548079 0.00491880292673771 0.00452523532683221 0.00505485727134471 0.00455273044078556 0.00398962780097089 0.0045256054845303 0.00453565950533149 0.00454240734043626 0.00450635428302453 0.00515248129464971 0.00453744242972847 0.00407348135808693 0.00450119009427239 0.00399685346450804 0.00452619418290304 0.00408061192665042 0.00399074399778837 0.00406778971252006 0.00380840793601357 0.00405242313878433 0.00382792010553204 0.0039012061316143 0.00390730999015641 0.0039775262984759 0.00410525440004532 0.00406883979153791 0.00388969116064335 0.00411551238093963 0.0039671597986691 0.0041170415318261 0.00424838113586024 0.00409949524983731 0.00426469800845157 0.00472244243322105 0.00408044397431433 0.00411331685710979 0.00449520451427108 0.00409924426040304 0.00450869287288581 0.00472623679114504 0.00417750491106654 0.00410298222350306 0.00404571386461849 0.00419157808008661 0.004089075303249 0.00430328146601333 0.00397706917582112 0.00403778630269575 0.00423362219261544 0.00418574887012889 0.00402770511966678 0.00425036881568857 0.00425674803564692 0.0045004993548199 0.00503980047867412 0.00418668096713545 0.00448775513340976 0.00430939157768437 0.00418390538688302 0.00426933361203094 0.00449439638863996 0.00449284724315242 0.00505607180169019 0.00528767008654644 0.00425870322868223 0.00504051495411391 0.0047428444723169 0.00506551849259102 0.00542404104680095 0.00569324857482624 0.00505602863545996 0.00530319827490665 0.00569884694310884 0.00531308344271213 0.00569095636522162 0.00601635840746928 0.00450331175116859 0.00474364197774101 0.00515735291341162 0.00505537144939074 0.00474198370449131 0.00542898729006767 0.0047510802790275 0.00542239350508619 0.00515633524748178 0.00519115629405653 0.00560781309258221 0.00545577418032701 0.0054470178185482 0.00559954193722215 0.00585299641854003 0.00543154622890538 0.00516524809201913 0.00561451189562541 0.0056313681959351 0.00585265499468051 0.00548563502209351 0.00546476420797238 0.00515789521584962 0.00546251558109932 0.00562274647206239 0.00549076911581655 0.00543344733422243 0.00571174256658705 0.00610983096778501 0.00603137825252951 0.00543900723818145 0.00571188323018759 0.00586281983471976 0.00573319209620267 0.00583435327799066 0.00609391830415075 0.00585594039095979 0.00609402065492443 0.00569242516713479 0.00611706260507796 0.00565610153313106 0.00589417645969486 0.00567504737041964 0.00492270346042498 0.0049661369582075 0.00566967880814087 0.00493400103622349 0.00587972855137653 0.0054525641513467 0.00475294488650429 0.00515680027952597 0.0058734460384018 0.00567368721362844 0.00544174856869863 0.00565837545660355 0.00545429834761118 0.00499225628035416 0.00547518602869754 0.00498245325450705 0.00462421043507955 0.0054709998463172 0.00462325353719126 0.00473169443433509 0.00460936256287476 0.00474511359729761 0.00390468508229237 0.0047435013351062 0.00517320326542318 0.00434309807329465 0.00473942249746461 0.0043280207659263 0.00391091110540267 0.00515840843742701 0.00436484921316658 0.00486220278175089 0.00515725752366892 0.00487370277080758 0.00524162123827233 0.00435300492966458 0.00428138170002744 0.00487009898103427 0.00427336672664189 0.00458266364665469 0.00389719621366123 0.00429112243677535 0.0045563851348518 0.004857600122516 0.00456536028627829 0.00486741199024463 0.00500134360328979 0.00489047329289172 0.00497920498076422 0.00522790660039419 0.00458927747179005 0.00497887199423728 0.00486403146271426 0.00499818560194991 0.00470317091070307 0.00491814861792124 0.00497737267967481 0.00486431722264693 0.00472475372748886 0.0049882381478461 0.00493080860778744 0.00522196232844079 0.0050634777189627 0.0049083553993342 0.00523682012116875 0.00507047194703644 0.00544531046650738 0.00522957439806734 0.0050418798946492 0.00518254307260848 0.005463804753057 0.0051740968674941 0.00544913486098923 0.0052147305203544 0.00687641158179713 0.00622324266951591 0.00714362538112855 0.00686091997087478 0.0061919996061093 0.00553351684683182 0.00621998103037568 0.00643038927922536 0.00714406717358512 0.00619558848861025 0.00560396807241245 0.00644376349417418 0.00618222828803232 0.00516619180117076 0.00559705411627703 0.00618609563447985 0.00552295543764697 0.00516078898642291 0.00549325200714046 0.00445866575751396 0.00517369764398055 0.00424780372653558 0.00445447012517488 0.00423300935216338 0.00448086021241646 0.00419716026337107 0.00455491524027892 0.00516265798830962 0.00455007469516943 0.00557751749701422 0.00448459725953922 0.00515048403174608 0.00457303777341321 0.0045558375274328 0.00505664292448094 0.00557403457074876 0.0045650837698278 0.00441676646848982 0.00503049834027116 0.00421833475214168 0.0045222425990911 0.00421946875125306 0.00454310039179139 0.00420295696695103 0.00443293088294719 0.00422403895114696 0.00441049314044784 0.00420237865700578 0.00442285231779212 0.00502933251484201 0.00458722937469702 0.00505359315766353 0.0060421949717983 0.0055959132594974 0.00504624745105052 0.00559673891504654 0.00604743635323599 0.00561003914698032 0.00643847831034036 0.00604733760120329 0.00644158170229629 0.00605727207157837 0.00684104847432782 0.00606873853071107 0.00639790614468332 0.00682919104215239 0.00605364085793249 0.00641209290919862 0.00560250429999503 0.00640597428468774 0.00600395955244306 0.00561092293211732 0.00600529684246043 0.00521578476447679 0.00547648538020739 0.00600963297226658 0.00521274775892921 0.00559766485669195 0.00504897797351032 0.00557855103755167 0.00456454119765098 0.00521568123096295 0.00557878929082521 0.0045685713680186 0.00452681653974484 0.00418550469928084 0.00415960700700768 0.00442629704967613 0.00455570753307714 0.00416731123496632 0.00455191279939793 0.00412939632474111 0.00450620228178827 0.00519732109868051 0.0045813019959374 0.00451209455737582 0.00415074658010342 0.00447364353336371 0.00412272161722323 0.00448507188770422 0.00411673565326303 0.00431695753504968 0.00409898725353265 0.00413586093229331 0.00429366870867062 0.00450063791110152 0.00429866403265267 0.00478016178019599 0.00450758579831959 0.00429643084803732 0.00477909666370011 0.0052991770735095 0.00479873104278328 0.00547051204924875 0.00448619808264711 0.00529074654861744 0.00479573832449735 0.00450553718409294 0.00479587459351334 0.00546599847850068 0.00520605737770723 0.00450105368652881 0.0054705950645318 0.00601807149806786 0.00550547686588419 0.00636213550601733 0.00529989468941613 0.00550213771641513 0.00602550713256365 0.00604269149050662 0.00634832786313805 0.00628277895906456 0.00551721954792324 0.00601369323966991 0.00635280968415744 0.00637138664276516 0.00638088074720954 0.00624550797215667 0.00607710049332443 0.0060554726771107 0.00627016328733164 0.00609432967359979 0.00626180683595278 0.00591267089804561 0.00636097709816865 0.00627073517341777 0.0058903710139716 0.00490155473011293 0.00589692632022085 0.00512426352668789 0.0058892219259632 0.00513177203374131 0.00577651023270153 0.00510751970952737 0.00578387428450186 0.0046263363090095 0.00637401792402977 0.00579603511518722 0.00634204161432534 0.00637196066897783 0.00586187160667124 0.00579439677115138 0.00578933917106058 0.00568113782377612 0.00462240099534528 0.00576690922234408 0.00635299837109018 0.00569293426007171 0.00567240366319898 0.00654204772762696 0.00557472661841466 0.00635275486538452 0.00654350833450895 0.00671094089925305 0.006354054490306 0.00569566330089951 0.0065287703701359 0.00656266278263546 0.00668342157359758 0.00693765687658121 0.0063459448621301 0.00635532940613577 0.00669948981857198 0.00636782796166894 0.00638896936164906 0.0066737685238234 0.00604320969160487 0.00632496317056084 0.00668697343148104 0.00642522145918322 0.00603274779166833 0.00670152859954522 0.00645475899821694 0.00665667091237945 0.00694025623171648 0.0064290468571572 0.00683270484952084 0.00695976267301199 0.00683784310178143 0.0071783028618174 0.00714092887845624 0.00644977205645436 0.00682764449735942 0.00712663771976076 0.00715964240495868 0.00694168036401462 0.0067220766844599 0.00685804049730387 0.00716009792627179 0.00691552578378792 0.00651865604437193 0.00696499368077381 0.00670393190820598 0.00653217246335241 0.00669733060974442 0.00558747620288489 0.00671690049483703 0.00555320837904892 0.00594717307423377 0.00669746782037448 0.00595869392217642 0.00679406107273827 0.00719043919619936 0.0066746134893063 0.00681169890640571 0.0067915178051664 0.00697043106536696 0.00734345976729339 0.00716979227717849 0.00682903670853938 0.00732999705025835 0.00681084748752896 0.00697598815939598 0.00555420614540909 0.00592802258098534 0.00681410533843456 0.00554317343161717 0.00700804588023806 0.00550460105796221 0.00568634468878986 0.00699334411608542 0.00731973571014661 0.00767438183776302 0.00737205037636109 0.00715605074382151 0.00764160100630285 0.00713820646819886 0.00735512010943224 0.00717452397119897 0.00692198808474172 0.00709353520993442 0.00766807379421437 0.00170838173989423 0.00223414223402764 0.00147918584238199 0.00169231303605401 0.00240871274204632 0.00176353541658934 0.00167953013038981 0.00242842962932413 0.00225723340570592 0.00243356981324729 0.00362287562723221 0.00337867573231345 0.00243772036390491 0.00225759794645905 0.00361644392227019 0.00405979523636459 0.00550221813944611 0.00362573388267148 0.00223708391451139 0.00403584543631024 0.00363963024570129 0.00406525407295882 0.00550903817296443 0.00564267824828723 0.00549452461643961 0.0036345288929003 0.00470672923151657 0.0036368583173779 0.00337020283701179 0.00469673700952519 0.00337586519143663 0.00469187041307366 0.00388358800620646 0.00554087545650708 0.0059410422769445 0.00472615248932737 0.00594802087597279 0.00551143956001738 0.00471801038631781 0.0055542155621087 0.00470934088517418 0.00388643206188665 0.00337415477688748 0.00387132560731667 0.00255586537902861 0.00385621913123057 0.00256665042919898 0.00277720276099648 0.00244496705035081 0.00336590650364834 0.00256919748813532 0.00243105491554863 0.00256038297962619 0.00173811127541269 0.00253674163303485 0.00175589389733167 0.00185519864393052 0.00184397331999365 0.00200728098797582 0.00274321939124386 0.0018447951422948 0.00198789009328474 0.00150277233902675 0.00197180325883751 0.00276468969756895 0.00317915484727836 0.00255699717629762 0.00182714167140695 0.00276139904831929 0.00387202622220858 0.00276370136854357 0.00428558776939231 0.00554727295260919 0.0038900857285706 0.00428944697808308 0.00569858644832489 0.0055459370109241 0.00431138994715873 0.00569147925032241 0.00431530756859727 0.00459815075652281 0.00428979679381744 0.00320378794571833 0.00460665210782806 0.00277288199307147 0.00427566985332413 0.00320561481784336 0.00320887524400776 0.00459866632167256 0.00355160865912099 0.00460031170577542 0.00432166750987449 0.00355409766369144 0.00511578836249885 0.00461136307717369 0.00432082706193937 0.00489922092816949 0.00511280917909189 0.00432668334878277 0.00431862346489529 0.00355587282474618 0.00371790233435912 0.00251272051895068 0.00288891288761574 0.00214864557551578 0.00353994743272855 0.00251602919906441 0.00289971303452598 0.00319475711318874 0.00354484436847176 0.00251218922501501 0.00198272857228533 0.00317354126552169 0.00253066444427539 0.00199560360521739 0.00248298842967321 0.00162198221695306 0.00248703466114532 0.00162310520910338 0.00216984417394567 0.00164075145710941 0.00160300780631829 0.00163504171415554 0.00197643956651338 0.00166825701031951 0.0015788549355469 0.0016409515332666 0.00159745707631349 0.00157281788137508 0.00161786915823382 0.00161693466456547 0.00162500413933442 0.0016328635942382 0.00159834046559218 0.00223424419017909 0.00226385187238872 0.00229798116976313 0.00329944850836389 0.00226359809025187 0.00295931382528124 0.00330538765958033 0.00229541614061307 0.00295851834949892 0.00330831490710647 0.00231136442343602 0.00193543361961629 0.00294411607645744 0.00161720043149083 0.00226459229870379 0.00229231702242957 0.00162228509423022 0.00228779105831747 0.0019453758196641 0.00196104052172098 0.00250670266015269 0.00167890458236444 0.00296863019587579 0.00252689966376183 0.00363526246853712 0.00192909234007969 0.00294437886990714 0.00252515134144331 0.00252061138114387 0.00363993230533521 0.0032557802486798 0.00253602993224849 0.00228358550840602 0.00324154396457706 0.00251609476194672 0.001666359684414 0.00228208225848185 0.00167368390163668 0.00159909799738697 0.00150895095551347 0.00166375805087701 0.00151512544674144 0.0014720669871747 0.00163378645518303 0.00158586824394662 0.00155350988486488 0.00193823540238789 0.00169227664540338 0.00157346900902439 0.00165523407364622 0.00193490369328354 0.00158096962632887 0.00157894728325732 0.00156739027191519 0.00152452071343415 0.00197052392351022 0.00157866418545099 0.00151560512761898 0.00182457759709983 0.0015350809713211 0.00146745114226189 0.00175033601288253 0.00184520607640566 0.00144726548384632 0.00172588140612102 0.00148212074074706 0.00142543005611456 0.00147250777424169 0.00142866848492739 0.00169217948840673 0.00140757905373921 0.00172637674145803 0.00165103990815436 0.00170340415743322 0.00144871055680921 0.00171510597606618 0.00168823418945864 0.0022718976021499 0.00173181569750597 0.00229710379563639 0.00266373364014936 0.0017118020894879 0.00227779663913685 0.00267982920640423 0.00324767213698399 0.00269203271367998 0.0021969124522667 0.00325421238026537 0.00219498218524674 0.00173481412669071 0.00165659378411557 0.00266372648792865 0.00220379452590767 0.00170693793626233 0.00221455107011801 0.00163398842143667 0.00240442350255277 0.0024122510969142 0.00363304998889494 0.00327805299174741 0.00219336145071411 0.00242235668223359 0.00325303266120202 0.00241245926527097 0.00362937031873509 0.00261199959459041 0.0024295995742994 0.00169642006505935 0.00259707704212512 0.00164224536598142 0.00239375424944831 0.00171258531187903 0.00167447999201701 0.00135422742938488 0.00139015212795173 0.00166332440290259 0.00168860753566584 0.00133541286115389 0.00143715171595153 0.00163049438676425 0.00136720098543028 0.00168297724020932 0.00175428190064036 0.00140222734040145 0.00166230019539203 0.00143064758579095 0.00138502790730588 0.0016895555530451 0.00137186933071512 0.00148757202150287 0.00272338303002895 0.00213522046622608 0.00206761784630175 0.00273993407764234 0.00212730985663817 0.0029183489849852 0.00212885965442005 0.00291568104353091 0.00213226968969022 0.00212683621859242 0.00211533855566553 0.00165222948220075 0.00210923996692283 0.00169331860712808 0.00166506714682274 0.00212343719303668 0.00207407801967565 0.00167877425491873 0.00207553831798524 0.0018592150397365 0.00242716730044939 0.0020709729358373 0.00187231111766771 0.00168485142281275 0.00186261201794939 0.00217748174320974 0.00167959085548421 0.00185954832514809 0.00220010387438601 0.00242732970148 0.002189902140392 0.00243279377392221 0.0029982146022642 0.00272636404949818 0.00206819721671313 0.00244304991966233 0.00273765344631977 0.00242996872878679 0.00341386510870181 0.00243270585023346 0.00300745649287149 0.00340932108384181 0.00301093057398382 0.00388585261863244 0.00341788857223565 0.00428454244317763 0.00387475759263532 0.00343683607987567 0.00433329869593575 0.00429312734687116 0.00343574883665192 0.00433787433184132 0.00339744514783721 0.00389853779136974 0.00433390593382585 0.00342280459852346 0.00339908524432105 0.00273655661435824 0.00342461471526853 0.00339162562285505 0.00273547285494309 0.00338923860370548 0.00292875460350627 0.00339432594598382 0.00292814594270112 0.00388774157860306 0.00461103708106803 0.0038920144447343 0.00325218611496599 0.0046189867310924 0.00324467838389219 0.00402132154511166 0.00497850392368948 0.00461106647165636 0.00403293258184395 0.00324067220562354 0.0040114233508867 0.0028300576494487 0.00292495979655254 0.0038897538757574 0.00324345023926882 0.0049059978978372 0.00432144743756572 0.00372261208700586 0.00489995423916956 0.00401615976556041 0.00372666921970903 0.00489973256842271 0.00498152499536164 0.00403121447182493 0.00401780853050842 0.00371402368838918 0.0028232720943953 0.00370694677102639 0.00289907712227195 0.00282688606000564 0.00354861539396083 0.00371623828719652 0.00289436632507225 0.00289225916414705 0.00282889576945936 0.00214664522727732 0.00280898773929373 0.00191738918685264 0.0024829900791941 0.00280236776601746 0.00191709763793046 0.0021541411298471 0.00194683505388414 0.00213530931329347 0.0016053034760717 0.00165023648942627 0.00212723776905847 0.00161076172012289 0.00293431887372104 0.00321816677497179 0.00212099475860756 0.00322991866982887 0.00282609128930641 0.0024709955039871 0.00321414793758651 0.00247544996822183 0.00212223570294674 0.00193255674900697 0.00247370089419522 0.00213716975188977 0.00192829774686755 0.00211019799721885 0.00154758049474461 0.0020917818761089 0.00156475446202115 0.00167736826235385 0.00157727880302279 0.00167491424980951 0.00163958677598674 0.0019105740880187 0.00158249148003666 0.00163208621625842 0.00154711745847231 0.00163485628024772 0.00196468669180882 0.00154959119216877 0.00172380394152064 0.00196769671819695 0.00159231517748353 0.00163236126046124 0.0016287752219473 0.00162056222261667 0.00163126071966809 0.00162245234950149 0.00192163888590631 0.00162233150110791 0.00162464545302298 0.00161928550936004 0.00161191314918713 0.00163419229549353 0.0016079446869896 0.00162209072892269 0.00217546804117252 0.00158134437861632 0.00224995533851715 0.00221266721381658 0.00161527576838673 0.00218784255815725 0.00202240927821998 0.00220978037094018 0.0019996029039238 0.00286715193167064 0.00219881275091477 0.00289427210525858 0.00323508423161299 0.00227300436222883 0.00220786297656312 0.00294334557269246 0.0021952764641215 0.00294925340992602 0.00323465597332708 0.00168362368449722 0.00199936777065276 0.00224024740680184 0.0019948855472027 0.00287283533520791 0.00266130418148669 0.00200470520882422 0.00265387771428937 0.00226597136544261 0.00265788384752238 0.00225669662353151 0.00307255636992408 0.00226124506136955 0.00262497579573006 0.00193373804525781 0.00226103914306126 0.00264563564484181 0.00306992500598187 0.00262182443888451 0.00193892532534455 0.00219194169955346 0.00194232562368544 0.00166839991441074 0.00216820748502031 0.00168494497163723 0.00224088485977536 0.00195934833704203 0.00168027081584018 0.00163459982616228 0.00163977637167925 0.00169498836766884 0.00192950320586468 0.00160663298310838 0.00192603384758396 0.00161334633304154 0.00169761112329974 0.00162202888696889 0.00165305663531028 0.00166460093245473 0.00161355915927591 0.00168329528638178 0.00166203149951318 0.001610819769009 0.00167745645364799 0.00161252476289012 0.00184817791450391 0.00159556865216135 0.00170529389118996 0.00184550596936164 0.00168598004096369 0.0015928086985467 0.00166108458407381 0.00162828985235326 0.00166070545198841 0.00160546086682884 0.00167644017316841 0.0017352121775057 0.00160682653770626 0.00163801565953696 0.00173725360091377 0.00201477558219574 0.00174299823963987 0.00217040307166386 0.00161613565771029 0.00199568391558943 0.00174700531212459 0.00167406354949978 0.00174867283492996 0.00216071158513207 0.00263600342371