<?xml version="1.0"?>
<VTKFile type="UnstructuredGrid" version="0.1" byte_order="LittleEndian">
<UnstructuredGrid>
<Piece NumberOfPoints="2148" NumberOfCells="716">
<Points>
<DataArray type="Float64" NumberOfComponents="3" format="ascii">
0 0.306122448979592 0 0 0.204081632653061 0 0.0963260944161509 0.273811510294367 0 2 0.102040816326328 0 2 0.204081632652656 0 1.91682606565592 0.163831378038849 0 0.335916026949355 0.661311993908121 0 0.365259589174468 0.75455484928981 0 0.236384173514931 0.729687493468818 0 1.7645878445382 0.551245651813427 0 1.66746359377432 0.561113176075504 0 1.68921100147206 0.452901491607104 0 0.420597075781915 0.595854369448944 0 0.335916026949355 0.661311993908121 0 0.314543409362701 0.549165380872091 0 0.973199829033225 0.570447143159581 0 0.871573099219186 0.599958933542136 0 0.902596400990451 0.482080093638731 0 1.17215537934514 0.671242575712059 0 1.07273920199841 0.741352938388404 0 1.05816995778224 0.632556428378151 0 0.769460470770621 0.273053164279476 0 0.863886156728703 0.241766334456221 0 0.867663912118382 0.362911290179403 0 0.746681771051909 0.387926434817699 0 0.769460470770621 0.273053164279476 0 0.867663912118382 0.362911290179403 0 0.420597075781915 0.595854369448944 0 0.314543409362701 0.549165380872091 0 0.406811536593169 0.484911194529197 0 1.17215537934514 0.671242575712059 0 1.05816995778224 0.632556428378151 0 1.16755621223674 0.544461386369183 0 0.614047778589085 0.387795898525738 0 0.587686537066514 0.464126045476426 0 0.498523341233396 0.389076937637219 0 1.05397680442352 0.511178337991362 0 1.05816995778224 0.632556428378151 0 0.973199829033225 0.570447143159581 0 0.714663424640052 0.204088718950095 0 0.769460470770621 0.273053164279476 0 0.672697639570897 0.28766618318192 0 0.581885168833657 0.302392759021642 0 0.672697639570897 0.28766618318192 0 0.614047778589085 0.387795898525738 0 0.420915352533358 0.074985042685528 0 0.315789473683452 0 0 0.421052631577937 0 0 1.7996967683109 0.384946776894333 0 1.68921100147206 0.452901491607104 0 1.68635617343798 0.324978289824945 0 1.68635617343798 0.324978289824945 0 1.68921100147206 0.452901491607104 0 1.58772819813486 0.385639264923741 0 0.235802928303382 0.611564357809131 0 0.335916026949355 0.661311993908121 0 0.236384173514931 0.729687493468818 0 0.19230207234368 0.422678825965969 0 0.298455345785692 0.447563908098048 0 0.222058877190937 0.510857644422808 0 0.736842105261599 0 0 0.842105263156177 0 0 0.813403882401762 0.0822309285457336 0 0.813403882401762 0.0822309285457336 0 0.699940620167892 0.10672435545698 0 0.736842105261599 0 0 0.869902069792691 0.140741363100657 0 0.863886156728703 0.241766334456221 0 0.78314504829354 0.17010051937666 0 0.714663424640052 0.204088718950095 0 0.699940620167892 0.10672435545698 0 0.78314504829354 0.17010051937666 0 0.714663424640052 0.204088718950095 0 0.672697639570897 0.28766618318192 0 0.611102057161856 0.196335598991703 0 0.335916026949355 0.661311993908121 0 0.420597075781915 0.595854369448944 0 0.434091974643088 0.682028344269046 0 0.335916026949355 0.661311993908121 0 0.434091974643088 0.682028344269046 0 0.365259589174468 0.75455484928981 0 1.66746359377432 0.561113176075504 0 1.7645878445382 0.551245651813427 0 1.74129687257472 0.644896004810703 0 1.66746359377432 0.561113176075504 0 1.74129687257472 0.644896004810703 0 1.64048997128055 0.668584523059047 0 0.235802928303382 0.611564357809131 0 0.222058877190937 0.510857644422808 0 0.314543409362701 0.549165380872091 0 0.335916026949355 0.661311993908121 0 0.235802928303382 0.611564357809131 0 0.314543409362701 0.549165380872091 0 1.58374734721708 0.489924248801578 0 1.58772819813486 0.385639264923741 0 1.68921100147206 0.452901491607104 0 1.66746359377432 0.561113176075504 0 1.58374734721708 0.489924248801578 0 1.68921100147206 0.452901491607104 0 0.863886156728703 0.241766334456221 0 0.869902069792691 0.140741363100657 0 0.953893262172477 0.166226831044512 0 0.587686537066514 0.464126045476426 0 0.614047778589085 0.387795898525738 0 0.682728929220303 0.47640034990436 0 0.793779443273457 0.505858952283911 0 0.902596400990451 0.482080093638731 0 0.871573099219186 0.599958933542136 0 0.682728929220303 0.47640034990436 0 0.614047778589085 0.387795898525738 0 0.746681771051909 0.387926434817699 0 0.682728929220303 0.47640034990436 0 0.746681771051909 0.387926434817699 0 0.793779443273457 0.505858952283911 0 0.769460470770621 0.273053164279476 0 0.714663424640052 0.204088718950095 0 0.78314504829354 0.17010051937666 0 0.769460470770621 0.273053164279476 0 0.78314504829354 0.17010051937666 0 0.863886156728703 0.241766334456221 0 0.19230207234368 0.422678825965969 0 0.170994783200652 0.334188745583958 0 0.28395937666824 0.336326657262323 0 0.19230207234368 0.422678825965969 0 0.28395937666824 0.336326657262323 0 0.298455345785692 0.447563908098048 0 0.581885168833657 0.302392759021642 0 0.614047778589085 0.387795898525738 0 0.498523341233396 0.389076937637219 0 0.500986724861322 0.250629842679194 0 0.581885168833657 0.302392759021642 0 0.498523341233396 0.389076937637219 0 1.05397680442352 0.511178337991362 0 1.141915868145 0.419781161550079 0 1.16755621223674 0.544461386369183 0 1.05816995778224 0.632556428378151 0 1.05397680442352 0.511178337991362 0 1.16755621223674 0.544461386369183 0 0.746681771051909 0.387926434817699 0 0.614047778589085 0.387795898525738 0 0.672697639570897 0.28766618318192 0 0.746681771051909 0.387926434817699 0 0.672697639570897 0.28766618318192 0 0.769460470770621 0.273053164279476 0 0.581885168833657 0.302392759021642 0 0.611102057161856 0.196335598991703 0 0.672697639570897 0.28766618318192 0 0.813403882401762 0.0822309285457336 0 0.869902069792691 0.140741363100657 0 0.78314504829354 0.17010051937666 0 0.813403882401762 0.0822309285457336 0 0.78314504829354 0.17010051937666 0 0.699940620167892 0.10672435545698 0 0.298455345785692 0.447563908098048 0 0.314543409362701 0.549165380872091 0 0.222058877190937 0.510857644422808 0 0.298455345785692 0.447563908098048 0 0.406811536593169 0.484911194529197 0 0.314543409362701 0.549165380872091 0 0.399803174487431 0.298440986856889 0 0.500986724861322 0.250629842679194 0 0.498523341233396 0.389076937637219 0 0 0.612244897959184 0 0 0.510204081632653 0 0.0636610927580281 0.559357934802157 0 2 0.510204081631641 0 2 0.612244897957969 0 1.88658850762887 0.550707857746562 0 1.94357452952373 0.758317595771228 0 2 0.714285714284297 0 2 0.816326530610625 0 0 0.816326530612245 0 0 0.714285714285714 0 0.110872549238551 0.753262340488874 0 0.631578947367022 0 0 0.736842105261599 0 0 0.699940620167892 0.10672435545698 0 0.611102057161856 0.196335598991703 0 0.699940620167892 0.10672435545698 0 0.714663424640052 0.204088718950095 0 0.105847738327952 0.150895293579407 0 0 0.204081632653061 0 0 0.102040816326531 0 0.0963260944161509 0.273811510294367 0 0 0.204081632653061 0 0.105847738327952 0.150895293579407 0 1.57894736841994 0 0 1.68421052631495 0 0 1.62495633134115 0.11872224752482 0 0.705895984353585 1.61122736129375 0 0.744065732793583 1.51169636364954 0 0.812348259702115 1.57774470582158 0 1.21561951766934 1.59194274290609 0 1.26460526607657 1.51251090122814 0 1.29922055650034 1.61780880568869 0 0.295350406939813 1.24878144427625 0 0.229706463221249 1.33823661400341 0 0.181863964367382 1.24890101842418 0 0.476404993143535 1.5275702791906 0 0.457031005009506 1.59627900052224 0 0.375841004922363 1.51668918134099 0 0.375841004922363 1.51668918134099 0 0.420944906731814 1.43929479484589 0 0.476404993143535 1.5275702791906 0 1.60114515576042 1.54443982870896 0 1.53318726575275 1.63322776708946 0 1.52359785028639 1.52757027918918 0 1.52359785028639 1.52757027918918 0 1.5771276053984 1.43142266012625 0 1.60114515576042 1.54443982870896 0 0.729836484144921 1.23236288424327 0 0.754371061972205 1.1438943646951 0 0.856429814884933 1.22094204632537 0 0.611014342578546 0.951968805613212 0 0.584422029155493 0.850865842495068 0 0.694671268182995 0.861804013605246 0 1.76398716255172 1.09754654802401 0 1.63508210317771 1.08461854393982 0 1.7048256954395 0.988948105378847 0 1.65209158108323 0.896295710779286 0 1.75987072913532 0.906694523256574 0 1.7048256954395 0.988948105378847 0 1.43600810953489 0.141255362919961 0 1.339082773418 0.226637907634606 0 1.35597190592473 0.0854652352735259 0 1.81622554596725 0.98532035675162 0 1.75987072913532 0.906694523256574 0 1.85303987256907 0.903730618401353 0 1.91490405761161 0.962785555309079 0 2 0.918367346936953 0 2 1.02040816326328 0 1.35597190592473 0.0854652352735259 0 1.339082773418 0.226637907634606 0 1.28015545428402 0.134253489113443 0 1.09131257763053 0.901819008479382 0 1.10381806911098 1.02673397416154 0 1.00374734117194 0.979124450324178 0 1.71142933611989 0.831631113528545 0 1.75987072913532 0.906694523256574 0 1.65209158108323 0.896295710779286 0 1.65209158108323 0.896295710779286 0 1.63366587099814 0.790222226508128 0 1.71142933611989 0.831631113528545 0 0.989422216948731 0.874911369871656 0 1.09131257763053 0.901819008479382 0 1.00374734117194 0.979124450324178 0 1.55777816744817 0.869231846744498 0 1.63366587099814 0.790222226508128 0 1.65209158108323 0.896295710779286 0 1.27584256296759 0.319951127291717 0 1.339082773418 0.226637907634606 0 1.35590977906976 0.336653253360248 0 1.12982447656133 0.800928218495745 0 1.23835111652904 0.784057456925547 0 1.19670960640353 0.868101575186357 0 1.62495633134115 0.11872224752482 0 1.68421052631495 0 0 1.74986152426765 0.0993571405544282 0 1.47368421052496 0 0 1.57894736841994 0 0 1.52726988652229 0.0935208475014348 0 1.52726988652229 0.0935208475014348 0 1.57894736841994 0 0 1.62495633134115 0.11872224752482 0 0.322030541746038 0.113556493866926 0 0.315789473683452 0 0 0.420915352533358 0.074985042685528 0 1.85303987256907 0.903730618401353 0 1.75987072913532 0.906694523256574 0 1.79979755245363 0.82511438199244 0 0.979535213804843 0.798043954551922 0 1.07273920199841 0.741352938388404 0 1.05139131088788 0.813433322551643 0 1.12982447656133 0.800928218495745 0 1.09131257763053 
[...]
<PointData Scalars="conc_conc," Vectors="" Tensors="">
<DataArray type="Float64" Name="conc_conc" format="ascii">
0.00390120613133346 0.0038279201052574 0.00405242313850278 0.00371044480661554 0.00379378830817758 0.00386960469776532 0.00601369323955306 0.00635280968406715 0.00551721954762241 0.00506499643983327 0.00555943943945141 0.00528132830754265 0.00610983096782425 0.00603137825240916 0.00571174256643651 0.0016053034761162 0.00213530931339326 0.0019468350539537 0.00223424419009521 0.00163286359422376 0.00159834046558601 0.00291568104365982 0.00212885965451979 0.00213226968980516 0.00321816677513605 0.00293431887384151 0.00212099475873124 0.0060939183041785 0.00573319209606511 0.00583435327802682 0.00224995533842341 0.0015813443786178 0.00221266721374169 0.00462421043520926 0.00498245325463124 0.00547518602883086 0.00163419229549199 0.00161928550934744 0.00161191314922269 0.00339432594611963 0.00292814594282675 0.00388774157879538 0.00474511359744255 0.00390468508246136 0.00460936256301024 0.00497737267969809 0.00472475372732819 0.00486431722264784 0.00463588311119681 0.00528368558936252 0.00507631526875352 0.00507147357144292 0.00530507829517313 0.00535233669068187 0.00529989468914934 0.00602550713243439 0.00550213771611996 0.00474198370421084 0.00542898728989657 0.00505537144911454 0.00299821460236783 0.00218990214043447 0.00243279377396914 0.00243270585026377 0.00340932108399443 0.00300745649298494 0.00206761784636974 0.00213522046633803 0.00272338303014422 0.00339162562299197 0.00342461471541031 0.0027365566144606 0.00339744514798622 0.00389853779154395 0.0043378743320121 0.00605547267699388 0.00607710049336746 0.00627016328739365 0.00604269149038315 0.00628277895912592 0.00634832786305657 0.00556603025904378 0.00505749350615783 0.00534022047435118 0.00555003404692741 0.00535509978757595 0.00585204730850115 0.00530319827464023 0.00505602863518962 0.00569884694295277 0.00601635840734245 0.00531308344244166 0.00569095636506984 0.00554548460260935 0.00533338784258251 0.00532212140152282 0.00557020592521117 0.00555908536737934 0.00530026046585839 0.002123437193153 0.00207407801974308 0.00167877425494009 0.00497850392380095 0.00461106647179613 0.00403293258203696 0.00280236776616205 0.00191709763799823 0.00215414112993723 0.00402132154529525 0.00461898673124183 0.00324467838406998 0.00401142335106576 0.00324067220579762 0.00283005764960735 0.00292875460364013 0.00338923860383858 0.00273547285505104 0.00291834898511599 0.00273993407775793 0.00212730985674085 0.00474364197746552 0.00450331175090485 0.00515735291323261 0.00475108027875943 0.00515633524730004 0.00542239350492514 0.0047316944344897 0.00462325353731844 0.00547099984643201 0.00515680027962915 0.00475294488666866 0.00545256415146633 0.0016152757683907 0.00202240927816181 0.00218784255808197 0.00160794468698829 0.00162209072892662 0.00217546804109854 0.00325218611514093 0.00461103708121716 0.00389201444490299 0.00324345023944424 0.00388975387594479 0.00292495979668119 0.00473942249761744 0.00432802076610643 0.00391091110556897 0.0024430499197252 0.00206819721675749 0.00272636404960984 0.00242996872883857 0.00273765344641911 0.00341386510885027 0.00542404104662893 0.00569324857467608 0.00506551849232 0.00543900723799342 0.00586281983476571 0.00571188323003578 0.00546251558109849 0.00515789521595093 0.00546476420810476 0.0041029822232431 0.00404571386434696 0.00417750491077844 0.00397914349347469 0.00402880129260046 0.00427751268166883 0.00420629379976965 0.00409689218932589 0.0041507155322482 0.00415074657983977 0.00412272161695627 0.00447364353307301 0.00388585261880967 0.00301093057410219 0.00341788857240066 0.00433390593401048 0.00342280459868065 0.00339908524446354 0.00397129721210105 0.00382098121284281 0.00374610209359384 0.00406778971224591 0.00380840793572972 0.00399074399754158 0.00461619178858906 0.0045424045852292 0.00479970390419786 0.00466958745899619 0.00394771104086086 0.00276227342191143 0.00275843083289388 0.00354930358790537 0.00419029811675249 0.00686394775556343 0.00622007174665187 0.00553042283332976 0.00813286732377473 0.00838752986271472 0.00813556274534678 0.00813448012525782 0.00799508402516334 0.00812887628325917 0.007812447422141 0.0078366181504627 0.007526835468312 0.00753663309400377 0.00753095675855726 0.00779790127233369 0.00403584543647778 0.00363963024585398 0.00223708391460658 0.00554593701095318 0.00569858644839457 0.00431138994730444 0.0058430716924336 0.00674730359697374 0.00611921793690041 0.00627237196082605 0.00560787530260612 0.00615030552540626 0.00425786833003762 0.00359629437501733 0.00356297838946418 0.00518359119262729 0.00557693949403675 0.00480294397113534 0.00439032997624486 0.00416136652881767 0.00417744427696797 0.00356342255201007 0.00358469702379798 0.00297184301142155 0.00170340415740818 0.00171510597601419 0.00144871055687589 0.00580796663995604 0.00560746218085753 0.00627013936242473 0.00625448652692627 0.00610810714522754 0.00583162378470826 0.00151512544682373 0.00166375805085338 0.00147206698724186 0.00629811947882744 0.0060925700177156 0.00626814561757441 0.00308694548347433 0.00358549316774487 0.00386300717304641 0.00192909234000283 0.0029443788697733 0.00252515134132765 0.0048244534411739 0.0045045707811466 0.0044753411845173 0.00428047265316646 0.00461569778921839 0.00461305674421985 0.00463162121260385 0.00458065566786308 0.00482518072240506 0.00491814861781855 0.00470317091055347 0.0049981856019783 0.00480778687706192 0.00557365206905048 0.00515356363820825 0.00155350988495005 0.00163378645517619 0.00158586824396311 0.00193823540231657 0.00169227664537473 0.0015734690090357 0.00158096962634283 0.00165523407364064 0.00193490369320281 0.00358165389893633 0.00308265973310324 0.00263653115124287 0.00264010188875104 0.00297045370137525 0.00357859455487058 0.00517737091602094 0.00555659172808709 0.00575752166445448 0.00575188789470364 0.00552732061054517 0.00559374482083879 0.00529917707324768 0.00547051204893947 0.00479873104246414 0.00479587459320414 0.00546599847818167 0.00450553718377601 0.00286715193154106 0.00220978037085906 0.00199960290385619 0.00809580517759566 0.00805231918992214 0.0076669133828564 0.00699339555995211 0.00758098949405698 0.00751167387418877 0.0022402474067274 0.00199936777057268 0.0016836236844451 0.00508018692381438 0.00532746287893655 0.0050115561249172 0.00499724130700452 0.00479392176715128 0.00509541067383773 0.00576690922249176 0.00569293426021746 0.00635299837121655 0.00413750692933052 0.00415671865683084 0.00435052065764083 0.004284542443319 0.0038747575928 0.00343683608006017 0.004281381700173 0.00435300492982549 0.00487009898111069 0.0034357488368399 0.00433329869611949 0.00429312734701491 0.00279213643080916 0.00275615792946534 0.00418601972994153 0.00278036293667813 0.00469075062927008 0.00356182766758415 0.00420739021268824 0.0046923794864233 0.0027805084762385 0.00229231702233515 0.00161720043147769 0.00226459229862027 0.00231136442333841 0.00294411607632489 0.00193543361953606 0.00194537581957355 0.00162228509422099 0.002287791058222 0.00454240734020067 0.00515248129446777 0.00450635428276031 0.00686091997071259 0.00553351684666774 0.00619199960593297 0.00154959119219808 0.00172380394148625 0.00196769671814203 0.00196468669175568 0.00163485628024872 0.00154711745849861 0.00449284724282954 0.00505607180142043 0.00528767008628682 0.00474284447203847 0.00504051495383279 0.00425870322837495 0.00226359809016905 0.00295931382513828 0.00330538765943424 0.00586383970087352 0.00534262513744088 0.00559943554662581 0.00637401792412824 0.00579603511533647 0.00634204161444404 0.00308187148147425 0.00386587005980076 0.00348999038098866 0.00404370207720896 0.00409217774999006 0.00425304564355749 0.00427120213497504 0.0040793469455135 0.00421233823637756 0.00443222499799843 0.00387255146806822 0.00455723815856777 0.00765495949330122 0.00805319829094878 0.00774224136401106 0.00627516249644096 0.00563306967794962 0.00593297457071449 0.0062702094155134 0.00595207732402745 0.00613210898565398 0.00264563564475026 0.00306992500586518 0.00226103914299204 0.00425674803533741 0.00503980047839085 0.00450049935450029 0.00418390538658592 0.00426933361172243 0.00449439638832664 0.00168494497158327 0.00195934833697927 0.00224088485970052 0.00437629014279565 0.00413934186182515 0.00440829934138039 0.00479679080344116 0.00437883919052143 0.00441795854991983 0.00458266364674676 0.00389719621382681 0.0042733667267838 0.00455638513494242 0.00429112243691885 0.00485760012258873 0.00657957656690298 0.00623011810294242 0.00618736549127037 0.00657909830286819 0.00619286402251133 0.00673086901305757 0.00684104847414334 0.00644158170212371 0.00605727207138598 0.00682919104198914 0.00606873853049909 0.00639790614447394 0.00767724308979148 0.00711044458237908 0.00778035885390809 0.0051637076268316 0.00481226466937969 0.00440186746199015 0.00582196404915364 0.00516061301677463 0.00558738254237857 0.00519336247511394 0.0058026132609216 0.00614325803297899 0.00557850223966404 0.00519548456665221 0.00614071075728062 0.00448619808232288 0.00529074654835734 0.00479573832418924 0.00229798116966701 0.00226385187230312 0.00329944850821598 0.00229541614051344 0.00330831490696122 0.002958518349366 0.00363993230522904 0.00325578024855292 0.00252061138102398 0.0029686301957495 0.00363526246842161 0.00252689966363983 0.00152452071350754 0.00156739027200074 0.00157894728327524 0.00150895095559195 0.00159909799739673 0.00167368390161438 0.00386448907431928 0.00443063101370943 0.00349725434766168 0.00166332440276537 0.0016886075354997 0.00133541286116427 0.00239375424924355 0.0017125853117118 0.00164224536584701 0.00360336871390291 0.00425566807155659 0.00439795936791787 0.00440844562822115 0.00424872091667206 0.00481057807334508 0.00479889646660683 0.00498886900272809 0.00442001346091808 0.00271989898992847 0.00217993902340517 0.0020038801147674 0.00355311617394518 0.00273318122947944 0.00357397616857422 0.00272660621150617 0.00355723803887036 0.00297054748686179 0.00273198468150705 0.00296033491810263 0.00217726176776507 0.0051050944569837 0.00498253213318535 0.00534428990244611 0.00533576285481277 0.00554687002656253 0.00511448332090419 0.00456821099157304 0.0049938063387629 0.00509715035867953 0.00554727295263059 0.00428944697820073 0.00389008572864813 0.00713198845784884 0.0077976227231675 0.00758339564935205 0.00712997556900107 0.00784081887717502 0.00705141675717641 0.00457762805248032 0.00467331237221254 0.00568576482764103 0.00417600630259408 0.0041806507218157 0.00448514833632853 0.00415502732077476 0.00450628713339148 0.00441773346761695 0.00519018001285635 0.00451663508142457 0.00577168261292543 0.00516219647896283 0.00439921588702052 0.00452974093399368 0.00413528487084719 0.00417972569824734 0.00467046379662081 0.00619503818664827 0.00563517325939319 0.0047130325052489 0.004721353912206 0.00552884444013774 0.00619256946404739 0.00451474259820117 0.00415936769382361 0.00412042852068446 0.00457005958911236 0.00455020896211421 0.00409330202965998 0.00480129545227256 0.00426969986234204 0.00463818051333664 0.00462995382834514 0.00483995863398454 0.00481276602327652 0.00513378055902084 0.00578356936391441 0.00530119339551961 0.00576437760415806 0.00557619152056394 0.00585199032036749 0.00508937429333391 0.00533451046765387 0.00506487800226998 0.00463034267536562 0.00507886732670799 0.0044446099976799 0.0058528564264847 0.00611315711248202 0.00598230562422574 0.00596008543635366 0.00573289550644131 0.00587102570451804 0.00594752134386476 0.00531465124879814 0.0057669522712763 0.00559382913375452 0.00582318580588416 0.00612114812057929 0.00610572767306194 0.00584424283073377 0.00561602403134576 0.00559022548825379 0.00596370804355518 0.00472234502569934 0.00364821172141394 0.00467463016957056 0.00326318778895868 0.00627846973924762 0.00654748068502976 0.00628704216975219 0.00624986195490383 0.00655466150347594 0.00601255613112423 0.00597858866928549 0.00561402020236377 0.0062927209210605 0.00508665951940278 0.00556873263954754 0.00516366537794846 0.00444649070620909 0.00454786122124447 0.00511096435041532 0.00697344479107218 0.00709028904504106 0.00770265236380692 0.00634937187405038 0.00573471538705016 0.00707376521108994 0.00354484436860862 0.00251218922515989 0.00319475711334024 0.0019827285724092 0.00317354126567524 0.00253066444441899 0.00294334557254759 0.00227300436214211 0.00220786297648101 0.00167890458232697 0.00196104052165516 0.00250670266002863 0.00400982806563763 0.00325912814405716 0.00468008078710549 0.00467812877880451 0.00537220249362759 0.00402324074290902 0.00597607092400017 0.0053811581487585 0.00470203533718284 0.00197052392363311 0.00157866418553621 0.00151560512769348 0.00675979730060394 0.00780889783321024 0.00703275905374788 0.00762475787954636 0.00780878828706653 0.00677649079140526 0.00420189229941607 0.00475617795895754 0.00429087729071261 0.00430077515814133 0.00401435981591503 0.00427404686350833 0.00804443540455179 0.00809984961860005 0.00768758249875146 0.0044049519133367 0.00387255163603018 0.00358767218121093 0.00455279407659048 0.00388110134235512 0.00439865340986012 0.00439841372128443 0.00500235132940111 0.00456024069846855 0.00601807149780677 0.00550547686556877 0.00636213550593481 0.00604320969132876 0.00632496317049993 0.00668697343146178 0.00642522145892868 0.00603274779141191 0.00670152859950389 0.00662523178628568 0.00751533106142736 0.00784227842522688 0.00838854838467345 0.00809758644088627 0.00747776040000541 0.0041857488698377 0.00402770511939686 0.00425036881537981 0.00407348135779711 0.00453744242949702 0.00450119009400635 0.00408061192636334 0.0039968534642541 0.00452619418266865 0.00458927747188177 0.00497887199425413 0.00486403146272077 0.00486741199031395 0.00500134360330543 0.00456536028636791 0.00752115517231218 0.00660884007860436 0.00694580356678782 0.0076185429200363 0.0074593825456446 0.00810254995004212 0.00514067019276888 0.00436316636390078 0.00480468426277996 0.00421899023619802 0.00413375864376908 0.00436147263439095 0.00419251173458785 0.00437760097727014 0.00476582740869659 0.00513754610437947 0.00478935235882961 0.00436997025058278 0.00507775576493199 0.00482321772011061 0.00482538070469441 0.00444822913009145 0.0045283729155155 0.00418399541047892 0.00455365144106909 0.00411100487339118 0.00405670954160682 0.0046585650231165 0.00458806301855016 0.00402728090091941 0.0074387416716371 0.00764589568013125 0.00652026046175166 0.00651777505307157 0.00764152329235702 0.00671115045677337 0.00796225206339854 0.00839930022983259 0.00746610089328072 0.00659039001385641 0.00786519869536484 0.00714503226946925 0.00715965964593348 0.00783686484691625 0.00775384078675473 0.00444615500307384 0.00455343996053372 0.00524789139592162 0.00435267989708138 0.00419213681169048 0.00420885540939542 0.00451599157926115 0.00416257393504343 0.00436609041127119 0.00418458071701684 0.00444315692937234 0.00437358760879765 0.00393420887654728 0.00469914858019404 0.005702063672711 0.00745303043675459 0.00649001267835116 0.00573205898282147 0.00494521799537783 0.00420161715101954 0.00354368059470986 0.00422403895091774 0.00420237865675656 0.00441049314019872 0.00657485512471241 0.00470444999868287 0.00528887023229357 0.00660037997818074 0.0079578397310015 0.00742943343901476 0.00471639445384018 0.00419969886155843 0.0058566359950216 0.00656452356944995 0.00714329593200633 0.00587101001684831 0.00449095663986077 0.00465117478283322 0.00403067163877837 0.00409949524953291 0.00472244243293877 0.00426469800814451 0.00503234926327584 0.00444079029044 0.00525705643607709 0.00219498218508721 0.00165659378396823 0.00173481412661653 0.0024044235023477 0.00163398842129886 0.0022145510699639 0.00431695753476235 0.00448507188741055 0.00411673565299722 0.00477909666338197 0.00450758579801626 0.00429643084775196 0.00697598815949498 0.00681084748759185 0.00555420614542656 0.00459815075666517 0.00431530756873945 0.0056914792504213 0.00568113782389254 0.00578933917121086 0.00462240099547606 0.00759248268461962 0.00625128061838514 0.00684279986853676 0.00176321959054068 0.0028124501737384 0.00351064127111882 0.00351021499904709 0.00275821691522137 0.00175794441151534 0.00242235668203039 0.00219336145054999 0.00325303266108476 0.00516078898619588 0.00618609563431711 0.0055229554374728 0.00455943880569512 0.00564026955581259 0.00574077468850586 0.00172449137456701 0.00292409061213159 0.00201213520594978 0.00450105368621279 0.00547059506420876 0.00520605737736567 0.00600963297200294 0.00559766485635424 0.00521274775858866 0.00521578476412967 0.00547648537988949 0.00600529684220922 0.00644376349400341 0.00619558848843397 0.0056039680722125 0.00565333782330581 0.00570731130409771 0.00466525647378856 0.00287283533507329 0.00199488554711432 0.00266130418138762 0.00225669662346067 0.00307255636981043 0.00265788384743243 0.00265387771420027 0.00200470520873254 0.00226597136537544 0.0013542274293956 0.0016744799918526 0.00139015212788794 0.0026637264878133 0.00220379452575082 0.00170693793618538 0.00427566985345438 0.00320561481799397 0.00277288199323106 0.00276468969773811 0.00317915484742471 0.00197180325896892 0.00671094089920363 0.00635275486550556 0.00654350833462708 0.00323508423147276 0.00219881275082623 0.00289427210512974 0.00294925340976022 0.00219527646403825 0.00323465597318344 0.00473725938934777 0.00504238494835066 0.00430677293273027 0.00532981315060355 0.00504918508936855 0.00474070649847438 0.00628587915683545 0.00713149762232135 0.00777474845959285 0.00778673140982148 0.00702486640836354 0.00627771694889996 0.00162198221702133 0.00199560360534482 0.00248298842982651 0.0015788549356299 0.00197643956664024 0.00166825701038911 0.00173181569746379 0.00168823418942888 0.00227189760207418 0.00228208225841297 0.00166635968437007 0.002516094761819 0.00229710379557206 0.00266373364002812 0.00171180208943428 0.00199035895706658 0.00224950473359746 0.00146373687088004 0.00150326693068656 0.00124874651165857 0.00196268073728808 0.00626180683601941 0.00609432967364981 0.00591267089819316 0.00184520607655722 0.00144726548392829 0.00175033601302968 0.00153508097140098 0.00146745114233718 0.00182457759724917 0.00143715171598668 0.00163049438661984 0.00136720098543762 0.0013850279073146 0.00166230019553748 0.00143064758583887 0.00621998103019728 0.006430389279045 0.0071440671733917 0.00564808978396558 0.00620850360310752 0.00697744830769044 0.00634631329866575 0.00527651079121469 0.00531796356478939 0.00530562936446754 0.00527605139487094 0.00454201859206235 0.0053160003307868 0.00571781269363879 0.00635354502539916 0.00160663298306952 0.00192950320579224 0.00169498836761143 0.0059103940895369 0.00539267662335478 0.00645398267677353 0.00644029435357505 0.00540459178079212 0.0059450165051674 0.00145908009108778 0.00140291535358275 0.00136790734466374 0.00127614846817563 0.00145596719443103 0.00136096686535545 0.00281179060670499 0.00353712959952455 0.00205715220654345 0.00712663771958112 0.00644977205626964 0.00682764449716997 0.001696402689679 0.00273463692356837 0.00154386193906796 0.00699345144399645 0.0062383592872445 0.00760917574826831 0.00766603730495237 0.00701887980052392 0.00757123453056144 0.00585148995778017 0.00420417718377116 0.00494906479336138 0.0065849077854568 0.00585559896991574 0.00496338413964739 0.00570492536706692 0.00471456979125508 0.00656559185154031 0.00572567694999944 0.00657619529516233 0.00746462292193071 0.00265462010985551 0.0030836991550523 0.00348089842902958 0.00288894948383631 0.00265165614497824 0.00348207370639473 0.00288891288773525 0.002148645575607 0.00251272051910691 0.00353994743286202 0.0028997130346484 0.00251602919921169 0.0051661918009373 0.00559705411605313 0.00618222828787599 0.00457722908741903 0.00569034712555196 0.0053231569073455 0.00459168859925232 0.00529928948767309 0.00454787901682033 0.00128992239040332 0.00120404759254964 0.00169278357025942 0.00123474045061673 0.00172091922788097 0.00196761304046971 0.00154081140894264 0.00120913778820273 0.00128072812433788 0.00326587503057608 0.00399437929714816 0.00267779827398438 0.00478016177986908 0.