<?xml version="1.0"?>
<VTKFile type="UnstructuredGrid" version="0.1" byte_order="LittleEndian">
<UnstructuredGrid>
<Piece NumberOfPoints="2148" NumberOfCells="716">
<Points>
<DataArray type="Float64" NumberOfComponents="3" format="ascii">
1.29922055650034 1.61780880568869 0 1.32384729094 1.71008110856985 0 1.21918578810371 1.68683720482456 0 1.21918578810371 1.68683720482456 0 1.32384729094 1.71008110856985 0 1.26372834194719 1.77071231816171 0 1.33125258636496 1.80031957530226 0 1.26372834194719 1.77071231816171 0 1.32384729094 1.71008110856985 0 1.33431190949741 1.89537271834105 0 1.22945253958572 1.85538367295154 0 1.33125258636496 1.80031957530226 0 1.33125258636496 1.80031957530226 0 1.22945253958572 1.85538367295154 0 1.26372834194719 1.77071231816171 0 1.33125258636496 1.80031957530226 0 1.43507550364244 1.83616752147972 0 1.33431190949741 1.89537271834105 0 1.8900698114938 2.28750462447683 0 2 2.24489795918038 0 2 2.34693877550683 0 1.8900698114938 2.28750462447683 0 2 2.34693877550683 0 1.90803132741441 2.36073137876098 0 1.90803132741441 2.36073137876098 0 1.83473725530052 2.36546076037345 0 1.8900698114938 2.28750462447683 0 1.90731824286334 2.44302135468682 0 1.90803132741441 2.36073137876098 0 2 2.44897959183327 0 1.90731824286334 2.44302135468682 0 1.83473725530052 2.36546076037345 0 1.90803132741441 2.36073137876098 0 1.90803132741441 2.36073137876098 0 2 2.34693877550683 0 2 2.44897959183327 0 2 2.44897959183327 0 1.92375480731745 2.53589557998503 0 1.90731824286334 2.44302135468682 0 1.8303684200152 2.5219987530903 0 1.80876480007818 2.43732806432541 0 1.90731824286334 2.44302135468682 0 1.83473725530052 2.36546076037345 0 1.90731824286334 2.44302135468682 0 1.80876480007818 2.43732806432541 0 1.83473725530052 2.36546076037345 0 1.80876480007818 2.43732806432541 0 1.72503432016303 2.37151799012051 0 1.72503432016303 2.37151799012051 0 1.78627228624566 2.30160034532817 0 1.83473725530052 2.36546076037345 0 1.80876480007818 2.43732806432541 0 1.72188391324008 2.49674558087338 0 1.72503432016303 2.37151799012051 0 1.72188391324008 2.49674558087338 0 1.80876480007818 2.43732806432541 0 1.8303684200152 2.5219987530903 0 1.61254537909286 2.54158818386359 0 1.61609166169173 2.42839361146384 0 1.72188391324008 2.49674558087338 0 1.72188391324008 2.49674558087338 0 1.61609166169173 2.42839361146384 0 1.72503432016303 2.37151799012051 0 1.53475422193428 2.46227866216389 0 1.61609166169173 2.42839361146384 0 1.61254537909286 2.54158818386359 0 1.61609166169173 2.42839361146384 0 1.52068466209185 2.37807940269308 0 1.61723202498443 2.31152821380892 0 1.72503432016303 2.37151799012051 0 1.61609166169173 2.42839361146384 0 1.61723202498443 2.31152821380892 0 1.71602833875098 2.27856635228819 0 1.72503432016303 2.37151799012051 0 1.61723202498443 2.31152821380892 0 1.61723202498443 2.31152821380892 0 1.50838086917587 2.27025799045762 0 1.59207788895471 2.20183950859051 0 1.68767253382462 2.20640895690611 0 1.61723202498443 2.31152821380892 0 1.59207788895471 2.20183950859051 0 1.71602833875098 2.27856635228819 0 1.61723202498443 2.31152821380892 0 1.68767253382462 2.20640895690611 0 1.71602833875098 2.27856635228819 0 1.79796629701502 2.20828136864072 0 1.78627228624566 2.30160034532817 0 1.68767253382462 2.20640895690611 0 1.79796629701502 2.20828136864072 0 1.71602833875098 2.27856635228819 0 1.72503432016303 2.37151799012051 0 1.71602833875098 2.27856635228819 0 1.78627228624566 2.30160034532817 0 1.8900698114938 2.28750462447683 0 1.83473725530052 2.36546076037345 0 1.78627228624566 2.30160034532817 0 1.78627228624566 2.30160034532817 0 1.79796629701502 2.20828136864072 0 1.8900698114938 2.28750462447683 0 1.79796629701502 2.20828136864072 0 1.68767253382462 2.20640895690611 0 1.75050082980341 2.10891168053787 0 1.68297248250566 2.04851059362832 0 1.58696969361197 2.10095324336986 0 1.6004312140001 1.9809323568532 0 1.65642778870522 2.1359620481195 0 1.68297248250566 2.04851059362832 0 1.75050082980341 2.10891168053787 0 1.68297248250566 2.04851059362832 0 1.65642778870522 2.1359620481195 0 1.58696969361197 2.10095324336986 0 1.68767253382462 2.20640895690611 0 1.65642778870522 2.1359620481195 0 1.75050082980341 2.10891168053787 0 1.68767253382462 2.20640895690611 0 1.59207788895471 2.20183950859051 0 1.65642778870522 2.1359620481195 0 1.65642778870522 2.1359620481195 0 1.59207788895471 2.20183950859051 0 1.58696969361197 2.10095324336986 0 1.49834267139949 2.16284369072321 0 1.58696969361197 2.10095324336986 0 1.59207788895471 2.20183950859051 0 1.39792856756228 2.11808415502665 0 1.49834267139949 2.16284369072321 0 1.41227254758132 2.23149922678942 0 1.49834267139949 2.16284369072321 0 1.39792856756228 2.11808415502665 0 1.49242646151081 2.05442802010519 0 1.49242646151081 2.05442802010519 0 1.39792856756228 2.11808415502665 0 1.38034216562507 1.98825579553081 0 1.49242646151081 2.05442802010519 0 1.6004312140001 1.9809323568532 0 1.58696969361197 2.10095324336986 0 1.49834267139949 2.16284369072321 0 1.49242646151081 2.05442802010519 0 1.58696969361197 2.10095324336986 0 1.49242646151081 2.05442802010519 0 1.48955724366176 1.93816456585628 0 1.6004312140001 1.9809323568532 0 1.40790874069308 1.91879341016811 0 1.43507550364244 1.83616752147972 0 1.48955724366176 1.93816456585628 0 1.48955724366176 1.93816456585628 0 1.38034216562507 1.98825579553081 0 1.40790874069308 1.91879341016811 0 1.38034216562507 1.98825579553081 0 1.48955724366176 1.93816456585628 0 1.49242646151081 2.05442802010519 0 1.40790874069308 1.91879341016811 0 1.38034216562507 1.98825579553081 0 1.33431190949741 1.89537271834105 0 1.33431190949741 1.89537271834105 0 1.43507550364244 1.83616752147972 0 1.40790874069308 1.91879341016811 0 1.38034216562507 1.98825579553081 0 1.25543501964378 1.95996481023575 0 1.33431190949741 1.89537271834105 0 1.25543501964378 1.95996481023575 0 1.22945253958572 1.85538367295154 0 1.33431190949741 1.89537271834105 0 1.25543501964378 1.95996481023575 0 1.38034216562507 1.98825579553081 0 1.28991071620346 2.06888920918508 0 1.38034216562507 1.98825579553081 0 1.39792856756228 2.11808415502665 0 1.28991071620346 2.06888920918508 0 1.31513718845767 2.18138574562694 0 1.28991071620346 2.06888920918508 0 1.39792856756228 2.11808415502665 0 1.31513718845767 2.18138574562694 0 1.39792856756228 2.11808415502665 0 1.41227254758132 2.23149922678942 0 1.22519903123562 2.16567694852442 0 1.28991071620346 2.06888920918508 0 1.31513718845767 2.18138574562694 0 1.31513718845767 2.18138574562694 0 1.33254278534821 2.28498334668956 0 1.26337592127844 2.24848693953541 0 1.22519903123562 2.16567694852442 0 1.31513718845767 2.18138574562694 0 1.26337592127844 2.24848693953541 0 1.33254278534821 2.28498334668956 0 1.2518926505247 2.35147216404373 0 1.26337592127844 2.24848693953541 0 1.42277345888684 2.35077768525003 0 1.33254278534821 2.28498334668956 0 1.41227254758132 2.23149922678942 0 1.33254278534821 2.28498334668956 0 1.31513718845767 2.18138574562694 0 1.41227254758132 2.23149922678942 0 1.50838086917587 2.27025799045762 0 1.41227254758132 2.23149922678942 0 1.49834267139949 2.16284369072321 0 1.49834267139949 2.16284369072321 0 1.59207788895471 2.20183950859051 0 1.50838086917587 2.27025799045762 0 1.61723202498443 2.31152821380892 0 1.52068466209185 2.37807940269308 0 1.50838086917587 2.27025799045762 0 1.52068466209185 2.37807940269308 0 1.42277345888684 2.35077768525003 0 1.50838086917587 2.27025799045762 0 1.50838086917587 2.27025799045762 0 1.42277345888684 2.35077768525003 0 1.41227254758132 2.23149922678942 0 1.42277345888684 2.35077768525003 0 1.52068466209185 2.37807940269308 0 1.42849147792494 2.46979910395125 0 1.61609166169173 2.42839361146384 0 1.53475422193428 2.46227866216389 0 1.52068466209185 2.37807940269308 0 1.53475422193428 2.46227866216389 0 1.42849147792494 2.46979910395125 0 1.52068466209185 2.37807940269308 0 1.42849147792494 2.46979910395125 0 1.30767113454574 2.4960474711936 0 1.33576128834573 2.40207575997578 0 1.42277345888684 2.35077768525003 0 1.42849147792494 2.46979910395125 0 1.33576128834573 2.40207575997578 0 1.33254278534821 2.28498334668956 0 1.42277345888684 2.35077768525003 0 1.33576128834573 2.40207575997578 0 1.23369951826796 2.43459466107121 0 1.2518926505247 2.35147216404373 0 1.33576128834573 2.40207575997578 0 1.2518926505247 2.35147216404373 0 1.33254278534821 2.28498334668956 0 1.33576128834573 2.40207575997578 0 1.30767113454574 2.4960474711936 0 1.23369951826796 2.43459466107121 0 1.33576128834573 2.40207575997578 0 1.23369951826796 2.43459466107121 0 1.30767113454574 2.4960474711936 0 1.21110197278793 2.52494918789466 0 1.21110197278793 2.52494918789466 0 1.14590554854909 2.45823225966132 0 1.23369951826796 2.43459466107121 0 1.06759806470816 2.48875478804043 0 1.07657732622739 2.39777880419157 0 1.14590554854909 2.45823225966132 0 1.13116107006125 2.53258829231995 0 1.06759806470816 2.48875478804043 0 1.14590554854909 2.45823225966132 0 1.07657732622739 2.39777880419157 0 1.15855640435992 2.37215090950899 0 1.14590554854909 2.45823225966132 0 1.07657732622739 2.39777880419157 0 1.08740393940683 2.2972289099651 0 1.15855640435992 2.37215090950899 0 1.15855640435992 2.37215090950899 0 1.23369951826796 2.43459466107121 0 1.14590554854909 2.45823225966132 0 1.23369951826796 2.43459466107121 0 1.15855640435992 2.37215090950899 0 1.2518926505247 2.35147216404373 0 1.2518926505247 2.35147216404373 0 1.18426613124959 2.27820134964874 0 1.26337592127844 2.24848693953541 0 1.15855640435992 2.37215090950899 0 1.18426613124959 2.27820134964874 0 1.2518926505247 2.35147216404373 0 1.26337592127844 2.24848693953541 0 1.18426613124959 2.27820134964874 0 1.22519903123562 2.16567694852442 0 1.22519903123562 2.16567694852442 0 1.18426613124959 2.27820134964874 0 1.10828483887102 2.17680176761327 0 1.08740393940683 2.2972289099651 0 1.10828483887102 2.17680176761327 0 1.18426613124959 2.27820134964874 0 1.18426613124959 2.27820134964874 0 1.15855640435992 2.37215090950899 0 1.0874
[...]
<PointData Scalars="conc_conc," Vectors="" Tensors="">
<DataArray type="Float64" Name="conc_conc" format="ascii">
0.00214968965301446 0.00248487727412004 0.00145499639836428 0.00145042505546067 0.00248707774724486 0.00192935060378401 0.00269994309556571 0.00193209561422125 0.00250010448971532 0.00285770774997415 0.00161906358298782 0.00270834777660407 0.00270021999894179 0.00162717949951704 0.0019291171116721 0.00270017743588246 0.0039241821841563 0.00288770930915518 0.00277230014487549 0.00217487751310675 0.00214271348964598 0.00282158151648444 0.0021124288663108 0.00267520138506856 0.002692340185838 0.0036835286254803 0.0028482200680057 0.00270050905555707 0.00268915892889994 0.0020665836917602 0.00271111770095112 0.00368554623227291 0.00268944774944228 0.00264931199887116 0.00214524776566742 0.00210297807934089 0.00207715628227487 0.0025027289940517 0.00269066334837168 0.00391242092257413 0.00420782823564992 0.00268035148598609 0.00371090426374412 0.00269011186540523 0.00420952264421569 0.00369482454375724 0.0042367887151382 0.00553212068801874 0.00552480105050333 0.00437798571297721 0.00370145971436929 0.00424614099330735 0.00593466588918096 0.00553555091911459 0.00594654750240915 0.0042157377856033 0.00394018889550311 0.00741329333342782 0.00690810299223066 0.00606855765179186 0.00602084772859 0.0069571450327967 0.0055425454588603 0.00693850007983733 0.00690784813755607 0.00742050460161637 0.00691309675282996 0.00655196428365739 0.00642381859461116 0.00561516623214293 0.0069083071955349 0.00642663413426659 0.00536556630792333 0.00558478388051925 0.0064562694695717 0.00645850145926072 0.00602279194932404 0.00600834497539674 0.00551862691710731 0.00641158941532272 0.00606303799472703 0.00537291270301509 0.00643457239069538 0.00547071944259196 0.00537190311946974 0.00403145905080767 0.0043865741299732 0.005493905574608 0.00405793037530772 0.00536251001063731 0.00553268912742733 0.00537805582238319 0.00439097632639845 0.00282839906645738 0.00369856450507331 0.00436218949147694 0.00436239404574838 0.00403650468606451 0.00283685571364213 0.00406316783045674 0.0054859701447825 0.00444926779580186 0.00507827331411018 0.00566468952586225 0.00521694427807294 0.00551876888891137 0.00501466900654243 0.00449497915286247 0.00504650201288129 0.00551501268968665 0.00569253683957123 0.0054818986355437 0.00553259855669783 0.00448073894582587 0.00551096930754251 0.006060472323673 0.00549821098427867 0.00553128131745978 0.00602557809702992 0.00566008063943263 0.00553996215263653 0.00565150791848724 0.00603655421661017 0.00413339203414788 0.00550585924619596 0.0046234691219767 0.00547992249694229 0.00417163996896411 0.00508116134078606 0.00510038465109099 0.00414744591313979 0.00362329151803944 0.00514936647713614 0.00524867751542516 0.00566033094482136 0.00550261519098365 0.00509301011559455 0.00569305014755045 0.00511603107482704 0.00470751593338819 0.00529347702937598 0.00380648361813088 0.00391148954718965 0.00469097889607616 0.00470884888307679 0.00364972653515402 0.00379638824863009 0.00366164020329017 0.00470664337486061 0.00508057199646507 0.00380882783974245 0.00361964333309843 0.00287909124462676 0.00289377479307969 0.00392369461791378 0.00380376953645549 0.00359777356646359 0.00195683241486559 0.00287755156741043 0.00196440037190348 0.00161698437137043 0.00285419565015903 0.00194936231868306 0.00360129367129026 0.00248588723273693 0.00362068971625168 0.00410374642202757 0.00248954359146376 0.00297035416458662 0.00247134692086623 0.00411212207352645 0.00297347303084268 0.00412631774569898 0.00458451873205632 0.00169508135331954 0.0024876049084038 0.00294492264286864 0.00296443061741129 0.00335883601866479 0.00223967610332942 0.00168842139484251 0.00294606042102638 0.00224101262030862 0.00335500086599879 0.00211705263721684 0.00223846686946517 0.005058637725701 0.00338187703371057 0.00460418584256902 0.00338042357343106 0.00295394830818334 0.00459448090107095 0.00595202025330863 0.00464859988369629 0.00548194044217904 0.00550128942026427 0.00606527106284766 0.00597505251947933 0.00649944180282045 0.00649982317775483 0.0059852842134401 0.00647109351935855 0.00512575168255263 0.00595210307311327 0.00597979777089725 0.00509552294603848 0.00460875439278121 0.0050870011071104 0.00649928659810976 0.00554857337144738 0.00695351160731503 0.00691575663215608 0.00649307619112877 0.00692731090623859 0.00559199102376367 0.00646407610037579 0.0054876462538681 0.0031451809952166 0.00356627870427551 0.0050842987137883 0.00548392782630197 0.00358895697399152 0.00336023297108789 0.00506943363928932 0.00358988951341952 0.00185727345224117 0.00211109770113314 0.00353790728548688 0.00210671001481006 0.00337198356868174 0.00355072295659784 0.00312282361949649 0.0018448501999245 0.00355551136449589 0.00187205034694865 0.00309572597809504 0.00154107858035504 0.00154189698142524 0.000842679455151413 0.00184847298165133 0.000417305190500643 0.000494983811065775 0.000846774812518064 0.000732170669965374 0.000403407812238871 0.000863596383659606 0.000468810664320361 0.000992477380323212 0.000863974373895031 0.000481794088987813 0.000568834765313761 0.000977028815095492 0.00100431236989618 0.00182948499134812 0.000857965520835088 0.00185130838277641 0.000974170071982493 0.00209541307332667 0.00210336481925034 0.00124937986173557 0.00223552683256796 0.000989453668614027 0.00127268740015059 0.00207921691584823 0.00222700020310952 0.00126044821724175 0.00170824505754977 0.00167312555544699 0.00125615591919129 0.00065065805080189 0.000550318949643775 0.000699360523520299 0.00122797439809747 0.00124207560869349 0.000995678079387847 0.000535325880830201 0.000536255716851147 0.000395088243491743 0.000434414353919859 0.00039799925092079 0.00067497009757015 0.000556111352738455 0.000433906724053876 0.000395182644363521 0.000663210020361683 0.000378668507195084 0.000600207928367308 0.00068534536390166 0.000403399072832592 0.000364651469215175 0.000583549623262354 0.000468847264334989 0.000363919056379138 0.000403791317134257 0.000557413769158024 0.000485038120619664 0.000379058593030351 0.00048653980385215 0.000425746290617789 0.000350810106194698 0.000415568564737433 0.000320484114312126 0.000368932915604201 0.000372329376258632 0.000317081569884664 0.000512998685033165 0.000352044688203832 0.000526564106646348 0.000601516879488197 0.00108100621412713 0.000609670542233753 0.000521330578021489 0.00109890837522624 0.000507117779989208 0.000949992827851332 0.00109830391178431 0.00123831740533616 0.000584062340672929 0.00122166211086832 0.000696233732776717 0.000597867329735168 0.00247950575918517 0.00122110758050905 0.002227054542548 0.0010937130546916 0.00220478824389488 0.00124950538345901 0.0022243899571284 0.00107816355063933 0.00189682803170088 0.00189974032562653 0.00359445925869376 0.00224642422713467 0.00404816694505861 0.00222555481903623 0.00361930729846756 0.00405490806745771 0.00364790642827892 0.00576568254832502 0.00408170176892838 0.00554898500120843 0.00380451640737734 0.0040397167080344 0.00381614765780361 0.00249393762801248 0.00403063138725304 0.00249313265082637 0.00223700316288952 0.00260670824232909 0.00152330779015769 0.00248586887029582 0.00260822976994671 0.00250244554464095 0.00380056733976249 0.00502875601409182 0.00335491949974584 0.00382579196248066 0.00261180866264072 0.00380214238376943 0.00336243577556431 0.00261146995189542 0.00334676917353987 0.00199737010706428 0.00201490210047204 0.00153460160825468 0.00259749021432604 0.000802469180726523 0.00152778259239861 0.00198180239880409 0.00246239673121813 0.00154407831326916 0.00123692685617153 0.00066331795648877 0.00124088524369675 0.001514469989743 0.00068349853707287 0.00082606860540644 0.000397840257842822 0.00149892684148603 0.000849629017190886 0.000679168969252106 0.000436203637137079 0.000817236966969245 0.00074450869930281 0.000717797969756864 0.000833363817202841 0.00148431065433065 0.00198049030693565 0.00152048151300933 0.000811567783149288 0.00334362489761033 0.00283586603795349 0.0020062152312677 0.00451158797150672 0.00282335760543238 0.00337060561426188 0.00284522931884052 0.0044998708147988 0.00397559851103895 0.00148702849948973 0.00200770473539767 0.00280825087850289 0.00280546260273559 0.00227220101115384 0.00149544005724234 0.00283726282513646 0.00396320446355493 0.0022489593107058 0.00319816510101452 0.00225750985243591 0.00395802167622484 0.00320353187709231 0.00397782438101848 0.00413892071123943 0.00317888537957452 0.00187077587836484 0.00226150532471638 0.00121552825955135 0.00185938120761712 0.000885139107501993 0.00120247954240365 0.00224387310633638 0.00189114046821153 0.00119574181704851 0.00150578280927316 0.00224591551971686 0.00148791213992177 0.00122293187770551 0.000717963583356033 0.000672273146778547 0.000737984598263328 0.0011978570425239 0.000910706652793593 0.000670646876578271 0.0012043865492271 0.000876167385109039 0.000520313788175298 0.000664507089711637 0.000547609104224512 0.00063401348464618 0.000564193990637845 0.000577879458246653 0.000518896805311034 0.000742863551667926 0.00059175494700243 0.000621635178547755 0.000491178313700346 0.000543837568857036 0.000501377358570683 0.000630967416315263 0.00049142318868249 0.000733282966517298 0.000679074354937408 0.000500276339178683 0.00045590122298091 0.00071909491250467 0.000452286776264623 0.000414465334419548 0.000799385106660256 0.000649426198219854 0.000414170997372698 0.000452794844750774 0.000631769945012739 0.000667579617586668 0.000435765320318738 0.000607045646358687 0.000455296101201723 0.000500732471130719 0.0012437636939149 0.000681328108546306 0.000605816011568449 0.000658286733157436 0.00128020248364769 0.00167315540634477 0.00245679013067576 0.00169927674982922 0.00124457056588894 0.00125136002614685 0.00197750587674354 0.00245571796740638 0.00194936330072632 0.0012640856943208 0.00100360351582727 0.00060488032870656 0.00103169989472724 0.00124816661704279 0.00100676074447495 0.000625270468729907 0.0005855588074026 0.000749518694008445 0.00160682245404989 0.00102378933527762 0.00101388050165611 0.000583299972362767 0.000776741810413025 0.00163970371921417 0.00194851724496787 0.00100897726543108 0.0011301097769524 0.00160379832185016 0.000755847844138207 0.00191629521532647 0.0016236588088024 0.00110684627812979 0.00144677585004606 0.00111332977999641 0.000826796885395312 0.00146881588305568 0.00191342831655084 0.00111189785265539 0.00085015547966177 0.00109493387866223 0.000595526565555866 0.00059346164029918 0.0010940988342684 0.000766135213317669 0.000746214014750551 0.000517868747476539 0.000631758313075498 0.000624396142916823 0.000523841759340516 0.000873986642496895 0.000534774956695676 0.000590927470899333 0.000597589536266422 0.000586826913344538 0.00058181009462309 0.0006038380246355 0.000611977050992804 0.00056264330095238 0.000826656967263202 0.000735593551258661 0.000540183098574632 0.000602695642285722 0.00073287587305303 0.000627011546883295 0.000546701078631246 0.000836015117796903 0.000563106513316973 0.000579693527973858 0.000615988791713486 0.000586341691630063 0.000560908402391345 0.000850818121633435 0.000564375661400801 0.000866443372793215 0.000861644568569991 0.0008692900072207 0.00137542493244749 0.000856230478108564 0.000832933473476895 0.000551719165482469 0.000859288808400976 0.00143533224737326 0.000833554051514775 0.00146125020201564 0.00138326394861231 0.00213623206299665 0.000850786557576333 0.00138833963340009 0.00144605905513735 0.000789092238979514 0.000548314174878018 0.000775841834969079 0.000834229844940665 0.000582125118531521 0.000551712011441205 0.000616238340982742 0.000571589519194838 0.00058809137229916 0.000766992463454939 0.000560351527694955 0.000618320137003912 0.00078440141957979 0.00117488601258714 0.00079290765037479 0.00117405100131017 0.00135220531500382 0.00185807093302518 0.000775608038052877 0.0013449631910414 0.00118549140019386 0.0018664939127015 0.00232586513627167 0.00273455579107929 0.00273662684461148 0.00233641769678356 0.00328585044227432 0.00329463719124339 0.00232740690199948 0.00272395188623774 0.00329392406621665 0.00273106016030251 0.00362978024650964 0.0027068313371091 0.00233114951595123 0.00163770388442432 0.00163218517176914 0.00209782690821348 0.00270953211554469 0.00230691375580178 0.0018753495566588 0.00134379291571315 0.00163739009781338 0.00230922689866867 0.00133942612021854 0.00161193385199169 0.00136293424880216 0.000727196390625786 0.000745426335598313 0.00134088973720624 0.000778185882115145 0.00061419720470166 0.000748230568253608 0.000777345323260206 0.00119853151229295 0.00160637909279291 0.000729654731605395 0.00120315270066726 0.00208609943252458 0.00164321150517382 0.00119895330147215 0.0018730990401093 0.00208514659425489 0.000897266643361049 0.00117801023363701 0.000581583797986845 0.00117334190246273 0.000772072394310934 0.00059082699439349 0.000894943424245516 0.0018520809121556 0.0012195591246496 0.00209207022375205 0.00188366849249202 0.00299655550465387 0.0027209632956714 0.00209737002804999 0.00299456856411603 0.00300780434899961 0.00363679805321343 0.00271939338883531 0.00321291971006527 0.00422730335615635 0.0029994426240549 0.00300728170687701 0.00187583995496388 0.00318116586324047 0.00301359194821122 0.00421438155021123 0.00363523896628066 0.00365153966354955 0.00422374309438436 0.00437775983880543 0.00434960742614678 0.00425692745615261 0.00491228275033001 0.00491835721657544 0.0042600609391639 0.00497015972129463 0.00514433812809578 0.00490626380013872 0.00489115642468581 0.00445747201877069 0.00493117578085407 0.00488189279549215 0.00490403979938877 0.0044816965687395 0.00447123741329772 0.00450360734361118 0.00439374514034372 0.0048832359309028 0.00451792600602084 0.00445005460401684 0.00400228712723072 0.00409764781150482 0.00450847980534638 0.00400590444338087 0.00398243461715399 0.00356591604261893 0.00411967590148165 0.00411059358570274 0.0035847003489716 0.00387747180579023 0.00412890170026091 0.00415795452515842 0.00448958947740307 0.00387028995630491 0.00416615417019484 0.00412043736171776 0.00404422515551456 0.00415662759893483 0.00363556481910784 0.00436925891960229 0.00403858247000078 0.00366422688722801 0.00450995295898495 0.00412538761546063 0.00406714926751262 0.00437888248652817 0.00452953980832886 0.00405229321139262 0.00329571080921179 0.00364698028377354 0.00405311307672605 0.00330896672063003 0.00403987653589236 0.00361912107234878 0.00274447746419215 0.00329439951634885 0.0036352477591149 0.00362060798257899 0.00357558975714734 0.00304914547294649 0.00362650422134307 0.00303460810177921 0.00275008530165534 0.00356127539646176 0.00363379137315085 0.00389774010006988 0.00415020922604477 0.00389648203720057 0.00364268730249107 0.00389419706574132 0.00373742775029118 0.00358481082860892 0.00354058246735955 0.0032712034964884 0.00339591965284579 0.00354027569342248 0.00388169111868496 0.00327152727289227 0.00373324134615437 0.00387808882165834 0.00355094426854306 0.00373431543464865 0.00354662060742595 0.00339368753749019 0.00389644699869478 0.00370952444963125 0.00391129336079585 0.00391362423786872 0.00414991779337877 0.00389735596022405 0.00326040436974646 0.00354419433716634 0.00277034389986979 0.00325974616913677 0.00389244072332983 0.00356889384326982 0.00325575105709109 0.00276827847488533 0.00259166353069838 0.00187793957578665 0.00209208463318343 0.00213195787585896 0.00196336442301328 0.00190064215101553 0.00211532270601552 0.00214176534418746 0.00210155052830656 0.00258194212914083 0.00213015125759196 0.00259588622512014 0.00274664527106374 0.00222586677035507 0.00213253343235147 0.00274071093972168 0.00194632781675345 0.00213657413753407 0.00220801065078923 0.00226257448774814 0.0020020742506177 0.00221691670697664 0.00219154948484998 0.00201923217480168 0.00196622096933274 0.00207729376427556 0.00202652399967751 0.00224372141011241 0.00227163678398022 0.00221872141377433 0.00295523016029465 0.00225721470001266 0.00298052404804355 0.00282376533851563 0.00276191194769061 0.00296499071611364 0.00221390175722588 0.00355142877060524 0.00300353043885594 0.00275621493133558 0.00301100881151615 0.00355524385061945 0.00397024850685768 0.00397967126786338 0.00359273348193363 0.00299680507681627 0.00358761305356321 0.00284131405076143 0.00299091730410326 0.0035961504277131 0.00378457126835892 0.00283529977152273 0.00360196074559363 0.00397183651533411 0.00443485624089083 0.00444666847424522 0.00382791484375501 0.00359028148604508 0.00384723470134727 0.00443514436728288 0.00486306124090039 0.0025084495376167 0.00283435303908556 0.00377367437772336 0.0028115119158274 0.00251328879007332 0.00224921266276159 0.00280088115941135 0.00225874375903322 0.00227919381424101 0.00211701510341175 0.0020795906399136 0.00225281169766696 0.00226287536701391 0.00206111564603559 0.00226686111970883 0.00227619477173077 0.0024868287604716 0.00209444537984831 0.00211992914652085 0.00209935153647856 0.00247470680211958 0.00209402097473389 0.0025127974630737 0.00257949296463928 0.00335521370473609 0.00259887838241173 0.00251004300251099 0.00282596033272114 0.00257741899517437 0.00369254410515922 0.00256239697719726 0.002126418742823 0.00211479269902366 0.0027377487562354 0.00212074832771942 0.0021183960973803 0.00209374062898015 0.00260539261150958 0.0027663779309721 0.00209405886678005 0.00278359544250599 0.00255977364432912 0.00283321558967442 0.00396319242677389 0.00255162779428657 0.00282235096950593 0.00372376764023648 0.00446139371522769 0.00280958276088606 0.00446848316247138 0.00400098799568663 0.00447062393968469 0.00556746696356407 0.00404776427433751 0.00449906841373682 0.00565065643659566 0.0055658452806865 0.00451328037566782 0.00509746384318974 0.00563741522917557 0.00511466550396429 0.00448752102065879 0.00372449088298365 0.00510566621206458 0.00373614180952138 0.00449674133462503 0.00337248152589193 0.00449830389290393 0.00372367520198809 0.00257977538883682 0.00338039358052846 0.00369676516263335 0.00249445739844002 0.00378887804499761 0.00336842652646423 0.00338169653785017 0.00379898301622441 0.00448927085368826 0.00487821924287012 0.00450690321409574 0.0038222588832398 0.00542859705452452 0.00453710676034234 0.00484493901621778 0.00452798191675533 0.00544363871234037 0.00512434387349291 0.00514248222300819 0.00486744618494543 0.00499926539243265 0.00501505799971746 0.00544447075574641 0.0051378633095128 0.00515980725644634 0.00541516246381117 0.0048778921535338 0.00497904853500769 0.00421051390943112 0.00413375001457901 0.00413203330652111 0.00422399355614273 0.00322098847648171 0.00412407484986408 0.00401001953073397 0.00499768256427133 0.0054689994861622 0.00499613962015511 0.00543007143458758 0.00539873831800598 0.00499391420632095 0.00402395931117105 0.00590519118275921 0.00540833409221949 0.00584022999680064 0.00398207616761878 0.00454233760031399 0.00542149114121325 0.00501547032488905 0.00451950781810793 0.00337808296718764 0.00505237700206183 0.00584960650344542 0.00452979215483215 0.00539575603008789 0.00457035049637725 0.00582127456647532 0.00625870498098249 0.00586039985621732 0.00587932882531551 0.00587143309385748 0.00542162218632412 0.0054647542381963 0.00589995206143972 0.00563545482032682 0.0051276352970261 0.00539059690182433 0.00587215057366951 0.00515999045258634 0.00586927179944983 0.00624482993522231 0.00565141821618339 0.005618095081205 0.00627883908667728 0.00559538784605119 0.00628212580368581 0.00660825798456503 0.00560222393844699 0.00555531279751315 0.00662918824489624 0.00542597981898755 0.00665107333612241 0.00562722255519478 0.00541817149383675 0.00634668989907921 0.00686990398103977 0.00669923370801873 0.00622701296782169 0.00638252641842283 0.0066587708484478 0.00633264311004805 0.00628767579678723 0.0058408931739256 0.00581967791303363 0.00508099925226963 0.00631282780343904 0.00503939916190419 0.00556025005475581 0.0063426218278645 0.00503236076686606 0.0038316162884005 0.00553144352373942 0.00631082494292738 0.00559009888328512 0.0068581535742515 0.0040842392465084 0.00576411394299885 0.00555946297636197 0.0058326543845443