<?xml version="1.0"?>
<VTKFile type="UnstructuredGrid" version="0.1" byte_order="LittleEndian">
<UnstructuredGrid>
<Piece NumberOfPoints="2148" NumberOfCells="716">
<Points>
<DataArray type="Float64" NumberOfComponents="3" format="ascii">
0.0736345888316307 0.0637333048655595 0 0 0 0 0.105263157894484 0 0 0.0736345888316307 0.0637333048655595 0 0 0 0 0 0.102040816326531 0 0 0.102040816326531 0 0.105847738327952 0.150895293579407 0 0 0.204081632653061 0 0.0736345888316307 0.0637333048655595 0 0 0.102040816326531 0 0.105847738327952 0.150895293579407 0 0.0736345888316307 0.0637333048655595 0 0.105847738327952 0.150895293579407 0 0.157062047935717 0.0657304144218603 0 0.0736345888316307 0.0637333048655595 0 0.105263157894484 0 0 0.157062047935717 0.0657304144218603 0 0.210526315788968 0 0 0.157062047935717 0.0657304144218603 0 0.245859050062934 0.0615708420060463 0 0.105263157894484 0 0 0.210526315788968 0 0 0.157062047935717 0.0657304144218603 0 0.157062047935717 0.0657304144218603 0 0.222741758606036 0.141984576675053 0 0.245859050062934 0.0615708420060463 0 0.105847738327952 0.150895293579407 0 0.157062047935717 0.0657304144218603 0 0.222741758606036 0.141984576675053 0 0.222741758606036 0.141984576675053 0 0.245859050062934 0.0615708420060463 0 0.322030541746038 0.113556493866926 0 0.210526315788968 0 0 0.245859050062934 0.0615708420060463 0 0.315789473683452 0 0 0.245859050062934 0.0615708420060463 0 0.315789473683452 0 0 0.322030541746038 0.113556493866926 0 0.306529038486018 0.218453285118224 0 0.19912213507756 0.241701131057856 0 0.28395937666824 0.336326657262323 0 0.222741758606036 0.141984576675053 0 0.306529038486018 0.218453285118224 0 0.322030541746038 0.113556493866926 0 0.222741758606036 0.141984576675053 0 0.306529038486018 0.218453285118224 0 0.19912213507756 0.241701131057856 0 0.105847738327952 0.150895293579407 0 0.222741758606036 0.141984576675053 0 0.19912213507756 0.241701131057856 0 0.19912213507756 0.241701131057856 0 0.170994783200652 0.334188745583958 0 0.28395937666824 0.336326657262323 0 0.19912213507756 0.241701131057856 0 0.0963260944161509 0.273811510294367 0 0.170994783200652 0.334188745583958 0 0.105847738327952 0.150895293579407 0 0.19912213507756 0.241701131057856 0 0.0963260944161509 0.273811510294367 0 0.105847738327952 0.150895293579407 0 0.0963260944161509 0.273811510294367 0 0 0.204081632653061 0 0.0963260944161509 0.273811510294367 0 0 0.204081632653061 0 0 0.306122448979592 0 0 0.306122448979592 0 0 0.408163265306122 0 0.0798863474723025 0.392675045642543 0 0.0963260944161509 0.273811510294367 0 0 0.306122448979592 0 0.0798863474723025 0.392675045642543 0 0 0.408163265306122 0 0.0798863474723025 0.392675045642543 0 0.099581482345634 0.49355644173514 0 0.0798863474723025 0.392675045642543 0 0.099581482345634 0.49355644173514 0 0.19230207234368 0.422678825965969 0 0.0963260944161509 0.273811510294367 0 0.0798863474723025 0.392675045642543 0 0.170994783200652 0.334188745583958 0 0.0798863474723025 0.392675045642543 0 0.170994783200652 0.334188745583958 0 0.19230207234368 0.422678825965969 0 0.0636610927580281 0.559357934802157 0 0 0.612244897959184 0 0 0.510204081632653 0 0.0636610927580281 0.559357934802157 0 0 0.612244897959184 0 0.0788823051552232 0.670851705018505 0 0 0.408163265306122 0 0 0.510204081632653 0 0.099581482345634 0.49355644173514 0 0.0636610927580281 0.559357934802157 0 0 0.510204081632653 0 0.099581482345634 0.49355644173514 0 0.099581482345634 0.49355644173514 0 0.124792039049303 0.598138423871711 0 0.222058877190937 0.510857644422808 0 0.0636610927580281 0.559357934802157 0 0.124792039049303 0.598138423871711 0 0.0788823051552232 0.670851705018505 0 0.0636610927580281 0.559357934802157 0 0.099581482345634 0.49355644173514 0 0.124792039049303 0.598138423871711 0 0.124792039049303 0.598138423871711 0 0.222058877190937 0.510857644422808 0 0.235802928303382 0.611564357809131 0 0.099581482345634 0.49355644173514 0 0.222058877190937 0.510857644422808 0 0.19230207234368 0.422678825965969 0 0.222058877190937 0.510857644422808 0 0.298455345785692 0.447563908098048 0 0.314543409362701 0.549165380872091 0 0.222058877190937 0.510857644422808 0 0.235802928303382 0.611564357809131 0 0.314543409362701 0.549165380872091 0 0.235802928303382 0.611564357809131 0 0.314543409362701 0.549165380872091 0 0.335916026949355 0.661311993908121 0 0.170994783200652 0.334188745583958 0 0.19230207234368 0.422678825965969 0 0.28395937666824 0.336326657262323 0 0.222058877190937 0.510857644422808 0 0.19230207234368 0.422678825965969 0 0.298455345785692 0.447563908098048 0 0.19230207234368 0.422678825965969 0 0.298455345785692 0.447563908098048 0 0.28395937666824 0.336326657262323 0 0.28395937666824 0.336326657262323 0 0.377510554953585 0.391263936876735 0 0.399803174487431 0.298440986856889 0 0.298455345785692 0.447563908098048 0 0.377510554953585 0.391263936876735 0 0.406811536593169 0.484911194529197 0 0.298455345785692 0.447563908098048 0 0.28395937666824 0.336326657262323 0 0.377510554953585 0.391263936876735 0 0.377510554953585 0.391263936876735 0 0.406811536593169 0.484911194529197 0 0.498523341233396 0.389076937637219 0 0.498523341233396 0.389076937637219 0 0.500986724861322 0.250629842679194 0 0.399803174487431 0.298440986856889 0 0.377510554953585 0.391263936876735 0 0.498523341233396 0.389076937637219 0 0.399803174487431 0.298440986856889 0 0.314543409362701 0.549165380872091 0 0.420597075781915 0.595854369448944 0 0.335916026949355 0.661311993908121 0 0.298455345785692 0.447563908098048 0 0.314543409362701 0.549165380872091 0 0.406811536593169 0.484911194529197 0 0.314543409362701 0.549165380872091 0 0.406811536593169 0.484911194529197 0 0.420597075781915 0.595854369448944 0 0.406811536593169 0.484911194529197 0 0.420597075781915 0.595854369448944 0 0.509931573480221 0.522280814579519 0 0.420597075781915 0.595854369448944 0 0.509931573480221 0.522280814579519 0 0.517751522887305 0.649204659932698 0 0.509931573480221 0.522280814579519 0 0.613945404707068 0.570990073651732 0 0.587686537066514 0.464126045476426 0 0.509931573480221 0.522280814579519 0 0.613945404707068 0.570990073651732 0 0.517751522887305 0.649204659932698 0 0.498523341233396 0.389076937637219 0 0.581885168833657 0.302392759021642 0 0.500986724861322 0.250629842679194 0 0.406811536593169 0.484911194529197 0 0.509931573480221 0.522280814579519 0 0.498523341233396 0.389076937637219 0 0.509931573480221 0.522280814579519 0 0.498523341233396 0.389076937637219 0 0.587686537066514 0.464126045476426 0 0.498523341233396 0.389076937637219 0 0.587686537066514 0.464126045476426 0 0.614047778589085 0.387795898525738 0 0.498523341233396 0.389076937637219 0 0.614047778589085 0.387795898525738 0 0.581885168833657 0.302392759021642 0 0.614047778589085 0.387795898525738 0 0.581885168833657 0.302392759021642 0 0.672697639570897 0.28766618318192 0 0.581885168833657 0.302392759021642 0 0.500986724861322 0.250629842679194 0 0.611102057161856 0.196335598991703 0 0.581885168833657 0.302392759021642 0 0.611102057161856 0.196335598991703 0 0.672697639570897 0.28766618318192 0 0.500986724861322 0.250629842679194 0 0.611102057161856 0.196335598991703 0 0.513101370826361 0.134129492815744 0 0.500986724861322 0.250629842679194 0 0.513101370826361 0.134129492815744 0 0.412014556344116 0.189798498882905 0 0.611102057161856 0.196335598991703 0 0.594439451232812 0.0887178408363477 0 0.513101370826361 0.134129492815744 0 0.594439451232812 0.0887178408363477 0 0.526315789472444 0 0 0.631578947367022 0 0 0.594439451232812 0.0887178408363477 0 0.526315789472444 0 0 0.513101370826361 0.134129492815744 0 0.526315789472444 0 0 0.513101370826361 0.134129492815744 0 0.420915352533358 0.074985042685528 0 0.513101370826361 0.134129492815744 0 0.420915352533358 0.074985042685528 0 0.412014556344116 0.189798498882905 0 0.526315789472444 0 0 0.420915352533358 0.074985042685528 0 0.421052631577937 0 0 0.420915352533358 0.074985042685528 0 0.315789473683452 0 0 0.322030541746038 0.113556493866926 0 0.420915352533358 0.074985042685528 0 0.421052631577937 0 0 0.315789473683452 0 0 0.420915352533358 0.074985042685528 0 0.322030541746038 0.113556493866926 0 0.412014556344116 0.189798498882905 0 0.306529038486018 0.218453285118224 0 0.322030541746038 0.113556493866926 0 0.412014556344116 0.189798498882905 0 0.306529038486018 0.218453285118224 0 0.399803174487431 0.298440986856889 0 0.412014556344116 0.189798498882905 0 0.306529038486018 0.218453285118224 0 0.28395937666824 0.336326657262323 0 0.399803174487431 0.298440986856889 0 0.500986724861322 0.250629842679194 0 0.399803174487431 0.298440986856889 0 0.412014556344116 0.189798498882905 0 0.295350406939813 1.24878144427625 0 0.246522554351683 1.16362252184999 0 0.352853207783426 1.1463879991198 0 0.295350406939813 1.24878144427625 0 0.246522554351683 1.16362252184999 0 0.181863964367382 1.24890101842418 0 0.246522554351683 1.16362252184999 0 0.283487779541101 1.08170937477947 0 0.352853207783426 1.1463879991198 0 0.246522554351683 1.16362252184999 0 0.202239780457393 1.08245817859136 0 0.283487779541101 1.08170937477947 0 0.246522554351683 1.16362252184999 0 0.156022104484688 1.15671384061775 0 0.202239780457393 1.08245817859136 0 0.246522554351683 1.16362252184999 0 0.181863964367382 1.24890101842418 0 0.156022104484688 1.15671384061775 0 0.181863964367382 1.24890101842418 0 0.0769912270182558 1.21550350972786 0 0.156022104484688 1.15671384061775 0 0 1.22448979591837 0 0.0769912270182558 1.21550350972786 0 0 1.12244897959184 0 0.0769912270182558 1.21550350972786 0 0 1.12244897959184 0 0.0938420895696505 1.07913022382781 0 0.156022104484688 1.15671384061775 0 0.0938420895696505 1.07913022382781 0 0.202239780457393 1.08245817859136 0 0.0769912270182558 1.21550350972786 0 0.156022104484688 1.15671384061775 0 0.0938420895696505 1.07913022382781 0 0.0938420895696505 1.07913022382781 0 0.156323146912265 0.989428081563376 0 0.202239780457393 1.08245817859136 0 0.0938420895696505 1.07913022382781 0 0.0741199651049571 
[...]
<PointData Scalars="conc_conc," Vectors="" Tensors="">
<DataArray type="Float64" Name="conc_conc" format="ascii">
0.00184127011956888 0.00174603060765443 0.00183562588488665 0.00184372382708274 0.00174876558715052 0.00183054892947617 0.00182807333335178 0.00196387512601566 0.00191336235576714 0.00185062805877896 0.00182607472788968 0.00196804081749753 0.00184426717440631 0.00197562835446545 0.00199016199169766 0.00184376682213808 0.00183811882057589 0.00198755733377478 0.0020450685925678 0.00199311123497203 0.0021856041302531 0.00183802847875682 0.0020468290651278 0.00198564775646606 0.00199491296738834 0.00223881703650272 0.00218882830159373 0.00197553605861305 0.0019957650790981 0.00223563108337968 0.00224443843802559 0.00218692457275269 0.00241670068626953 0.00205209747514559 0.0021811892921735 0.00225663757147646 0.00218994357422003 0.00224707902828142 0.00241072196796843 0.00255217021406596 0.00230751792016457 0.00267692218158118 0.00224466435363467 0.00254661227064021 0.00241781285882262 0.00223650396112987 0.00255011960367563 0.00230737765644691 0.00197291278088565 0.00223768687967247 0.00229726447166228 0.00230126744234555 0.00233685854092787 0.00267653352725932 0.00229950511623886 0.00207769969972182 0.0023334814775355 0.00197586909566071 0.00229269796776782 0.00208137015039826 0.00197383108885927 0.00207385107531101 0.00190709137048789 0.00206643696237265 0.00191657435711257 0.00200429248422032 0.00200721827684676 0.00209665129202382 0.00215667776935656 0.0020753002331136 0.00199835956748619 0.00216175771514191 0.00209108251159034 0.00216329800267743 0.00228968781430634 0.00215333700261704 0.00229928303120359 0.00250475202736275 0.00208069480839258 0.00216133207420276 0.00233057725098341 0.00215392928193766 0.00233823395987369 0.00250618193384579 0.00228887131852405 0.0022770108346718 0.00218829734153464 0.00229676129332678 0.00226935131717178 0.00242492000527368 0.00209613943442538 0.00218409144155935 0.00228187900876459 0.00229340806111365 0.00217855031369376 0.00229148747232805 0.0022943065357199 0.00249288003118012 0.00273510649961762 0.00229377543477616 0.00248528955831312 0.00242877142368635 0.00229253853644438 0.00230170301633471 0.00248866653497732 0.00248905690892306 0.00274461758867678 0.00294348995427118 0.00229632986714693 0.00273452816876458 0.00251624496977811 0.00274955765563751 0.00290042321354885 0.0031228722665402 0.00274344690033088 0.00295307146285755 0.00312701006921919 0.00295904628167992 0.0031231803364912 0.00339559262483496 0.00233482586404958 0.00251647969167173 0.00268044541187964 0.00274338885903412 0.00251516717148928 0.0029026548314245 0.00252101742563788 0.0028979818686299 0.00268019180099303 0.00269828764518884 0.00295712578126054 0.00281142765227834 0.00291263842010843 0.0029534429529173 0.003160860310036 0.00290363636574379 0.00268409581134642 0.00296114769457458 0.00297063848434914 0.00316024188461344 0.00289207183439117 0.00287978251061041 0.00262514966222108 0.0028145161316126 0.00296563539515427 0.00289466204893068 0.00279925935735354 0.00313402723176129 0.00339466465248069 0.00340500167908511 0.0029078659545829 0.00313396323112866 0.00316704580045859 0.00314645158495714 0.00315166743853628 0.00338472557453053 0.00316354241877745 0.00338448028231933 0.00310396049755847 0.00339832384443454 0.00308322713106824 0.00331814538842409 0.00309404025599879 0.00271567071877876 0.00266587045251641 0.00309244943910294 0.00272178654073743 0.00330778911881001 0.00287229711929164 0.00244990812655005 0.00262523743055883 0.00317219158768873 0.00309316211566483 0.002867991205759 0.00308386360667178 0.00287597033874329 0.00268119498961312 0.00288667376806326 0.00267572907852751 0.00243464982307303 0.00288289984752228 0.00243456735830579 0.00243802742183096 0.0024255392517235 0.00244578506496184 0.00200288811046426 0.00244464017141301 0.00263285868928606 0.00217808755690853 0.00244179422307122 0.00217127050174985 0.00200713971941547 0.0026240920467871 0.00219039718846807 0.00240361968009009 0.0026244330026587 0.00240849065633007 0.00262746619118218 0.00218446433397522 0.0020894542893133 0.00240661120917884 0.0020822175332432 0.00219533907222796 0.00186531978789617 0.00209426057436984 0.00217970859439881 0.00239891547633942 0.00218345155641747 0.00240441405331096 0.00243327791481635 0.00241722707290286 0.0024240012896489 0.00261996085502526 0.00219787798461557 0.00241819923712307 0.00233142259659971 0.00243178113031839 0.00224859246842923 0.00241609805485306 0.00241748310947529 0.00233152368170848 0.00226176863413609 0.00242850431236613 0.00242335152469385 0.00261695145578569 0.00255477001501883 0.00241177041881009 0.00262504524499395 0.00255856618835168 0.0028043768301392 0.00262190381108507 0.00254327240323394 0.00269342611414291 0.00281487119783949 0.00263384363670214 0.00280676353614308 0.00261409356888376 0.00449704115925896 0.0039831889462508 0.00455888171418302 0.00448583373827354 0.00396287535280895 0.00361369789249966 0.00398182656334692 0.00403372737590926 0.00455755531726077 0.00396435484388328 0.00351153898195065 0.00404307255440997 0.00395485085721188 0.00329485851279003 0.00350715067265035 0.00395900937037435 0.00360551658886342 0.00329015970574023 0.00358386822589682 0.00287964270993477 0.00329965662458635 0.00274710222717085 0.00287604351050814 0.00266932747455823 0.00289307276540046 0.00264673028008057 0.00284521249396055 0.00329152058489293 0.00284135289395325 0.0034950381040991 0.00289682939796801 0.00328346388349805 0.00285550969783892 0.00284667185682864 0.00309272230830091 0.00349106621097838 0.00285181839040884 0.00268965003761205 0.0030763090489609 0.00266038148727619 0.00282395031222317 0.00259381504895045 0.0028367647256339 0.00258396081522943 0.00270029039386197 0.00259710335761204 0.00268606824487448 0.00251867289490667 0.00269406890586179 0.00307445930885173 0.00272719417909333 0.0030920350640134 0.00370737849280858 0.00335255803327516 0.00308592609138988 0.00350657791320603 0.00371237172515401 0.00351646669918003 0.00403854948421467 0.00371207672550993 0.00404117258547691 0.00371754957645162 0.00424365379880623 0.00372568050444083 0.00386224063263064 0.00423498866403017 0.00371540961897632 0.0038708258050379 0.00335585584956491 0.00386580919867779 0.003531050835952 0.00336211571357607 0.00353046330332599 0.00305142411191154 0.00314226746801628 0.00353437836301344 0.00304884602282653 0.00335309729863032 0.00308770390320193 0.00334181813149863 0.00271300514488848 0.00305144563431644 0.00334052073695491 0.0027170862936517 0.00269056665568189 0.00250897879339175 0.00242961639119892 0.00269569559420917 0.00270875165586505 0.0024977867822733 0.00270489544487591 0.0024125868791264 0.00259509313089328 0.00303974006679479 0.00272440772432102 0.00259705973154542 0.00242527261085852 0.00257552014818952 0.00234708327660974 0.00258171808056593 0.00234401849260899 0.00243356079316049 0.00227464548847656 0.00235502397744747 0.00241990558411138 0.00249252179799422 0.00242318022098366 0.00270123860092543 0.00259541744905379 0.00242153457944488 0.00270113814344148 0.0029516127367624 0.0027129398279339 0.00313757828721845 0.00248409184879774 0.00294638871416772 0.00271086768127611 0.00259497617725022 0.00271044803578984 0.00313571432014536 0.0030447732594193 0.00259161286480877 0.00313960108900674 0.00353870066161036 0.00315888679425693 0.00367907630892322 0.00295046774456864 0.00315767749550265 0.00340208542760233 0.00341240882169406 0.00367031286480421 0.00356807489532717 0.00316684320611467 0.00339615104430381 0.0036724807617645 0.00368480216242288 0.00369403128627895 0.0035463428254101 0.00337638892237954 0.00341973425908103 0.00356044310783035 0.00338624008288155 0.00355565936978085 0.00332934136539196 0.00368139089040427 0.00356124154920393 0.00331620070146197 0.00270215150370778 0.00331865050465872 0.00289668825465904 0.00331608660976304 0.00290076847839201 0.00333577605756874 0.00288659484427664 0.00333973084782783 0.00266525381940461 0.00369024127867969 0.00334761358230941 0.00373855775468928 0.00368767931359712 0.00329977280957753 0.00334729910133811 0.00334457980057229 0.00336129970320656 0.00266150262814915 0.00333018144739092 0.0037450846544938 0.00337083863643989 0.00335736257233343 0.0039363711828767 0.0033858509706941 0.00374546786424989 0.00393762237273722 0.00398531720139977 0.00374696367472151 0.00337219049148777 0.00392774696328305 0.00394952520258255 0.00396916618328725 0.0042360115693004 0.00367344652715624 0.00374722163854075 0.00397755965599597 0.00368292006066913 0.00369915253272775 0.00396134689250219 0.00355456618508856 0.00365764207400287 0.00396958182594521 0.00387841096240948 0.00354749173172046 0.00397959624881799 0.00389729480675385 0.00395308523524927 0.00423767902326929 0.00388081783074394 0.00423777217551041 0.00425087322947344 0.00424160336080905 0.00449685412838492 0.0045556969453134 0.00404672318670321 0.00423579883013418 0.00454563668638345 0.00448370365471918 0.00424035950099719 0.00414515229765652 0.00425461299455787 0.00448455362679866 0.00422381410873521 0.0039221528519529 0.00425395347426638 0.00413344305580835 0.00393202056894694 0.00412748556662258 0.00339319290241573 0.00414070401841435 0.0033704099658825 0.00370582799770508 0.00413037220931522 0.00371333313845771 0.00429343948748625 0.00450407311610214 0.00411478926298416 0.00430579526906618 0.00429214199744184 0.00452984944002458 0.00470598308305703 0.00449199146493621 0.00431678980097003 0.00469674706855926 0.0043068527293252 0.00453046482983286 0.0035445441988613 0.00369285223301568 0.00430701467575039 0.00353858019732589 0.00455297922339235 0.00350963207900616 0.00375458082455759 0.00454549910728509 0.00469127867111121 0.00503830190003411 0.0047254645526455 0.00456625506261215 0.00501576139352048 0.00447134000876309 0.00471391437334262 0.00457825716696936 0.00452903835922045 0.00452534758795785 0.00503379575405355 0.00108209043198701 0.00144157326381698 0.000970379026663437 0.00107303760696 0.00150980550240092 0.00108901017307097 0.00106427340892105 0.00152359948902432 0.00145723827635984 0.0015264063018015 0.00230014615409155 0.00209880857192686 0.0015272789072391 0.00146066282162448 0.00229698637942439 0.00263858011202304 0.0035111970920795 0.00230246399980871 0.00144667057167163 0.00262012705916368 0.00231372807286426 0.00264254318878744 0.00351766499930243 0.00372045492401775 0.00350282148228004 0.00231133442358716 0.00292705515607296 0.00231207338251423 0.00209180118830988 0.00292016314587113 0.00209694798351514 0.00291488239390667 0.0023564064897333 0.00336477803954071 0.00370055404521252 0.0029403363967309 0.00370637534587356 0.00351562970575725 0.00293341688757735 0.00337304891177871 0.0029278973418956 0.00235784433526658 0.00209473491279519 0.00235004570964354 0.00156393595282157 0.00233831957689822 0.00157176188634399 0.00165092103319485 0.00153418687796794 0.002089457058 0.00157091809064514 0.00152369465097103 0.00156679994807154 0.00107428659142803 0.00155045939169893 0.00108607896508825 0.00111174588809651 0.00110695730875344 0.00116959087266871 0.00163095838919414 0.00110621025802708 0.00115935836556469 0.000892184596915027 0.001149835166487 0.0016444044088037 0.00184443067616619 0.00156306453788331 0.0010958188296849 0.00164370400180153 0.00234833559784277 0.00164441980241453 0.00254102047663465 0.00336540754212221 0.00236191309930832 0.00254128816559928 0.00337482774679588 0.00336479517517804 0.00255574818233876 0.00336735807326566 0.00255978927318111 0.00264658975264541 0.00254121687185547 0.00185875907808554 0.00265421148103284 0.00165173914653378 0.00253229948916118 0.00185824140037119 0.00186324043492191 0.00264679513617076 0.00200307900730244 0.00264722500342892 0.0024252168971562 0.00200548598699824 0.00289136004035601 0.00265538188843541 0.00242373125217936 0.00270231825263985 0.00288912330545362 0.00242795128301099 0.00242263216971734 0.00200708630170728 0.00204898254829633 0.00142733719290475 0.00160323604073723 0.00118830829879849 0.00199686706692634 0.0014307493661494 0.00160882976578241 0.00185259767728693 0.00200096735054323 0.00142778896997128 0.00115766640832714 0.001839413929047 0.00143792332919171 0.00116372853776867 0.00141050111268453 0.000918559036378924 0.0014114410507289 0.000920776317786844 0.00120066527362765 0.000929669534368973 0.000899801487251326 0.000898824902604503 0.00115128765102387 0.00094545089770638 0.000919012297978915 0.000929906535860776 0.000922377766756241 0.000915371709976904 0.000916590756959155 0.000933722395819533 0.000912241696447897 0.000944078020065697 0.000896355575234372 0.00127634916182682 0.00129322169670926 0.00133751996802439 0.00190472345005301 0.001293970787103 0.00167405772931461 0.00190759708368277 0.00133592487919946 0.00174517912329912 0.00191076642631055 0.00134453963665605 0.00114023947203867 0.00173651754143502 0.000934854682491395 0.00129459198854327 0.00133330718442824 0.000936920280042216 0.00133087267418683 0.00114555984604928 0.00115448885737224 0.00150690480258623 0.00101211330630536 0.00175107631215518 0.00152092972322014 0.00218079790347176 0.00113594109261156 0.001737509828552 0.00151848889701869 0.00151614750479041 0.00218501118343522 0.00199584364229536 0.0015248246251156 0.00139955042120872 0.00198641179703524 0.00151377836448016 0.00100360246103156 0.00139758545909185 0.00100757900351957 0.000939089719704007 0.000895383323038755 0.00100181995077129 0.000898827313332509 0.000897569689598712 0.000943618682429374 0.000931102234497944 0.000903959364361606 0.00114141695417378 0.00101942659781901 0.000923647665029453 0.000955974503848832 0.0011390276977135 0.000928304565348529 0.000927037103722328 0.000912037277504746 0.000904964821937409 0.00114847381897772 0.000918475823991149 0.000900066811501837 0.00109388780500008 0.000910889842323662 0.000894790955634821 0.00108119366561582 0.00110702413105723 0.00088214172506386 0.00106591597790064 0.000903105632339084 0.000893677401176806 0.000897131877338602 0.00089580706692309 0.0010520401565079 0.000882216762838158 0.00107404720034721 0.00105466766926216 0.00102625795145393 0.000883049915547933 0.00106601027990927 0.00101599166235454 0.00139139911120651 0.00107775459572453 0.00140740456159722 0.00166204338899964 0.00106559886529609 0.0013951932969718 0.00167305191867281 0.00199163461117118 0.00168050783410117 0.00139089027838067 0.00207429016820463 0.00138911932622741 0.0010784987873923 0.00105912057262175 0.00166294263759182 0.00139484682815249 0.00106143706043071 0.00140223376538807 0.00104441022864202 0.00155830927763478 0.00156580983416474 0.00237721587587803 0.00209186911200533 0.00138729602940999 0.00157201493393337 0.00207506824653516 0.00156352449557688 0.00237650510234164 0.0017395563982033 0.00157673049294763 0.00111312322901721 0.00172713468866137 0.00104833411081841 0.00155226874601174 0.00112391065120315 0.0010977157317905 0.000872097536891184 0.000915468096507869 0.00106326613830262 0.00110668166595672 0.000860444674106401 0.000900445186731928 0.00104162858306255 0.000881364826347526 0.00106573117296776 0.00108437703153086 0.00087865315100602 0.00105255180060181 0.000896202441171822 0.000892928390952304 0.00107059295597332 0.000884168818364328 0.00097484314495641 0.00135350094410738 0.00107965395421873 0.00101846408358694 0.00136252413909559 0.00107563827254809 0.00148777316090535 0.00107522746300324 0.00148740337075076 0.00111233666735939 0.00107548370629651 0.00110137971721951 0.000845453570409791 0.00106559979521054 0.000840057745567501 0.000852353399449144 0.00107258920883385 0.00102254921416699 0.00083325622385163 0.0010231574820993 0.000900677082444809 0.0011791388847241 0.0010206679104823 0.000907337322880168 0.000836696413809243 0.000900790021912269 0.00103882360058933 0.000801590440684718 0.00090093685861385 0.00104867321514006 0.00117803093699773 0.00104463267530078 0.00117983024376836 0.00143263787448289 0.00135443453609886 0.00101948147646282 0.00118729985319912 0.00136116307652317 0.00118004744679578 0.00167152620754926 0.00118210569355523 0.0014355861359648 0.00166707731640311 0.0014387122488497 0.0018598241578614 0.00167004243820096 0.00209023435529782 0.00185210043385844 0.00168317824470449 0.00217244505490671 0.00209648771001867 0.00168271201801864 0.00217645609329694 0.00170509450224459 0.00199966118172418 0.0021727114813875 0.00167555944990913 0.00170659418428196 0.00136077527131094 0.00167772343698982 0.00170199077294197 0.00135941010529767 0.00170095232972845 0.00149406094225323 0.00170372602674586 0.00149422516868795 0.00199299702023552 0.00242583560576985 0.00199632306839406 0.00171032753095777 0.00243228175458648 0.00170448181306983 0.00216277937309077 0.00267310380372924 0.00242808868465028 0.00217036688206508 0.001702065184862 0.0021565858395599 0.0015320913428714 0.00149162126209264 0.00199508530769752 0.00170447361666158 0.00270594029375457 0.00242455958876869 0.00205182643024417 0.00270033856982902 0.00215958384593937 0.00205526678505095 0.0027004478438855 0.00267562908362504 0.00216844745504773 0.0021619963191009 0.00204634965803544 0.00152702358644825 0.00204229431900874 0.00160919983101527 0.00152782364528912 0.0020019011665864 0.0020489263341509 0.00160626878090911 0.00160450862601735 0.00153036709607292 0.00118831851533691 0.00151843474583942 0.00102916511392585 0.00131906989469067 0.00151532058694905 0.00102816901206038 0.00119192343101082 0.00104553069571817 0.00117979829895957 0.000882600420083613 0.000936095517856796 0.00117605927238412 0.000884671809941801 0.00149799355278021 0.00168879818542701 0.00110644606951922 0.00169712659273399 0.00152875424536853 0.00131239605691262 0.00168788247477544 0.00131474512424139 0.001105361426113 0.00103776434811337 0.00131352347598048 0.00111348232160113 0.00103460317796748 0.00109978208323998 0.000818120254004845 0.00108905976019649 0.000827730724603324 0.00085784718396985 0.000834045947313016 0.000868205841850923 0.000838452690941396 0.00102499285153208 0.000836267253077383 0.000880347545307231 0.000817198852044705 0.000890066071437961 0.00105143496983621 0.000819149932089024 0.000893875112987584 0.00105216256592271 0.000841645084249176 0.000880498649782375 0.000886428784301864 0.000890870198502364 0.000879912399398412 0.000882976424518284 0.00103152766877486 0.000892122829654541 0.00087612841659816 0.000909024819980399 0.000886020759475106 0.000889406211742823 0.000903580790887858 0.000882042449788104 0.00120350473634203 0.000888305950992392 0.00128451266134098 0.00122526148917065 0.000879444952009422 0.00120941173175345 0.00108307581465863 0.00122329415229538 0.00106921680059892 0.00156135458771073 0.00121768019694907 0.00157708424994202 0.00180065899484964 0.0012993136279187 0.00122071461316524 0.00166394359012656 0.00121433975311386 0.00166732372264107 0.00180130388532965 0.00087270259398741 0.001069653678777 0.00116907631757199 0.00106778750035726 0.00156379793660931 0.00141813550721423 0.00107364206949725 0.00141339766692246 0.00118215284230928 0.00141580151271139 0.00117726519947501 0.00161379711279319 0.00117994822750265 0.00134174072305174 0.000982752751786312 0.00118067137273868 0.00135222631640232 0.0016111810356632 0.00133888339919311 0.000986305695853292 0.00108714953650922 0.00098733009873226 0.000828783139185489 0.00107574967865628 0.00087415264579017 0.00116855320353846 0.000996082999738576 0.000870925272488839 0.000827951642411051 0.000838581068636625 0.000878993933268742 0.000980872120093851 0.000813484353923945 0.000978628603464374 0.000817157090003704 0.000843181065732144 0.000821474094822347 0.000820237737854615 0.000826671662674633 0.000817156331460763 0.000835514217218961 0.00085018180525281 0.000781678542618779 0.000800585489716766 0.000773679249801877 0.000894687823773087 0.000775416738699039 0.000813189057612779 0.000894134275360213 0.000836997586019472 0.000774302443425809 0.000824247144001492 0.000791960044446626 0.000824697291409106 0.000780645080524485 0.000832772213008744 0.000846291298802152 0.000780930258952538 0.00078511639641227 0.000846760931123122 0.00097269594754633 0.000849922486489836 0.00107496170945806 0.000775276423