<?xml version="1.0"?>
<VTKFile type="UnstructuredGrid" version="0.1" byte_order="LittleEndian">
<UnstructuredGrid>
<Piece NumberOfPoints="2148" NumberOfCells="716">
<Points>
<DataArray type="Float64" NumberOfComponents="3" format="ascii">
0.0736345888316307 0.0637333048655595 0 0 0 0 0.105263157894484 0 0 0 0.102040816326531 0 0 0 0 0.0736345888316307 0.0637333048655595 0 0.105847738327952 0.150895293579407 0 0 0.204081632653061 0 0 0.102040816326531 0 0.105847738327952 0.150895293579407 0 0 0.102040816326531 0 0.0736345888316307 0.0637333048655595 0 0.0736345888316307 0.0637333048655595 0 0.157062047935717 0.0657304144218603 0 0.105847738327952 0.150895293579407 0 0.105263157894484 0 0 0.157062047935717 0.0657304144218603 0 0.0736345888316307 0.0637333048655595 0 0.157062047935717 0.0657304144218603 0 0.210526315788968 0 0 0.245859050062934 0.0615708420060463 0 0.105263157894484 0 0 0.210526315788968 0 0 0.157062047935717 0.0657304144218603 0 0.222741758606036 0.141984576675053 0 0.157062047935717 0.0657304144218603 0 0.245859050062934 0.0615708420060463 0 0.222741758606036 0.141984576675053 0 0.105847738327952 0.150895293579407 0 0.157062047935717 0.0657304144218603 0 0.245859050062934 0.0615708420060463 0 0.322030541746038 0.113556493866926 0 0.222741758606036 0.141984576675053 0 0.245859050062934 0.0615708420060463 0 0.210526315788968 0 0 0.315789473683452 0 0 0.315789473683452 0 0 0.322030541746038 0.113556493866926 0 0.245859050062934 0.0615708420060463 0 0.28395937666824 0.336326657262323 0 0.19912213507756 0.241701131057856 0 0.306529038486018 0.218453285118224 0 0.222741758606036 0.141984576675053 0 0.322030541746038 0.113556493866926 0 0.306529038486018 0.218453285118224 0 0.306529038486018 0.218453285118224 0 0.19912213507756 0.241701131057856 0 0.222741758606036 0.141984576675053 0 0.105847738327952 0.150895293579407 0 0.222741758606036 0.141984576675053 0 0.19912213507756 0.241701131057856 0 0.19912213507756 0.241701131057856 0 0.28395937666824 0.336326657262323 0 0.170994783200652 0.334188745583958 0 0.0963260944161509 0.273811510294367 0 0.19912213507756 0.241701131057856 0 0.170994783200652 0.334188745583958 0 0.0963260944161509 0.273811510294367 0 0.105847738327952 0.150895293579407 0 0.19912213507756 0.241701131057856 0 0.0963260944161509 0.273811510294367 0 0 0.204081632653061 0 0.105847738327952 0.150895293579407 0 0 0.306122448979592 0 0 0.204081632653061 0 0.0963260944161509 0.273811510294367 0 0 0.306122448979592 0 0.0798863474723025 0.392675045642543 0 0 0.408163265306122 0 0.0963260944161509 0.273811510294367 0 0.0798863474723025 0.392675045642543 0 0 0.306122448979592 0 0.0798863474723025 0.392675045642543 0 0.099581482345634 0.49355644173514 0 0 0.408163265306122 0 0.0798863474723025 0.392675045642543 0 0.19230207234368 0.422678825965969 0 0.099581482345634 0.49355644173514 0 0.0798863474723025 0.392675045642543 0 0.0963260944161509 0.273811510294367 0 0.170994783200652 0.334188745583958 0 0.0798863474723025 0.392675045642543 0 0.170994783200652 0.334188745583958 0 0.19230207234368 0.422678825965969 0 0 0.612244897959184 0 0 0.510204081632653 0 0.0636610927580281 0.559357934802157 0 0.0788823051552232 0.670851705018505 0 0 0.612244897959184 0 0.0636610927580281 0.559357934802157 0 0.099581482345634 0.49355644173514 0 0 0.510204081632653 0 0 0.408163265306122 0 0.0636610927580281 0.559357934802157 0 0 0.510204081632653 0 0.099581482345634 0.49355644173514 0 0.099581482345634 0.49355644173514 0 0.222058877190937 0.510857644422808 0 0.124792039049303 0.598138423871711 0 0.124792039049303 0.598138423871711 0 0.0788823051552232 0.670851705018505 0 0.0636610927580281 0.559357934802157 0 0.0636610927580281 0.559357934802157 0 0.099581482345634 0.49355644173514 0 0.124792039049303 0.598138423871711 0 0.124792039049303 0.598138423871711 0 0.222058877190937 0.510857644422808 0 0.235802928303382 0.611564357809131 0 0.19230207234368 0.422678825965969 0 0.222058877190937 0.510857644422808 0 0.099581482345634 0.49355644173514 0 0.298455345785692 0.447563908098048 0 0.314543409362701 0.549165380872091 0 0.222058877190937 0.510857644422808 0 0.235802928303382 0.611564357809131 0 0.222058877190937 0.510857644422808 0 0.314543409362701 0.549165380872091 0 0.335916026949355 0.661311993908121 0 0.235802928303382 0.611564357809131 0 0.314543409362701 0.549165380872091 0 0.19230207234368 0.422678825965969 0 0.170994783200652 0.334188745583958 0 0.28395937666824 0.336326657262323 0 0.19230207234368 0.422678825965969 0 0.298455345785692 0.447563908098048 0 0.222058877190937 0.510857644422808 0 0.19230207234368 0.422678825965969 0 0.28395937666824 0.336326657262323 0 0.298455345785692 0.447563908098048 0 0.28395937666824 0.336326657262323 0 0.399803174487431 0.298440986856889 0 0.377510554953585 0.391263936876735 0 0.406811536593169 0.484911194529197 0 0.298455345785692 0.447563908098048 0 0.377510554953585 0.391263936876735 0 0.28395937666824 0.336326657262323 0 0.377510554953585 0.391263936876735 0 0.298455345785692 0.447563908098048 0 0.377510554953585 0.391263936876735 0 0.498523341233396 0.389076937637219 0 0.406811536593169 0.484911194529197 0 0.399803174487431 0.298440986856889 0 0.500986724861322 0.250629842679194 0 0.498523341233396 0.389076937637219 0 0.399803174487431 0.298440986856889 0 0.498523341233396 0.389076937637219 0 0.377510554953585 0.391263936876735 0 0.420597075781915 0.595854369448944 0 0.335916026949355 0.661311993908121 0 0.314543409362701 0.549165380872091 0 0.298455345785692 0.447563908098048 0 0.406811536593169 0.484911194529197 0 0.314543409362701 0.549165380872091 0 0.420597075781915 0.595854369448944 0 0.314543409362701 0.549165380872091 0 0.406811536593169 0.484911194529197 0 0.509931573480221 0.522280814579519 0 0.420597075781915 0.595854369448944 0 0.406811536593169 0.484911194529197 0 0.517751522887305 0.649204659932698 0 0.420597075781915 0.595854369448944 0 0.509931573480221 0.522280814579519 0 0.587686537066514 0.464126045476426 0 0.613945404707068 0.570990073651732 0 0.509931573480221 0.522280814579519 0 0.517751522887305 0.649204659932698 0 0.509931573480221 0.522280814579519 0 0.613945404707068 0.570990073651732 0 0.500986724861322 0.250629842679194 0 0.581885168833657 0.302392759021642 0 0.498523341233396 0.389076937637219 0 0.406811536593169 0.484911194529197 0 0.498523341233396 0.389076937637219 0 0.509931573480221 0.522280814579519 0 0.509931573480221 0.522280814579519 0 0.498523341233396 0.389076937637219 0 0.587686537066514 0.464126045476426 0 0.614047778589085 0.387795898525738 0 0.587686537066514 0.464126045476426 0 0.498523341233396 0.389076937637219 0 0.581885168833657 0.302392759021642 0 0.614047778589085 0.387795898525738 0 0.498523341233396 0.389076937637219 0 0.581885168833657 0.302392759021642 0 0.672697639570897 0.28766618318192 0 0.614047778589085 0.387795898525738 0 0.581885168833657 0.302392759021642 0 0.500986724861322 0.250629842679194 0 0.611102057161856 0.196335598991703 0 0.581885168833657 0.302392759021642 0 0.611102057161856 0.196335598991703 0 0.672697639570897 0.28766618318192 0 0.611102057161856 0.196335598991703 0 0.500986724861322 0.250629842679194 0 0.513101370826361 0.134129492815744 0 0.513101370826361 0.134129492815744 0 0.500986724861322 0.250629842679194 0 0.412014556344116 0.189798498882905 0 0.594439451232812 0.0887178408363477 0 0.611102057161856 0.196335598991703 0 0.513101370826361 0.134129492815744 0 0.526315789472444 0 0 0.631578947367022 0 0 0.594439451232812 0.0887178408363477 0 0.526315789472444 0 0 0.594439451232812 0.0887178408363477 0 0.513101370826361 0.134129492815744 0 0.513101370826361 0.134129492815744 0 0.420915352533358 0.074985042685528 0 0.526315789472444 0 0 0.420915352533358 0.074985042685528 0 0.513101370826361 0.134129492815744 0 0.412014556344116 0.189798498882905 0 0.526315789472444 0 0 0.420915352533358 0.074985042685528 0 0.421052631577937 0 0 0.322030541746038 0.113556493866926 0 0.315789473683452 0 0 0.420915352533358 0.074985042685528 0 0.420915352533358 0.074985042685528 0 0.315789473683452 0 0 0.421052631577937 0 0 0.412014556344116 0.189798498882905 0 0.322030541746038 0.113556493866926 0 0.420915352533358 0.074985042685528 0 0.412014556344116 0.189798498882905 0 0.306529038486018 0.218453285118224 0 0.322030541746038 0.113556493866926 0 0.412014556344116 0.189798498882905 0 0.399803174487431 0.298440986856889 0 0.306529038486018 0.218453285118224 0 0.306529038486018 0.218453285118224 0 0.399803174487431 0.298440986856889 0 0.28395937666824 0.336326657262323 0 0.412014556344116 0.189798498882905 0 0.500986724861322 0.250629842679194 0 0.399803174487431 0.298440986856889 0 0.295350406939813 1.24878144427625 0 0.246522554351683 1.16362252184999 0 0.352853207783426 1.1463879991198 0 0.295350406939813 1.24878144427625 0 0.181863964367382 1.24890101842418 0 0.246522554351683 1.16362252184999 0 0.246522554351683 1.16362252184999 0 0.283487779541101 1.08170937477947 0 0.352853207783426 1.1463879991198 0 0.283487779541101 1.08170937477947 0 0.246522554351683 1.16362252184999 0 0.202239780457393 1.08245817859136 0 0.156022104484688 1.15671384061775 0 0.202239780457393 1.08245817859136 0 0.246522554351683 1.16362252184999 0 0.156022104484688 1.15671384061775 0 0.246522554351683 1.16362252184999 0 0.181863964367382 1.24890101842418 0 0.156022104484688 1.15671384061775 0 0.181863964367382 1.24890101842418 0 0.0769912270182558 1.21550350972786 0 0.0769912270182558 1.21550350972786 0 0 1.22448979591837 0 0 1.12244897959184 0 0 1.12244897959184 0 0.0938420895696505 1.07913022382781 0 0.0769912270182558 1.21550350972786 0 0.156022104484688 1.15671384061775 0 0.0938420895696505 1.07913022382781 0 0.202239780457393 1.08245817859136 0 0.0769912270182558 1.21550350972786 0 0.0938420895696505 1.07913022382781 0 0.156022104484688 1.15671384061775 0 0.0938420895696505 1.07913022382781 0 0.156323146912265 0.989428081563376 0 0.202239780457393 1.08245817859136 0 0.156323146912265 0.989428081563376 0 0.0938420895696505 
[...]
<PointData Scalars="conc_conc," Vectors="" Tensors="">
<DataArray type="Float64" Name="conc_conc" format="ascii">
0.00393631513257201 0.00377966189913538 0.00396997848373304 0.00387000634881986 0.00379025010664482 0.00393621631663992 0.00409356994833898 0.00393637828012914 0.00386375740716542 0.00410238712272728 0.00385943095639753 0.00394904666173926 0.00393604423747153 0.0042395737223688 0.00411740906176669 0.00397967168479968 0.00423706814534243 0.00393682605088476 0.00424758830574036 0.0044199227829953 0.00465696152851908 0.00397508584363346 0.00441892121360586 0.00423859715202197 0.00466858550984191 0.00424950573809904 0.00466072928022609 0.0046622242798994 0.00411666333966571 0.00425139423732229 0.00465770268751461 0.00507080436617398 0.00467878368196332 0.00465249328668403 0.0044302936871381 0.00486518481494519 0.00485059144800017 0.0050610476931761 0.00466471188883175 0.00530104585019191 0.00468812886602061 0.00520785137532382 0.00467981098362953 0.00507164315701332 0.00520001810340421 0.00520578098608019 0.00468767158714117 0.00466468710204579 0.00411246732968862 0.00466498153776441 0.00467022350480678 0.00467712352935444 0.00529923379074851 0.00463506800634008 0.00419299971848434 0.0046719479514729 0.00462981577706047 0.00420032656316799 0.00411996674670286 0.00466046530790582 0.00418721498066562 0.00392343041955785 0.00411358232129895 0.00401433416897349 0.00394355503821658 0.00417137060709431 0.00402063472773709 0.00421999375441767 0.00408805848978972 0.00418822546234458 0.00423055534654306 0.00400249271870095 0.00423207551814541 0.00436198091068562 0.00407741638962913 0.0042141054769127 0.00485231232247312 0.00437866242425654 0.00422823629338586 0.00420021432211216 0.00462364728263958 0.00421378166732642 0.00463745966560113 0.00485625589577723 0.00420699738820224 0.00415321259038683 0.00428595872470101 0.00440924921883306 0.004192739639415 0.00430037884275818 0.00434682110986026 0.0041450642203357 0.00408761225379429 0.00429441267891315 0.00413472784187805 0.00436396809242248 0.00437057251531704 0.0051729312362908 0.0046149952095342 0.00460198648575928 0.00441547492515275 0.00429538113740905 0.00429251100321547 0.0043834376777887 0.00460881530653803 0.00460712379170399 0.0051895671925158 0.00542096406506266 0.00487321217147131 0.00517374274540387 0.00437249321201757 0.00557111785446429 0.00584075400689172 0.00519928386799132 0.00543679903803081 0.0051896259534833 0.005846416716111 0.00616407769852177 0.00544690450784143 0.00583827363074531 0.00487404032885701 0.00463198340089221 0.00530412592283745 0.00487238558530063 0.00557623875501526 0.00518891801194309 0.00488163859558679 0.005303048603945 0.00556955673404274 0.0053388670324569 0.00561323596054515 0.00576356892353853 0.00600896733011308 0.00559472658510204 0.00575501222259338 0.00531228350695953 0.0057704178648218 0.00557888754051855 0.00578769131148019 0.00563805865643098 0.00600864803070796 0.00562020765467058 0.0053097628946462 0.0056166959094565 0.00559031872363425 0.00564333835874562 0.00577886557310964 0.00626442180385218 0.00617938344401121 0.00585964871682 0.00558654189889293 0.00601898566269015 0.0058597928160395 0.00624818481494928 0.00588159886703577 0.00598975524846123 0.00584152007654811 0.00624831237820498 0.00601190225525106 0.0060396061329131 0.00627186483555355 0.00580431871241912 0.0050998839515061 0.00504890744392579 0.00582372423754938 0.00602498715201386 0.00581809987821933 0.00506051543778865 0.00530857656233781 0.00489005787867861 0.00560425404574603 0.00602994132122373 0.00559302747129966 0.00582232479523834 0.00580669345399186 0.00560580998287549 0.0051265959516304 0.00475299102117504 0.00511654254633686 0.00562731046841951 0.00486827342715552 0.00475196631277965 0.00562314052067443 0.00488201034139357 0.00401821898573305 0.0047378352015613 0.00488037089725538 0.00532553193562365 0.00447397322973727 0.00487624543624649 0.00445836963550761 0.00402452644452899 0.00449625156471979 0.00531040338052825 0.00501199087595609 0.00502392256918678 0.00530913025633804 0.00539969582882684 0.00441584182640698 0.00448403948359621 0.00502021768107911 0.00473054582599998 0.00402311599008725 0.00440789428780159 0.00470370745374527 0.00442588561617602 0.0050074668811483 0.00501751722375925 0.0051591436273756 0.00471302696530663 0.00513615910342492 0.00504116899024012 0.00538561263911112 0.00473743337286232 0.00513635920540555 0.00502087237773116 0.00507109133081352 0.00485536981336543 0.0051558821600645 0.00513481110438497 0.00487737892021953 0.00502117093970699 0.00537948863982231 0.00508405554909544 0.00514547002869034 0.00539474933273443 0.00521462330437703 0.0050609505166294 0.00538724243466197 0.0056026054466367 0.00522181052634701 0.00519243782458771 0.00562155971478677 0.00533003002075351 0.00537198090345728 0.00532640199934605 0.00560650725961882 0.00699688009357538 0.00633868367022226 0.00727714337773113 0.00698121133011406 0.00563083668430984 0.00630687397684182 0.00633530016572593 0.00655585017914837 0.00727770834238142 0.00656942121351877 0.00631058350345551 0.00571359373556011 0.00526289077666065 0.00570654311315349 0.00629705555385537 0.00525748377764434 0.00630087617398855 0.00562017057792861 0.00527053456181946 0.00559011921129863 0.00453942894735069 0.00453521688615502 0.00432447865533371 0.00431451373316408 0.00427798066015708 0.00464469277128846 0.00456206987760942 0.00525936426529843 0.00463982142008391 0.00568662187081667 0.00456577999352939 0.00466324410532623 0.00524699117437136 0.00464556157304009 0.00516140476878109 0.00568319866123348 0.00513475665259739 0.00465502857849546 0.00450918825171471 0.00461144173675179 0.00429953185181128 0.00430585768452078 0.00463271679445414 0.00428898775068816 0.00452562794122147 0.00431047949035534 0.00429350681004756 0.00450276464979267 0.00468847526853913 0.00513364695454662 0.00451534173416491 0.00515820222350563 0.00571738076946908 0.00616646135524415 0.00515083621701536 0.00617168172690795 0.00570623706983732 0.00617158927961377 0.0065641187635544 0.00571969169695467 0.00697818394263588 0.00656722764159453 0.0061817803757312 0.00696617546097563 0.00619339821333575 0.00653446858771153 0.00572417272477546 0.00654896442400801 0.0061780573027014 0.00613959636923397 0.00654280770912361 0.00573267552044098 0.00533492310446008 0.00560665354076985 0.00614107436090528 0.00614540692997716 0.00571920404131267 0.00533188440850125 0.00569967820513727 0.00515359361834301 0.00466534903477947 0.0057000274194857 0.00466933019294098 0.00533480805672973 0.00462679101629236 0.00427622896953768 0.00425492483038302 0.0045188908165747 0.00425767222053295 0.00465624069201612 0.00422397466739149 0.00461251092903167 0.0046524709527342 0.00468234559459359 0.00461865799321653 0.00531611074438476 0.00424578611142407 0.00422224023815844 0.00457925500297046 0.00442319307959815 0.00459097888001412 0.00421608197719421 0.00420291803503612 0.00439937516335107 0.00423565166006815 0.00489724649088082 0.00440445355719263 0.00461518622780067 0.00489611686253993 0.00461395900794024 0.00440220187528744 0.00543261938438612 0.00560063218056942 0.00491617065715015 0.00460041872258438 0.00542402543581321 0.00491313110460969 0.00491331523805206 0.0055959650510946 0.00461180793074682 0.00460728670269457 0.00560057084181813 0.00532504710614396 0.00615407138502849 0.00563634158806853 0.00651099820259166 0.00543348555383643 0.00617335404250391 0.00563284477683916 0.00619090915230836 0.0064352015591438 0.00649691557363285 0.00616118409058162 0.00650154380545278 0.00564825988497025 0.00652043295046527 0.00639706580652161 0.00652983719727451 0.00620399151192236 0.0062308658330898 0.00642231192757305 0.00641375575504529 0.0062485090274608 0.00605850895482506 0.00650954945719743 0.00642286466936821 0.00603570783019459 0.00524969778296787 0.00604252849008054 0.00502737949499833 0.00591203578171247 0.00603448806153723 0.00525741057070625 0.0052325967151714 0.0047354026605534 0.00591960933951021 0.00652280362787142 0.00593198680469355 0.00648461518260273 0.00652080139932877 0.00600652992659291 0.00593025072373734 0.00580783968075886 0.00592506921217471 0.0047315003963408 0.00590222167402204 0.00581970137566159 0.00649581900228113 0.00579882518614175 0.00569208759131754 0.00668271892277173 0.0068594525204128 0.00649552941342319 0.00668417240034457 0.00666919708080632 0.00649680070978361 0.00582252238126224 0.00670371776347296 0.00708195701241278 0.00683130609628283 0.00649814140559006 0.00684781295117675 0.00649411258537658 0.00653808583195506 0.00682158187179923 0.00651678080312947 0.00617970308456132 0.00647294357921204 0.00683506117877427 0.00656238087418749 0.00616908037582921 0.00684984383078725 0.00659248337637369 0.00680397558383433 0.00708460779066983 0.00710443806118976 0.00696970639407318 0.00656629673275569 0.00727447831281577 0.00697491727862553 0.00731883017557143 0.0072599945721948 0.0065755535534028 0.00696447275619258 0.00685873814599677 0.00729989507518228 0.00708593715287379 0.00705927764827814 0.00730032235153157 0.00699548254191935 0.00684025042653433 0.00710978520495764 0.00665883017149787 0.00667250486252346 0.00570515011522053 0.00683365961357868 0.00606509297870574 0.00685355270857821 0.00567030995966142 0.00692421593337808 0.0068335959355731 0.00607682817338174 0.00681038683747545 0.00694210083928315 0.00733123211354786 0.00747925038666838 0.00692161017585025 0.00709464729215235 0.00695978307322187 0.00746557158198572 0.00731011621367297 0.00710052245727421 0.00694112743619254 0.00565800923372937 0.0056466782431075 0.00694459028725991 0.00604564819102524 0.00578334593331915 0.0071330515019511 0.00560771001791997 0.00711793271509645 0.00780743090202093 0.00745504569489163 0.00777413716083611 0.00728984102938411 0.00750829001090709 0.00727796988428471 0.00749108792569069 0.00730863962241722 0.00722621621174533 0.00780104067631135 0.00704311119099576 0.00174090493762631 0.00150486126199452 0.00227470513324776 0.00179925169972043 0.00172444438401379 0.00245578505907771 0.00171147188710996 0.00229815117082171 0.00247577783046482 0.00344616481656151 0.00248104852709758 0.00369146012068009 0.00248540999975029 0.00229828401810123 0.00368484396445611 0.00560506572586179 0.00369434092651167 0.00413211313376928 0.00410795533478747 0.00370831575507121 0.0022774613665623 0.00573932407889253 0.00561184886898677 0.0041376460981392 0.00480049688715364 0.00370305084648482 0.00559747818945416 0.00370547215708979 0.0047903642680838 0.00343765757905768 0.00344330326883344 0.00478556820662793 0.00396552437345203 0.00565756908909808 0.00482021382603537 0.00605895700936578 0.00561454559895638 0.00606596892703583 0.00481205868406809 0.00480320929627393 0.00567118716265754 0.00396845748643793 0.0034416446633046 0.00395292441214433 0.00260875430004391 0.00393769984537727 0.0028385081514631 0.00261965943183908 0.00343324939130721 0.00262245173839942 0.00249261549226135 0.00177323824820468 0.00247856669800174 0.00261335810279453 0.0018954318149957 0.00179131260002698 0.00258937333175515 0.00188380667730364 0.00280375998681514 0.00205350385019125 0.00203358135437722 0.00153603394984725 0.00188474556217457 0.00282564120909859 0.00325303553648719 0.00201713742600862 0.00186669858511377 0.00261002380460216 0.00282218668069398 0.00395379812092037 0.00438073925268834 0.00282459149291622 0.00566436110290707 0.00438483734845589 0.00397203696340722 0.00566296673961044 0.00582544176908672 0.00440715842701875 0.0047067450662771 0.00441101468172918 0.00581843094767898 0.00471523463335299 0.00327823736870702 0.00438520937177 0.00437082656593604 0.00328023041792656 0.00283381909012344 0.00328330861467725 0.00470729163363688 0.00363892465716369 0.00364139483298621 0.00470900983943817 0.00442895702298139 0.00472017125688128 0.00524106505169367 0.0044281809958747 0.00443410354807439 0.00523805442625044 0.00502486363133692 0.00442591114117208 0.00381339362472127 0.00364315940011901 0.00296215544459452 0.00220346600243164 0.00257363083309949 0.00362695195059284 0.00297326079646567 0.00257689377898406 0.00363185726261037 0.00257303027678084 0.00326906165510396 0.00202818940417475 0.0032474336128981 0.00259198014604679 0.00166153455221761 0.00204147357461901 0.00254318123299797 0.00222515008787115 0.00166254880868887 0.00254743575389212 0.001680716647265 0.00167722311926814 0.00164277583143919 0.00161528927109445 0.00202197913731436 0.00170887788598888 0.00168091453774332 0.00163493925619695 0.00160912262616946 0.00165486109250822 0.00165729102104555 0.00166531119490539 0.00228781157706879 0.00167106876320037 0.00163806152829911 0.00235102956897473 0.00231813179466589 0.00337691323761832 0.0023177970911045 0.00303165106581623 0.00338303357177073 0.00234841512541754 0.00338591149899771 0.0030249248186114 0.00236478483311183 0.00301021678884925 0.00197899246703165 0.00234530984739521 0.00165505701263075 0.00231881211536636 0.00198920014729706 0.00166033323299765 0.00234066428070359 0.00171484043193071 0.00200524036491717 0.00256070351204352 0.00303527137615966 0.00371394239072585 0.00258118497170697 0.0019725540394166 0.00301041963275599 0.00257950605403768 0.00371860301497824 0.00332287352521502 0.00257484371163209 0.00233067032954151 0.0025906381702047 0.00330840516360239 0.00232921603274866 0.00170210500585189 0.00257020238464037 0.00154238808656341 0.00163532686311685 0.00170961723047591 0.00154871596536183 0.00169946513023022 0.00150277002436136 0.00158938586702653 0.00167210012018969 0.00162181470407569 0.00198189590053038 0.00172855462031681 0.00160914999392526 0.00161679966246831 0.0016940520495316 0.00197852276125676 0.00155827339059641 0.00160358655066913 0.00161473804004588 0.00201587832428851 0.00161513075046814 0.00154912810125676 0.00156909624615324 0.00149805479934339 0.00186411055066734 0.00188512411082104 0.00147747851859721 0.00178575525655419 0.00151308312820705 0.00145326150994615 0.00176082457347093 0.00145655689516625 0.00150327711646527 0.00172590953664166 0.00143508749813011 0.0017607322370273 0.00168180537684849 0.00173991677329315 0.00174930781000733 0.00147895203844656 0.00176624630671988 0.00172450882175958 0.00231881970689421 0.00234450089362427 0.0027163775363582 0.00174581720318018 0.0023248269032324 0.0033145478978278 0.0027327138801461 0.00223879939928985 0.00274517387646029 0.00331520702342878 0.00223687404253376 0.00168739649519525 0.0017693960991308 0.00271630316560099 0.00224584137849571 0.00174094523303899 0.00244757604891304 0.00166439390414091 0.0022567609099516 0.00369660047475842 0.0024553678298378 0.00333931721293761 0.00246567436614581 0.00223528175942257 0.0033138950476534 0.00369274146094821 0.00265548477981347 0.00245575815236192 0.00172586521716206 0.00247305365893301 0.00264049488157631 0.00243665633560996 0.00174229328293946 0.00167290412264542 0.00137893655106096 0.00170361808813695 0.00141403744785457 0.00169426882396556 0.00171800854954355 0.00135974600112305 0.00146525945896024 0.00166087566253647 0.00139207761829558 0.00171503713761458 0.00178972867249181 0.00142964655529987 0.00141022256610908 0.0016939762567878 0.00145864231958503 0.00172169036369525 0.00139684895326201 0.00151346830604227 0.00213165216979244 0.00219872949370705 0.00280659703216609 0.00300403869972801 0.00282357693541456 0.00219058944907584 0.00300120562281064 0.00219229612884466 0.00219255831891978 0.00217534320858399 0.00219009497020421 0.00170044957577432 0.00217206679341291 0.00174519346913312 0.00171362705966477 0.00218670000363787 0.00213822748833768 0.00173016606987965 0.00250390582978643 0.00191823787302711 0.00213974147446447 0.00193171796293947 0.00173638695054794 0.00213505922768605 0.00192188953474074 0.00224815877252129 0.00173407608944233 0.00250418594502307 0.00227160537953671 0.00191857192627602 0.00309531621217193 0.00226099372114675 0.0025099042557621 0.00252024630801309 0.00213218038752314 0.00280971738316408 0.00250683811140478 0.0028212440077954 0.00352056011605335 0.00250959200253917 0.00351608177120103 0.00310499689647211 0.0040114123393603 0.00310844463076146 0.00352503179502774 0.00441917820164978 0.00400018737541947 0.00354420598453466 0.00354308217668981 0.00446393503704007 0.00442783731092148 0.00349970579626159 0.00401189113841353 0.00446850362664186 0.00446457496294914 0.00352980517954565 0.00350132844786567 0.00349372360681834 0.00353155448076848 0.00282010315584826 0.00301465795253307 0.00349125352694219 0.00281906360614499 0.00349647128468898 0.00301399220789703 0.00400089013850689 0.00334291885614894 0.00473961485506948 0.00400518066286981 0.00412925122805156 0.00474758914965968 0.0033353770395325 0.00511253606490562 0.00473944500700915 0.00414106217190461 0.00411917242717423 0.00333128146755539 0.00290513105429926 0.00333404431441155 0.00400286796824576 0.00301080354898422 0.0050318290472331 0.00381820642458377 0.0044287722693914 0.00412399179978348 0.00382225903408078 0.00502581985054812 0.00502556083365683 0.00511556202781234 0.00413939011576636 0.00380945276076038 0.00412555831740853 0.00289829483231049 0.00290210198929273 0.00297254574702795 0.00380221490741916 0.00381161592227656 0.00296774660668839 0.00363581460340411 0.00290403910071909 0.00220131653125576 0.00296563364692351 0.00255107779441493 0.00196902779628359 0.00288370334426983 0.00287687050498865 0.00196880245973967 0.00220904456462443 0.00164670694683995 0.00218988417004928 0.00199921596764596 0.00218154874467066 0.00165238772336158 0.00169033995853785 0.00330827607194866 0.00302028786787172 0.002180971910125 0.0029011617587373 0.0033201686107743 0.00253878302359955 0.00254335941238021 0.00330404411023382 0.00218240655676527 0.00219773217218281 0.00198455905068881 0.00254158891820412 0.00159037193852212 0.00198026130052871 0.00216996622812411 0.00172636382316611 0.00160796755903288 0.00215113002700813 0.00162086490084259 0.00168748654907085 0.00172278212002332 0.00196207406219574 0.00162627560905462 0.00167566097151583 0.0020178809932981 0.00167778234726476 0.00158995654425707 0.00159244098148882 0.00177303711506797 0.00202104553845752 0.0016759433283162 0.00163635378590864 0.00167157204386938 0.00166508699751732 0.00166237023458033 0.00167481258958939 0.00166804060056015 0.00166415881360394 0.00197338502525308 0.00167713215735829 0.00165944487471338 0.00165350771632449 0.00164774472413696 0.00166477838516524 0.00223094958508564 0.00230395976407613 0.00162051898252215 0.00226899581456321 0.00165768879063779 0.00207709841415131 0.00224371336699766 0.00294242132792196 0.00226605820800772 0.00205381902399642 0.00331665442247551 0.00225477910877246 0.00297016800870631 0.0030153837109174 0.00232742526795802 0.00226422733400969 0.00302143083309413 0.00225127242113599 0.00331614283904506 0.00230357006836132 0.00205352117557909 0.00173174233654159 0.00294830708119912 0.00204887921797347 0.00273390396935097 0.002726343328856 0.00205890791715258 0.0023300485764959 0.00232051785668813 0.00315847233670389 0.00273043302089127 0.00199080206483906 0.0027017339707255 0.00232516156801405 0.0027230009781852 0.00315587335622072 0.00232487888914591 0.00199605579929982 0.00225912445926853 0.00269860058329519 0.00171941457966338 0.00223463243150611 0.00199961796083206 0.00173303121212719 0.00201713710329092 0.00230429941122194 0.00172829476640712 0.00168767891721573 0.00168308887506625 0.00165432126650278 0.00198641793929582 0.00174339129942733 0.00198288815212424 0.00166120768260053 0.00174952743377871 0.00171552042445523 0.00167015298132713 0.00170368574824374 0.00166143659887584 0.00171056052776606 0.001734823321559 0.00173187102265205 0.00166443906307654 0.00166182837015253 0.0016459849761274 0.00190691216662694 0.00176067678145115 0.00190408437937851 0.00164311702306275 0.00173757219851691 0.0016796780207095 0.00171150810026545 0.0017119556189728 0.00165615025394465 0.00178975745842986 0.00172769774944597 0.00165759543366091 0.00169082638954094 0.00179191261611582 0.00207906216680323 0.00223706798977572 0.00179780382063716 0.00180205497104033 0.00166817905913344 0.00205927839150557 0.00180366299175326 0.00222698400553139 0.00172521218907691 0.00271312807