<?xml version="1.0"?>
<VTKFile type="UnstructuredGrid" version="0.1" byte_order="LittleEndian">
<UnstructuredGrid>
<Piece NumberOfPoints="2148" NumberOfCells="716">
<Points>
<DataArray type="Float64" NumberOfComponents="3" format="ascii">
0 3.26530612244898 0 0 3.16326530612245 0 0.111951344119615 3.17967750712615 0 0.111951344119615 3.17967750712615 0 0.197493618810026 3.24620015801126 0 0.0912671921301906 3.3030534847155 0 0.111951344119615 3.17967750712615 0 0.0912671921301906 3.3030534847155 0 0 3.26530612244898 0 0.0694515998297709 3.39228183135043 0 0 3.36734693877551 0 0.0912671921301906 3.3030534847155 0 0.0912671921301906 3.3030534847155 0 0 3.36734693877551 0 0 3.26530612244898 0 0 3.46938775510204 0 0 3.36734693877551 0 0.0694515998297709 3.39228183135043 0 0.0694515998297709 3.39228183135043 0 0.168706590021732 3.3675083505807 0 0.0938988346741577 3.47186564208169 0 0.197493618810026 3.24620015801126 0 0.168706590021732 3.3675083505807 0 0.0912671921301906 3.3030534847155 0 0.0912671921301906 3.3030534847155 0 0.168706590021732 3.3675083505807 0 0.0694515998297709 3.39228183135043 0 0.197493618810026 3.24620015801126 0 0.299058335297796 3.32133186417395 0 0.168706590021732 3.3675083505807 0 0.190880348472602 3.48069227481756 0 0.168706590021732 3.3675083505807 0 0.258490864774894 3.41629632516781 0 0.299058335297796 3.32133186417395 0 0.340757662552379 3.42114971762547 0 0.258490864774894 3.41629632516781 0 0.258490864774894 3.41629632516781 0 0.168706590021732 3.3675083505807 0 0.299058335297796 3.32133186417395 0 0.197493618810026 3.24620015801126 0 0.299518483184667 3.19757959365724 0 0.299058335297796 3.32133186417395 0 0 3.77551020408163 0 0 3.6734693877551 0 0.0970775896926126 3.72552247468465 0 0.115552315246572 3.59706063011091 0 0 3.6734693877551 0 0 3.57142857142857 0 0 3.6734693877551 0 0.115552315246572 3.59706063011091 0 0.0970775896926126 3.72552247468465 0 0.0970775896926126 3.72552247468465 0 0.115552315246572 3.59706063011091 0 0.193985532863148 3.68506131538041 0 0.190880348472602 3.48069227481756 0 0.115552315246572 3.59706063011091 0 0.0938988346741577 3.47186564208169 0 0 3.57142857142857 0 0.0938988346741577 3.47186564208169 0 0.115552315246572 3.59706063011091 0 0 3.46938775510204 0 0.0938988346741577 3.47186564208169 0 0 3.57142857142857 0 0 3.46938775510204 0 0.0694515998297709 3.39228183135043 0 0.0938988346741577 3.47186564208169 0 0.168706590021732 3.3675083505807 0 0.190880348472602 3.48069227481756 0 0.0938988346741577 3.47186564208169 0 0.286102060941823 3.49892822510028 0 0.258490864774894 3.41629632516781 0 0.340757662552379 3.42114971762547 0 0.286102060941823 3.49892822510028 0 0.190880348472602 3.48069227481756 0 0.258490864774894 3.41629632516781 0 0.286102060941823 3.49892822510028 0 0.237071236615437 3.58741033252919 0 0.190880348472602 3.48069227481756 0 0.286102060941823 3.49892822510028 0 0.354062635553936 3.61172914122892 0 0.237071236615437 3.58741033252919 0 0.115552315246572 3.59706063011091 0 0.190880348472602 3.48069227481756 0 0.237071236615437 3.58741033252919 0 0.115552315246572 3.59706063011091 0 0.237071236615437 3.58741033252919 0 0.193985532863148 3.68506131538041 0 0.274164293287564 3.66925514917995 0 0.237071236615437 3.58741033252919 0 0.354062635553936 3.61172914122892 0 0.193985532863148 3.68506131538041 0 0.237071236615437 3.58741033252919 0 0.274164293287564 3.66925514917995 0 0.335182568700197 3.70560902072145 0 0.263252993879706 3.75025141972945 0 0.274164293287564 3.66925514917995 0 0.274164293287564 3.66925514917995 0 0.263252993879706 3.75025141972945 0 0.193985532863148 3.68506131538041 0 0.193985532863148 3.68506131538041 0 0.263252993879706 3.75025141972945 0 0.17970146537822 3.78887976330602 0 0.193985532863148 3.68506131538041 0 0.17970146537822 3.78887976330602 0 0.0970775896926126 3.72552247468465 0 0.335182568700197 3.70560902072145 0 0.42252155128195 3.71599569334352 0 0.356184391827633 3.7988771440165 0 0.42252155128195 3.71599569334352 0 0.335182568700197 3.70560902072145 0 0.354062635553936 3.61172914122892 0 0.335182568700197 3.70560902072145 0 0.274164293287564 3.66925514917995 0 0.354062635553936 3.61172914122892 0 0.472712586497609 3.63757779853199 0 0.354062635553936 3.61172914122892 0 0.431667252078919 3.54337921804584 0 0.354062635553936 3.61172914122892 0 0.472712586497609 3.63757779853199 0 0.42252155128195 3.71599569334352 0 0.365106117910463 3.4992447986014 0 0.354062635553936 3.61172914122892 0 0.286102060941823 3.49892822510028 0 0.431667252078919 3.54337921804584 0 0.354062635553936 3.61172914122892 0 0.365106117910463 3.4992447986014 0 0.340757662552379 3.42114971762547 0 0.433220101812195 3.45203853977455 0 0.365106117910463 3.4992447986014 0 0.286102060941823 3.49892822510028 0 0.340757662552379 3.42114971762547 0 0.365106117910463 3.4992447986014 0 0.433220101812195 3.45203853977455 0 0.431667252078919 3.54337921804584 0 0.365106117910463 3.4992447986014 0 0.539923670668636 3.54287540280753 0 0.431667252078919 3.54337921804584 0 0.433220101812195 3.45203853977455 0 0.433220101812195 3.45203853977455 0 0.514486449895809 3.41034782479467 0 0.539923670668636 3.54287540280753 0 0.641360722408704 3.53120201648524 0 0.539923670668636 3.54287540280753 0 0.622628749631717 3.45471960615845 0 0.514486449895809 3.41034782479467 0 0.622628749631717 3.45471960615845 0 0.539923670668636 3.54287540280753 0 0.539923670668636 3.54287540280753 0 0.641360722408704 3.53120201648524 0 0.63788658166007 3.61700594988489 0 0.431667252078919 3.54337921804584 0 0.539923670668636 3.54287540280753 0 0.472712586497609 3.63757779853199 0 0.539923670668636 3.54287540280753 0 0.566499740675289 3.65478783651362 0 0.472712586497609 3.63757779853199 0 0.539923670668636 3.54287540280753 0 0.63788658166007 3.61700594988489 0 0.566499740675289 3.65478783651362 0 0.566499740675289 3.65478783651362 0 0.63788658166007 3.61700594988489 0 0.625543564376873 3.72298572665107 0 0.625543564376873 3.72298572665107 0 0.529507903369422 3.72940974320478 0 0.566499740675289 3.65478783651362 0 0.566499740675289 3.65478783651362 0 0.529507903369422 3.72940974320478 0 0.472712586497609 3.63757779853199 0 0.42252155128195 3.71599569334352 0 0.472712586497609 3.63757779853199 0 0.529507903369422 3.72940974320478 0 0.299058335297796 3.32133186417395 0 0.299518483184667 3.19757959365724 0 0.413754685939067 3.24402453530014 0 0.413754685939067 3.24402453530014 0 0.414686441801804 3.35656436887501 0 0.299058335297796 3.32133186417395 0 0.299058335297796 3.32133186417395 0 0.414686441801804 3.35656436887501 0 0.340757662552379 3.42114971762547 0 0.340757662552379 3.42114971762547 0 0.414686441801804 3.35656436887501 0 0.433220101812195 3.45203853977455 0 0.433220101812195 3.45203853977455 0 0.414686441801804 3.35656436887501 0 0.514486449895809 3.41034782479467 0 0.413754685939067 3.24402453530014 0 0.501431897780356 3.31278713965279 0 0.414686441801804 3.35656436887501 0 0.501431897780356 3.31278713965279 0 0.514486449895809 3.41034782479467 0 0.414686441801804 3.35656436887501 0 0.633132849526405 3.34964916703868 0 0.622628749631717 3.45471960615845 0 0.514486449895809 3.41034782479467 0 0.633132849526405 3.34964916703868 0 0.501431897780356 3.31278713965279 0 0.594990607626668 3.24418120818188 0 0.633132849526405 3.34964916703868 0 0.514486449895809 3.41034782479467 0 0.501431897780356 3.31278713965279 0 0.594990607626668 3.24418120818188 0 0.511724813301557 3.23468821708934 0 0.576845879156526 3.15540938239119 0 0.511724813301557 3.23468821708934 0 0.594990607626668 3.24418120818188 0 0.501431897780356 3.31278713965279 0 0.501431897780356 3.31278713965279 0 0.413754685939067 3.24402453530014 0 0.511724813301557 3.23468821708934 0 0.670671928683462 3.15700199883871 0 0.594990607626668 3.24418120818188 0 0.576845879156526 3.15540938239119 0 0.670671928683462 3.15700199883871 0 0.762672546446852 3.17299913793375 0 0.702873663166256 3.25746382131753 0 0.670671928683462 3.15700199883871 0 0.76110629086622 3.06375817385364 0 0.762672546446852 3.17299913793375 0 0.807121323954102 3.26344228328316 0 0.702873663166256 3.25746382131753 0 0.762672546446852 3.17299913793375 0 0.670671928683462 3.15700199883871 0 0.702873663166256 3.25746382131753 0 0.594990607626668 3.24418120818188 0 0.734703527341189 3.34035699351431 0 0.633132849526405 3.34964916703868 0 0.702873663166256 3.25746382131753 0 0.702873663166256 3.25746382131753 0 0.633132849526405 3.34964916703868 0 0.594990607626668 3.24418120818188 0 0.633132849526405 3.34964916703868 0 0.714754888194296 3.42210389434834 0 0.622628749631717 3.45471960615845 0 0.633132849526405 3.34964916703868 0 0.734703527341189 3.34035699351431 0 0.714754888194296 3.42210389434834 0 0.819342232445977 3.38228396728686 0 0.785091255056639 3.49034264581094 0 0.714754888194296 3.42210389434834 0 0.714754888194296 3.42210389434834 0 0.734703527341189 3.34035699351431 0 0.819342232445977 3.38228396728686 0 0.734703527341189 3.34035699351431 0 0.702873663166256 3.25746382131753 0 0.807121323954102 3.26344228328316 0 0.885791492218095 3.30995762619863 0 0.819342232445977 3.38228396728686 0 0.807121323954102 3.26344228328316 0 0.819342232445977 3.38228396728686 0 0.734703527341189 3.34035699351431 0 0.807121323954102 3.26344228328316 0 0.899522646441396 3.47271479165558 0 0.819342232445977 3.38228396728686 0 0.921072085702129 3.37576071258942 0 1.00024685946745 3.29947316182676 0 0.921072085702129 3.37576071258942 0 0.885791492218095 3.30995762619863 0 0.921072085702129 3.37576071258942 0 0.819342232445977 3.38228396728686 0 0.885791492218095 3.30995762619863 0 0.885791492218095 3.30995762619863 0 0.807121323954102 3.26344228328316 0 0.909407150138764 3.22689411286806 0 0.885791492218095 3.30995762619863 0 0.909407150138764 3.22689411286806 0 1.00024685946745 3.29947316182676 0 0.762672546446852 3.17299913793375 0 0.83765433205951 3.16089850133082 0 0.807121323954102 3.26344228328316 0 0.76110629086622 3.06375817385364 0 0.83765433205951 3.16
[...]
<PointData Scalars="conc_conc," Vectors="" Tensors="">
<DataArray type="Float64" Name="conc_conc" format="ascii">
0.000169996405979249 0.000184291413264696 0.000378703316436846 0.000404768270587092 0.000853806741026731 0.000345902512595039 0.000395701929936908 0.000338997229052382 0.000159391180737058 0.000270460964950604 0.000156000527488221 0.000339150011042619 0.000324843796100189 0.000166783643572448 0.000178172720559832 0.000154711525557585 0.000168723266636407 0.000263736845143126 0.00025515909244661 0.000761643388806961 0.000349610067536197 0.00087153154498612 0.000769435012183468 0.000333587232711162 0.000350138493998342 0.000749534071676829 0.00026525482429768 0.000873073189119857 0.00173320781649061 0.000789397904584891 0.00104617802458897 0.000765506129780613 0.0015951425861655 0.00174851695992361 0.00233871131095024 0.00162224208446845 0.00160079715589304 0.000773844762577885 0.00175877021164619 0.000891578261709952 0.00148876554283041 0.00172891873696221 2.64136975173605e-05 6.55783965771903e-05 0.000288747711194545 0.000409205876063272 4.659043209486e-05 9.15957455381102e-05 2.86375413019477e-05 0.000437614045301621 0.000311891610395635 0.000308741044960576 0.000455769860550121 0.00119240532900822 0.00102271602684176 0.000450353045030253 0.000329544807341379 7.9952525265114e-05 0.000357961026570226 0.000424654872941458 0.0001400422229681 0.000335521586214926 9.78129177715906e-05 0.000140211198149971 0.000274866405871941 0.000340025602513995 0.000786471364381762 0.00102092050172412 0.000336742605040198 0.00209798662459208 0.00161383478486962 0.00235534083210204 0.00207016024285884 0.00104675775806312 0.0016144447035356 0.00207849835555047 0.00169122439720922 0.00103330756674198 0.00207942335577488 0.00326510227163446 0.00172046232881733 0.000430595804594907 0.00105905276733145 0.00164722899951842 0.000406118149748433 0.00166452144025885 0.00123165788892729 0.0024562670672006 0.00169755521130212 0.00330007445777224 0.00125575714123641 0.00169840200056185 0.00242796013415794 0.00354065984656254 0.00251217338164635 0.00243617448240373 0.00244501350152555 0.00246846232272162 0.00123476652772002 0.00123686161334839 0.00245729182317831 0.00110127635720303 0.00122691468741319 0.00109010137119881 0.000276462969049014 0.00357552072883439 0.00432528861454158 0.00446629576845606 0.0043139472275389 0.00356738008436235 0.00325867784435299 0.00352825316158543 0.00247319931781536 0.00329219444109543 0.00369681043453076 0.0033770826618067 0.00318735337206615 0.00336059892884375 0.0037233629179707 0.00429066145179178 0.00283551810517434 0.00325702106113704 0.00210930194902586 0.00323057567251574 0.00330917028144732 0.00281247874584665 0.00236733739729459 0.00283695805533691 0.00281705275238695 0.00212406987203202 0.00234052234625485 0.00282045420943362 0.00280236887661265 0.00321573539047485 0.00283688144547414 0.00266468274679587 0.00324493788123028 0.00280531964840707 0.00282694041713206 0.00228506769643667 0.00262240321798051 0.00133964189238624 0.00253173346152467 0.00142494173902772 0.00232657269798 0.00145401471447849 0.00254102954636927 0.00255418453722178 0.00132767753511073 0.00151814345339795 0.00327471829745419 0.00262646932378646 0.00362098698142368 0.0025378583301313 0.00264628128872734 0.00363521527359518 0.00256893995247468 0.00151970017634684 0.00260329843254502 0.00260032889621128 0.00149728456798442 0.00183909916263676 0.00184685592412762 0.00347751168661869 0.00261766709840294 0.0026461513978477 0.00352154211730333 0.00365449791189538 0.00435870525279665 0.00359283782180037 0.00360547720784761 0.00179409281720012 0.00147932148997513 0.00205783621906423 0.00203856528318636 0.00241647868473743 0.00182101915846861 0.00178144046213829 0.0024435901897426 0.0023513141560556 0.00238980621229447 0.00239815801042874 0.00281084945972893 0.00279942932312973 0.00243329780150061 0.00232927157047827 0.00203213873631917 0.00208615482632974 0.00241329337208146 0.00205407196130594 0.00231302592920426 0.0024442811463659 0.00117433361138681 0.00145215875132642 0.00230914541080062 0.00121846021553868 0.00207231879353357 0.00129139557126592 0.00121245945720932 0.00228970797781548 0.00208355131971776 0.00130931201037016 0.00178309874317321 0.00125946343223648 0.00179140924781753 0.00130617754279002 0.00206019059155382 0.00206951996802708 0.00205465398970513 0.00179515711374736 0.000736371534603657 0.0012915218160089 0.00126714496154093 0.000729414545293023 0.000326138437542252 0.000622590163249548 0.000717408539518133 0.000309022447463546 0.000333288292954032 0.000188977946968188 0.000606793169534818 0.000338795590411985 0.000735012256224054 0.000631055319015437 0.00128575858261501 0.00047643751804324 0.00115685983110922 0.000626486805502002 0.000619233306543181 0.00118073769738671 0.00130103331100402 0.0011902655052328 0.000612908341028499 0.00140987287603613 0.00116663081996615 0.000467548685482577 0.000618586610115528 0.000147195652249855 0.000260365996333352 0.000593635286628718 0.000600773020203812 0.000485930122561217 0.000144496266909883 0.000479731991295942 0.000613262515651906 0.000182133533473555 5.23541282778858e-05 0.000164314863431434 0.000196039193787395 0.000158358723490354 0.000473006806081136 0.000197422767915352 2.05291545484101e-05 0.000158312361494455 1.51546592025924e-05 -4.16149020147543e-06 2.11472029779107e-05 5.37607687796766e-05 1.73178450991099e-05 0.000158073791492041 5.97407867840572e-05 5.61019127992386e-05 0.000186852594135652 3.52538519246396e-05 5.48802061246044e-05 4.18719713853052e-05 -5.04659063225647e-06 0.000330059654642204 0.00012932723542572 0.000195928875879072 0.000313360486891084 0.000128943833338034 0.000332106600348892 3.28089488344166e-05 0.000189917662438616 0.000138296357752798 0.000799359847195511 0.000624204700662738 0.000126393353245795 0.000157176855376611 0.000582233870028087 0.00010689263754209 0.000575122468659578 0.00179477506757161 0.00151404112216811 0.0017948929660843 0.000570709199844043 0.000820237559268429 0.000450200292203142 0.000606237703250465 0.00146031953385798 0.000488979690502258 9.73760727912184e-05 0.000593862128407717 0.000472552164023336 0.000714799936036993 0.000248898978718348 0.0013462225725568 0.000446119248560051 0.00147401285374795 0.000464641819481477 0.001332037291786 0.000730981066217352 0.00133687342116848 0.00142375690006606 0.000726492650068211 0.000731916997828436 0.00140590462427963 0.00060866230320221 0.00024846035867262 0.000719088214613015 0.000621384037354784 0.000251776426443048 0.00017311744863959 8.65828003495466e-06 1.08794531636702e-05 6.43880947395146e-05 0.000248573532104942 2.99162165904064e-05 -3.01323035360557e-07 6.65554555210493e-05 0.000275205995737681 4.7154558881566e-05 0.000454527331720031 0.000116471921804813 0.000453438357830653 4.56268818013655e-05 -9.78742488571059e-06 0.000117090643641431 7.00589917642799e-05 -3.14962428503377e-06 6.46444002057459e-05 1.10375971709059e-07 -1.03889018442661e-05 2.63696848606076e-05 0.00011571849716123 1.24036505428458e-06 -8.57326539699125e-06 2.42068715822693e-05 0.000128787803476275 2.13519429493427e-05 0.000165306597513267 -7.22707404020914e-06 -5.43550652508046e-07 -2.81138632737623e-06 2.3387897981503e-07 -7.09775260934941e-06 -5.58682650735461e-06 -2.0707189106682e-07 -4.61057890607364e-06 -6.84943826895401e-06 4.22292951432474e-07 2.81952005596872e-06 -5.91427054878098e-06 -6.82591875979457e-06 -4.84021254931145e-06 -1.19619988793293e-06 -5.32863935378647e-06 -1.7146680629766e-06 -5.51421733802772e-07 -4.68041053370425e-06 -4.02847431963577e-06 -2.26187025937604e-06 -2.56528920712148e-06 -5.58556986533019e-06 9.44815563125859e-06 2.50868024093296e-06 -3.85128860865757e-06 -5.04554078523445e-06 2.58062251271711e-05 -6.7263130250394e-06 2.82999458964702e-06 -1.264643979636e-06 -5.40567763790004e-06 2.34912718244205e-05 7.70721960360158e-06 -4.69109056597009e-06 -1.09556241238753e-06 0.000170008536440996 3.35792775565745e-05 -3.57058867079744e-06 -6.74820071418574e-06 0.000117958691065678 0.000173791038767815 0.000335952139345924 1.7900886673574e-05 0.000193554520256869 3.5562997353166e-05 -5.39894334301581e-06 1.24113400460289e-05 -4.70731950424983e-06 3.35832933443322e-05 -1.54009666930467e-06 3.86681349436528e-05 6.2851609565365e-05 -6.35134789991646e-06 0.000459994005022334 3.87421958455243e-05 0.000362655119313092 1.77231530290958e-05 0.000332930868435486 5.84563007673788e-05 -1.72406846076274e-05 6.54547099620681e-05 0.000135473750330465 0.000455158899933096 0.000127632729465807 4.32470560047097e-05 5.96412429555929e-05 -7.06208691751679e-06 -4.17418284650124e-06 1.09834086319182e-06 -1.28097727986765e-06 2.05070240979233e-05 2.15973153568282e-05 -2.93309817341573e-06 2.46464253836673e-05 7.58627189522362e-06 -9.45095391468736e-07 1.33002624121631e-06 8.20875956511907e-06 -2.21954036489408e-06 8.44473500607617e-06 3.38292079302662e-06 0.000105378302259387 3.77662604051872e-06 0.000470437262202149 0.000179328547844523 9.36341245481521e-05 0.000742638066421067 0.00125823603695383 0.000824680675792041 0.000300059607911593 0.000727658749141598 0.000821685145483571 -0.000888836369367276 -0.00172940322983082 0.00270211517258827 -0.00033236012553784 0.000368621301627688 -0.0006572253384576 0.000131903676289575 7.96156073993393e-05 -0.00028970871547756 0.000103276621148913 -0.000103213695170715 3.616824386906e-05 4.36389505576545e-05 -0.000113071003850336 1.18909003977811e-05 6.46417158675076e-05 -0.000200538021712349 -0.000263342794843697 -0.00117834866295121 0.00354030231005129 0.000366466117209039 -0.000701525654648649 0.00216173058611563 -0.000620191555744752 -0.00257094966295841 0.00785171664284712 0.0137822339660025 0.00559678917010357 0.00794391449194216 -0.00581901025702372 0.0183994604337727 0.012363822444465 0.0575498152656154 0.0160300151186136 0.0515552605900609 0.0133404648238709 0.00699078082283887 -0.00820327843818287 0.0352040211134551 0.0329889973508927 -0.00682474155959008 0.00849207076926411 -0.0011541695422407 0.00397568345090683 -0.00112390091698913 -0.000401562227359695 0.00191090533711803 -0.000540864240852413 -0.00049378800959233 0.00185495356875609 -0.00146613591648448 -9.18047295401406e-05 -0.000438652968659025 0.000145524813240337 2.54343019384679e-05 1.96613438352532e-05 -4.33480630717721e-05 4.29798347541086e-06 3.32810981635199e-07 4.67031373129239e-08 -4.92953021156562e-05 2.26487922396851e-05 9.63215218497015e-08 2.29717374673204e-05 4.05729451072803e-05 -0.000165969199558618 1.9218306680074e-05 -0.00013940952939334 -0.000104992290654235 2.49623417809658e-07 -2.06632666157701e-07 1.11119715183364e-05 6.74033568764812e-07 6.64817152537305e-09 2.69309086703107e-07 3.32035331495418e-08 -4.86219315084563e-08 1.22892349515558e-07 6.88188539182048e-08 -1.08065909570978e-08 -3.16695851238266e-08 -6.2122548411841e-07 -2.04812032315778e-06 9.48178554324206e-06 9.14487396784207e-08 -2.82151902808338e-09 -4.8602634358097e-07 -2.81262814378095e-07 4.48022823074431e-08 -4.65591630836993e-07 5.20330874558603e-08 -3.28743599800551e-07 5.49610562703284e-09 -4.1002241051486e-09 3.86050592300563e-09 -1.32427761424614e-08 -1.0725547361948e-08 -1.08647958529915e-09 1.91982379105505e-08 4.32466726924863e-06 -2.05843634166843e-06 1.45387996453794e-06 -1.52992411801229e-06 4.05527079725783e-06 -1.13987897706695e-06 -4.85097772386882e-06 8.67467136012485e-06 1.36983185042469e-05 -1.95771807762864e-06 -3.13912808825598e-05 2.41784769121877e-05 -2.86841427745619e-05 3.77367881415756e-05 2.23989392275952e-05 0.000188378962238541 -4.0025702777931e-05 -0.000734214488395259 -0.000304853385346804 0.000170801034443303 -0.000679350116116231 -0.000635612334568584 -0.00125673236846535 1.88060222098489e-05 0.00650764393978481 -0.00342021779877818 -0.00107184095375954 0.00722043139497394 -0.00151952883138862 0.00585064378519869 0.00560791557511424 -0.000364585929216332 0.0106593841544978 0.00518780617146079 -0.000673162684096801 0.000324495461635858 -0.000153356856175187 0.000315705051717967 -0.000322925332085389 -0.000433622419664872 0.000451782870359619 -0.000325753560353487 -0.000174932045074396 -0.000510221047538248 -3.1055356874811e-05 1.69065578919182e-05 -0.00014517332875277 -3.6870294470067e-05 6.95110302601449e-06 1.12912964853484e-06 -0.000107614833808356 -0.000165561388766104 2.12676113096744e-05 -0.000123292092483544 -4.55595777930534e-06 -1.45950099666134e-07 5.74445936834739e-06 4.89754953156095e-06 4.08024199057246e-06 -4.56108289666406e-06 2.21164200343171e-06 1.83963162482561e-06 8.33146263551732e-06 2.9837428087968e-06 1.37304027764969e-06 2.5451176626461e-06 -3.8503233092187e-05 8.69793106740218e-06 -7.20674543026871e-06 -2.70415988953166e-06 -7.17011886990335e-05 -4.85456188063274e-05 -5.96796106375759e-06 1.02907342136338e-05 -4.19423738050049e-05 6.18124008773003e-05 -0.000142309720114709 -8.1712421220374e-05 -1.17341344522641e-06 -5.1789702525733e-05 -0.000105661603786018 8.91692725831793e-05 -8.26158236305453e-05 -8.1503796693541e-05 0.000468159180794005 -0.000233763881907419 0.000118544224059026 -6.88287131721616e-05 0.00618700260853395 0.0105470908558847 0.00543425310868414 0.000483866009563834 -0.000534912818019592 0.00539354736305917 -0.000417902570349501 0.00279735673563645 0.0160014817157381 0.00615549557643962 0.00954630154020382 0.0163399045354621 0.0114554717270565 0.00599292812892542 0.0166925044008944 0.0111502042242831 0.012761635290903 0.0199595279045393 0.0165008078388788 0.013090262621373 0.0123051845448629 0.0158740240815066 0.0203117157310529 0.011909861933306 0.0207805785619909 0.0251031172152841 0.00493061733454851 0.0264501027632267 0.00907133038961974 0.0252791451074739 0.00571039136392783 0.0109772475487019 0.034074032275611 0.00929932448975474 0.0270756754169131 0.0275180103169521 0.0197173430536259 0.0441477418127775 0.0200067680337639 0.0165147189290184 0.0268131135904514 0.0185449674401439 0.0284793194628472 0.015116859561764 0.00610856234509736 0.0150135819222146 0.0155726334487541 0.0124631426696368 -0.000351973911796531 -0.00160130981125707 -0.000590607433192872 0.0132370215240346 0.00664374188463626 0.00622219559490771 0.00174230832617271 -1.02209850069784e-05 0.014935595264765 0.00128624623411033 0.0062910670419477 0.0115572177497516 0.00219410493073351 0.00193968730570234 0.0117944441132107 0.0114206880705694 0.00223408333496906 0.0121868502364376 0.0159610311224619 0.0203855827543532 0.0148583827033554 0.0121973113010449 0.00149365994563727 0.00658752641802106 0.0124852618969695 0.00704750993610058 0.0112985009602195 0.0126311844639187 0.00656284914984916 0.00599514166824579 0.00145215313553644 0.00255880701911436 0.00627408008771822 0.00250453502061903 0.0111896307742235 0.00586912542398503 0.00165984501915204 0.00155296907953045 0.00714399496721267 0.00153708759755537 0.00612204130825973 0.00167460908366381 0.00700509332473597 0.00314726301603907 0.00321969498566525 0.00715324069783773 0.00692354467531261 0.00770784222662248 0.0122073192520253 0.00966457256735153 0.00929201778472908 0.00720652395123378 0.00708946177082798 0.00673385526059118 0.00763112189873448 0.0096692020952144 0.0089429921186072 0.00477382812234472 0.00720926845474983 0.00482002772976464 0.00916265581053298 0.00762104247182887 0.00908039496394388 0.00481859497578639 0.00452897823225649 0.00792245767117524 0.00895792910077696 0.0125436345184708 0.00768845568538021 0.0129074653055663 0.00992369527708615 0.0121867382791482 0.0115792502750829 0.0160728379288629 0.0101741709387063 0.0126786681831238 0.0156634548418214 0.00244452108703263 0.00942171734928306 0.00586429597973698 0.00253101916204008 0.00769868283198279 0.00944470249575824 0.00482646905094525 0.00734695098772683 0.00117757238995067 0.00111894376155695 0.00737349088324283 0.00259257220452208 -0.000442400993659741 0.00226569506003971 -1.93493184178544e-05 0.00234109939980384 -0.000464639136151928 0.0014887106626076 0.00131181846631108 -0.000271935151948372 -0.000109446629597427 -8.15755485563042e-05 -3.6329622274303e-05 -3.84464922803491e-05 -3.86966843177212e-05 -3.80042191795355e-05 -3.5651517099088e-05 -2.3148177039695e-05 -6.88963392918055e-05 -2.85498616006684e-06 -4.47444906560831e-05 -1.45119997905199e-05 -4.79022808838074e-05 0.000127225250519538 -1.35869163841903e-05 -7.46564206655498e-05 -1.63646631155873e-05 -2.71903235193592e-05 -4.89846777308052e-05 0.000977806979379862 -6.86277433568762e-05 -7.50659930611458e-05 -5.74175126625738e-05 0.000160162858871798 0.000972748497061601 0.00126952644237133 0.00438347869314864 0.00105224191801634 0.00128776766111528 0.00105470871860862 7.26662239152884e-05 -0.000154981776753326 0.00110345258590382 0.001359147230072 0.00136341034929417 0.000922370287117328 0.00456504991770953 0.00461370115384787 0.000916136725979566 0.00456988715521273 0.00394718299861251 0.00443319497076101 0.00127260355269431 0.0012988196676382 0.00324707563397819 0.0038440450308075 0.00131844251270919 0.00128108349135364 9.38426559886238e-05 0.00382181029681129 0.00134628276090673 0.00128103407622283 0.00011742656014838 0.000156245231403865 0.00121903167166046 -4.49290922056253e-05 1.15156620812949e-06 0.000166859998217137 -6.86784767285724e-05 -3.05091327034244e-05 0.000115404911370791 -5.93867035502771e-05 0.000186457613907095 0.000138380575868324 0.000242954006793883 6.51425300203839e-06 0.000313135669773768 0.000245691165792147 0.000183498294330078 -2.83897341116785e-05 -1.16092828501197e-05 3.80603701320939e-05 0.000222046608187262 0.00129209741505107 0.000195455390622705 0.00111072002349106 0.00125046204954699 0.000144887489704949 0.000227484997114607 0.000310450070924873 0.0010653064665938 0.00023265553603226 0.00134304575070395 0.00104799103131667 0.00314816798910886 0.00105875877879761 0.00250591216756465 0.00315490678214945 0.00443617466462594 0.00325713195066904 0.00247139915610031 0.00355036063293727 0.00440526238281953 0.0025160869233181 0.00519633204276305 0.00456938932028671 0.00422750246478648 0.00579030429414283 0.00510449549921405 0.00628517928683042 0.00566944172143298 0.00453222478704954 0.00527421847142016 0.00330093319534341 0.00443777149663423 0.00557678337143873 0.00563334939735019 0.00703293630857836 0.00408022093718025 0.00402696515065119 0.00321815872377696 0.00564575795905598 0.0071844565686445 0.00473320549993173 0.00390316665554672 0.00619893336373388 0.00700838276456597 0.00724527778183636 0.00707255829723799 0.00567154514782059 0.00636596108512288 0.00629180458541604 0.00503722361139308 0.00396475794370336 0.00386212912892979 0.00679672812243789 0.00637733172690863 0.00311172578904569 0.00371178888991973 0.00118840079340912 0.00681518057940674 0.00369860555433987 0.00328045229964638 0.0038382755867869 0.0051021950752233 0.00253729550688744 0.00255999555347924 0.00115016735910605 0.00362431980336424 0.00255541469313538 0.00349172921846484 0.00183091781153031 0.00502681603411183 0.00348708821092083 0.0025993942495994 0.00438095658372487 0.00361115669977826 0.00504017081179496 0.000843846631550702 0.000126894922041612 0.00111879050173036 0.000136044830822948 0.00016673205143326 0.000787305656926295 0.00186564361016088 0.000780119148243097 0.00246425539217451 0.00246877827307439 0.00076262948715982 0.00118396168210819 0.00123000341986165 0.00361706417614235 0.0011264796891231 0.00126984786454246 0.000443480866776935 0.00296752016972968 0.000514818773393609 0.00116905940147517 9.38289425199991e-05 0.000194202195345032 -9.68153504534558e-05 0.000493484048116563 0.00116257286637936 6.5465827207663e-05 0.0011944730489367 0.00108884491725702 0.000148161444242791 0.000122346653456687 -1.58702723740818e-05 0.000164723248817151 0.000179910238380347 -2.38333763720588e-05 0.00015388481439858 6.34380433632158e-07 -3.00028089897806e-05 -5.24819728719116e-05 0.000160565967861816 -1.15241777774091e-05 -3.46432366195252e-05 -2.03987080810844e-05 -6.97847158199122e-06 -1.11366957327404e-05 -1.91827919248725e-05 -5.89401290741779e-07 -1.15451144013982e-05 -1.76543610328557e-05 1.90351042532439e-07 -1.31942009582788e-05 1.49844323697613e-06 -3.22792178246148e-06 0.00