<?xml version="1.0"?>
<VTKFile type="UnstructuredGrid" version="0.1" byte_order="LittleEndian">
<UnstructuredGrid>
<Piece NumberOfPoints="2148" NumberOfCells="716">
<Points>
<DataArray type="Float64" NumberOfComponents="3" format="ascii">
0.633132849526405 3.34964916703868 0 0.734703527341189 3.34035699351431 0 0.714754888194296 3.42210389434834 0 0.633132849526405 3.34964916703868 0 0.714754888194296 3.42210389434834 0 0.622628749631717 3.45471960615845 0 0.819342232445977 3.38228396728686 0 0.785091255056639 3.49034264581094 0 0.714754888194296 3.42210389434834 0 0.714754888194296 3.42210389434834 0 0.734703527341189 3.34035699351431 0 0.819342232445977 3.38228396728686 0 0.885791492218095 3.30995762619863 0 0.819342232445977 3.38228396728686 0 0.807121323954102 3.26344228328316 0 0.819342232445977 3.38228396728686 0 0.734703527341189 3.34035699351431 0 0.807121323954102 3.26344228328316 0 0.899522646441396 3.47271479165558 0 0.819342232445977 3.38228396728686 0 0.921072085702129 3.37576071258942 0 1.00024685946745 3.29947316182676 0 0.921072085702129 3.37576071258942 0 0.885791492218095 3.30995762619863 0 0.921072085702129 3.37576071258942 0 0.819342232445977 3.38228396728686 0 0.885791492218095 3.30995762619863 0 0.885791492218095 3.30995762619863 0 0.807121323954102 3.26344228328316 0 0.909407150138764 3.22689411286806 0 0.885791492218095 3.30995762619863 0 0.909407150138764 3.22689411286806 0 1.00024685946745 3.29947316182676 0 1.19305194516464 3.26353802457581 0 1.18141089206936 3.38272384021274 0 1.11468676279584 3.31017344344597 0 1.11468676279584 3.31017344344597 0 1.18141089206936 3.38272384021274 0 1.07987441903817 3.37609166095687 0 1.19305194516464 3.26353802457581 0 1.26523174067488 3.34031727794078 0 1.18141089206936 3.38272384021274 0 1.28522162567389 3.42221814028258 0 1.21648376469023 3.49150677809714 0 1.18141089206936 3.38272384021274 0 1.18141089206936 3.38272384021274 0 1.26523174067488 3.34031727794078 0 1.28522162567389 3.42221814028258 0 1.07987441903817 3.37609166095687 0 1.18141089206936 3.38272384021274 0 1.10257038292044 3.4737138433196 0 1.10257038292044 3.4737138433196 0 1.00045719793773 3.41437401597926 0 1.07987441903817 3.37609166095687 0 1.07987441903817 3.37609166095687 0 1.00045719793773 3.41437401597926 0 1.00024685946745 3.29947316182676 0 1.11468676279584 3.31017344344597 0 1.07987441903817 3.37609166095687 0 1.00024685946745 3.29947316182676 0 1.00024685946745 3.29947316182676 0 1.00045719793773 3.41437401597926 0 0.921072085702129 3.37576071258942 0 0.921072085702129 3.37576071258942 0 1.00045719793773 3.41437401597926 0 0.899522646441396 3.47271479165558 0 1.00045719793773 3.41437401597926 0 0.999894114927612 3.51187556736582 0 0.899522646441396 3.47271479165558 0 0.941945039995894 3.56529748276352 0 0.999894114927612 3.51187556736582 0 1.00977723389631 3.6119166489954 0 0.899522646441396 3.47271479165558 0 0.999894114927612 3.51187556736582 0 0.941945039995894 3.56529748276352 0 1.0624994976017 3.5671178200175 0 0.999894114927612 3.51187556736582 0 1.10257038292044 3.4737138433196 0 1.00977723389631 3.6119166489954 0 0.999894114927612 3.51187556736582 0 1.0624994976017 3.5671178200175 0 1.10257038292044 3.4737138433196 0 0.999894114927612 3.51187556736582 0 1.00045719793773 3.41437401597926 0 1.21648376469023 3.49150677809714 0 1.1530050919725 3.573500709746 0 1.10257038292044 3.4737138433196 0 1.10257038292044 3.4737138433196 0 1.18141089206936 3.38272384021274 0 1.21648376469023 3.49150677809714 0 1.26294086129724 3.5830426180127 0 1.1530050919725 3.573500709746 0 1.21648376469023 3.49150677809714 0 1.1530050919725 3.573500709746 0 1.0624994976017 3.5671178200175 0 1.10257038292044 3.4737138433196 0 1.0624994976017 3.5671178200175 0 1.1530050919725 3.573500709746 0 1.09984598440204 3.65790062435156 0 1.1530050919725 3.573500709746 0 1.18488355491498 3.66691014368949 0 1.09984598440204 3.65790062435156 0 1.28303165064977 3.67911668065157 0 1.18488355491498 3.66691014368949 0 1.26294086129724 3.5830426180127 0 1.1530050919725 3.573500709746 0 1.26294086129724 3.5830426180127 0 1.18488355491498 3.66691014368949 0 1.12994987121014 3.78274750650766 0 1.18488355491498 3.66691014368949 0 1.2221172012644 3.73830704764342 0 1.28303165064977 3.67911668065157 0 1.2221172012644 3.73830704764342 0 1.18488355491498 3.66691014368949 0 1.18488355491498 3.66691014368949 0 1.12994987121014 3.78274750650766 0 1.09984598440204 3.65790062435156 0 1.02061058891815 3.71462277363012 0 1.09984598440204 3.65790062435156 0 1.12994987121014 3.78274750650766 0 1.02061058891815 3.71462277363012 0 1.00977723389631 3.6119166489954 0 1.09984598440204 3.65790062435156 0 1.00977723389631 3.6119166489954 0 1.0624994976017 3.5671178200175 0 1.09984598440204 3.65790062435156 0 0.926022219379733 3.65955351794696 0 1.00977723389631 3.6119166489954 0 1.02061058891815 3.71462277363012 0 0.926022219379733 3.65955351794696 0 0.941945039995894 3.56529748276352 0 1.00977723389631 3.6119166489954 0 0.926022219379733 3.65955351794696 0 1.02061058891815 3.71462277363012 0 0.949669301830865 3.75317304301513 0 0.926022219379733 3.65955351794696 0 0.949669301830865 3.75317304301513 0 0.870663804607734 3.72087172063954 0 0.926022219379733 3.65955351794696 0 0.870663804607734 3.72087172063954 0 0.818307864017085 3.65354272101767 0 0.818307864017085 3.65354272101767 0 0.870663804607734 3.72087172063954 0 0.796427282496464 3.75786215134963 0 0.818307864017085 3.65354272101767 0 0.739978492916818 3.57988603541632 0 0.853274246641702 3.57041627074742 0 0.926022219379733 3.65955351794696 0 0.818307864017085 3.65354272101767 0 0.853274246641702 3.57041627074742 0 0.926022219379733 3.65955351794696 0 0.853274246641702 3.57041627074742 0 0.941945039995894 3.56529748276352 0 0.899522646441396 3.47271479165558 0 0.941945039995894 3.56529748276352 0 0.853274246641702 3.57041627074742 0 0.785091255056639 3.49034264581094 0 0.819342232445977 3.38228396728686 0 0.899522646441396 3.47271479165558 0 0.899522646441396 3.47271479165558 0 0.853274246641702 3.57041627074742 0 0.785091255056639 3.49034264581094 0 0.785091255056639 3.49034264581094 0 0.853274246641702 3.57041627074742 0 0.739978492916818 3.57988603541632 0 0.739978492916818 3.57988603541632 0 0.704190273850347 3.49755310225555 0 0.785091255056639 3.49034264581094 0 0.785091255056639 3.49034264581094 0 0.704190273850347 3.49755310225555 0 0.714754888194296 3.42210389434834 0 0.704190273850347 3.49755310225555 0 0.622628749631717 3.45471960615845 0 0.714754888194296 3.42210389434834 0 0.641360722408704 3.53120201648524 0 0.622628749631717 3.45471960615845 0 0.704190273850347 3.49755310225555 0 0.641360722408704 3.53120201648524 0 0.739978492916818 3.57988603541632 0 0.63788658166007 3.61700594988489 0 0.739978492916818 3.57988603541632 0 0.641360722408704 3.53120201648524 0 0.704190273850347 3.49755310225555 0 0.739978492916818 3.57988603541632 0 0.722835440863061 3.69151763159982 0 0.63788658166007 3.61700594988489 0 0.739978492916818 3.57988603541632 0 0.818307864017085 3.65354272101767 0 0.722835440863061 3.69151763159982 0 0.796427282496464 3.75786215134963 0 0.722835440863061 3.69151763159982 0 0.818307864017085 3.65354272101767 0 0.700668455068662 3.79400953395823 0 0.722835440863061 3.69151763159982 0 0.796427282496464 3.75786215134963 0 0.722835440863061 3.69151763159982 0 0.625543564376873 3.72298572665107 0 0.63788658166007 3.61700594988489 0 0.625543564376873 3.72298572665107 0 0.722835440863061 3.69151763159982 0 0.700668455068662 3.79400953395823 0 0.625543564376873 3.72298572665107 0 0.529507903369422 3.72940974320478 0 0.566499740675289 3.65478783651362 0 0.539923670668636 3.54287540280753 0 0.63788658166007 3.61700594988489 0 0.566499740675289 3.65478783651362 0 0.566499740675289 3.65478783651362 0 0.63788658166007 3.61700594988489 0 0.625543564376873 3.72298572665107 0 0.539923670668636 3.54287540280753 0 0.566499740675289 3.65478783651362 0 0.472712586497609 3.63757779853199 0 0.42252155128195 3.71599569334352 0 0.472712586497609 3.63757779853199 0 0.529507903369422 3.72940974320478 0 0.566499740675289 3.65478783651362 0 0.529507903369422 3.72940974320478 0 0.472712586497609 3.63757779853199 0 0.335182568700197 3.70560902072145 0 0.42252155128195 3.71599569334352 0 0.356184391827633 3.7988771440165 0 0.42252155128195 3.71599569334352 0 0.335182568700197 3.70560902072145 0 0.354062635553936 3.61172914122892 0 0.335182568700197 3.70560902072145 0 0.274164293287564 3.66925514917995 0 0.354062635553936 3.61172914122892 0 0.472712586497609 3.63757779853199 0 0.354062635553936 3.61172914122892 0 0.431667252078919 3.54337921804584 0 0.354062635553936 3.61172914122892 0 0.472712586497609 3.63757779853199 0 0.42252155128195 3.71599569334352 0 0.365106117910463 3.4992447986014 0 0.354062635553936 3.61172914122892 0 0.286102060941823 3.49892822510028 0 0.431667252078919 3.54337921804584 0 0.354062635553936 3.61172914122892 0 0.365106117910463 3.4992447986014 0 0.340757662552379 3.42114971762547 0 0.433220101812195 3.45203853977455 0 0.365106117910463 3.4992447986014 0 0.286102060941823 3.49892822510028 0 0.340757662552379 3.42114971762547 0 0.365106117910463 3.4992447986014 0 0.539923670668636 3.54287540280753 0 0.431667252078919 3.54337921804584 0 0.433220101812195 3.45203853977455 0 0.433220101812195 3.45203853977455 0 0.431667252078919 3.54337921804584 0 0.365106117910463 3.4992447986014 0 0.433220101812195 3.45203853977455 0 0.514486449895809 3.41034782479467 0 0.539923670668636 3.54287540280753 0 0.431667252078919 3.54337921804584 0 0.539923670668636 3.54287540280753 0 0.472712586497609 3.63757779853199 0 0.539923670668636 3.54287540280753 0 0.641360722408704 3.53120201648524 0 0.63788658166007 3.61700594988489 0 0.514486449895809 3.41034782479467 0 0.622628749631717 3.45471960615845 0 0.539923670668636 3.54287540280753 0 0.641360722408704 3.53120201648524 0 0.539923670668636 3.54287540280753 0 0.622628749631717 3.45471960615845 0 0.633132849526405 3.3496491670
[...]
<PointData Scalars="conc_conc," Vectors="" Tensors="">
<DataArray type="Float64" Name="conc_conc" format="ascii">
0.00670497976078741 0.00280016237226833 0.00331397918774102 0.00680414512988665 0.00328328624234766 0.0072177134868345 0.000886391387284738 0.00132098451655337 0.00321576495721297 0.0032606278887376 0.00287292937655657 0.000848110036376805 0.000340835993447145 0.000962536911621452 0.00129206473344954 0.000910296590524688 0.00282343447451381 0.0013209074675295 0.000109282069722559 0.000925112585540948 0.000105709809995486 -2.02579093861208e-05 0.00013551698760981 0.000352151897217459 0.000112973561968089 0.000931867467037701 0.000388649501870584 0.00036220751806497 0.00124369941163265 0.000263448828312229 0.000360817744364864 0.000299721916921406 -3.006635525109e-05 0.000869459207917235 0.000607135123794042 0.000176080623993211 0.000216286845198382 0.000584106945636664 3.46357818926874e-05 0.000893458989109583 0.0020766219935392 0.000555240055396055 0.00236746186796324 0.00085018450249217 0.000537000126905759 0.000498895677102207 0.00211983361541919 0.00240993327589159 2.95340137922293e-05 0.000578212114627991 1.89263799552585e-05 4.55912769651076e-05 -9.14218297436701e-06 5.30971629304591e-05 4.8294667785607e-05 -2.25800700156506e-06 1.44238363850364e-05 0.000189126607911511 5.14124738422842e-05 -1.11226494955736e-05 1.34770539825094e-05 -4.92431456427302e-06 0.000131671689530652 0.000136624466867063 -1.36399674905333e-05 0.000139759788753552 -2.72125892524392e-06 -2.69808480222346e-05 0.000134509365359823 1.63257660085187e-05 -1.78732837884137e-05 -2.22108744698929e-05 0.00014547567023309 -3.32503624639052e-05 1.71239597874658e-05 -1.04489936434866e-05 -2.68618567662974e-05 5.24271945355158e-05 -2.02773187388221e-05 -1.88057124517566e-05 -8.71212498694461e-06 4.35204260689979e-05 -2.25744196443001e-05 -2.37446805431693e-06 0.000819114136589073 0.000154374022966085 -2.68502210784511e-06 -3.07957934965763e-05 0.000638344420757738 0.000844864135321055 0.00144445563036342 8.72666325647389e-05 0.000919186760283946 0.000168897911326217 -2.39169764978459e-05 6.81365911304256e-05 -1.87388026629878e-05 0.000158294030915762 -4.34560749096848e-06 0.00017973944996685 0.000261323611684369 -2.38744794567254e-05 0.00174789506294296 0.000156405082125473 0.00152797168190321 0.000101592547034625 0.00141828130356962 0.000230568086581018 -6.18755170829203e-05 0.000271049427124851 0.000503935904439168 0.0017203314750603 0.000473785552189426 0.000194462218654128 0.00024832206861321 -2.44925938552945e-05 -1.22562797479909e-05 -2.99089188284761e-05 9.73218581165806e-07 -6.31811520393236e-06 -2.82865717984141e-05 -2.11722984237418e-05 -1.99230318422682e-06 -2.34759831822399e-05 -5.90328191123293e-06 8.33401947931683e-07 2.99943052263237e-06 -2.0028083124274e-05 -2.87379552730979e-05 5.35353429227935e-06 1.78432861270707e-05 -2.65488011662342e-05 5.09370502231415e-06 -2.99626496887688e-05 -2.03812892930263e-05 1.00513877111011e-05 -3.25767466068917e-05 0.000107355004105758 -3.85312962513014e-05 0.000113612749051505 0.000507354130645146 0.000560388954104265 9.29009429229059e-05 0.000642437737401481 0.000500361146379945 0.00207194987267391 0.000242597694041079 -4.21390947746459e-05 0.000516173153190127 0.000341134483988128 -1.37670729380461e-05 0.000317888941691274 6.67500676089454e-06 0.000168019266108496 1.2526969138447e-06 0.000329884846616856 0.00130564096954641 0.00100010729165059 4.87719253562629e-05 7.88125034022005e-05 0.000309754141464185 0.00127741199752423 0.00139785280196125 0.000229604656682923 0.00209551689602783 0.00215142339268433 0.00353551415777412 0.00128267225442844 0.00125806985747337 0.00356422625875852 0.00334118297489716 0.0035951761787813 0.00717686328075528 0.00330814801135243 0.006259140507147 0.0072330216735014 0.00357474967639144 0.00626084563083901 0.00203268132422332 0.00626687053036724 0.00209120701097462 0.00622642915989958 0.00362112529696395 0.00210325092889575 0.00238729449436754 0.00619528236290428 0.00221069578046343 0.00042331160267488 0.00239703148883689 0.00059522328650852 0.00233777405248688 0.000490505726879631 0.00284967284077471 0.00247451084096794 0.000489536647533406 0.00227623915793772 0.00676590798171798 0.00636273594016052 0.0067205307471723 0.00232940882739109 0.00286382374764081 0.00687863588912426 0.0126979112240148 0.0104388385548393 0.0116063883885806 0.00638894138282791 0.010415554481056 0.0103953706028317 0.00635205575841103 0.00686870065999499 0.0115436692056271 0.0105362651205013 0.0147092497471313 0.0159894868050606 0.0145017307385196 0.0130584287230276 0.010559262475902 0.0128106674550806 0.0147167836889164 0.0133043567414733 0.0158665450576655 0.0148846942499635 0.0158715291787955 0.0132623051069461 0.0135691642723716 0.0131459249624318 0.00965453822684639 0.0136561264872612 0.0149011564029935 0.0140154219346139 0.014343739429998 0.013952821530578 0.0149840887715746 0.0157920557916925 0.0133900858994032 0.0136403473957574 0.0100568521353727 0.0145244390971758 0.0137821405694671 0.0133265181190684 0.0122769982926742 0.0141674829198284 0.0133398426501915 0.0100923061324266 0.0121343804046913 0.013351674424436 0.0120431642810874 0.0145885744742442 0.0140042258263701 0.0139919688335087 0.0144728856714463 0.0134258295987435 0.0141166621775899 0.012072092315107 0.0118744034480491 0.0146891855090268 0.0119021463310851 0.0146585837925004 0.0115910553224533 0.0062425014377868 0.00637725110223641 0.012209509875243 0.0073738500786952 0.0116066756743594 0.0062611200339165 0.0115636089472116 0.00727254883292513 0.00680538669959256 0.00735306340059405 0.0122000115051493 0.0120978312193626 0.012201787546092 0.0136191909543034 0.00694358475684948 0.012135911454755 0.0122093165080902 0.012881095232794 0.0135148400090536 0.0105804462307874 0.0128585372553138 0.0122666326573488 0.0134844572199506 0.0123749305302442 0.0133666825720561 0.0140656738539618 0.0140093006058551 0.0135418689907547 0.0122741071213694 0.0103982652190387 0.0136214972158252 0.0122145163609996 0.0084428197761512 0.00434567611151597 0.0102153110132071 0.0101999222506125 0.0121709154568894 0.00851355578420585 0.00516763707363011 0.00435759741329664 0.00840759017831187 0.00567755697359169 0.0101592643756795 0.00438849128368197 0.00288921523963803 0.00552786073404799 0.00211072393768901 0.00278789244562706 0.00210934069700689 0.00104551644463143 0.00202884913705971 0.000989969429874722 0.00118517495638112 0.00153908442530526 0.000928881865011936 0.00210568096280592 0.00218368677382097 0.00425854067795273 0.00150400271418663 0.00559400119116864 0.00435236809323235 0.00205345037891744 0.00146354037326186 0.00429310203922751 0.00177631360092854 0.000825623314975594 0.00100951430144353 0.00150037949372437 0.000752759107371957 0.00155561888501479 0.00175079717345896 0.000763004557215982 0.00172260535927529 0.000454854952929621 0.000380737321883653 0.00182254643885227 0.00190446298741148 0.00506481644996081 0.00195390182991351 0.00172221892482615 0.00441757112753945 0.00509037408548251 0.001710530931375 0.00999993670301384 0.00849851811381093 0.0122076091680845 0.00991380563841961 0.00515361277246822 0.00847404341080025 0.00993328394119294 0.0136816351076876 0.00742528334854136 0.00991463804065914 0.00734770688684266 0.0051390412992984 0.00184830436073447 0.00522281001681192 0.00720628396950606 0.00182681599097864 0.00720645001226734 0.00483596367901153 0.00487458221589812 0.00736780430600456 0.00952282737666209 0.00959922118414163 0.00739223705373361 0.0137321010379175 0.009542608983798 0.00883825473727937 0.0048410026721749 0.0131767294023917 0.00893503607845467 0.00955353899505952 0.00478146512969125 0.00382176152090679 0.00107660980179623 0.00488326234931674 0.00878745452095051 0.00380453565963214 0.00116493078891261 0.00205035886419697 0.00470840463540049 0.000127947852872719 0.00193041805755355 0.00121151358485327 0.00182769520748745 0.000191618043309953 0.000459361782167994 0.000110556176087673 0.000297836183239052 0.00112881644788178 0.000845368367815751 4.50737001847332e-05 0.00120658287978583 0.00123665626666208 0.00373374973856354 0.000783693347779335 0.00383497244949858 0.000425306272126029 0.000828451258955717 0.00397145589705423 0.000688554885369961 0.00384457439071211 -3.10452781250299e-05 0.00016813925064028 0.000775251045889053 0.000843570890649162 0.000564834361323621 -7.69058152134887e-05 -0.00012613272024674 2.45894338233256e-05 0.000517261055509373 -0.000161730570760615 0.000567576805863545 0.000379257769495003 -0.000179535396963309 -7.69464946826565e-05 0.000323328264890982 0.000300351273512662 0.000518934247016299 0.00328236333368175 0.0104812094898334 0.00352249069664755 0.00398828462429334 0.00397795690908482 0.0034476010618417 0.000309802526004327 0.0106856910026255 0.0106343069186761 0.00339055134695515 0.00395513634169592 0.0100946811590582 0.0105811518855217 0.00405139677306689 0.00373923897148253 0.00990412125350106 0.0147948450429027 0.0101812983166823 0.00887262060818501 0.00370634469577921 0.00888875186838758 0.00996436707230567 0.0131762605610432 0.0147418231632704 0.00896413516449543 0.0102996329751953 0.0147319726644345 0.0163885743233642 0.0169135703444925 0.0161536414316817 0.0173821632050438 0.0166112356640449 0.0150737016109388 0.0166678443221678 0.0164769295534688 0.0151778970333005 0.0155363371822073 0.0160251888501919 0.013104307834508 0.0160660993035013 0.0160346122731317 0.0126732624982952 0.00846806539026298 0.00836114537372516 0.0126994465235574 0.00687150596775889 0.00834958922233251 0.00350502261610227 0.0103586898792457 0.0108002952822072 0.0161355362848859 0.0083847191663896 0.0174114490459457 0.0159057666240539 0.0110858556717033 0.0168426071737604 0.0105189910492699 0.00798127028270999 0.00769712896990104 0.0104335101907763 0.00325784430752167 0.0109062034006123 0.0168006512374988 0.0175598863100028 0.0171442088553004 0.0171944482609434 0.0183517958645345 0.0179780049029447 0.0165730437818928 0.0175696315900404 0.0109402629069249 0.0101333291102466 0.0165167315394654 0.0164008181898322 0.0179375791293889 0.011084005852547 0.0182177667862535 0.0111545764718249 0.0107389011101401 0.0195690571403419 0.0112635742384866 0.0181659788136599 0.0197674666657448 0.0101766213776034 0.0108233054877744 0.0102189250227542 0.019798540799952 0.0146440394459299 0.0165271765379976 0.0229139923786693 0.0208197199472473 0.02023356168843 0.018234679940127 0.0173764732781293 0.0166239978868446 0.0163394724646533 0.0209423868329933 0.00793323967684676 0.0155132559651547 0.0169387722461405 0.00363994409564087 0.0152309538520905 0.00781242508545028 0.0153462704077804 0.00349256498455207 0.0119162304776609 0.0126243448733137 0.0233797267679523 0.015268807733147 0.0114900583362924 0.00377594664945102 0.00312814256993238 0.0121085948827615 0.00428708943194408 0.0192913012772513 0.0116187296434405 0.00299557030084168 0.00441978674208159 0.0194367094416138 0.0234719838531144 0.0126616921408362 0.0226337447316611 0.0198582802305585 0.0257078892853073 0.0148061661537833 0.0238869090175203 0.0172080533490873 0.0151369970481996 0.0194168986627947 0.0233873160640132 0.0176134862246843 0.0234208682004098 0.0251129204379935 0.00446173264348902 0.0164066977680712 0.00945842517913239 0.00447888784608236 0.0147000066020229 0.0165127267963499 0.00428076300789462 -0.00087200822557443 0.00298803006495597 -0.000772103728560398 0.00411872886758045 -4.211538745177e-05 0.00238627808721062 0.0141788679847402 0.00460356578488688 0.0101897884208284 0.0142212648364432 0.00238813578348592 0.00986559250540021 0.00208912986250827 0.0107713502654339 0.0034103322957539 0.00244794951937069 0.00020943422593024 0.00348106593491161 0.0104791866833045 0.00232372255706464 -0.000327687643145319 0.00251542059501316 0.00280015707737346 0.00272797713980368 0.00221691556445751 0.00973671584680056 0.00226530629939522 -0.000156078368820397 -0.000145154692225204 -0.000121456956230089 0.000437781846269325 0.00228286692566552 -0.000114427506497884 -2.15070903213773e-05 -0.000116904147242797 0.000349667870197729 -1.972673863333e-05 -0.000191950021961017 -2.50152650939644e-05 -4.87633220625791e-05 -0.000119733335945355 -0.000153289009881977 -8.59845682277413e-05 -6.50329721405299e-05 -8.89059039720046e-05 -9.38033873201782e-05 -6.2861685381067e-05 0.00268136120424787 -0.000535722718831272 -0.000188267692899301 -5.55211874293216e-05 -0.000127147435229243 -8.23951982625364e-06 -1.00848998110052e-05 -0.000130039267057687 -8.72054626301481e-05 -6.9069036811058e-05 1.49389632334668e-05 -1.69245865638409e-05 -1.10856125677891e-05 1.67703487638739e-05 -7.40881638811604e-05 0.000116271567203565 -0.000225504459649197 -0.000142444228015281 -3.91424796244516e-06 -9.07156185644767e-05 -0.000165448558739997 0.000167531491691908 -0.00014828940304575 -0.000141569713607051 0.00881041297530705 -0.000684970365059888 0.00500441809746769 -0.000216743627257237 0.00990609950572855 0.0153836106207785 0.00877287792030075 0.000613740251745074 -0.000769820809914802 0.000718769574399591 -0.000366201099984686 0.000209792942790714 -0.000238160096890909 0.000503026130859812 -0.00044852703300505 -0.000598267495499597 0.000685827954036865 -0.00034719648676855 0.00743114741963667 -0.000473251968311828 0.0154157824062122 0.00692202929690284 -0.000810617735411264 0.000540411601612538 0.00879846305673684 -0.00183537237453749 0.00770199175297414 0.00796285408878907 -0.00385419401021747 -0.00123003604488249 -0.000254830512597013 -0.000574594002795577 -6.16807372272803e-05 2.0985188127541e-05 -0.000209417548168279 -5.957612417535e-05 -0.000234984569337697 2.61809360360764e-05 -0.00018672397819867 7.89907569490719e-06 -1.71800138212087e-06 -0.000166417826443295 -9.31784695018469e-06 -2.07731319197701e-06 9.56709561268785e-06 8.03935649920981e-06 6.33351123253761e-06 -9.08744917443531e-06 4.95707285948681e-06 5.29376990981777e-07 4.49777011579513e-06 4.05168511776068e-06 1.14864670190403e-06 1.15166497239906e-05 5.87002766869333e-06 -2.87076125181867e-06 2.47398696709385e-06 -5.27458709392319e-06 -4.88460923395005e-05 3.38467015714708e-05 -4.22336124099638e-05 4.40700089791064e-05 2.95094700449716e-05 -5.59729099202553e-06 1.12149418958006e-05 1.56949582987511e-05 -2.0099601617342e-06 5.40305824655587e-06 -1.36557354051841e-06 -2.96951635358155e-07 3.12071989818631e-08 -6.20981725720096e-07 4.19572141173912e-08 -3.57145701531682e-07 6.62472868696594e-12 -1.6738326482432e-08 4.47906767606055e-09 1.23207796091184e-08 -8.93704172186316e-09 7.92319726299421e-09 -1.9883453776936e-08 1.14281212662607e-07 -2.38023931491783e-08 -4.41029783602302e-08 -5.88741624310213e-07 -2.2374620584608e-06 1.0809945190407e-05 1.60269008143051e-07 -2.45398197552453e-08 -5.13737296552899e-07 6.19614665488896e-07 1.06687660945698e-07 1.21260014281588e-05 9.84723160754459e-07 -5.38509317498538e-08 3.91583401686879e-07 3.0083061050921e-08 -6.9240409827133e-08 1.78065400845865e-07 4.97747656061449e-06 3.14891129053281e-07 3.04596975089801e-07 -5.49271304433719e-05 2.56864830507273e-05 4.25393391983085e-07 2.71226786504117e-05 4.41150926189264e-05 -0.000190506761730814 2.26946247118155e-05 -0.000160486722160329 -0.000114820007817237 -0.000344088015232545 0.000185915016704247 -0.000759870493774732 0.000214227951728144 -6.46750655010733e-05 -0.000833351409567696 -0.000710024997501053 -0.00140848660336403 -2.23123410388881e-05 0.0366230048469983 -0.00758416426551593 0.0102421122977321 0.00709809525223958 -0.00872576935992176 0.0384986221203472 0.0161813974833634 0.0561378826417889 0.0169297146056889 0.0188077945173671 0.0123299334361561 0.0614618757313998 0.00580924071140973 0.00833652395126091 -0.00618905376075133 -0.00123449498513318 0.00421661099949463 -0.00123134809236652 -0.000443895138102836 0.00203184882067418 -0.000580415224219948 2.92201175297621e-05 2.22524259881619e-05 -4.81122509492304e-05 -0.000100681437258185 -0.000492695576135702 0.00016433934377522 -0.000524422769828169 0.00194285678324266 -0.00159962238326578 -0.000969142953461803 -0.00189234247182943 0.00286645338429377 -0.000369461343042309 0.000412379642884954 -0.000733081670034992 0.000149953341797415 9.06376523336605e-05 -0.000327301623882085 5.08075765304984e-05 -0.00012883017726856 1.41050526027169e-05 0.000117469454331259 -0.00011569545271543 4.16291977594792e-05 7.46329528940039e-05 -0.000227951862193861 -0.000304443853492677 -0.000780379812874652 0.00233448440973956 -0.000692688121898274 -0.00131916326446234 0.00384664583659745 0.000396032970971485 -0.00294769474874491 0.00821761483757565 0.0165208761058525 0.0152165668858677 -0.000235177344761877 -0.00196147294210526 -0.000616988997441747 0.0162322976233733 0.00876621762533348 0.00829443943852939 0.00269429419816005 4.35936565125092e-05 0.0205302814647151 0.00212172705869338 0.00835528158507793 0.00813445909562921 0.0182488657564492 0.0212331566672016 0.034759166631478 0.0236857453039078 0.0486484942455885 0.0379487641570353 0.0109868792530761 0.0339736556094189 0.0323770710758138 0.00750665484961424 0.0159881648873009 0.00679027804137964 0.0334291976222559 0.0106927037613465 0.0286625471951898 0.0225817673137717 0.034218914524199 0.0221945763765857 0.0361086711304644 0.0209260203385098 0.0171886368128949 0.029643987136061 0.0322139045650343 0.0176060942232689 0.0252429600703439 0.0291301607302189 0.0259167636567941 0.0165244262045124 0.00971269814095124 0.0255811693551881 0.00982666935272801 0.0166385790384027 0.0287497128223476 0.0261650567185926 0.0201717551697934 0.0265741078325292 0.0192373451254663 0.0196599433595593 0.0183787704150119 0.0195023749022668 0.00404001047782717 0.0205511841584353 0.0186643345437793 0.00218405380151095 0.018922495889976 0.0218471255170235 0.0293070708932403 0.017974782512718 0.00411974776530261 0.00270367114944471 0.00412227528324664 -0.000984246352282214 0.00265603405303637 -0.000274342535899007 -0.000702803210870399 0.00215353598045196 -0.000270484845737323 -0.000196102834289473 -0.000138106730802876 -9.17709428572006e-05 1.17575445426673e-05 -1.976766571887e-05 -0.000105286761890844 -1.75588345006511e-05 -0.000215879460413154 1.07662583480939e-05 -1.74188199180144e-05 -1.75987450411906e-06 9.79924767053652e-06 1.33255196554784e-05 -1.58525694902053e-05 -2.73863040175596e-05 3.78654542716712e-05 -0.000111054188765604 -0.000122677212346019 -0.000211573375606267 -2.41639603902029e-05 -0.000171759903963321 2.80823540248212e-05 2.7990821621859e-05 -0.000122034817465127 5.21312063935164e-05 -0.000207002320822318 3.60556460728016e-06 -4.81284624399109e-07 7.7046691840476e-06 7.66313006507811e-06 -4.15816115554685e-07 3.90967394711703e-06 8.82768626377322e-07 3.081887311569e-06 3.60925650781129e-06 3.35873288914204e-06 1.63746573433651e-07 8.06110177560207e-07 4.97407666912802e-06 4.12872304407719e-06 7.92716011828308e-06 -0.000168288514070424 -0.000204673572435926 4.9220806112937e-05 -0.000875473863304902 0.000476774776869182 0.00234080848761694 0.000261758740010536 -0.000324464737030177 -0.000262582582502429 -0.000317278716951606 -0.000321721970978038 0.00025541356670806 -0.000488483563821769 2.58363469943644e-05 -0.000182292471925007 -9.44607734130472e-05 -0.000183979844968279 -0.000113445539556641 -0.000158175004362569 2.48882906227818e-05 -7.58712975180551e-05 -5.42500938127679e-05 -3.17313173405618e-06 2.25330385324364e-05 2.1049096100772e-05 2.33913013536074e-05 -4.97427052533956e-05 7.29905125329212e-05 -0.000240266391911336 -0.000100370643593437 -0.000213991589222336 5.75008896337042e-05 3.44707381920616e-05 -1.5050121556846e-05 1.90818309128385e-05 2.59601931508861e-05 -9.76719532651871e-06 1.70066957723672e-05 1.63359609078233e-05 -7.83446183319724e-06 1.5079876921204e-05 -4.0245189385192e-06 -1.38559150346163e-06 -1.6007531228443e-06 3.0173794967134e-06 5.69191239509853e-06 -3.78103414022448e-06 1.33967341532613e-05 -3.12320910887326e-07 5.44196730507327e-07 -1.42602895268226e-06 -2.45706002479017e-06 -2.14624711726598e-06 9.96076844326275e-07 7.09651462960382e-08 1.16240233914704e-07 -1.51180633612966e-07 -4.27373100302023e-07 3.74646725521787e-06 