<?xml version="1.0"?>
<VTKFile type="UnstructuredGrid" version="0.1" byte_order="LittleEndian">
<UnstructuredGrid>
<Piece NumberOfPoints="2148" NumberOfCells="716">
<Points>
<DataArray type="Float64" NumberOfComponents="3" format="ascii">
0.820305077431675 2.61782546867363 0 0.798382698400086 2.70833936602604 0 0.71271011575175 2.65678627356899 0 1.28728988423548 2.65678627359356 0 1.20171169108246 2.70829193642346 0 1.17969492257936 2.6178254686792 0 1.15855640435992 2.37215090950899 0 1.18426613124959 2.27820134964874 0 1.2518926505247 2.35147216404373 0 0.748107349679114 2.35147216404457 0 0.815733869421954 2.27820134964935 0 0.841443595989798 2.37215090950951 0 1.22519903123562 2.16567694852442 0 1.18426613124959 2.27820134964874 0 1.10828483887102 2.17680176761327 0 0.891715172094707 2.17680176774289 0 0.815733869421954 2.27820134964935 0 0.774800986761616 2.16567694886383 0 1.42849147792494 2.46979910395125 0 1.35970500335795 2.57433719213902 0 1.30767113454574 2.4960474711936 0 0.692328865460913 2.49604747119462 0 0.640294996628313 2.57433719204267 0 0.584196902965997 2.46344757218373 0 0.620254235963496 2.72253847803629 0 0.6337224690799 2.84402400647304 0 0.528504076435958 2.8052093347307 0 1.47150212201732 2.80521492242389 0 1.36627942671843 2.84402450262082 0 1.37976078296022 2.72253289375186 0 1.28130593885788 2.76223670388982 0 1.20171169108246 2.70829193642346 0 1.28728988423548 2.65678627359356 0 0.71271011575175 2.65678627356899 0 0.798382698400086 2.70833936602604 0 0.718788766460141 2.76228405047411 0 1.53475422193428 2.46227866216389 0 1.42849147792494 2.46979910395125 0 1.52068466209185 2.37807940269308 0 1.50225880254525 2.57514116786607 0 1.42849147792494 2.46979910395125 0 1.53475422193428 2.46227866216389 0 0.479315337912487 2.37807940269481 0 0.584196902965997 2.46344757218373 0 0.479533271205757 2.4926606350558 0 0.774800986761616 2.16567694886383 0 0.815733869421954 2.27820134964935 0 0.736624084917629 2.24848693964845 0 0.736624084917629 2.24848693964845 0 0.815733869421954 2.27820134964935 0 0.748107349679114 2.35147216404457 0 1.26337592127844 2.24848693953541 0 1.18426613124959 2.27820134964874 0 1.22519903123562 2.16567694852442 0 1.2518926505247 2.35147216404373 0 1.18426613124959 2.27820134964874 0 1.26337592127844 2.24848693953541 0 0.664238711790777 2.40207575997689 0 0.692328865460913 2.49604747119462 0 0.584196902965997 2.46344757218373 0 0.664238711790777 2.40207575997689 0 0.667457211182216 2.28498329717997 0 0.748107349679114 2.35147216404457 0 1.42849147792494 2.46979910395125 0 1.30767113454574 2.4960474711936 0 1.33576128834573 2.40207575997578 0 1.2518926505247 2.35147216404373 0 1.33254278534821 2.28498334668956 0 1.33576128834573 2.40207575997578 0 1.48955724366176 1.93816456585628 0 1.43507550364244 1.83616752147972 0 1.54734519752734 1.84168651055814 0 0.449115944692538 1.82739357966379 0 0.56487000056332 1.83594228059134 0 0.510411318306543 1.93802833939505 0 1.42277345888684 2.35077768525003 0 1.52068466209185 2.37807940269308 0 1.42849147792494 2.46979910395125 0 1.42277345888684 2.35077768525003 0 1.33254278534821 2.28498334668956 0 1.41227254758132 2.23149922678942 0 0.584196902965997 2.46344757218373 0 0.479315337912487 2.37807940269481 0 0.577226541379138 2.35077768525143 0 0.587726312657348 2.2314937370618 0 0.667457211182216 2.28498329717997 0 0.577226541379138 2.35077768525143 0 0.387455490537031 2.54158686219626 0 0.479533271205757 2.4926606350558 0 0.487781057129966 2.59329097419682 0 1.50225880254525 2.57514116786607 0 1.53475422193428 2.46227866216389 0 1.61254537909286 2.54158818386359 0 1.83473725530052 2.36546076037345 0 1.80876480007818 2.43732806432541 0 1.72503432016303 2.37151799012051 0 0.27496568088472 2.37151796605716 0 0.191235205752032 2.43732802820122 0 0.165262747224104 2.36546071118456 0 1.25543501964378 1.95996481023575 0 1.38034216562507 1.98825579553081 0 1.28991071620346 2.06888920918508 0 0.710089317086919 2.06888920996167 0 0.619647020900056 1.98820845767867 0 0.744565153930221 1.95996481489057 0 1.52068466209185 2.37807940269308 0 1.42277345888684 2.35077768525003 0 1.50838086917587 2.27025799045762 0 1.50838086917587 2.27025799045762 0 1.42277345888684 2.35077768525003 0 1.41227254758132 2.23149922678942 0 0.491618437233571 2.2702542244142 0 0.577226541379138 2.35077768525143 0 0.479315337912487 2.37807940269481 0 0.587726312657348 2.2314937370618 0 0.577226541379138 2.35077768525143 0 0.491618437233571 2.2702542244142 0 0.788898027251289 2.52494918789535 0 0.820305077431675 2.61782546867363 0 0.730236987348682 2.57194041535879 0 0.71271011575175 2.65678627356899 0 0.640294996628313 2.57433719204267 0 0.730236987348682 2.57194041535879 0 0.730236987348682 2.57194041535879 0 0.820305077431675 2.61782546867363 0 0.71271011575175 2.65678627356899 0 1.26976301265389 2.57194041535791 0 1.17969492257936 2.6178254686792 0 1.21110197278793 2.52494918789466 0 1.26976301265389 2.57194041535791 0 1.35970500335795 2.57433719213902 0 1.28728988423548 2.65678627359356 0 1.28728988423548 2.65678627359356 0 1.17969492257936 2.6178254686792 0 1.26976301265389 2.57194041535791 0 0.479315337912487 2.37807940269481 0 0.479533271205757 2.4926606350558 0 0.383908338327425 2.42839361145792 0 1.61609166169173 2.42839361146384 0 1.53475422193428 2.46227866216389 0 1.52068466209185 2.37807940269308 0 1.23369951826796 2.43459466107121 0 1.15855640435992 2.37215090950899 0 1.2518926505247 2.35147216404373 0 1.23369951826796 2.43459466107121 0 1.30767113454574 2.4960474711936 0 1.21110197278793 2.52494918789466 0 0.748107349679114 2.35147216404457 0 0.841443595989798 2.37215090950951 0 0.766300481871535 2.43459466107198 0 0.788898027251289 2.52494918789535 0 0.692328865460913 2.49604747119462 0 0.766300481871535 2.43459466107198 0 1.11565440312548 1.85614111255683 0 1.22945253958572 1.85538367295154 0 1.15518600494904 1.96363773976384 0 0.8448143315219 1.96363723001351 0 0.770548537849799 1.85538143308183 0 0.884343146147745 1.85612382635294 0 1.49856708531312 3.31279110374901 0 1.48546320519987 3.4103268280073 0 1.36684360253736 3.34964055109831 0 1.59353665452026 3.37990028394274 0 1.48546320519987 3.4103268280073 0 1.49856708531312 3.31279110374901 0 1.26976301265389 2.57194041535791 0 1.21110197278793 2.52494918789466 0 1.30767113454574 2.4960474711936 0 1.35970500335795 2.57433719213902 0 1.26976301265389 2.57194041535791 0 1.30767113454574 2.4960474711936 0 0.692328865460913 2.49604747119462 0 0.788898027251289 2.52494918789535 0 0.730236987348682 2.57194041535879 0 0.692328865460913 2.49604747119462 0 0.730236987348682 2.57194041535879 0 0.640294996628313 2.57433719204267 0 1.28130593885788 2.76223670388982 0 1.28728988423548 2.65678627359356 0 1.37976078296022 2.72253289375186 0 1.36627942671843 2.84402450262082 0 1.28130593885788 2.76223670388982 0 1.37976078296022 2.72253289375186 0 0.620254235963496 2.72253847803629 0 0.71271011575175 2.65678627356899 0 0.718788766460141 2.76228405047411 0 0.620254235963496 2.72253847803629 0 0.718788766460141 2.76228405047411 0 0.6337224690799 2.84402400647304 0 1.23369951826796 2.43459466107121 0 1.2518926505247 2.35147216404373 0 1.33576128834573 2.40207575997578 0 1.30767113454574 2.4960474711936 0 1.23369951826796 2.43459466107121 0 1.33576128834573 2.40207575997578 0 0.664238711790777 2.40207575997689 0 0.748107349679114 2.35147216404457 0 0.766300481871535 2.43459466107198 0 0.664238711790777 2.40207575997689 0 0.766300481871535 2.43459466107198 0 0.692328865460913 2.49604747119462 0 1.61609166169173 2.42839361146384 0 1.52068466209185 2.37807940269308 0 1.61723202498443 2.31152821380892 0 0.382767976172256 2.31152810226046 0 0.479315337912487 2.37807940269481 0 0.383908338327425 2.42839361145792 0 1.53475422193428 2.46227866216389 0 1.61609166169173 2.42839361146384 0 1.61254537909286 2.54158818386359 0 0.387455490537031 2.54158686219626 0 0.383908338327425 2.42839361145792 0 0.479533271205757 2.4926606350558 0 0.736624084917629 2.24848693964845 0 0.748107349679114 2.35147216404457 0 0.667457211182216 2.28498329717997 0 1.33254278534821 2.28498334668956 0 1.2518926505247 2.35147216404373 0 1.26337592127844 2.24848693953541 0 0.27496568088472 2.37151796605716 0 0.278116113442482 2.49674553827371 0 0.191235205752032 2.43732802820122 0 1.80876480007818 2.43732806432541 0 1.72188391324008 2.49674558087338 0 1.72503432016303 2.37151799012051 0 0.664238711790777 2.40207575997689 0 0.584196902965997 2.46344757218373 0 0.577226541379138 2.35077768525143 0 0.664238711790777 2.40207575997689 0 0.577226541379138 2.35077768525143 0 0.667457211182216 2.28498329717997 0 1.42277345888684 2.35077768525003 0 1.42849147792494 2.46979910395125 0 1.33576128834573 2.40207575997578 0 1.33254278534821 2.28498334668956 0 1.42277345888684 2.35077768525003 0 1.33576128834573 2.40207575997578 0 1.21110197278793 2.52494918789466 0 1.17969492257936 2.6178254686792 0 1.13116107006125 2.53258829231995 0 0.868838929979376 2.53258829231915 0 0.820305077431675 2.61782546867363 0 0.788898027251289 2.52494918789535 0 2 1.93877551020104 0 2 2.04081632652749 0 1.89493489321982 1.97559113421455 0 1.79400183614779 2.0030950877864 0 1.89493489321982 1.97559113421455 0 1.87843277513132 2.09076500210372 0 1.87843277513132 2.09076500210372 0 1.89493489321982 1.97559113421455 0 2 2.04081632652749 0 0.105065211077044 1.97558550561535 0 0 2.04081632653061 0 0 1.93877551020408 0 0.12156722522513 2.0907650021065 0 0.105065211077044 1.97558550561535 0 0.205997397939542 2.00307509618029 0 0 2.04081632653061 0 0.105065211077044 1.97558550561535 0 0.12156722522513 2.0907650021065 0 1.13455724766172 2.9833676115923 0 1.22965817634956 2.95192899952393 0 1.23891781476101 3.06376105826535 0 0.76110629086622 3.06375817385364 0 0.770379558884348 2.95194794006077 0 0.865543083976528 2.98337876516049 0 1.23891781476101 3.06376105826535 0 1.22965817634956 2.95192899952393 0 1.31677676429873 2.95231633752113 0 0.683232634716293 2.95231653567739 0 0.77037955888434
[...]
<PointData Scalars="conc_conc," Vectors="" Tensors="">
<DataArray type="Float64" Name="conc_conc" format="ascii">
0.00171341280749132 0.00206456722696947 0.00394519035268341 0.00327494627867674 0.00160925462486796 0.00132116723428419 0.00123808291464707 0.00161925660387256 0.00260739462300192 0.00312379552043641 0.00198669102896945 0.00156480174332541 0.00216508081046624 0.00159792873825025 0.000846177944414817 0.00105334384170195 0.00196560817192774 0.00259439009183573 0.00673600883951793 0.00518696573687328 0.00382882348719689 0.00449773948114944 0.00594186585288775 0.00716263334774493 0.00671216602003145 0.00653966828750848 0.00947043941461718 0.00861570938526404 0.00564131102337272 0.00587303836455579 0.00314997514335138 0.001581989087991 0.00333274617892662 0.00400326171995297 0.0020401323215506 0.00383249507898027 0.00848184290127204 0.00684065729555849 0.00802739887406764 0.00847884908450774 0.00681554774023102 0.00850657783037353 0.00862333298143067 0.00727512627204677 0.0090646260854061 0.00263869293306381 0.00197118643299493 0.00335169687730966 0.00336123768147071 0.00195864255152448 0.00315281093452125 0.002840335982631 0.00160073450185742 0.0022113584255095 0.00263695844410135 0.00158846684830049 0.00284913289294197 0.00508886392926118 0.00450269639745748 0.00715099968085801 0.00507144501058451 0.00488175999885378 0.00315959118448258 0.00672043524847834 0.00383702679406442 0.00442437676806768 0.00263815176501978 0.00426292913483059 0.00440606635323387 0.00627800840552771 0.00539803183639014 0.00645872214724248 0.00679752161022569 0.00588352028294963 0.00674365672056885 0.00635522920894127 0.00807225802418072 0.00678899340939755 0.00632230017090691 0.00427704811213385 0.00586754994775705 0.0072286697984416 0.00866522062174349 0.00701060439081605 0.00649045256448226 0.0049033185463991 0.00699555759579161 0.0094505323954733 0.00903433966776587 0.00939715743949708 0.00856509672262212 0.00840795509172428 0.00904974497184125 0.004612568808884 0.00521919367029641 0.0068826473199862 0.00701409757154272 0.00525160652614675 0.00462432771530767 0.00261484122398785 0.00479065173095697 0.003264874336881 0.00377096714330195 0.00533556717965572 0.00305182581754537 0.00804009375532026 0.00640006960114271 0.00752904983200086 0.00756631470937655 0.00636321804280534 0.00587759989670479 0.00807886497667219 0.00706350938611244 0.00862185448948164 0.0065036445692906 0.00702688745676426 0.00812159400915174 0.0023531360442928 0.00172339381015032 0.00357035602939208 0.00401545324069897 0.00592133002671349 0.00356252842670173 0.00358917810803531 0.0016952648429921 0.00396772800867558 0.00296369706008691 0.00133062116592683 0.0018947019842141 0.00295366060699283 0.00515859203966958 0.0033434202392985 0.00329874198829545 0.00130125750678355 0.00298211936836037 0.00861261174005451 0.00907338446871243 0.00895858223156445 0.00856224406368594 0.00846759535159198 0.00806428560260549 0.00228960080819504 0.00122093934698986 0.00262496150689868 0.00231576984475605 0.00378231812527385 0.00187578513915469 0.00314232280477504 0.00154703347392231 0.00278606625271566 0.00233864001580711 0.00444260630759495 0.00281077612094631 0.00102950404753056 0.00219371935640826 0.00137453230291011 0.00164961753049912 0.0025681548842183 0.00122716991334648 0.0111479541656063 0.0109504346403789 0.00569934424606849 0.0131822434328698 0.0110896980352266 0.0110472357103159 0.00297737900946748 0.00186135318043061 0.00380114365949273 0.00515198316469432 0.00296597063777923 0.00383925257380674 0.00446221602121268 0.00232385548392651 0.00358331056275372 0.0044958555527851 0.00357522211449541 0.00591176937146627 0.00317970381101734 0.00334061476943463 0.00584146233817763 0.00555191369518552 0.00315944760646788 0.00587420088706429 0.00669299513420293 0.00400965149712965 0.00387045835014112 0.00672119967631071 0.00385389482148437 0.00644069468605113 0.00229373193543698 0.00264684502593205 0.00438902850195546 0.0038142656158829 0.00228010338322254 0.00440723636462679 0.00505864505573917 0.00316210575330464 0.00279486759135771 0.00507661503244213 0.00278241877834561 0.00447236952720477 0.00851428552336019 0.00813674293734524 0.0080686063555496 0.0084180685004717 0.00869380978050874 0.0088972222475106 0.00849515912248359 0.00850549004007572 0.0089669661748155 0.0093772274516469 0.00887862530294957 0.00913020941103028 0.00336577268243681 0.00316961898128335 0.00486451851948315 0.00424397882652126 0.00265034602542456 0.0028551973570503 0.00702140119694757 0.00737604557687655 0.00526109047124289 0.00523059982385327 0.007234123316966 0.0068848543936455 0.005121892447041 0.00714997482794346 0.00702361488752284 0.00511798587965116 0.00701536244627834 0.0048728427870314 0.00634727061729083 0.00671727876488197 0.00444865659861765 0.00425377168034217 0.00633356260710263 0.00444882991307206 0.00186199729320839 0.00135095465479592 0.000872043219187507 0.00115011303102793 0.00173802299512788 0.00231978851294804 0.0029106787032919 0.0028749973758206 0.00347762574406593 0.00491181289733147 0.00350042592738831 0.00375056197639061 0.00367628486348254 0.00353265299060492 0.00283312994769206 0.00346667218253274 0.00284821344857392 0.00288456685951776 0.0037437901233506 0.00348868879727182 0.00495999498434718 0.00280528863402318 0.00352305705436384 0.00366978858893395 0.000504937882272526 0.00186331352766794 0.00186133896683893 0.00246971625765164 0.00243392677081687 0.00076759541666526 0.00187645777330797 0.00184639871561173 0.00402182333299169 0.00486106292123021 0.00241511458794727 0.00249868397743023 0.0121859872690954 0.0129999569947447 0.0115342056351821 0.0128585372551139 0.0122666326578277 0.0134844572198105 0.0104983464050867 0.0124660818121234 0.011142627207609 0.0130171415526687 0.0112230628307493 0.0123362755926468 0.0129695934294191 0.0118517514482935 0.0115250000170133 0.0105005692293709 0.0109959281815046 0.0124202723757137 0.00162468296012465 0.00200629216523041 0.00304452592506937 0.00163079526347497 0.0030441306721942 0.00261106037876345 0.00261175777597308 0.00166521737856289 0.00134920527300287 0.00223787902552008 0.00261272883946798 0.00135369240130256 0.0114891222609088 0.00840132235954027 0.0121602328100706 0.0110994448321913 0.00725154657563532 0.010457988693159 0.00720089517445682 0.0111359730680554 0.0057103326345029 0.00378060359043881 0.00592699767055148 0.00534893778181446 0.00481317622984833 0.00534117004791409 0.00326892269274094 0.00273817777135627 0.00628146043138999 0.00562822905843516 0.00282492983146287 0.00280676579985048 0.00554691896542884 0.00562462248368796 0.00632429477155733 0.00280686908474439 0.00553668927141768 0.00283847398505569 0.00249368034737457 0.00495705879928223 0.00582015284812085 0.00662391698504657 0.00595262620927876 0.00497033917392915 0.00661311205631752 0.00286624272927938 0.00281753437430681 0.00363871272743869 0.00579181362770084 0.0049479826357284 0.00374782635197261 0.00335538492160037 0.00369599836709459 0.00278412433379451 0.00363111665020872 0.00279064189743547 0.00283975235870006 0.00373794407219091 0.00500036218516779 0.00588348403165937 0.00275648965698382 0.00368982412171153 0.00333990025142138 0.00680812625557065 0.00591528990780631 0.00500383281899572 0.00679823906662202 0.00501679353587912 0.00608863513957051 0.000565086292270485 0.000504160140660746 0.000853635733695034 0.000879205006984784 0.0010829424860504 0.000517874839257675 0.00193010572487046 0.0011153046314893 0.000871995963244557 0.000684077581848717 0.000504332291640631 0.000565525214052992 0.000518405280156335 0.000876621010430109 0.000709036696900989 0.000700652681203416 0.000909407232962346 0.00156345988055406 0.00775130675976006 0.00562913754053157 0.00237760809733712 0.00162450179505543 0.00244328618300934 0.00544262020738631 0.00506481644971138 0.00195390182958151 0.00172221892455882 0.00514252894834272 0.00397279833029292 0.00346500058836122 0.00345278510677601 0.00397364575651226 0.00521039357355897 0.00342115052981008 0.00293915741742552 0.00291621664200015 0.00350056451948122 0.00347073026595881 0.00288245590536461 0.00288972772348594 0.00291389581856352 0.003409604607322 0.00285498544514907 0.00346073874018466 0.00349063199935834 0.0033277245635975 0.00285232360328982 0.00280531556449286 0.00278105695430825 0.0028269616620683 0.00331178196706643 0.00289362321849463 0.00204536901969265 0.00222885471710369 0.00302974371935089 0.00295181631887623 0.00216179479137199 0.00294803094769921 0.00221878732382187 0.00239203068745896 0.00223800935308378 0.00204830979493257 0.00291022406703651 0.00217194007246018 0.00296822041134769 0.0030462963923992 0.00240672624877734 0.0022294685963547 0.00296396606245382 0.00644489572476692 0.00540759349352333 0.00577925266306248 0.00609530877857662 0.00587827825463897 0.0067912867847517 0.00322779164255963 0.00219867511167451 0.00164194648927019 0.00164731774461821 0.00264880547323962 0.00322915183970532 0.00198384564567345 0.00262818958416816 0.00373341564508445 0.00373281535231178 0.00307944255489273 0.00199115798752319 0.000573645228350277 0.0013660652072358 0.00160392000220848 0.00204995100957754 0.00176011664886373 0.000692639452542987 0.000599169511972582 0.000538843963458276 0.00104937488515439 0.00259549160981633 0.00202659143261019 0.00106170110779727 0.000844176236605658 0.000538824018938943 0.000599624829053709 0.000852997882469868 0.00168722651677488 0.00216751360623377 0.00826207850357381 0.00900514361093808 0.00731064229473995 0.00745157052080256 0.00939325932954536 0.00847567835559758 0.000853404964814791 0.0015723407635992 0.0019473093341159 0.00157921118487351 0.0012479091387226 0.00068303338404059 0.00478927203725378 0.00262127917718401 0.0038906865178907 0.00263155461009773 0.00220999101436715 0.00386152911840009 0.00437619124654909 0.00305967672587677 0.00533208342354099 0.00435233553127554 0.00258627196909511 0.00306534935733936 0.0103465499268089 0.0100013457609256 0.00871474958588249 0.00956003943676882 0.0107683640073149 0.0108937153848612 0.0108389710523578 0.0100918982705648 0.0107781828785734 0.0111784161602772 0.0108656675604395 0.0116160464331776 0.00678459963897916 0.0069471647660404 0.00810968163927047 0.00698543248308786 0.00851029691737695 0.00807017187595344 0.00845418395127016 0.00708261121178383 0.00693314079362239 0.00841860674834972 0.00887515056056773 0.00711824368710324 0.00812615346945392 0.00863559997102137 0.008514723335484 0.00806638483503744 0.00817149716459189 0.00846517886460829 0.00816326107732627 0.00807367963832864 0.00757290117176286 0.00811390323410031 0.00761930802502332 0.00769030900309781 0.000114784104323105 0.000194573736247806 0.000318683069597686 0.000471664512421885 0.000194584455949774 0.000110634953392886 0.000468093419158527 0.000391035691553877 0.000639657920136939 0.000514156943269251 0.000395439790007935 0.000463763288240495 0.00436099022265182 0.00376926613421908 0.00262453632412582 0.00593882017008811 0.0037568720868914 0.00439219207851079 0.00219177531729377 0.00326744978133513 0.00379593558736248 0.00382489792205093 0.0032501858092563 0.00534871275431905 0.000839714240677183 0.00086789743901855 0.000576665065865292 0.00164012969931726 0.000883389371099589 0.000806887096221543 0.000576891582809169 0.00107306022213479 0.000997387593266969 0.000963706573525439 0.00109100586570447 0.00197954855607914 0.00125961667392575 0.00226329445587997 0.00105915390465228 0.000894637615242907 0.000499220967332222 0.00106701189281212 0.00136459943509583 0.00275891560508543 0.00158412589849455 0.0013721034853671 0.000632102860832194 0.00117271818829702 0.00673458475433421 0.00849423139620036 0.0070189142272552 0.00682890785364481 0.00519798406293153 0.00703067085677001 0.0070128646173371 0.00850882220995043 0.00686727436914096 0.00702004455357498 0.00520844739686432 0.00672855754986414 0.00804093815333726 0.00597019697589733 0.00762811495012647 0.00767887748934944 0.00939974196805875 0.0080077006011801 0.00714396425453192 0.00597487258117953 0.00802986814498281 0.00293275420179906 0.00291183014435442 0.00318776208315705 0.00288937572681201 0.00292518867662056 0.0032076050555307 0.00320674730032362 0.00293621448107954 0.00295685424453347 0.00317336819787302 0.00290070808973074 0.00287473197100849 0.00284518236744979 0.00314851229934382 0.00319759885652322 0.0111724140035282 0.013109501956702 0.0136451111905944 0.00405641759089323 0.00559837707131278 0.00746570360444043 0.00845276023404662 0.00647900373344227 0.00490933774146316 0.00202884913679975 0.000989969429542014 0.00118517495612494 0.0114117672250916 0.0100806000997473 0.0124139323757374 0.0129184401588037 0.0100495884542354 0.0118466170769473 0.00675561794487231 0.00581622132072623 0.00563025679110439 0.00438436384498082 0.00535659084877752 0.00563735351201259 0.00562853792904039 0.00583316120692914 0.00440620447208598 0.0056184922757563 0.00539674332837157 0.00677802574888139 0.00512264790283951 0.00533869691647118 0.00628865694931295 0.00512594683470906 0.00481623241217929 0.00389360923750732 0.00391142543702677 0.00535364139976166 0.00511964322720416 0.0063097568826205 0.00485313569406339 0.00511053760885016 0.0107715088740361 0.00942679252922548 0.0087547310095143 0.00650264747640568 0.0084842604017337 0.008759353431884 0.00874464600383265 0.00946657233136927 0.00654838070072416 0.00872974030192923 0.00857918373399289 0.0108170011100792 0.00784341907127763 0.0085910247064423 0.00999978659372214 0.00784415526483062 0.0075058529955618 0.00560840128606631 0.00564349954292873 0.00862058507606796 0.00783393814107808 0.0100410106338361 0.00759439054526307 0.00781929294876859 0.00441757112728699 0.00509037408528005 0.00171053093112605 0.000546299836869827 0.000298090544946721 0.000963457232680699 0.00101288214311379 0.00184916188157731 0.000524405732535534 0.00131721886974927 0.000448047070019808 0.00081106934463873 0.000790247579273718 0.00241620190521535 0.00137076904886389 0.000558261716095397 0.000235834364780026 0.000312210148653159 0.000603959904016246 0.00072593107271618 0.00122523243824397 0.00061045800251563 0.000526612673124459 0.000441170229535033 0.00154882293837301 0.000896113185572256 0.000755296608381476 0.0004425425774553 0.000656337313986572 0.000760624855324041 0.00359236738416492 0.0033088250097228 0.00515274941107995 0.00511081930796208 0.00332655503478178 0.00360474506348901 0.00717058057412695 0.00561535482524144 0.00309473141031823 0.00785010490666126 0.0104448027343807 0.00725363745304813 0.0110876775952944 0.0104346041950295 0.00793566912219334 0.00840263771623938 0.0114756231035721 0.0089322432683368 0.00903182630074794 0.0114529345765399 0.011963429754906 0.00631139636667551 0.00639862871258908 0.00667928358821277 0.00667321395817184 0.0070106947137843 0.00632963656014492 0.00701335142236265 0.00672869402712464 0.00678088968633623 0.00680192007104112 0.0073290262203383 0.00700678684515842 0.00559782787189027 0.00786973014844636 0.0107557983972449 0.0108027060193964 0.0110139068264685 0.00880185192996656 0.00981077782306481 0.011884496325242 0.0115906577413463 0.00994455460785399 0.00630001657626723 0.00551620234293124 0.0057275396704737 0.00633947476467187 0.00989653591603009 0.00612327174841041 0.00574518331027672 0.00515171180178031 0.00513547303300612 0.00583529155262157 0.00613383719633643 0.00187470487502717 0.00164172639954476 0.00241984814964266 0.00249392361736736 0.00156798578711015 0.00279363624888507 0.0023853075957559 0.00170131225134385 0.00189693022503577 0.00252560109096566 0.00163774312302406 0.00245122936301953 0.00615324565175612 0.00564409158617997 0.00506656897201315 0.00505058734337696 0.00521506211399934 0.00617350304584231 0.00902311369837839 0.00770611964745375 0.0106407653504044 0.0110214765130944 0.00778476134751775 0.00925042443221615 0.00620633221909948 0.00528131810322527 0.00504996665916004 0.00622182215285133 0.00681662912508652 0.00668594655632872 0.00334290136776134 0.00518329045510174 0.00530008701296771 0.00682469138490071 0.00589472738246616 0.00529939530134163 0.00530171762928615 0.00518244454982289 0.00682122140959227 0.0053066975337034 0.00586107792894318 0.00333206252421114 0.006086415690444 0.00594094562568637 0.00401916680522483 0.0060893560823309 0.00674039564165935 0.00762351140153532 0.00762267041884082 0.00594071597179725 0.00608920184437773 0.00400685071528434 0.00670794581421624 0.00609421155108956 0.00640366181059966 0.00386512515551758 0.00316811716044678 0.0025199610673246 0.00318440416773957 0.00550769637606617 0.00650499651957858 0.00647224204831564 0.00616162005284701 0.0037123716968025 0.00221958840444652 0.00267116949736579 0.00386748425232364 0.00220955597924063 0.00372178737813184 0.00293793702584568 0.00259952176094356 0.00416993103434784 0.00418241728559941 0.00258979899508473 0.00435678666980992 0.00561066677868635 0.00634634178727588 0.00936378321921358 0.00932782388835322 0.00758138292506991 0.00564349497196636 0.00954868014369206 0.00638011127854659 0.00560627056433679 0.00563875654454958 0.00766655633063115 0.00951186626024361 0.00550325305804173 0.00182401923607242 0.00409256279574833 0.0049266435862852 0.00245632015537461 0.00650238716140073 0.00617824598819964 0.00644512852607955 0.00610044494783143 0.00613772352435975 0.00641822553514022 0.00582871773198034 0.004240187938885 0.00561552909344653 0.00755785340108754 0.00763253994663261 0.00560890744840176 0.00422016212576785 0.00175960798114941 0.00191117254314846 0.00422285237585121 0.00126124920049615 0.000916003179099726 0.00163698289530137 0.00136335650262016 0.000791174911181135 0.00106560254257392 0.00372555183456763 0.00588919485200932 0.0051902712140497 0.00375673434974172 0.00514344746542949 0.00332839097508934 0.00514622477985518 0.00579852850049352 0.00373500916507724 0.00334542456156182 0.00510142484993383 0.00376046565591186 0.00321468061229169 0.00287632589710305 0.00320918705060102 0.00323663724053326 0.00290252383228766 0.0032323925099089 0.00243805824415177 0.0052473934950867 0.00650782609577074 0.00550412015439222 0.00428749304525571 0.00180984132405466 0.0119527611519653 0.00970758456647846 0.00902882884647433 0.00793751801624032 0.0087068891924579 0.0110735940179521 0.00395689577825124 0.00422544881238684 0.00322647677963848 0.00320581745794181 0.00425761963531849 0.00395856107510646 0.00279492755124467 0.00631658884034357 0.00561551355342682 0.00541653258309313 0.00627979331347127 0.00271171734647163 0.00185182486192691 0.000882148749329443 0.00108425174612317 0.00187980926877869 0.00104168784917679 0.00228449657507186 0.00138918719713843 0.00116019238892712 0.00230918928618312 0.00278073691679747 0.00134679939330734 0.00233861201455912 0.00428255542617426 0.00553282080528534 0.00250756971954242 0.00282992829402266 0.00554766446328799 0.00429027618150118 0.0070157024208509 0.00671783432129246 0.00676113907751339 0.00642710957349628 0.00653260037899201 0.00668381653915884 0.00313863085273425 0.00172515909072412 0.00426117517673897 0.00713844840575204 0.00312792253333174 0.00434153166887391 0.0005154100232393 0.000457933616848141 0.000738662155632801 0.000483668813986096 0.000759431720719563 0.000881013984250736 0.000588570376760539 0.000457253372345327 0.000515732800054093 0.000710577377728222 0.000608684897122431 0.000484370760959806 0.000522245096969165 0.000885969757591605 0.00054966911710571 0.000536134813126382 0.000544218131956259 0.000377987762120435 0.000622675954845634 0.00116374219073078 0.000655353392539309 0.000371418342886411 0.000627904064607063 0.000661437909213598 0.00137238340719109 0.00156817514087598 0.000738959614991676 0.00135116487141831 0.000771818571747246 0.000648881821098579 0.000588576170905615 0.00124331428117352 0.00106815247557043 0.000515685891783994 0.000621658724917872 0.00104720824076939 0.00471252117625851 0.00386226740264588 0.00510687990944936 0.00471713869572425 0.00512856134395271 0.00576645964166744 0.00541207917312006 0.00300173026484511 0.00285271432833173 0.00282934363688051 0.00298284183355553 0.00542086511648878 0.00265241687845416 0.00221720703686186 0.0015354173884729 0.00156747852380429 0.002191556519803