<?xml version="1.0"?>
<VTKFile type="UnstructuredGrid" version="0.1" byte_order="LittleEndian">
<UnstructuredGrid>
<Piece NumberOfPoints="2148" NumberOfCells="716">
<Points>
<DataArray type="Float64" NumberOfComponents="3" format="ascii">
0 0.102040816326531 0 0 0 0 0.0736345888316307 0.0637333048655595 0 0.0736345888316307 0.0637333048655595 0 0 0 0 0.105263157894484 0 0 0.105263157894484 0 0 0.157062047935717 0.0657304144218603 0 0.0736345888316307 0.0637333048655595 0 0.0736345888316307 0.0637333048655595 0 0.157062047935717 0.0657304144218603 0 0.105847738327952 0.150895293579407 0 0.105847738327952 0.150895293579407 0 0 0.204081632653061 0 0 0.102040816326531 0 0.105847738327952 0.150895293579407 0 0 0.102040816326531 0 0.0736345888316307 0.0637333048655595 0 0.0963260944161509 0.273811510294367 0 0 0.204081632653061 0 0.105847738327952 0.150895293579407 0 0 0.306122448979592 0 0 0.204081632653061 0 0.0963260944161509 0.273811510294367 0 0.0963260944161509 0.273811510294367 0 0.19912213507756 0.241701131057856 0 0.170994783200652 0.334188745583958 0 0.0963260944161509 0.273811510294367 0 0.105847738327952 0.150895293579407 0 0.19912213507756 0.241701131057856 0 0.105847738327952 0.150895293579407 0 0.222741758606036 0.141984576675053 0 0.19912213507756 0.241701131057856 0 0.19912213507756 0.241701131057856 0 0.28395937666824 0.336326657262323 0 0.170994783200652 0.334188745583958 0 0.28395937666824 0.336326657262323 0 0.19912213507756 0.241701131057856 0 0.306529038486018 0.218453285118224 0 0.222741758606036 0.141984576675053 0 0.322030541746038 0.113556493866926 0 0.306529038486018 0.218453285118224 0 0.306529038486018 0.218453285118224 0 0.19912213507756 0.241701131057856 0 0.222741758606036 0.141984576675053 0 0.245859050062934 0.0615708420060463 0 0.322030541746038 0.113556493866926 0 0.222741758606036 0.141984576675053 0 0.222741758606036 0.141984576675053 0 0.157062047935717 0.0657304144218603 0 0.245859050062934 0.0615708420060463 0 0.222741758606036 0.141984576675053 0 0.105847738327952 0.150895293579407 0 0.157062047935717 0.0657304144218603 0 0.157062047935717 0.0657304144218603 0 0.210526315788968 0 0 0.245859050062934 0.0615708420060463 0 0.105263157894484 0 0 0.210526315788968 0 0 0.157062047935717 0.0657304144218603 0 0.245859050062934 0.0615708420060463 0 0.210526315788968 0 0 0.315789473683452 0 0 0.315789473683452 0 0 0.322030541746038 0.113556493866926 0 0.245859050062934 0.0615708420060463 0 0.322030541746038 0.113556493866926 0 0.315789473683452 0 0 0.420915352533358 0.074985042685528 0 0.420915352533358 0.074985042685528 0 0.315789473683452 0 0 0.421052631577937 0 0 0.412014556344116 0.189798498882905 0 0.322030541746038 0.113556493866926 0 0.420915352533358 0.074985042685528 0 0.420915352533358 0.074985042685528 0 0.513101370826361 0.134129492815744 0 0.412014556344116 0.189798498882905 0 0.526315789472444 0 0 0.420915352533358 0.074985042685528 0 0.421052631577937 0 0 0.513101370826361 0.134129492815744 0 0.420915352533358 0.074985042685528 0 0.526315789472444 0 0 0.526315789472444 0 0 0.594439451232812 0.0887178408363477 0 0.513101370826361 0.134129492815744 0 0.526315789472444 0 0 0.631578947367022 0 0 0.594439451232812 0.0887178408363477 0 0.594439451232812 0.0887178408363477 0 0.611102057161856 0.196335598991703 0 0.513101370826361 0.134129492815744 0 0.513101370826361 0.134129492815744 0 0.500986724861322 0.250629842679194 0 0.412014556344116 0.189798498882905 0 0.611102057161856 0.196335598991703 0 0.500986724861322 0.250629842679194 0 0.513101370826361 0.134129492815744 0 0.581885168833657 0.302392759021642 0 0.500986724861322 0.250629842679194 0 0.611102057161856 0.196335598991703 0 0.581885168833657 0.302392759021642 0 0.611102057161856 0.196335598991703 0 0.672697639570897 0.28766618318192 0 0.412014556344116 0.189798498882905 0 0.500986724861322 0.250629842679194 0 0.399803174487431 0.298440986856889 0 0.412014556344116 0.189798498882905 0 0.306529038486018 0.218453285118224 0 0.322030541746038 0.113556493866926 0 0.306529038486018 0.218453285118224 0 0.399803174487431 0.298440986856889 0 0.28395937666824 0.336326657262323 0 0.412014556344116 0.189798498882905 0 0.399803174487431 0.298440986856889 0 0.306529038486018 0.218453285118224 0 0.28395937666824 0.336326657262323 0 0.399803174487431 0.298440986856889 0 0.377510554953585 0.391263936876735 0 0.406811536593169 0.484911194529197 0 0.298455345785692 0.447563908098048 0 0.377510554953585 0.391263936876735 0 0.28395937666824 0.336326657262323 0 0.377510554953585 0.391263936876735 0 0.298455345785692 0.447563908098048 0 0.377510554953585 0.391263936876735 0 0.498523341233396 0.389076937637219 0 0.406811536593169 0.484911194529197 0 0.399803174487431 0.298440986856889 0 0.498523341233396 0.389076937637219 0 0.377510554953585 0.391263936876735 0 0.399803174487431 0.298440986856889 0 0.500986724861322 0.250629842679194 0 0.498523341233396 0.389076937637219 0 0.500986724861322 0.250629842679194 0 0.581885168833657 0.302392759021642 0 0.498523341233396 0.389076937637219 0 0.581885168833657 0.302392759021642 0 0.614047778589085 0.387795898525738 0 0.498523341233396 0.389076937637219 0 0.581885168833657 0.302392759021642 0 0.672697639570897 0.28766618318192 0 0.614047778589085 0.387795898525738 0 0.614047778589085 0.387795898525738 0 0.587686537066514 0.464126045476426 0 0.498523341233396 0.389076937637219 0 0.406811536593169 0.484911194529197 0 0.498523341233396 0.389076937637219 0 0.509931573480221 0.522280814579519 0 0.509931573480221 0.522280814579519 0 0.498523341233396 0.389076937637219 0 0.587686537066514 0.464126045476426 0 0.587686537066514 0.464126045476426 0 0.613945404707068 0.570990073651732 0 0.509931573480221 0.522280814579519 0 0.517751522887305 0.649204659932698 0 0.509931573480221 0.522280814579519 0 0.613945404707068 0.570990073651732 0 0.517751522887305 0.649204659932698 0 0.420597075781915 0.595854369448944 0 0.509931573480221 0.522280814579519 0 0.509931573480221 0.522280814579519 0 0.420597075781915 0.595854369448944 0 0.406811536593169 0.484911194529197 0 0.298455345785692 0.447563908098048 0 0.406811536593169 0.484911194529197 0 0.314543409362701 0.549165380872091 0 0.420597075781915 0.595854369448944 0 0.314543409362701 0.549165380872091 0 0.406811536593169 0.484911194529197 0 0.420597075781915 0.595854369448944 0 0.335916026949355 0.661311993908121 0 0.314543409362701 0.549165380872091 0 0.235802928303382 0.611564357809131 0 0.222058877190937 0.510857644422808 0 0.314543409362701 0.549165380872091 0 0.335916026949355 0.661311993908121 0 0.235802928303382 0.611564357809131 0 0.314543409362701 0.549165380872091 0 0.124792039049303 0.598138423871711 0 0.222058877190937 0.510857644422808 0 0.235802928303382 0.611564357809131 0 0.19230207234368 0.422678825965969 0 0.222058877190937 0.510857644422808 0 0.099581482345634 0.49355644173514 0 0.298455345785692 0.447563908098048 0 0.314543409362701 0.549165380872091 0 0.222058877190937 0.510857644422808 0 0.19230207234368 0.422678825965969 0 0.298455345785692 0.447563908098048 0 0.222058877190937 0.510857644422808 0 0.19230207234368 0.422678825965969 0 0.28395937666824 0.336326657262323 0 0.298455345785692 0.447563908098048 0 0.19230207234368 0.422678825965969 0 0.170994783200652 0.334188745583958 0 0.28395937666824 0.336326657262323 0 0.0798863474723025 0.392675045642543 0 0.19230207234368 0.422678825965969 0 0.099581482345634 0.49355644173514 0 0.0798863474723025 0.392675045642543 0 0.0963260944161509 0.273811510294367 0 0.170994783200652 0.334188745583958 0 0.0798863474723025 0.392675045642543 0 0.170994783200652 0.334188745583958 0 0.19230207234368 0.422678825965969 0 0.0963260944161509 0.273811510294367 0 0.0798863474723025 0.392675045642543 0 0 0.306122448979592 0 0 0.306122448979592 0 0.0798863474723025 0.392675045642543 0 0 0.408163265306122 0 0.0798863474723025 0.392675045642543 0 0.099581482345634 0.49355644173514 0 0 0.408163265306122 0 0.099581482345634 0.49355644173514 0 0 0.510204081632653 0 0 0.408163265306122 0 0.0636610927580281 0.559357934802157 0 0 0.510204081632653 0 0.099581482345634 0.49355644173514 0 0.099581482345634 0.49355644173514 0 0.222058877190937 0.510857644422808 0 0.124792039049303 0.598138423871711 0 0.0636610927580281 0.559357934802157 0 0.099581482345634 0.49355644173514 0 0.124792039049303 0.598138423871711 0 0.124792039049303 0.598138423871711 0 0.0788823051552232 0.670851705018505 0 0.0636610927580281 0.559357934802157 0 0.0788823051552232 0.670851705018505 0 0 0.612244897959184 0 0.0636610927580281 0.559357934802157 0 0 0.612244897959184 0 0 0.510204081632653 0 0.0636610927580281 0.559357934802157 0 0 0.612244897959184 0 0.0788823051552232 0.670851705018505 0 0 0.714285714285714 0 0.0788823051552232 0.670851705018505 0 0.110872549238551 0.753262340488874 0 0 0.714285714285714 0 0 0.816326530612245 0 0 0.714285714285714 0 0.110872549238551 0.753262340488874 0 0.158746937488262 0.676327148487044 0 0.110872549238551 0.753262340488874 0 0.0788823051552232 0.670851705018505 0 0.158746937488262 0.676327148487044 0 0.0788823051552232 0.670851705018505 0 0.124792039049303 0.598138423871711 0 0.235802928303382 0.611564357809131 0 0.236384173514931 0.729687493468818 0 0.158746937488262 0.676327148487044 0 0.124792039049303 0.598138423871711 0 0.235802928303382 0.611564357809131 0 0.158746937488262 0.676327148487044 0 0.235802928303382 0.611564357809131 0 0.335916026949355 0.661311993908121 0 0.236384173514931 0.729687493468818 0 0.283519584889572 0.824186168388132 0 0.236384173514931 0.729687493468818 0 0.365259589174468 0.75455484928981 0 0.110872549238551 0.753262340488874 0 0.236384173514931 0.729687493468818 0 0.193654919780874 0.809084389625954 0 0.158746937488262 0.676327148487044 0 0.236384173514931 0.729687493468818 0 0.110872549238551 0.753262340488874 0 0.283519584889572 0.824186168388132 0 0.223539675574619 0.901416903867864 0 0.193654919780874 0.809084389625954 0 0.193654919780874 0.809084389625954 0 0.236384173514931 0
[...]
<PointData Scalars="conc_conc," Vectors="" Tensors="">
<DataArray type="Float64" Name="conc_conc" format="ascii">
0.000420449079610656 0.000390016018727078 0.000418649321370848 0.000417421422922409 0.000389998802988663 0.000410485081021784 0.000410495348632047 0.000452119822566839 0.000418601623595218 0.000418951459398786 0.000453103408308307 0.000461538080950785 0.000458809412664557 0.000453975191178244 0.000420037002080813 0.000459702580523209 0.000419606480376819 0.00042044620904237 0.000503286045690531 0.000452569992089233 0.000461221965463195 0.000491213837480218 0.00045469375502505 0.000501741526357187 0.000504648638364339 0.000554050498627833 0.000578572150464663 0.000505447574915884 0.000461348573360171 0.000552039588559436 0.000460910624384232 0.000522770896490733 0.00055297662235456 0.000554176449463669 0.000665419432990481 0.000579675220593447 0.000665199781632278 0.000556010272010638 0.000611798617690372 0.000524354454629502 0.000560735403245298 0.000609814944474757 0.000610976032193914 0.000555923876756626 0.000522127155675518 0.000498044940613687 0.000560269259864504 0.000524325424335879 0.000522764433640595 0.000454210289939215 0.000498651402088131 0.000522051011419104 0.000461657930826674 0.000454345170600215 0.000453555386593887 0.000457711437988646 0.000497518132039895 0.000411030252270842 0.000458715642385261 0.000450976561659404 0.000495884992489196 0.00045989919493894 0.00050658518955524 0.000503665799311164 0.000558435968331596 0.000498692696438399 0.000559845127458027 0.000503801097538579 0.000556860605207106 0.000552395184872835 0.000507591212258931 0.000524114414578195 0.000621624682976732 0.000561908208438411 0.000556541185320127 0.000555448467489428 0.000564469484571384 0.000622380986104888 0.000493521529603381 0.000552557335416361 0.000524100560229225 0.000560934068103742 0.000557192253943217 0.000489410229265146 0.000488715928308341 0.000481373577291964 0.000559485702290121 0.000493132225290823 0.000418530174150039 0.000477638001837903 0.00048023193423084 0.000519781542395827 0.000561824415625236 0.000562282827693735 0.0006355728770684 0.000624492317974196 0.000521293772582792 0.000635236225903482 0.00056137720582077 0.000601640924752635 0.000637865799940408 0.000517919740829998 0.000600742150527223 0.000516494476511815 0.000491357609216805 0.000621310097381086 0.000638256642936944 0.00069030672061754 0.000623893852188476 0.000612103968059274 0.000559005096014273 0.000609175152905921 0.000692572755446145 0.000669958712175971 0.000623324892901902 0.000689535724819697 0.000613186349201652 0.000671438327088333 0.000691962928888607 0.000749477565572623 0.000826145245869898 0.000751624679068965 0.000748818873749849 0.000667631196997411 0.000750746073624695 0.000748913088620856 0.000753381146101965 0.000732843151350238 0.000825754304343013 0.000688686246981047 0.000733378408191785 0.000751902292659513 0.000692608989673178 0.000635992285513713 0.000729006829651221 0.000636215018995984 0.000603144015988582 0.000726799322496867 0.000599864853010064 0.000615941363705593 0.000729971065937639 0.000602121307743234 0.000490016624296131 0.000613022425419368 0.000615864117931919 0.00069427107367649 0.000731523949298619 0.000829261685300226 0.000726314733067779 0.000818336193907369 0.000815534005418115 0.000728853162421309 0.000695808491205794 0.000691343950356102 0.000729694096454125 0.000818805987909441 0.000911962254488862 0.000818855813193292 0.00073143247603387 0.000915665889379889 0.000921815462540818 0.000815702164239783 0.000821603278478539 0.000917474489086338 0.000827316137940782 0.000750226257848885 0.000828185665407269 0.000836130863001021 0.000917690766041624 0.000839919596510819 0.000824090994567569 0.000920979989379208 0.000943195811854309 0.00083634883398828 0.000803285972419464 0.000721476466146408 0.000834532074721552 0.000940304003361613 0.000805227286061716 0.000833618688301579 0.000672491860935363 0.000722140176785746 0.000800404189394192 0.000642689299012811 0.000718920934221233 0.000598894140118255 0.000748461921672527 0.000832911344757235 0.000723430416739843 0.000642240572044575 0.000748949954145513 0.000721476375591283 0.000644045272982574 0.000666863055002802 0.000747233730584687 0.000642596873239762 0.000579065499420072 0.000666906363625211 0.000542949481215579 0.000639575602470256 0.000599446384816682 0.000545078664966753 0.00050516519275036 0.000577982771805338 0.000543325673463128 0.000580077706423692 0.000639667861225667 0.000504061315172775 0.000544914753745445 0.000489816935882691 0.000491866306721752 0.000543855175791282 0.000530979435751649 0.000545703558804945 0.000596689263976452 0.000529570428576771 0.00059478298176739 0.000571886836060057 0.000530750354956035 0.000610705760100839 0.000570465571320162 0.000597529105278752 0.000598056880435221 0.000719479580522993 0.000673236661096736 0.000610546432222423 0.000600153106518159 0.000671890195984708 0.000671178159588667 0.000671132295485176 0.000610749332242744 0.000669923950205404 0.00061453803690689 0.000611645235245926 0.000616504762095479 0.000572994404532139 0.000609519742108511 0.000615862520320142 0.000668811462354295 0.000659708122815032 0.000672784578120671 0.000733897238211089 0.000656683784565823 0.000703283134652235 0.000657399508579585 0.000732363987009307 0.000749457435115571 0.000738015481869971 0.000669324001929016 0.00074924867254103 0.000669870174087426 0.000673129820617844 0.000803288636861305 0.000887589943925725 0.000752964524452603 0.000670736113882733 0.000801729949447027 0.000752173037666373 0.0008024037012279 0.000942792266437749 0.000893986240575765 0.0010353833194553 0.000894330823742179 0.00105270872330028 0.000737063296320803 0.000889158585984408 0.000884390692674688 0.000751907132108616 0.000887532750603027 0.00073827097964421 0.00103462130996391 0.00100620254967842 0.000885740269188308 0.000886772164037382 0.000889539705226855 0.00103279424206401 0.00103352058447718 0.00117211899720387 0.00100953158406818 0.00100314751671554 0.000953261428418453 0.00080546732026316 0.00100202110273575 0.000807329254704925 0.00088677013484721 0.000809159649445555 0.000738181727510394 0.000883044540723711 0.000699673640820439 0.000738202986254321 0.00080252559865506 0.000827481960820265 0.000750113412568777 0.00080461904281975 0.000798779211259737 0.000753463493679006 0.000704316697311998 0.000807824484997275 0.000756267191898958 0.000824658750961756 0.000809860278032756 0.000948800389716787 0.000827261102780696 0.00095000140448312 0.000907081673978382 0.000825661001469333 0.000905897341985625 0.000955159850972686 0.00111488795440391 0.000897964712959542 0.000857704086692264 0.000806667708341751 0.000901764640374601 0.000803785751762843 0.000829258724908778 0.000853316371921848 0.000905104087838669 0.000964378075267561 0.000959009703254634 0.000918315894432252 0.000860462184436936 0.00108132804060509 0.00121367502604299 0.000960759953311401 0.000966369874690299 0.000907793589720237 0.00107538671344052 0.0010780380604699 0.000903511920830204 0.00111712142432642 0.00107978704542281 0.00112079409099465 0.00130187915132025 0.00107771358976179 0.00130418176156332 0.0012219355848739 0.00152824921534423 0.00131236925014859 0.00149577289117288 0.00152421680226937 0.00122560075020792 0.00130531365924994 0.00131212788988223 0.00129117839100259 0.00149448087521277 0.00129476741432268 0.00130529348396569 0.00112232955532003 0.00115246824919853 0.00129266117970252 0.0011243056322493 0.00133728416472357 0.00129374391894738 0.00115396486081668 0.00095301365141908 0.00115283722186535 0.00112021524909064 0.000955506895219505 0.00100635197062686 0.00115035619586771 0.00100717259851283 0.00117438955703203 0.00115317093678207 0.00133372799847412 0.00115698146561375 0.00117164108523544 0.00131085096058094 0.00133475791339072 0.00117727150239067 0.0013023639352628 0.0014323567935791 0.00134089365932314 0.00129542837818752 0.00143172686614223 0.00130781423769478 0.00149352722518101 0.00133657468394307 0.00143695525044648 0.00148985980901494 0.00129583639858713 0.00133495452131238 0.00148366802627179 0.00172045200545426 0.00154053277047299 0.00153135652687066 0.00172215854500301 0.00154859558261656 0.00171356992700676 0.001497898552858 0.00156042289137788 0.00142845060185501 0.00155606969662947 0.00150186809018679 0.00155331017195992 0.00138863439337636 0.00152532747915143 0.00139715966087639 0.00154973788624203 0.00143559421709831 0.00129362701833791 0.00153291250871928 0.00114959276977344 0.00152404804925081 0.00139465937515556 0.0011627961513779 0.0011611337751974 0.00139382445370955 0.00117046932455282 0.00138874539643171 0.00129093847001435 0.00117767912684424 0.00128531397470601 0.00139331180181193 0.00143906762960129 0.0011882813082577 0.00103794569609972 0.00128858433203907 0.00129129845409009 0.00131172702954211 0.00118448783621011 0.0011749639702484 0.00129346516302811 0.0010300362629501 0.000991224768597926 0.00103566160203675 0.0011889354246317 0.00099169242562317 0.000955754600540511 0.000757004832464853 0.000950927534521301 0.000995667829862607 0.0010998024095153 0.00118591479253557 0.001100910776931 0.000996109380652181 0.00118220284673296 0.00110015505785495 0.0011893246017294 0.00119322161107483 0.00130532173878615 0.00117744240033396 0.00117624284793815 0.00103822661377876 0.0011804717367691 0.00118269680589297 0.00117253487763019 0.00130592901754766 0.00104065675145208 0.00104648665190183 0.00117670711994227 0.00106023719194274 0.00117389615911485 0.00105405739258179 0.00110074598388991 0.0011793291254811 0.00105240966603536 0.00105446763727869 0.000990170142930391 0.00105849609388022 0.000941358215596944 0.00105022216294089 0.000897016420489542 0.000945900291943988 0.000996564480692116 0.00104967231654365 0.000947928605241885 0.000915919306691335 0.000994162092588655 0.000992809518103407 0.000918717721922221 0.000919285505329319 0.0010542771518926 0.000994653587748964 0.000915432337202863 0.0010561404928084 0.000910647035433916 0.000956291828703278 0.00105754442763726 0.000956239827267113 0.00109776333582501 0.000800862671987907 0.000758599352185238 0.000953625827934994 0.000952437856958243 0.000915634334600251 0.000805066781877673 0.00080390503560784 0.000915642051517806 0.000725447446738568 0.000667287869162919 0.000801397252822401 0.000726044794083669 0.000555167406057013 0.000752223899301526 0.000666573699336404 0.000755196565420749 0.000802289670479733 0.000665787174221572 0.000535778043334004 0.000752424722630403 0.000554066422201152 0.000665537276295884 0.000549817807900764 0.000555781231526985 0.000434134961177102 0.000320238323727594 0.000398476423052909 0.000552568690005371 0.000435467637011604 0.00040003486328373 0.000323777712459225 0.000256548436234238 0.000393607641095297 0.000255389008097286 0.000336393936412113 0.000393901125563879 0.000335280525927798 0.000527737942553902 0.00040162133869094 0.000554206443822035 0.000398976041058946 0.000531737424563358 0.000488487581116616 0.000529897621955556 0.000332516885330231 0.00033294046920535 0.00048434327204429 0.000337813008058163 0.000335308835200023 0.000264339588630693 0.000332211075466638 0.000329236653987294 0.000482153493220829 0.000488937213554912 0.000716741399219366 0.000752010997030578 0.000488871986247483 0.000755638652753499 0.00053401875064264 0.000750876045063032 0.000748231665197375 0.000533166811407011 0.000491709072019223 0.000752228625824641 0.000757852030760812 0.000993672180989093 0.00102760734836794 0.000997320328375546 0.000756110201836662 0.00102794696576993 0.000751118952515147 0.00072207289136355 0.000925103274247847 0.00103184758255062 0.000720131975905871 0.000660503679593767 0.000718326537184705 0.0004832255478929 0.000753939483385792 0.000923011454450643 0.000659484583439211 0.000661758369027691 0.000920238322410218 0.00071970493451623 0.00102906638007891 0.000930100955322218 0.00117272642845102 0.00115219041681328 0.00117536906041503 0.000927196274304282 0.000925369850713901 0.000754189684002788 0.00114728236323497 0.00127932933617313 0.00115484052628925 0.000890071468616128 0.00115184262681071 0.000749847650893565 0.000888389232127531 0.000880889103991114 0.000754634067804565 0.00048338728809581 0.000487740965694097 0.000488262097165381 0.000748271061089465 0.000662458803196033 0.000488285086176806 0.000748743639183144 0.000350855844175485 0.000330890686772068 0.000480188005572538 0.00034533735241568 0.000485627858115494 0.000487604651073832 0.00034068144226783 0.000348427054252149 0.000482546415588127 0.000336526439614486 0.000486827898523841 0.000484160912232905 0.000658871025634703 0.000484832905059764 0.000490981716030167 0.000713645111902397 0.000490095488833568 0.00048605275551469 0.000333601144921364 0.000340477533166007 0.000478295114763397 0.00033274942656341 0.000271011063039945 0.000338321982165879 0.000310342273260696 0.000336542291552002 0.000271308886209596 0.000281854037550422 0.000339679687049618 0.000346189164853207 0.000286298260080913 0.000275416499102076 0.000332374706906889 0.000277324824320137 0.000285549440715105 0.000333557839474371 0.000345434689107112 0.000339735012605514 0.000280610092076575 0.000296920466715442 0.000341188030959785 0.000286096607630086 0.000347369104311497 0.000293948030456741 0.000331891864467091 0.000289571131466726 0.00037424819667756 0.000314108811321668 0.00034948135185514 0.000377068456612233 0.000285959424585993 0.000287499773421871 0.000342042769959419 0.000293061250924056 0.000522501026126393 0.000343218487093508 0.000454739825539341 0.000380008838735204 0.000529792791847908 0.000601453548433441 0.000521006975743578 0.000383688943603083 0.000343836154972615 0.000809171370993538 0.000607000259243471 0.000524301390184884 0.000808394162640245 0.000526246721214831 0.000686067577784898 0.000528047648934226 0.000449183291621594 0.000680230497877293 0.000450982866809641 0.000534115363508229 0.00067917269864876 0.000450159997758362 0.000348104457431124 0.00034068154046743 0.000528623109065641 0.000452051950381698 0.000335442498920657 0.00043570220331661 0.000527893970117287 0.000337236332307499 0.000340855014522051 0.000306730406371756 0.000430526863025518 0.000431786962216084 0.000617492644539858 0.00053176546939776 0.000433458511287938 0.000459905633344857 0.000615197256234549 0.000657713911531133 0.000618318830485532 0.000457589768026724 0.000332966399344434 0.000510883891788467 0.000458036278114391 0.000514514943236326 0.0006558289366677 0.000459403526035491 0.000306278912735537 0.000338248380360029 0.000454406494993503 0.000432374509874949 0.000303351090519309 0.000457021045336873 0.00026602444685197 0.00030273039628579 0.000275829294051623 0.000265112519654225 0.000274198039902667 0.000304315624298217 0.000269692253026178 0.000274984912679791 0.000328497953955383 0.00026805915427756 0.000262963724162174 0.000270602035543712 0.000331872567900888 0.000264772907135784 0.000266758463348576 0.000260636992684172 0.000269410037927983 0.000271773718232891 0.000334612445859715 0.000308126253523207 0.000269549195816386 0.000271003320209695 0.000272906261415155 0.000333726288215489 0.000265068016621931 0.000332396641664324 0.000263086743561595 0.000258752230692157 0.000263234262919601 0.000263959295082242 0.000258598446821446 0.00024027856397504 0.00024728171579747 0.000266443412386695 0.000254978564842496 0.000250750369724699 0.000359158788274507 0.000269852560847264 0.000246015804855327 0.000335771311751724 0.000267470126540236 0.000383760273376491 0.000384366356898141 0.000267209907958079 0.000364637590757433 0.000387661575777242 0.000510228280241997 0.00033445235770345 0.000385458737541871 0.000545735266932927 0.000512777962776216 0.00036442373514958 0.000465004271440103 0.000544203761281185 0.000385937703399036 0.000363879042938842 0.000543655325737697 0.000461799845359496 0.000365830922409183 0.00032889467392824 0.000462726715555557 0.000327426308883107 0.00049009555023185 0.000361049907914193 0.000244368730625652 0.000330843308191376 0.000232203473982601 0.000279954756896795 0.000325739524283544 0.000489565906019532 0.000328806666348631 0.000416988116593879 0.000412524794575771 0.000330069454021576 0.000275802144827549 0.00041290156603628 0.000275825527947751 0.00036428200814159 0.00036279689886668 0.000277492865557099 0.00029546283207198 0.000294247693175998 0.000406929619410031 0.000363481634867679 0.000292349933165091 0.000276028663372969 0.000216315285703409 0.000271554966229855 0.000234938956794868 0.000207452751461309 0.000208157574435341 0.000221643405430209 0.000271388796596854 0.000211958349498827 0.000204244354494579 0.00021520356722602 0.000208978086801712 0.000210459697285435 0.000271445168926808 0.000265482564073345 0.000212416877727418 0.000229627658565312 0.00022846982147689 0.000238568766775578 0.000267383846602578 0.000233012401998698 0.000238163087976549 0.000229517739774287 0.00022967054768873 0.000213835428457365 0.000233890514865195 0.000248621279827645 0.000232489099681712 0.000324566920365555 0.000234725712226128 0.000249779936195601 0.000236852354034611 0.00031681285433979 0.000236232204916543 0.000260716269519374 0.000235985559849277 0.000317509346284949 0.000271153444404001 0.000337413138715905 0.000266741670656045 0.000397241536471247 0.000396631873561891 0.000266201158061155 0.000321318963526084 0.000400768079937895 0.000320609264809977 0.000434233192162837 0.00039958688445874 0.000435813653328896 0.000547824986011554 0.000550149180361435 0.000434958046250704 0.000553931668712317 0.000727039802486159 0.000550714840148478 0.000666139784525436 0.000724624848940198 0.000694473481923007 0.000563844867788488 0.000561193618260493 0.000551999629094343 0.000724661991110959 0.00054887361772555 0.000562433096958561 0.000399821336280872 0.000560322640722718 0.0004290515976593 0.000401536892850912 0.000693477175902676 0.000614275021685726 0.000564625545326196 0.000562124631697353 0.000615407182880227 0.000429827072757202 0.000431860828818354 0.000612976258630422 0.000488329948161551 0.00042988589346206 0.000488075334013365 0.000362200553330879 0.000425237882726362 0.000364215199488928 0.000276440277356998 0.000400234559854447 0.000428096752271091 0.000335628990384906 0.00033620330836005 0.000425467027075146 0.00027563887050187 0.000277762325591727 0.000269071960656345 0.00033580053408328 0.000207908724019088 0.000267945002876517 0.000274479996405839 0.000274458759658101 0.000258339289669985 0.000206117609949166 0.000255667300363334 0.000196961694916105 0.000207854850272969 0.00025724869782505 0.000237942245298502 0.000195504632664641 0.000361078987540552 0.000320512386983308 0.000258339386872367 0.0002367245581292 0.000259263383820564 0.000318176261016596 0.000361339742634887 0.000257878497752992 0.000277843059245626 0.000405516974643438 0.000363125248485139 0.000487196435987447 0.000405816237168375 0.000489113353801167 0.000517867997239157 0.000516408582753065 0.000386497350991409 0.000406338223546972 0.000404976275407841 0.000387406648460989 0.00032008442884416 0.000362892191715501 0.000404814084177475 0.00031951540759948 0.000269499961369411 0.000320086825838066 0.000385731690576014 0.000388440349194854 0.000516247373195131 0.000482271082944303 0.000417278989943272 0.000322104085360497 0.000384338072860687 0.000480229727638461 0.000414826746477005 0.000388494012715496 0.000270177621561577 0.000384028209073813 0.000320967052634038 0.000320740425115413 0.000233354225211859 0.000268995974525862 0.000268831047925226 0.000234015147735313 0.000205137304531505 0.00027140555802564 0.000237176149676411 0.000318201885699575 0.000269431063487455 0.000205053689449015 0.00023803146073394 0.000206645362646191 0.000196412416231311 0.000237399807204831 0.000204644486919747 0.000232087561117169 0.000179148244924278 0.00017722524242195 0.000203510272529806 0.000181546387138593 0.000178926501511782 0.000174063670930501 0.000178332933763758 0.000178506225019637 0.000176407158346802 0.000194276183584008 0.000178547050395694 0.000194324791929787 0.000195597795262151 0.000181181318230496 0.000193643178849508 0.000193316108829981 0.000203594089211994 0.000177043853444933 0.00