<?xml version="1.0"?>
<VTKFile type="UnstructuredGrid" version="0.1" byte_order="LittleEndian">
<UnstructuredGrid>
<Piece NumberOfPoints="2148" NumberOfCells="716">
<Points>
<DataArray type="Float64" NumberOfComponents="3" format="ascii">
0.0736345888316307 0.0637333048655595 0 0 0 0 0.105263157894484 0 0 0 0.102040816326531 0 0 0 0 0.0736345888316307 0.0637333048655595 0 0.105847738327952 0.150895293579407 0 0 0.204081632653061 0 0 0.102040816326531 0 0.105847738327952 0.150895293579407 0 0 0.102040816326531 0 0.0736345888316307 0.0637333048655595 0 0.0736345888316307 0.0637333048655595 0 0.157062047935717 0.0657304144218603 0 0.105847738327952 0.150895293579407 0 0.105263157894484 0 0 0.157062047935717 0.0657304144218603 0 0.0736345888316307 0.0637333048655595 0 0.157062047935717 0.0657304144218603 0 0.210526315788968 0 0 0.245859050062934 0.0615708420060463 0 0.105263157894484 0 0 0.210526315788968 0 0 0.157062047935717 0.0657304144218603 0 0.222741758606036 0.141984576675053 0 0.157062047935717 0.0657304144218603 0 0.245859050062934 0.0615708420060463 0 0.222741758606036 0.141984576675053 0 0.105847738327952 0.150895293579407 0 0.157062047935717 0.0657304144218603 0 0.245859050062934 0.0615708420060463 0 0.322030541746038 0.113556493866926 0 0.222741758606036 0.141984576675053 0 0.245859050062934 0.0615708420060463 0 0.210526315788968 0 0 0.315789473683452 0 0 0.315789473683452 0 0 0.322030541746038 0.113556493866926 0 0.245859050062934 0.0615708420060463 0 0.28395937666824 0.336326657262323 0 0.19912213507756 0.241701131057856 0 0.306529038486018 0.218453285118224 0 0.222741758606036 0.141984576675053 0 0.322030541746038 0.113556493866926 0 0.306529038486018 0.218453285118224 0 0.306529038486018 0.218453285118224 0 0.19912213507756 0.241701131057856 0 0.222741758606036 0.141984576675053 0 0.105847738327952 0.150895293579407 0 0.222741758606036 0.141984576675053 0 0.19912213507756 0.241701131057856 0 0.19912213507756 0.241701131057856 0 0.28395937666824 0.336326657262323 0 0.170994783200652 0.334188745583958 0 0.0963260944161509 0.273811510294367 0 0.19912213507756 0.241701131057856 0 0.170994783200652 0.334188745583958 0 0.0963260944161509 0.273811510294367 0 0.105847738327952 0.150895293579407 0 0.19912213507756 0.241701131057856 0 0.0963260944161509 0.273811510294367 0 0 0.204081632653061 0 0.105847738327952 0.150895293579407 0 0 0.306122448979592 0 0 0.204081632653061 0 0.0963260944161509 0.273811510294367 0 0 0.306122448979592 0 0.0798863474723025 0.392675045642543 0 0 0.408163265306122 0 0.0963260944161509 0.273811510294367 0 0.0798863474723025 0.392675045642543 0 0 0.306122448979592 0 0.0798863474723025 0.392675045642543 0 0.099581482345634 0.49355644173514 0 0 0.408163265306122 0 0.0798863474723025 0.392675045642543 0 0.19230207234368 0.422678825965969 0 0.099581482345634 0.49355644173514 0 0.0798863474723025 0.392675045642543 0 0.0963260944161509 0.273811510294367 0 0.170994783200652 0.334188745583958 0 0.0798863474723025 0.392675045642543 0 0.170994783200652 0.334188745583958 0 0.19230207234368 0.422678825965969 0 0 0.612244897959184 0 0 0.510204081632653 0 0.0636610927580281 0.559357934802157 0 0.0788823051552232 0.670851705018505 0 0 0.612244897959184 0 0.0636610927580281 0.559357934802157 0 0.099581482345634 0.49355644173514 0 0 0.510204081632653 0 0 0.408163265306122 0 0.0636610927580281 0.559357934802157 0 0 0.510204081632653 0 0.099581482345634 0.49355644173514 0 0.099581482345634 0.49355644173514 0 0.222058877190937 0.510857644422808 0 0.124792039049303 0.598138423871711 0 0.124792039049303 0.598138423871711 0 0.0788823051552232 0.670851705018505 0 0.0636610927580281 0.559357934802157 0 0.0636610927580281 0.559357934802157 0 0.099581482345634 0.49355644173514 0 0.124792039049303 0.598138423871711 0 0.124792039049303 0.598138423871711 0 0.222058877190937 0.510857644422808 0 0.235802928303382 0.611564357809131 0 0.19230207234368 0.422678825965969 0 0.222058877190937 0.510857644422808 0 0.099581482345634 0.49355644173514 0 0.298455345785692 0.447563908098048 0 0.314543409362701 0.549165380872091 0 0.222058877190937 0.510857644422808 0 0.235802928303382 0.611564357809131 0 0.222058877190937 0.510857644422808 0 0.314543409362701 0.549165380872091 0 0.335916026949355 0.661311993908121 0 0.235802928303382 0.611564357809131 0 0.314543409362701 0.549165380872091 0 0.19230207234368 0.422678825965969 0 0.170994783200652 0.334188745583958 0 0.28395937666824 0.336326657262323 0 0.19230207234368 0.422678825965969 0 0.298455345785692 0.447563908098048 0 0.222058877190937 0.510857644422808 0 0.19230207234368 0.422678825965969 0 0.28395937666824 0.336326657262323 0 0.298455345785692 0.447563908098048 0 0.28395937666824 0.336326657262323 0 0.399803174487431 0.298440986856889 0 0.377510554953585 0.391263936876735 0 0.406811536593169 0.484911194529197 0 0.298455345785692 0.447563908098048 0 0.377510554953585 0.391263936876735 0 0.28395937666824 0.336326657262323 0 0.377510554953585 0.391263936876735 0 0.298455345785692 0.447563908098048 0 0.377510554953585 0.391263936876735 0 0.498523341233396 0.389076937637219 0 0.406811536593169 0.484911194529197 0 0.399803174487431 0.298440986856889 0 0.500986724861322 0.250629842679194 0 0.498523341233396 0.389076937637219 0 0.399803174487431 0.298440986856889 0 0.498523341233396 0.389076937637219 0 0.377510554953585 0.391263936876735 0 0.420597075781915 0.595854369448944 0 0.335916026949355 0.661311993908121 0 0.314543409362701 0.549165380872091 0 0.298455345785692 0.447563908098048 0 0.406811536593169 0.484911194529197 0 0.314543409362701 0.549165380872091 0 0.420597075781915 0.595854369448944 0 0.314543409362701 0.549165380872091 0 0.406811536593169 0.484911194529197 0 0.509931573480221 0.522280814579519 0 0.420597075781915 0.595854369448944 0 0.406811536593169 0.484911194529197 0 0.517751522887305 0.649204659932698 0 0.420597075781915 0.595854369448944 0 0.509931573480221 0.522280814579519 0 0.587686537066514 0.464126045476426 0 0.613945404707068 0.570990073651732 0 0.509931573480221 0.522280814579519 0 0.517751522887305 0.649204659932698 0 0.509931573480221 0.522280814579519 0 0.613945404707068 0.570990073651732 0 0.500986724861322 0.250629842679194 0 0.581885168833657 0.302392759021642 0 0.498523341233396 0.389076937637219 0 0.406811536593169 0.484911194529197 0 0.498523341233396 0.389076937637219 0 0.509931573480221 0.522280814579519 0 0.509931573480221 0.522280814579519 0 0.498523341233396 0.389076937637219 0 0.587686537066514 0.464126045476426 0 0.614047778589085 0.387795898525738 0 0.587686537066514 0.464126045476426 0 0.498523341233396 0.389076937637219 0 0.581885168833657 0.302392759021642 0 0.614047778589085 0.387795898525738 0 0.498523341233396 0.389076937637219 0 0.581885168833657 0.302392759021642 0 0.672697639570897 0.28766618318192 0 0.614047778589085 0.387795898525738 0 0.581885168833657 0.302392759021642 0 0.500986724861322 0.250629842679194 0 0.611102057161856 0.196335598991703 0 0.581885168833657 0.302392759021642 0 0.611102057161856 0.196335598991703 0 0.672697639570897 0.28766618318192 0 0.611102057161856 0.196335598991703 0 0.500986724861322 0.250629842679194 0 0.513101370826361 0.134129492815744 0 0.513101370826361 0.134129492815744 0 0.500986724861322 0.250629842679194 0 0.412014556344116 0.189798498882905 0 0.594439451232812 0.0887178408363477 0 0.611102057161856 0.196335598991703 0 0.513101370826361 0.134129492815744 0 0.526315789472444 0 0 0.631578947367022 0 0 0.594439451232812 0.0887178408363477 0 0.526315789472444 0 0 0.594439451232812 0.0887178408363477 0 0.513101370826361 0.134129492815744 0 0.513101370826361 0.134129492815744 0 0.420915352533358 0.074985042685528 0 0.526315789472444 0 0 0.420915352533358 0.074985042685528 0 0.513101370826361 0.134129492815744 0 0.412014556344116 0.189798498882905 0 0.526315789472444 0 0 0.420915352533358 0.074985042685528 0 0.421052631577937 0 0 0.322030541746038 0.113556493866926 0 0.315789473683452 0 0 0.420915352533358 0.074985042685528 0 0.420915352533358 0.074985042685528 0 0.315789473683452 0 0 0.421052631577937 0 0 0.412014556344116 0.189798498882905 0 0.322030541746038 0.113556493866926 0 0.420915352533358 0.074985042685528 0 0.412014556344116 0.189798498882905 0 0.306529038486018 0.218453285118224 0 0.322030541746038 0.113556493866926 0 0.412014556344116 0.189798498882905 0 0.399803174487431 0.298440986856889 0 0.306529038486018 0.218453285118224 0 0.306529038486018 0.218453285118224 0 0.399803174487431 0.298440986856889 0 0.28395937666824 0.336326657262323 0 0.412014556344116 0.189798498882905 0 0.500986724861322 0.250629842679194 0 0.399803174487431 0.298440986856889 0 0.295350406939813 1.24878144427625 0 0.246522554351683 1.16362252184999 0 0.352853207783426 1.1463879991198 0 0.295350406939813 1.24878144427625 0 0.181863964367382 1.24890101842418 0 0.246522554351683 1.16362252184999 0 0.246522554351683 1.16362252184999 0 0.283487779541101 1.08170937477947 0 0.352853207783426 1.1463879991198 0 0.283487779541101 1.08170937477947 0 0.246522554351683 1.16362252184999 0 0.202239780457393 1.08245817859136 0 0.156022104484688 1.15671384061775 0 0.202239780457393 1.08245817859136 0 0.246522554351683 1.16362252184999 0 0.156022104484688 1.15671384061775 0 0.246522554351683 1.16362252184999 0 0.181863964367382 1.24890101842418 0 0.156022104484688 1.15671384061775 0 0.181863964367382 1.24890101842418 0 0.0769912270182558 1.21550350972786 0 0.0769912270182558 1.21550350972786 0 0 1.22448979591837 0 0 1.12244897959184 0 0 1.12244897959184 0 0.0938420895696505 1.07913022382781 0 0.0769912270182558 1.21550350972786 0 0.156022104484688 1.15671384061775 0 0.0938420895696505 1.07913022382781 0 0.202239780457393 1.08245817859136 0 0.0769912270182558 1.21550350972786 0 0.0938420895696505 1.07913022382781 0 0.156022104484688 1.15671384061775 0 0.0938420895696505 1.07913022382781 0 0.156323146912265 0.989428081563376 0 0.202239780457393 1.08245817859136 0 0.156323146912265 0.989428081563376 0 0.0938420895696505 
[...]
<PointData Scalars="conc_conc," Vectors="" Tensors="">
<DataArray type="Float64" Name="conc_conc" format="ascii">
0.000417421422901655 0.000389998802983431 0.000410485080980116 0.000420449079606289 0.000390016018718105 0.000418649321350522 0.000458809412645819 0.000453975191179545 0.00042003700207576 0.000459702580500289 0.000419606480374076 0.000420446209020643 0.000418951459380186 0.000453103408236857 0.000461538080921192 0.000410495348584203 0.000452119822493155 0.000418601623577696 0.000453555386510556 0.000457711437885688 0.000497518131922832 0.000411030252215101 0.000458715642281029 0.000450976561577955 0.000522764433529763 0.000454210289864893 0.000498651401971362 0.000522051011314116 0.000461657930791402 0.000454345170528945 0.00049804494050405 0.000560269259788518 0.000524325424232702 0.000495884992375384 0.000459899194831126 0.000506585189450554 0.000503665799207565 0.000558435968247773 0.000498692696326246 0.00066519978159844 0.000556010271981396 0.000611798617643204 0.000524354454563956 0.000560735403169125 0.00060981494443405 0.000610976032148043 0.000555923876732013 0.000522127155620702 0.000460910624358094 0.000522770896425514 0.000552976622336778 0.000554176449434879 0.000665419432952681 0.000579675220579327 0.000504648638358143 0.000554050498599611 0.000578572150450822 0.000505447574910615 0.000461348573338706 0.000552039588533012 0.000503286045683149 0.000452569992090414 0.000461221965444755 0.000491213837482658 0.000454693755024271 0.000501741526349961 0.00049186630672326 0.000543855175792626 0.000530979435752367 0.000504061315165327 0.000544914753746155 0.00048981693588525 0.000545703558806528 0.000596689263980591 0.000529570428577764 0.000542949481216964 0.000639575602463451 0.000599446384821882 0.000545078664968608 0.000505165192742546 0.000577982771793348 0.000543325673464892 0.000580077706412243 0.00063966786122058 0.000616504762099108 0.000572994404534512 0.000609519742114029 0.000669923950217411 0.000614538036909811 0.000611645235252526 0.000594782981770962 0.000571886836062145 0.000530750354957469 0.000610705760106722 0.000570465571322594 0.000597529105281862 0.000598056880439951 0.000719479580519212 0.000673236661108249 0.000671178159599127 0.00067113229549675 0.000610749332248962 0.000610546432227923 0.000600153106521463 0.000671890195996235 0.00067249186094681 0.000722140176778646 0.000800404189390154 0.000642689299006387 0.000718920934217891 0.000598894140123883 0.000748461921660462 0.000832911344746405 0.000723430416733363 0.000803285972410665 0.000721476466140408 0.000834532074707285 0.000940304003344778 0.000805227286050495 0.000833618688288956 0.000642596873238467 0.000579065499406932 0.000666906363585953 0.000642240572037701 0.000748949954128008 0.000721476375589453 0.000644045272977442 0.000666863054965571 0.000747233730562645 0.000671438327056093 0.000691962928868456 0.000749477565561961 0.000826145245857656 0.00075162467905376 0.000748818873735882 0.000667631196961445 0.000750746073614201 0.000748913088603584 0.000753381146089995 0.000732843151314609 0.000825754304331704 0.000692608989653404 0.000635992285450079 0.000729006829613531 0.00068868624696011 0.000733378408155365 0.000751902292649223 0.000920979989369577 0.000943195811842194 0.000836348833976333 0.000750226257835249 0.000828185665394223 0.000836130862991287 0.000917690766031762 0.000839919596498767 0.00082409099455684 0.00082160327845726 0.000917474489073721 0.000827316137928222 0.000915665889360807 0.000921815462528408 0.000815702164217174 0.000691343950287607 0.000729694096400916 0.000818805987892184 0.000911962254470901 0.000818855813168832 0.000731432475989395 0.000636215018932334 0.000603144015898856 0.000726799322450466 0.00082926168529 0.000726314733029651 0.000818336193884635 0.000815534005398504 0.000728853162377902 0.000695808491139988 0.000615864117839508 0.000694271073603367 0.000731523949254638 0.00059986485292196 0.000615941363616949 0.000729971065884234 0.00060212130765327 0.000490016624213183 0.000613022425331847 0.000601640924666178 0.000637865799870487 0.000517919740713494 0.000600742150443401 0.000516494476392421 0.000491357609131596 0.000521293772453282 0.000635236225830214 0.000561377205723791 0.00056228282759663 0.000635572876996181 0.000624492317921744 0.000480231934072613 0.000519781542252313 0.000561824415530633 0.000493132225165889 0.000418530173990956 0.000477638001676626 0.000488715928185393 0.000481373577136 0.000559485702190433 0.000560934068000496 0.000557192253873562 0.000489410229141726 0.00055544846741763 0.000564469484473946 0.000622380986052264 0.000493521529485299 0.00055255733534257 0.000524100560141619 0.000559845127386166 0.000503801097421546 0.000556860605140872 0.000552395184803671 0.000507591212124478 0.000524114414488604 0.000621624682926754 0.00056190820836801 0.000556541185249178 0.000623893852142017 0.00061210396800412 0.000559005095939716 0.000623324892852571 0.00068953572479755 0.000613186349153404 0.000609175152855206 0.000692572755423044 0.000669958712150285 0.000621310097323491 0.000638256642868744 0.000690306720597484 0.00152824921530667 0.00131236925015829 0.00149577289111233 0.00152421680225055 0.00122560075029683 0.0013053136592574 0.00131212788989076 0.00129117839099048 0.00149448087515411 0.00129476741430641 0.00130529348397797 0.00112232955537242 0.00107978704549949 0.00112079409104515 0.00130187915134045 0.00107771358984287 0.00130418176157999 0.00122193558496013 0.00108132804068506 0.00121367502614518 0.000960759953390189 0.000959009703309387 0.000918315894424664 0.000860462184427999 0.000853316371914949 0.000905104087896117 0.000964378075326641 0.0010780380605464 0.00090351192089374 0.00111712142438738 0.000966369874758291 0.000907793589777071 0.00107538671352188 0.0009058973420599 0.000955159851024566 0.0011148879544728 0.000950001404544795 0.000907081674047701 0.000825661001511308 0.000897964713019618 0.000857704086684389 0.000806667708328405 0.000901764640436013 0.000803785751749512 0.000829258724949972 0.000807824484988075 0.00075626719188614 0.000824658751003193 0.000809860278075 0.000948800389774197 0.000827261102824993 0.000955506895265037 0.00100635197064637 0.00115035619588736 0.000953013651469086 0.00115283722188468 0.0011202152491411 0.00115246824921783 0.00129266117968614 0.00112430563230254 0.0013372841646977 0.00129374391893132 0.00115396486083207 0.00133372799845238 0.00115698146562856 0.00117164108522626 0.00100717259853273 0.00117438955702517 0.00115317093679299 0.00103352058446789 0.00117211899719132 0.0010095315840938 0.000886772164069115 0.000889539705233237 0.00103279424206 0.00103462130995972 0.0010062025497063 0.000885740269219605 0.00100314751674096 0.000953261428468121 0.000805467320310231 0.0010020211027656 0.000807329254752666 0.000886770134875938 0.000798779211302931 0.000753463493672908 0.000704316697304753 0.000827481960860449 0.000750113412561045 0.000804619042865787 0.000699673640816478 0.00073820298628524 0.000802525598697507 0.000809159649487884 0.00073818172753982 0.000883044540757481 0.000703283134650574 0.000657399508579906 0.000732363987038201 0.000672784578135242 0.000733897238240941 0.000656683784566462 0.000615862520322826 0.000668811462366098 0.000659708122816221 0.000749248672564334 0.000669870174098744 0.000673129820626937 0.000749457435138467 0.000738015481903617 0.000669324001942293 0.000803288636852861 0.000887589943931752 0.000752964524475596 0.000670736113893937 0.000801729949443302 0.000752173037687088 0.000751907132128982 0.0008875327506167 0.000738270979681304 0.000737063296356552 0.000889158585997447 0.000884390692704899 0.00103538331944825 0.00089433082373888 0.0010527087232831 0.000802403701219252 0.000942792266418454 0.000893986240557698 0.000945900291937986 0.000996564480677999 0.00104967231653618 0.000941358215584375 0.00105022216293488 0.000897016420460807 0.00105446763726557 0.000990170142918572 0.00105849609386833 0.000947928605234194 0.000915919306678991 0.000994162092575005 0.000992809518091094 0.000918717721909717 0.000919285505309836 0.00105427715188177 0.000994653587737023 0.000915432337183208 0.000803905035592457 0.000915642051497192 0.000725447446697349 0.000952437856940099 0.000915634334576428 0.00080506678185902 0.000800862671971769 0.000758599352191049 0.000953625827912927 0.00105754442762593 0.000956239827254839 0.00109776333580066 0.00105614049279921 0.00091064703541196 0.000956291828688466 0.00099169242562913 0.000955754600526018 0.000757004832468731 0.000950927534509376 0.000995667829865535 0.00109980240949426 0.0009912247686031 0.00103566160204975 0.00118893542461159 0.00118220284670285 0.00110015505783279 0.00118932460170555 0.00118591479251529 0.00110091077690891 0.000996109380655554 0.00119322161105329 0.00130532173874063 0.00117744240030156 0.00110074598386596 0.00117932912545309 0.00105240966602204 0.00106023719193178 0.00117389615909459 0.00105405739256659 0.00104065675143543 0.00104648665188841 0.00117670711992425 0.00117624284790553 0.00103822661376238 0.00118047173674253 0.00118269680586037 0.00117253487760573 0.00130592901749948 0.00131085096054928 0.00133475791337231 0.00117727150237452 0.00149352722511851 0.00133657468391717 0.00143695525040526 0.00148985980895973 0.00129583639857036 0.00133495452129137 0.00129542837817328 0.00143172686610653 0.00130781423765749 0.00130236393523528 0.00143235679354151 0.00134089365930396 0.00129129845406734 0.0013117270294931 0.00118448783619493 0.00118828130824137 0.00103794569611068 0.00128858433201433 0.00117496397024602 0.00129346516300078 0.00103003626296489 0.00138874539641313 0.00129093846999637 0.0011776791268458 0.00128531397469873 0.00139331180179374 0.00143906762955917 0.00155331017191304 0.00138863439336812 0.00152532747914637 0.00139715966086523 0.00154973788619717 0.00143559421706073 0.00152404804924984 0.0013946593751472 0.00116279615139578 0.00116113377521408 0.00139382445369969 0.00117046932455737 0.0012936270183572 0.00153291250871985 0.00114959276978937 0.00153135652686657 0.00172215854492881 0.00154859558256676 0.00171356992691692 0.00149789855279297 0.00156042289132705 0.00142845060182109 0.00155606969658198 0.00150186809011932 0.00148366802622183 0.00172045200535964 0.00154053277042701 0.000350855844206733 0.000330890686804136 0.000480188005615462 0.000340681442294884 0.00034842705428396 0.000482546415623108 0.000345337352447748 0.000485627858159344 0.000487604651108843 0.00066245880321557 0.000488285086211197 0.000748743639197811 0.000487740965727164 0.000488262097211258 0.000748271061112213 0.00115184262682272 0.000749847650915848 0.000888389232152119 0.000880889104013589 0.000754634067827748 0.000483387288141935 0.00127932933619438 0.00115484052630361 0.000890071468640042 0.000925369850727598 0.000754189684025506 0.00114728236324201 0.000753939483404595 0.000923011454470306 0.000659484583463206 0.000661758369057828 0.000920238322441242 0.000719704934532933 0.00102906638009724 0.000930100955345122 0.0011727264284568 0.00115219041682293 0.00117536906042583 0.000927196274320978 0.000925103274288932 0.00103184758257759 0.00072013197592331 0.000660503679623638 0.000718326537195041 0.000483225547913855 0.000713645111894486 0.000490095488840509 0.000486052755528186 0.000658871025657306 0.000484832905086255 0.000490981716064196 0.000336526439640675 0.000486827898558851 0.000484160912260021 0.000333601144938672 0.000340477533193111 0.000478295114783561 0.000332940469221319 0.00048434327205521 0.000337813008067414 0.000335308835210485 0.000264339588637192 0.000332211075476934 0.000488487581125483 0.000529897621958697 0.000332516885340376 0.000329236654005634 0.000482153493240186 0.000488937213564748 0.000716741399224024 0.000752010997042797 0.000488871986249876 0.00102794696579439 0.000751118952529154 0.000722072891380401 0.00102760734839459 0.000997320328385181 0.000756110201856942 0.00075222862582713 0.000757852030782695 0.00099367218099674 0.000755638652757547 0.000534018750646168 0.000750876045079046 0.000748231665209526 0.000533166811410941 0.000491709072025786 0.000535778043341011 0.000752424722629555 0.00055406642219345 0.00055516740604776 0.000752223899306394 0.000666573699315647 0.000755196565427706 0.000802289670466103 0.000665787174202208 0.000667287869139403 0.000801397252809872 0.00072604479403369 0.000665537276267599 0.000549817807862621 0.000555781231517156 0.000434134961160149 0.000320238323724278 0.000398476423062353 0.000552568689991782 0.000435467636994335 0.000400034863293286 0.000554206443813966 0.000398976041063108 0.000531737424569478 0.00033528052593914 0.000527737942557801 0.000401621338694535 0.000255389008103108 0.000336393936421922 0.000393901125569374 0.000323777712458077 0.000256548436242572 0.000393607641100558 0.000258598446829387 0.000240278563987329 0.000247281715821607 0.00026506801663114 0.000332396641671645 0.000263086743568567 0.000258752230699181 0.000263234262942587 0.000263959295091107 0.000266443412409723 0.000254978564849925 0.000250750369748973 0.000359158788311376 0.000269852560872193 0.000246015804880867 0.000385937703432734 0.000363879042975133 0.000543655325793779 0.00036442373518729 0.000465004271489247 0.000544203761336948 0.000385458737574629 0.000545735266990338 0.000512777962824226 0.000387661575811637 0.000510228280288049 0.000334452357729481 0.000384366356933198 0.000267209907984099 0.00036463759079351 0.000335771311778523 0.000267470126566155 0.000383760273410991 0.000306278912754303 0.000338248380388067 0.000454406495036761 0.000514514943286601 0.000655828936730476 0.000459403526081177 0.000332966399371734 0.000510883891838126 0.000458036278159781 0.000657713911593947 0.000618318830547475 0.000457589768073299 0.000433458511323093 0.000459905633390301 0.000615197256297106 0.000432374509910197 0.000303351090537311 0.000457021045381382 0.000265112519659877 0.000274198039918985 0.000304315624315297 0.000266024446858354 0.00030273039630375 0.000275829294055766 0.000260636992692889 0.000269410037951419 0.000271773718249842 0.000334612445887648 0.00030812625354095 0.000269549195832722 0.000271003320226647 0.000272906261439969 0.000333726288244426 0.000268059154283713 0.000262963724171626 0.000270602035560596 0.000331872567910234 0.000264772907144938 0.000266758463356159 0.000269692253032707 0.00027498491268364 0.00032849795396339 0.000332749426577578 0.000271011063061311 0.000338321982195787 0.000277324824344176 0.000285549440740599 0.000333557839503475 0.000286298260109361 0.00027541649912603 0.000332374706932066 0.000281854037578955 0.000339679687073487 0.000346189164883716 0.000310342273279029 0.000336542291578577 0.000271308886229373 0.000340855014539671 0.000306730406391049 0.000430526863063035 0.000435702203356041 0.000527893970169211 0.00033723633232434 0.000431786962255224 0.000617492644602836 0.000531765469452262 0.000450982866848204 0.00053411536356224 0.000679172698721502 0.000450159997797099 0.000348104457454207 0.000340681540487205 0.000528623109118535 0.000452051950415621 0.000335442498937087 0.000522501026186584 0.000343218487122856 0.000454739825582835 0.000808394162723005 0.000526246721275342 0.000686067577856034 0.000528047648994143 0.000449183291666698 0.000680230497948806 0.000809171371077663 0.000607000259310875 0.000524301390244275 0.000380008838769541 0.000529792791906457 0.000601453548498538 0.000521006975800703 0.000383688943638562 0.000343836155004718 0.000289571131496052 0.000374248196710582 0.000314108811351727 0.000349481351888201 0.000377068456645755 0.000285959424614895 0.000287499773447714 0.000342042769992938 0.000293061250953932 0.000345434689135948 0.000339735012634728 0.000280610092101287 0.000296920466745986 0.000341188030988139 0.000286096607654301 0.000347369104341061 0.000293948030486207 0.000331891864500067 0.000236724558088634 0.000259263383792952 0.000318176260948674 0.00036107898746744 0.000320512386914944 0.000258339386842811 0.000361339742560663 0.000257878497723999 0.000277843059228003 0.000274458759636912 0.000258339289641056 0.000206117609945665 0.000255667300336854 0.000196961694895955 0.000207854850267845 0.000257248697798776 0.000237942245257123 0.000195504632644733 0.000269431063418585 0.000205053689404014 0.000238031460688173 0.000206645362600775 0.000196412416210645 0.000237399807158959 0.000204644486872456 0.000232087561032277 0.000179148244887085 0.000268831047856807 0.00023401514766069 0.000205137304484153 0.000320740425016486 0.000233354225141314 0.000268995974451101 0.000271405557955793 0.000237176149630073 0.000318201885630533 0.000269499961296197 0.000320086825767691 0.000385731690471633 0.000270177621483029 0.000384028208969497 0.000320967052535712 0.000417278989795981 0.000322104085265764 0.000384338072753632 0.000480229727460618 0.000414826746327034 0.000388494012609502 0.000388440349091876 0.000516247373027027 0.000482271082762595 0.000405816237080496 0.000489113353705352 0.000517867997092907 0.000516408582602514 0.000386497350883274 0.000406338223460216 0.000404976275316306 0.000387406648352598 0.000320084428776123 0.000362892191642818 0.000404814084084748 0.000319515407531085 0.000405516974551146 0.000363125248411038 0.000487196435887927 0.000431860828769412 0.000612976258543815 0.00048832994807928 0.000562124631644827 0.000615407182792498 0.000429827072708449 0.000693477175815019 0.000614275021596063 0.000564625545269816 0.000560322640671338 0.000429051597607926 0.000401536892816502 0.000429885893408234 0.000488075333929685 0.00036220055325548 0.000727039802427914 0.000550714840112384 0.000666139784487315 0.000561193618205546 0.000551999629059021 0.000724661991049223 0.000724624848865447 0.000694473481836048 0.000563844867729022 0.000548873617690177 0.000562433096906244 0.000399821336247205 0.000399586884428727 0.000435813653309174 0.000547824985976028 0.000550149180326065 0.000434958046230635 0.000553931668685341 0.000400768079909392 0.000320609264804474 0.000434233192141516 0.000337413138683076 0.000266741670653 0.000397241536438256 0.000396631873531939 0.00026620115805638 0.000321318963521648 0.000235985559863006 0.000317509346281288 0.000271153444398995 0.000316812854335678 0.000236232204929524 0.000260716269531373 0.000425237882655481 0.00036421519941086 0.000276440277342119 0.000400234559815696 0.000428096752217209 0.000335628990350384 0.00033620330832798 0.000425467027015423 0.000275638870478888 0.000277762325568733 0.000269071960650622 0.000335800534051037 0.000207908724034403 0.000267945002871521 0.000274479996383664 0.000208978086798518 0.00021045969730055 0.000271445168904381 0.000211958349513054 0.000204244354490519 0.00021520356723744 0.000265482564068319 0.000212416877739921 0.000229627658576361 0.000271554966257162 0.000234938956818581 0.000207452751473253 0.000208157574448053 0.000221643405440579 0.000271388796622482 0.000229670547700112 0.000213835428469265 0.000233890514887837 0.000233012402021472 0.000238163087989439 0.000229517739785509 0.000228469821488049 0.000238568766788883 0.00026738384659769 0.000234725712248955 0.000249779936222638 0.000236852354047507 0.00024862127985626 0.000232489099705036 0.000324566920404396 0.000361049907954426 0.000244368730654085 0.000330843308230658 0.000232203474006745 0.000279954756924046 0.000325739524322063 0.000412524794609842 0.0003300694540605 0.000275802144853719 0.000489565906060632 0.00032880666638701 0.000416988116627747 0.000461799845406646 0.000365830922451067 0.000328894673966988 0.000462726715603186 0.000327426308921638 0.00049009555027297 0.000292349933182191 0.000276028663395363 0.000216315285710582 0.000412901566070009 0.000275825527971256 0.00036428200816534 0.000362796898890097 0.000277492865579559 0.000295462832088411 0.000294247693192673 0.000406929619429723 0.00036348163489123 0.000237597592500439 0.000326803204332699 0.000294958898448054 0.000329291255458087 0.000405816461273791 0.000295450135761421 0.000238716349190739 0.000254881965111325 0.000325676260307301 0.000194695829496182 0.000252366925929855 0.000238713090565344 0.000216909615627015 0.00024089484108604 0.000291907847716677 0.000215835394862019 0.000204287464983927 0.