<?xml version="1.0"?>
<VTKFile type="UnstructuredGrid" version="0.1" byte_order="LittleEndian">
<UnstructuredGrid>
<Piece NumberOfPoints="379" NumberOfCells="993">
<Points>
<DataArray type="Float64" NumberOfComponents="3" format="ascii">
-1.0000000000 1.0000000000 -1.0000000000 -1.0000000000 -1.0000000000 -1.0000000000 1.0000000000 -1.0000000000 -1.0000000000 1.0000000000 1.0000000000 -1.0000000000 -1.0000000000 1.0000000000 1.0000000000 -1.0000000000 -1.0000000000 1.0000000000 1.0000000000 -1.0000000000 1.0000000000 1.0000000000 1.0000000000 1.0000000000 -1.0000000000 1.0000000000 -1.0000000000 -1.0000000000 -1.0000000000 -1.0000000000 1.0000000000 -1.0000000000 -1.0000000000 1.0000000000 1.0000000000 -1.0000000000 -1.0000000000 1.0000000000 1.0000000000 -1.0000000000 -1.0000000000 1.0000000000 1.0000000000 -1.0000000000 1.0000000000 1.0000000000 1.0000000000 1.0000000000 -1.0000000000 0.6000000000 -1.0000000000 -1.0000000000 0.2000000000 -1.0000000000 -1.0000000000 -0.2000000000 -1.0000000000 -1.0000000000 -0.6000000000 -1.0000000000 -1.0000000000 -1.0000000000 0.6000000000 -1.0000000000 -1.0000000000 0.2000000000 -1.0000000000 -1.0000000000 -0.2000000000 -1.0000000000 -1.0000000000 -0.6000000000 -1.0000000000 1.0000000000 -0.6000000000 -1.0000000000 1.0000000000 -0.2000000000 -1.0000000000 1.0000000000 0.2000000000 -1.0000000000 1.0000000000 0.6000000000 0.6000000000 1.0000000000 -1.0000000000 0.2000000000 1.0000000000 -1.0000000000 -0.2000000000 1.0000000000 -1.0000000000 -0.6000000000 1.0000000000 -1.0000000000 -0.6000000000 1.0000000000 1.0000000000 -0.2000000000 1.0000000000 1.0000000000 0.2000000000 1.0000000000 1.0000000000 0.6000000000 1.0000000000 1.0000000000 1.0000000000 1.0000000000 -0.6000000000 1.0000000000 1.0000000000 -0.2000000000 1.0000000000 1.0000000000 0.2000000000 1.0000000000 1.0000000000 0.6000000000 -1.0000000000 0.6000000000 1.0000000000 -1.0000000000 0.2000000000 1.0000000000 -1.0000000000 -0.2000000000 1.0000000000 -1.0000000000 -0.6000000000 1.0000000000 -0.6000000000 -1.0000000000 -1.0000000000 -0.2000000000 -1.0000000000 -1.0000000000 0.2000000000 -1.0000000000 -1.0000000000 0.6000000000 -1.0000000000 -1.0000000000 1.0000000000 0.6000000000 -1.0000000000 1.0000000000 0.2000000000 -1.0000000000 1.0000000000 -0.2000000000 -1.0000000000 1.0000000000 -0.6000000000 -1.0000000000 1.0000000000 -1.0000000000 -0.6000000000 1.0000000000 -1.0000000000 -0.2000000000 1.0000000000 -1.0000000000 0.2000000000 1.0000000000 -1.0000000000 0.6000000000 1.0000000000 -0.6000000000 1.0000000000 1.0000000000 -0.2000000000 1.0000000000 1.0000000000 0.2000000000 1.0000000000 1.0000000000 0.6000000000 1.0000000000 0.6000000000 -1.0000000000 1.0000000000 0.2000000000 -1.0000000000 1.0000000000 -0.2000000000 -1.0000000000 1.0000000000 -0.6000000000 -1.0000000000 1.0000000000 -0.7500000000 0.7500000000 1.0000000000 -0.5000000000 0.5000000000 1.0000000000 -0.2500000000 0.2500000000 1.0000000000 -0.0000000000 0.0000000000 1.0000000000 0.2500000000 -0.2500000000 1.0000000000 0.5000000000 -0.5000000000 1.0000000000 0.7500000000 -0.7500000000 1.0000000000 1.0000000000 -1.0000000000 0.6000000000 1.0000000000 -1.0000000000 0.2000000000 1.0000000000 -1.0000000000 -0.2000000000 1.0000000000 -1.0000000000 -0.6000000000 0.7500000000 -0.7500000000 -1.0000000000 0.5000000000 -0.5000000000 -1.0000000000 0.2500000000 -0.2500000000 -1.0000000000 0.0000000000 -0.0000000000 -1.0000000000 -0.2500000000 0.2500000000 -1.0000000000 -0.5000000000 0.5000000000 -1.0000000000 -0.7500000000 0.7500000000 -1.0000000000 -1.0000000000 1.0000000000 -0.6000000000 -1.0000000000 1.0000000000 -0.2000000000 -1.0000000000 1.0000000000 0.2000000000 -1.0000000000 1.0000000000 0.6000000000 -0.7500000000 -0.7500000000 1.0000000000 -0.5000000000 -0.5000000000 1.0000000000 -0.2500000000 -0.2500000000 1.0000000000 -0.0000000000 -0.0000000000 1.0000000000 0.2500000000 0.2500000000 1.0000000000 0.5000000000 0.5000000000 1.0000000000 0.7500000000 0.7500000000 1.0000000000 1.0000000000 1.0000000000 0.6000000000 1.0000000000 1.0000000000 0.2000000000 1.0000000000 1.0000000000 -0.2000000000 1.0000000000 1.0000000000 -0.6000000000 0.7500000000 0.7500000000 -1.0000000000 0.5000000000 0.5000000000 -1.0000000000 0.2500000000 0.2500000000 -1.0000000000 0.0000000000 0.0000000000 -1.0000000000 -0.2500000000 -0.2500000000 -1.0000000000 -0.5000000000 -0.5000000000 -1.0000000000 -0.7500000000 -0.7500000000 -1.0000000000 -1.0000000000 -1.0000000000 -0.6000000000 -1.0000000000 -1.0000000000 -0.2000000000 -1.0000000000 -1.0000000000 0.2000000000 -1.0000000000 -1.0000000000 0.6000000000 -0.0173961692 0.0152116469 1.0000000000 0.4250000000 -0.4250000000 1.0000000000 -0.4042738835 0.3863004138 1.0000000000 0.4250000000 0.4250000000 1.0000000000 -0.4101956310 -0.4040992312 1.0000000000 -0.0000000000 0.5902173913 1.0000000000 -0.6351243016 -0.0065354608 1.0000000000 0.5974927135 0.0152883666 1.0000000000 0.0225027200 -0.5895163102 1.0000000000 0.6710756513 -0.6710756513 1.0000000000 -0.6658333333 0.6658333333 1.0000000000 0.6710756513 0.6710756513 1.0000000000 -0.6658333333 -0.6658333333 1.0000000000 0.2117584038 -0.1593649863 1.0000000000 -0.1068888544 -0.2534621387 1.0000000000 -0.1087953972 0.2395357981 1.0000000000 0.7387136730 -0.3761574569 1.0000000000 0.3837156743 -0.7371183923 1.0000000000 0.3598177083 0.7310156250 1.0000000000 -0.7422306532 -0.3752936051 1.0000000000 0.7310156250 0.3598177083 1.0000000000 -0.3707052489 -0.7318897749 1.0000000000 -0.3740214434 0.7284702277 1.0000000000 -0.7346711201 0.3632076314 1.0000000000 0.1812837834 0.2060909508 1.0000000000 -0.2897650406 -0.0307941786 1.0000000000 -1.0000000000 0.0000000000 -0.0000000000 -1.0000000000 -0.4250000000 0.4250000000 -1.0000000000 0.4250000000 0.4250000000 -1.0000000000 0.4250000000 -0.4250000000 -1.0000000000 -0.4250000000 -0.4250000000 -1.0000000000 0.5921289063 -0.0206521739 -1.0000000000 -0.0206521739 -0.5921289063 -1.0000000000 0.0206521739 0.5921289062 -1.0000000000 -0.5921289062 0.0206521739 -1.0000000000 -0.6658333333 0.6658333333 -1.0000000000 0.6710756513 -0.6710756513 -1.0000000000 0.6658333333 0.6658333333 -1.0000000000 -0.6710756513 -0.6710756513 -1.0000000000 -0.1393113770 0.2633133025 -1.0000000000 -0.2335907517 -0.1510583366 -1.0000000000 0.2629046155 0.1379319434 -1.0000000000 0.1508473222 -0.2339059150 -1.0000000000 -0.3740362319 0.7365924479 -1.0000000000 0.7365924479 0.3740362319 -1.0000000000 -0.3833455651 -0.7376409115 -1.0000000000 -0.7376409115 -0.3750846955 -1.0000000000 0.3750846955 -0.7376409115 -1.0000000000 0.7376409115 -0.3833455651 -1.0000000000 -0.7349990699 0.3758744177 -1.0000000000 0.3758744177 0.7349990699 0.0000000000 -1.0000000000 -0.0000000000 -0.4250000000 -1.0000000000 -0.4250000000 0.4250000000 -1.0000000000 -0.4250000000 0.4250000000 -1.0000000000 0.4250000000 -0.4250000000 -1.0000000000 0.4250000000 -0.5921289062 -1.0000000000 -0.0206521739 0.0206521739 -1.0000000000 -0.5921289062 0.5921289062 -1.0000000000 0.0206521739 -0.0206521739 -1.0000000000 0.5921289062 -0.6658333333 -1.0000000000 -0.6658333333 0.6658333333 -1.0000000000 -0.6658333333 0.6658333333 -1.0000000000 0.6658333333 -0.6658333333 -1.0000000000 0.6658333333 -0.2633133025 -1.0000000000 0.1393113770 -0.1379319434 -1.0000000000 -0.2629046155 0.2629644618 -1.0000000000 -0.1379142126 0.1483249834 -1.0000000000 0.2329085316 -0.7349990699 -1.0000000000 -0.3758744177 0.3758744177 -1.0000000000 -0.7349990699 0.7349990699 -1.0000000000 0.3758744177 -0.3758744177 -1.0000000000 0.7349990699 -0.7365924479 -1.0000000000 0.3740362319 -0.3740362319 -1.0000000000 -0.7365924479 0.7365924479 -1.0000000000 -0.3740362319 0.3740362319 -1.0000000000 0.7365924479 0.0000000000 0.0000000000 -1.0000000000 -0.4250000000 -0.4250000000 -1.0000000000 -0.4250000000 0.4250000000 -1.0000000000 0.4250000000 0.4250000000 -1.0000000000 0.4250000000 -0.4250000000 -1.0000000000 0.0206521739 0.5921289063 -1.0000000000 0.5921289063 -0.0206521739 -1.0000000000 -0.5921289062 0.0206521739 -1.0000000000 -0.0206521739 -0.5921289062 -1.0000000000 -0.6658333333 -0.6658333333 -1.0000000000 0.6710756513 0.6710756513 -1.0000000000 -0.6658333333 0.6658333333 -1.0000000000 0.6710756513 -0.6710756513 -1.0000000000 -0.2633133025 -0.1393113770 -1.0000000000 0.1510583366 -0.2335907517 -1.0000000000 -0.1379319434 0.2629046155 -1.0000000000 0.2339059150 0.1508473222 -1.0000000000 -0.7365924479 -0.3740362319 -1.0000000000 -0.3740362319 0.7365924479 -1.0000000000 0.3750846955 -0.7376409115 -1.0000000000 0.7376409115 -0.3833455651 -1.0000000000 0.3833455651 0.7376409115 -1.0000000000 0.7376409115 0.3750846955 -1.0000000000 -0.3758744177 -0.7349990699 -1.0000000000 -0.7349990699 0.3758744177 -1.0000000000 1.0000000000 0.0000000000 -0.0000000000 1.0000000000 -0.4250000000 0.4250000000 1.0000000000 -0.4250000000 -0.4250000000 1.0000000000 0.4250000000 -0.4250000000 1.0000000000 0.4250000000 0.4250000000 1.0000000000 0.0206521739 -0.5921289063 1.0000000000 0.5921289063 0.0206521739 1.0000000000 -0.5921289062 -0.0206521739 1.0000000000 -0.0206521739 0.5921289062 1.0000000000 -0.6658333333 0.6658333333 1.0000000000 0.6710756513 -0.6710756513 1.0000000000 -0.6658333333 -0.6658333333 1.0000000000 0.6710756513 0.6710756513 1.0000000000 -0.2633133025 0.1393113770 1.0000000000 0.1510583366 0.2335907517 1.0000000000 -0.1379319434 -0.2629046155 1.0000000000 0.2339059150 -0.1508473222 1.0000000000 -0.7365924479 0.3740362319 1.0000000000 -0.3740362319 -0.7365924479 1.0000000000 0.7376409115 0.3833455651 1.0000000000 0.3750846955 0.7376409115 1.0000000000 0.7376409115 -0.3750846955 1.0000000000 0.3833455651 -0.7376409115 1.0000000000 -0.3758744177 0.7349990699 1.0000000000 -0.7349990699 -0.3758744177 0.0000000000 1.0000000000 -0.0000000000 -0.4250000000 1.0000000000 0.4250000000 -0.4250000000 1.0000000000 -0.4250000000 0.4250000000 1.0000000000 -0.4250000000 0.4250000000 1.0000000000 0.4250000000 0.0206521739 1.0000000000 -0.5921289063 0.5921289063 1.0000000000 0.02065
[...]
<CellData Scalars="pressure_p0,piezo_head_p0," Vectors="velocity_p0," Tensors="">
<DataArray type="Float64" Name="pressure_p0" format="ascii">
3.4756945845 3.4085043865 3.0769087445 3.1974443905 2.8985899380 2.8045710217 2.9220403765 2.5695489173 2.3275586189 2.2791489925 2.7765495479 2.8177911307 1.9918483368 2.1281206723 3.4630891997 1.8153725613 2.2364669416 3.5427306381 3.0672116184 2.6873576466 3.1193025614 2.3313978624 2.7172374233 1.6421561217 3.2793111686 1.5239606294 3.4732986332 2.4163059448 2.3100550750 1.3545067335 1.6270668600 2.2991372510 1.3465446808 3.7606725390 2.5758283568 2.8075529077 2.0074301464 1.1784413036 1.5497864195 2.4993274108 1.9358093245 2.9244730093 3.9071109226 1.8737744561 1.7398504849 1.7766418737 1.3577626586 1.5944983062 2.9060723711 3.0161605313 2.9802302257 2.4603817950 1.9513461037 2.6695016732 1.3128150421 1.4200067083 3.6717065910 2.5722281383 3.3382375022 4.3650758250 2.4936478725 2.5686350906 4.1061879135 3.2008819478 2.2217688265 3.9357374857 1.8942540571 2.9633026275 2.8992261255 2.3264042599 3.1170011253 3.3019655495 2.0227891342 2.6937368377 1.6212412444 2.2679324928 2.4730609659 1.6608102744 2.9538249284 1.2039042282 1.3511794722 2.9352432329 4.5203454987 1.5305003311 1.9567086187 3.7346135267 2.1620303758 2.2605007308 1.7014830264 3.2405152441 1.9055420075 1.5644878392 2.0265697147 2.8092162145 3.9314635122 1.1399643487 1.6985428936 2.6149951372 1.8988398866 4.2251235823 2.3906980672 2.6433638221 2.4792950172 2.7127306337 2.3428138062 2.0362648111 2.2212469316 2.3392877540 2.4220809977 2.2830547474 2.5365162614 2.2084956607 1.9056321846 1.6498759589 1.4033020478 2.2790380338 1.5641254884 2.6504278471 1.6962577523 2.1280164971 0.4933429455 1.8146186113 1.8350638767 2.0084633598 2.6442702592 2.3000190535 2.5912717654 2.2209408980 2.1349807049 1.6414088105 1.0358588802 1.5239542781 0.5229795010 1.5836394104 1.2804394843 1.1365601912 1.5219495092 -0.0634392245 0.9372615411 1.3453936234 2.2076502312 -0.3231752618 1.7838498463 1.1062651981 1.3251478013 0.9361818493 1.9358019548 2.8407216863 0.8518260165 1.7519646957 1.0756610832 1.3160777211 0.9238201922 1.4108788696 1.5228331872 2.0579691009 0.5872922802 1.0684668633 0.8934530565 0.3024021877 1.0928248997 1.2757538304 1.3360740181 2.3718600140 1.7986067545 1.1719755936 2.4936015087 2.4682113708 1.6846642926 0.0517516727 1.9602904985 0.7995602215 0.5662219878 0.6850609895 2.6562912709 2.0547109275 1.7208342147 1.0323553858 1.5030981699 2.5382322198 0.6153270781 0.8512850659 1.9343576138 0.5890565267 2.8479328892 1.2038494913 1.3510198778 -0.5267151700 1.0713070389 0.9134961895 0.4859745543 1.8393893624 0.2540362794 2.1369735599 1.1025022026 -0.0295478827 1.0816972049 0.8952823257 1.3182779511 2.8091415016 1.3984595932 1.0517735923 1.3161216653 0.0451669099 1.4660622184 1.6081217003 -0.2248862983 2.6432259183 2.2804561936 0.1784704828 0.6791421032 0.7840259302 2.7850372986 2.8427668193 1.4179443713 1.4653906806 2.7014467759 1.4583759440 2.4746510763 2.4784653205 1.5923808630 2.2243767552 2.8403216232 1.6488588927 2.7497291377 1.1192295444 1.6730175434 2.4777586664 2.0966607020 2.5772596298 1.7666896264 2.4775636195 2.0476589518 1.3986131024 2.6881622165 2.9143941699 2.2327067164 1.4445358235 1.8215404245 1.3097515304 2.7275578705 2.0373914881 2.7119941687 2.0294816375 2.0408367126 1.4988193196 2.5876322918 2.5643892991 2.9276945642 2.5509653992 2.3058472685 2.7693421744 1.5315292956 2.2930929135 1.4114350502 2.8318368791 2.7025025284 2.7524169731 2.0892152791 2.0535768728 1.2907492378 2.1249891006 2.7535202273 2.9027771951 1.5111782222 1.9721033665 2.5150999596 1.7423612210 1.3717361217 3.0002404160 2.5546159462 2.1677999089 2.2560921394 2.8363127592 1.3275081924 2.6561529785 2.0607311212 1.2191559058 1.6100104741 1.8561154121 2.6301949227 2.4490664487 2.5182900228 2.2051521400 1.8873071325 2.6489325626 1.4340556535 1.8581874712 1.9553876361 2.1860153274 1.4971296221 2.4386279349 2.0635613332 2.2623119468 1.2596113639 1.7560563963 2.6050858741 2.7453334034 2.9758913983 2.6417745071 2.9187546197 1.3431367414 2.8980297048 2.6315965868 2.4334092451 2.0805696779 1.6126195146 2.3453024506 1.2707876726 2.6122680463 2.5867859925 2.2381472697 2.6314257653 2.5642448760 2.7013398479 2.4322129807 1.5735317643 1.4541147614 2.6828998111 1.9987398131 2.5300815113 1.4080596734 2.1558630448 2.6319026228 2.2666304325 2.8093167480 2.3251115694 1.7404548147 1.3900075257 1.6535226723 2.0591288164 2.6038566689 2.7307062497 2.5749279422 1.7835495906 1.3891171582 2.6689924459 1.9590211404 1.3819868743 1.7143023066 2.0891895136 2.1959643660 1.2813860124 2.4536943468 1.2217300003 1.9037463505 2.3278065908 1.5564570582 2.4147927178 1.8595775471 1.7246386050 1.2032405889 2.9603671324 2.6939871447 2.9135836220 2.4039606012 2.3542578220 1.7416412622 1.8987215236 2.5311433861 2.1459521134 2.0037669861 2.2789325349 1.2296082386 2.3487393510 1.6489889078 1.7214323671 1.6239688845 2.9048986195 1.8903111978 2.5651628092 2.0609171589 2.0079850247 2.8769790338 2.3347100547 1.3108468949 1.8645070101 1.5572446811 1.8740247473 2.5124298754 2.4300428229 1.7498963882 1.7654327845 3.0428890747 2.4001734228 1.5056547126 1.7394093329 1.3951355332 2.8285864004 1.6737310914 2.1625438565 2.3756653155 2.0584202145 1.1644008070 1.6621158718 1.2819875393 1.4797340533 1.3232311184 1.1098283373 2.0846749030 1.3346655481 2.4498932875 2.6909558896 2.7262987407 2.3283342527 2.3281699429 2.7049338838 1.9880742322 1.3215503698 2.4496474200 2.3810138156 1.1210685145 2.3513340512 1.9393498426 1.6530576711 1.9265788793 1.7837204454 2.5848288892 2.7644586402 2.4679163286 2.4638363228 1.8948595187 2.5597071111 1.3731653491 2.6914134167 1.8975625472 1.6280650855 2.4557995954 1.0701982118 2.5409561665 1.2827991097 1.7623705018 1.5971396126 1.7410283725 2.9621076775 1.8845327168 1.9498178544 2.6867784584 1.7031411725 2.2083399155 1.7718168021 2.2534221083 1.0458775397 2.6104533492 2.5112294604 1.0532063135 1.4365745783 1.2209366915 1.6560788442 2.3766420638 2.6732077068 2.3282397292 1.1991886554 1.9071022986 2.0834704744 1.6070291664 1.9017061690 2.0822156358 2.8218628317 1.6041731855 2.8816241787 2.1808292112 1.8979340739 2.6963418679 2.3877234255 1.0601670685 1.8104769311 2.5415494166 1.3089023517 2.1269942199 2.1451078069 1.7160006176 2.7131397814 2.7021590202 2.7094332973 1.6512494714 2.7790919543 2.4758706296 1.6754730994 1.1718595124 2.8854521734 1.7486242064 2.6559473158 2.6156470278 2.6072782554 2.4655338576 1.2284249914 1.3417334777 2.3150118620 1.7848886107 1.8370565296 2.4445317564 1.8102582019 1.2872396836 1.7464079038 2.8807837754 1.0980108503 1.6631650891 1.0947176996 2.1057889467 2.2189450368 2.1120034571 2.6590072497 1.7507586443 1.2152239571 1.4072696507 1.6138605517 1.1925806886 1.5218255225 1.8087701429 1.9398125907 1.3285315783 1.7373666190 2.3514494722 1.9364447481 1.3788844432 2.7837547247 2.2225346391 1.2136285906 2.1039979016 2.3402280643 1.4594535123 1.9792596502 1.6642700893 1.7756817527 1.5313227842 1.1154987942 2.5908208779 2.3830193553 2.1967221852 2.3785854462 2.3455958302 1.8738668306 1.6691861557 1.1253411266 1.3015714041 2.3207869775 1.4562990383 2.7137352843 2.3256186971 2.8524390118 2.3391916522 1.7665278235 2.7816021487 1.7480968960 1.9217689839 2.7803991417 2.0005651690 1.1606430682 1.1111180453 1.9018233036 1.4656275854 1.9174426794 2.1908502663 1.2243992149 1.2733028235 2.0886436680 2.8100927374 2.3759179602 1.4381918301 2.0702183954 1.2154838531 1.1499837671 1.8323464983 1.7570833887 2.3258224815 1.0092471469 1.9080969167 1.0933601207 1.9202907802 2.2953681627 2.8386467621 1.1128789941 2.7052066997 2.1246009849 2.3841976063 1.1839952236 2.6442652265 1.5088119437 2.7827726738 1.9413185725 1.3246998659 1.2196217766 2.0536021971 1.8852264862 1.2620944362 1.7334269304 2.8023866522 1.5549565098 2.0511587104 1.6023358915 1.8953300140 1.5599178573 1.0815226139 2.4251785528 1.6146028292 1.3725337490 2.7025417171 1.1628115835 1.7404035644 1.3349161823 2.0208676057 2.0545741659 1.9498297566 0.9653394059 1.8902234615 1.1950278848 1.6355913189 1.8426225307 2.1743973094 2.0880515956 0.9920739655 1.6974410392 2.9681974846 2.2027129386 2.0569878998 1.4382437589 1.1046452458 2.7405248952 1.0578740575 2.7564376614 1.3304944379 2.4291222397 2.1874262192 1.1080828157 1.2194427798 2.4755856301 1.0873916060 2.2801288516 2.1116424728 1.2467878846 1.8574995160 0.9813050192 1.5625994964 2.1557180474 1.6881299512 2.5949789865 1.3539472253 1.1058905930 1.6711911409 1.0581366950 2.1103723728 3.0000613783 2.1113503116 2.1514045264 1.9417406694 2.8973770398 1.0804106627 2.8123650453 2.8827829789 1.8630284109 1.1878659348 2.8051357451 2.6410268767 1.3585276219 1.7243331848 1.9904347605 2.2486851579 1.3250992264 1.8546433513 2.9165078023 1.2372163514 1.3375944501 2.1410066290 2.0896299223 1.2357221125 1.6253108973 1.0803560051 1.6184300213 2.0834426830 1.6724911489 2.8896291357 0.9971284812 1.2384462532 2.1060779775 1.2670645030 1.5320394733 1.9476599443 1.1953492516 1.2361547669 2.3887690129 2.9195081858 1.5995008132 2.1580073391 1.4981756471 1.8709258668 2.8769953925 2.2974626291 2.0248798025 1.7743592830 2.2408660138 2.7439341730 3.0042219188 2.7515871256 2.0561288753 1.0486515442 1.2793854475 1.5939537040 1.9624026639 1.8896203155 1.3964377369 2.8501345987 2.4938659672 2.5911009892 1.8909668074 2.8644779993 1.6766636745 0.9820702228 1.7954172072 1.6464365393 1.8755847833 1.5880272508 1.9696176731 1.3710908027 2.4519904551 0.9840535521 1.2899595400 1.2977699351 2.8389805104 1.0502918952 2.0673015298 1.2747765835 1.2066450865 2.2230947491 2.1132951366 1.1375497779 2.1891799973 2.4674887194 1.3634421533 2.1141299786 1.4761243764 1.4774855623 1.9165859402 1.6257794757 1.7109125417 2.9302949829 2.1840739513 2.1969687393 2.1982727667 1.4859793908 2.5453886473 1.9680775823 1.5042379880 1.2098673815 1.2413247366 2.4791185589 1.9092472984 1.9093147730 1.1240195902 1.1396693790 1.1372116676 2.8450888902 2.8696035665 1.6305370378 1.9870206235 1.8632110032 2.6405084825 2.2647063209 2.8790980594 1.1267624567 2.7629011778 2.4603853381 1.1131710913 2.2080910167 2.6598175271 1.1909610671 2.1440348335 2.9397658618 1.8079756299 2.8520470028 2.1940488934 1.5204919130 1.4155281507 2.1895761361 2.4747151283 1.5877300644 1.9996316607 1.0278166986 2.1099173860 2.5881556174 1.4931230347 1.4932934390 1.8104846245 1.5192655119 2.7802094977 2.7503796090 1.1772031122 1.1174907025 2.5214560545 1.2398407302 1.7600393735 2.7088346464 3.0237941325 2.1136585923 2.5160252142 1.0678003519 2.2264763213 1.0974193729 2.4631061494 1.1248575356 2.7989767893 2.3474124842 1.5825556938 1.5439019352 1.0959107567 2.7222689537 1.1516675259 1.6098445934 1.6101949305 1.1358280167 1.3023417999 1.4501535815 1.8701418059 1.4938880628 1.2288264140 1.5481334680 1.3538330892 2.1847606428 1.9992479348 1.2322880307 1.2226839355 2.2897455841 1.8158015865 1.0430889913 1.1215854858 2.6609767211 2.0131108234 0.9949146349 1.1201619718 2.8733322427 2.3806985768 3.1038257598 2.1446263108 3.0289043012 1.3799409538 2.9314645123 0.8829423433 2.6687923852 1.1227483164 2.8687083425 1.8595990256 1.3144352766 1.1501970211 0.8884445484 1.0925564378 2.8320255254 1.6342220690 2.8849481407 0.9696511749 1.2492912829 1.0002386850 0.8783995067 2.8004431954 2.2623307050 2.9605105868 2.8903956048 1.0970571478 2.7462966642 2.0317345500 2.0320965290 2.2657020177 2.4499065222 2.3655609136 2.3257127610 1.3190371307 3.0228330911 2.7593792180 1.0923096742 3.0225009580 1.8499244633 1.3187754063 2.1408403455 2.1582548613 1.7334416976 2.8960909345 2.2262956968 3.0531300517 3.1235988039 2.3629765208 2.0313132405 2.0313367385 1.3487289629 1.0594689171 2.7081083200 0.9393064730 1.3471891223 2.9339064352 1.7784635050 2.5091472097 0.8370300795 0.8404379438 1.4717903023 3.1525468676 3.1586339452 1.4790790403 2.5202605186 1.3343975010 0.8714931062 1.0588118041 2.6989765416 2.6314730781 1.6350948073 2.8911764070 1.2826463957 3.1198848935 2.6435102654 2.9405376675 2.6355682636 0.8767489665 3.1152795005 1.3548367485 1.3542424770 0.7927659358 1.6347972914 1.6428298898 3.2022051773 0.7933014613 1.6002043559 1.6012129524 2.6370634660 1.0402201551 1.3576519626 1.3596337411 3.1219650804 3.2051891953 2.6373984947 3.1996665419 3.1997200515 2.3578903997 0.9297297878 0.9262450235 2.2192876375 1.0960566370 0.9313612077 2.6252854075 2.3497706432 2.6257244858 0.7888238672 0.8765531023 0.7874818961 1.2761949827 3.1177280772 1.7676859848 2.3637094921 1.4929315553 2.3305032426 1.5086220817 1.5096475795 2.0201545977 2.9459912458 1.2531468857 1.5874778464 2.9701592826 1.4812159163 1.3572501753 2.3974463636 1.1582895591 2.3935218541 2.6760786097 2.4908895029 2.1158755462 2.0144943283 0.9446413868 1.5024801081 2.2621583926 1.7322879764 1.7336226516 2.2657919726 1.1884767048 2.8021641687 1.1899288709 1.2029055366 1.1950252828 2.7872143908 0.9257552029 1.1885838526 0.9296492142 0.9210414505 2.0240987357 1.1920808727 2.7952084653 2.7969692863 1.9787391728 3.0608654839 3.0674399233 1.1929604809 0.9282861388 2.8004529385 3.0619250693 2.7902058393 2.0152059861 3.0614124217 1.9808943379 
</DataArray>
<DataArray type="Float64" Name="piezo_head_p0" format="ascii">