<?xml version="1.0"?>
<VTKFile type="UnstructuredGrid" version="0.1" byte_order="LittleEndian">
<UnstructuredGrid>
<Piece NumberOfPoints="568" NumberOfCells="1054">
<Points>
<DataArray type="Float64" NumberOfComponents="3" format="ascii">
0 0 0 0.0499999999998997 0 0 0.0323698570487533 0.032369857048862 0 0.0584335251122665 0.0584335251122145 0 0 0.050000000000208 0 0 0.100000000000416 0 0.0400584584693195 0.0944578555791577 0 0.0980768456829153 0.0991724147309935 0 0.0944578555792846 0.0400584584694184 0 0.0999999999998147 0 0 0.0564522287083799 0.234565808376616 0 0 0.200000000000832 0 0.0388399996009313 0.179498259931901 0 0 0.150000000000624 0 0.0548726927265955 0.134106856398452 0 0.0896897021915411 0.138513804586622 0 0.122947659685672 0.148251464161954 0 0.0828750765696809 0.178818634882983 0 0.0996947712122641 0.22074048840547 0 0.158996951633215 0.227836749122277 0 0.125875177082847 0.188968332266695 0 0.169013160068682 0.168002193866631 0 0.189220110521158 0.126442066536112 0 0.22626394058332 0.154659468198381 0 0.205967211350529 0.199725178953962 0 0.211554843187388 0.241744476774187 0 0.180351590178421 0.0391903365350905 0 0.149999999999704 0 0 0.138357444660799 0.0589959339188492 0 0.148476056588621 0.112220907400452 0 0.181725902897582 0.0816119740612928 0 0.217206150464847 0.104439454835129 0 0.231674603334463 0.0553437746953104 0 0.199999999999558 0 0 0.249999999999412 0 0 0.283208049853001 0.0508433390825056 0 0.299999999999266 0 0 0.323619558532886 0.0327999278256247 0 0.362462430895343 0.0442183666074772 0 0.349999999999121 0 0 0.355822585194142 0.0854187642572584 0 0.322427311917699 0.0689379334381408 0 0.330767006442793 0.119592255048115 0 0.295063395037039 0.101138089243444 0 0.257146194987713 0.10413999068455 0 0.263189497696013 0.146101733972573 0 0.299142716792971 0.156496209701207 0 0.260171965190135 0.20370391303005 0 0.301079690692898 0.202800200091412 0 0.288402851022681 0.249609553207088 0 0.331796839804983 0.222301993972031 0 0.330801675951106 0.181791113002693 0 0.360307484821635 0.154014700871105 0 0.397289240071895 0.165639932095022 0 0.432407360090089 0.182056809654028 0 0.41732862935313 0.129866986343623 0 0.381034256806799 0.204783951629704 0 0.42421838472614 0.222465020057878 0 0.462293308810443 0.198909164566548 0 0.499999999999971 0.219686411149829 0 0.459520018388269 0.156664873305243 0 0.46567857652706 0.114368061527523 0 0.475746624217828 0.077626823840591 0 0.484924330582892 0.0373213982762724 0 0.499999999998694 0 0 0.449999999998829 0 0 0.446927950142653 0.0518018776450602 0 0.406855818272412 0.0411398773125117 0 0.399999999998975 0 0 0.390616286406845 0.0815251031619917 0 0.375161719606839 0.121918126660369 0 0.43122735573934 0.0881769991929174 0 0.429308231064016 0.40626685012723 0 0.392220576577811 0.380677966902274 0 0.394198866753185 0.419122252400708 0 0.377023860747173 0.458194175644768 0 0.410095980695696 0.490839357492854 0 0.423403423371937 0.447621318748554 0 0.461527143457989 0.473443594123526 0 0.461024257085337 0.432541991343326 0 0.465432111282168 0.387884235436819 0 0.49854341599768 0.370759147681271 0 0.472532117365031 0.340817108308049 0 0.483788712280009 0.297451778269774 0 0.455331360217251 0.252568731208715 0 0.430594867953342 0.303959734190635 0 0.391620987711813 0.295036992928546 0 0.401804626289837 0.256190339758575 0 0.43301393728221 0.359843205574921 0 0.391208871887456 0.334075776884043 0 0.348047572662274 0.35750068079406 0 0.323103257015693 0.32141443408924 0 0.357962884673884 0.256835227867104 0 0.354814354583093 0.30398436674999 0 0.323736926270502 0.27286413781594 0 0.297479491180417 0.296411157380844 0 0.260144435522079 0.292623904436535 0 0.25082138072345 0.257700107422368 0 0.284738052361283 0.343557681186738 0 0.255826059367993 0.395079699895134 0 0.296304338697064 0.429832022968145 0 0.305976555003817 0.393468168521193 0 0.354814223971285 0.403129814650693 0 0.333826635273302 0.441301250475035 0 0.334364244893045 0.478496031217408 0 0.299886550525317 0.467007278275931 0 0.262475847345986 0.447649432958947 0 0.262418491288269 0.490719222921541 0 0.192181271644967 0.465938389648695 0 0.232324767024371 0.466345253695677 0 0.219688017838559 0.433067836400238 0 0.197169318452384 0.387030152393625 0 0.178457744828726 0.430871172570494 0 0.148695787718589 0.404814523960821 0 0.144484766221814 0.453538915812712 0 0.160013142023585 0.497717270559093 0 0.220015181768822 0.28602682846308 0 0.19152147653881 0.327918797702154 0 0.236041954047958 0.321918283269407 0 0.222695530956879 0.358374234325388 0 0.154014700871176 0.360307484821747 0 0.143922094947914 0.306200702035457 0 0.168537671773945 0.272324831592801 0 0.110477540413226 0.263117535981694 0 0.0994921194810273 0.307463985332816 0 0.0732967881614181 0.342269570898506 0 0.116034002194931 0.33748134585014 0 0.0334576460409223 0.363648423312284 0 0 0.350000000001456 0 0.032220921767547 0.329014892144875 0 0.0537301716876466 0.288250771898286 0 0 0.300000000001248 0 0 0.25000000000104 0 0.0648933318035348 0.486697770604545 0 0.109199274598136 0.487580697080498 0 0.0971009795772073 0.435906739990532 0 0.10935320311386 0.378391909217271 0 0.060530514380151 0.395146264289728 0 0 0.400000000001664 0 0 0.450000000001872 0 0.0436128036610927 0.440061111828404 0 0.0294449071642091 0.475000000001966 0 0 0.500000000002059 0 0 0.550000000001734 0 0.0518018776450837 0.553072049857452 0 0.0373213982762153 0.515075669417473 0 0.0776268238405584 0.524253375782261 0 0.114368061527482 0.534321423472927 0 0.121918126660357 0.624838280393159 0 0.0881769991928987 0.568772644260674 0 0.0815251031619976 0.609383713593151 0 0.0411398773124836 0.59314418172763 0 0 0.600000000001387 0 0 0.65000000000104 0 0.0323578435067225 0.676600401985782 0 0.0442183666074753 0.637537569104702 0 0 0.700000000000693 0 0.0486329174879745 0.717891752740162 0 0.0910728127967196 0.741988048646878 0 0.0990187225489634 0.704756315583652 0 0.0854187642572582 0.644177414805869 0 0.0689379334381628 0.677572688082311 0 0.119592255048131 0.669232993557228 0 0.154014700871098 0.63969251517837 0 0.181791113002692 0.669198324048887 0 0.13725179499973 0.741546289628566 0 0.156496209701235 0.70085728320704 0 0.203703913030074 0.739828034809895 0 0.202800200091414 0.698920309307116 0 0.249609553207091 0.711597148977329 0 0.222301993972028 0.668203160195032 0 0.204783951629683 0.618965743193203 0 0.222487080058139 0.575775413711342 0 0.219686411149827 0.500000000000032 0 0.19896328510056 0.537691476689505 0 0.156664873305197 0.540479981611742 0 0.129866986343594 0.582671370646846 0 0.165639932094979 0.602710759928095 0 0.182056809653986 0.567592639909897 0 0.100000000000416 1 0 0.0944578555791882 0.959941541530687 0 0.050000000000208 1 0 0 1 0 0.0304524096104897 0.96954759038951 0 0 0.949999999999792 0 0.0584335251122541 0.941566474887746 0 0 0.899999999999584 0 0.0400584584693226 0.905542144420798 0 0.0979909576452082 0.900450397208809 0 0.122947659685717 0.851748535838097 0 0.0868130391934314 0.817095740868429 0 0.0870417061194161 0.853827995089262 0 0.0524690331668437 0.86696410734367 0 0 0.849999999999653 0 0.043889462445438 0.826759239819513 0 0 0.8 0 0 0.750000000000347 0 0.0529380014213358 0.776889771183312 0 0.112316928024456 0.78020430794084 0 0.16253691950235 0.782849122627686 0 0.243358441913473 0.786511897933875 0 0.203590747653644 0.794224894178719 0 0.228939290247373 0.839908789927278 0 0.171018735363 0.828981264636961 0 0.132261503269228 0.813060330014371 0 0.146882743185419 0.889622656308119 0 0.181725902897639 0.918388025938889 0 0.18958721034944 0.876602973603946 0 0.221311393310948 0.904144943719832 0 0.232226438176177 0.944207511169706 0 0.200000000000832 1 0 0.18045991219398 0.960710939969875 0 0.138347219894628 0.94095916274078 0 0.150000000000624 1 0 0.350000000001456 1 0 0.363638616126136 0.966544916821213 0 0.32894624184181 0.967797018267389 0 0.300000000001248 1 0 0.25000000000104 1 0 0.287907520382944 0.946359528487026 0 0.263054145574704 0.889490620931362 0 0.307381363266577 0.90051880305435 0 0.337480267781999 0.883965456331347 0 0.342269570898513 0.926703211838588 0 0.360307484821742 0.845985299128825 0 0.306195311694726 0.85607519768343 0 0.272549978320415 0.831201948690144 0 0.286026828463086 0.779984818231176 0 0.321918283269405 0.763958045952046 0 0.327918797702134 0.808478523461202 0 0.358374234325384 0.777304469043123 0 0.387030152393619 0.80283068154762 0 0.433067836400233 0.780311982161444 0 0.466346121879671 0.767675855240614 0 0.465938389648691 0.807818728355036 0 0.497717270559088 0.839986857976418 0 0.453538915812708 0.855515233778189 0 0.43087117257049 0.821542255171277 0 0.404814523960818 0.851304212281416 0 0.378391909217271 0.890646796886144 0 0.435906739990533 0.902899020422797 0 0.487580697080494 0.890800725401865 0 0.486697770604543 0.935106668196466 0 0.44006111182841 0.956387196338908 0 0.475000000001966 0.970555092835793 0 0.450000000001872 1 0 0.395146264289732 0.939469485619852 0 0.400000000001664 1 0 0.332314974080817 0.607792187328737 0 0.371046512961454 0.605451707483111 0 0.359843205574921 0.566986062717789 0 0.358156517437794 0.511134404479091 0 0.331306197573488 0.540525641468424 0 0.302927660481639 0.514843047212215 0 0.252871394412626 0.544583554344924 0 0.304297406799597 0.569139051464601 0 0.295036992928544 0.608379012288189 0 0.256190339758569 0.598195373710169 0 0.256845292557732 0.642035542479631 0 0.273496567448602 0.675817419964087 0 0.304216353843215 0.645149391934367 0 0.257700107422386 0.749178619276552 0 0.296411157380843 0.702520508819589 0 0.292551210545191 0.739979902911732 0 0.342702801024459 0.716724167620359 0 0.322598530820738 0.676700726098352 0 0.35944937237717 0.651647898084363 0 0.405647175079827 0.65626423320525 0 0.395079699895129 0.74417394063201 0 0.386423584673078 0.692862589235973 0 0.427155383338081 0.700777593753079 0 0.447649432958942 0.737524152654017 0 0.467368917376544 0.70015537930375 0 0.490731134405986 0.737590046187304 0 0.455174570318146 0.62
[...]
<CellData Scalars="pressure_p0," Vectors="velocity_p0," Tensors="">
<DataArray type="Float64" Name="pressure_p0" format="ascii">
6.45747570165991e-07 2.20615825255018e-07 1.22518898026814e-06 6.98149852526085e-07 2.64968099086158e-07 2.62379188981184e-07 7.83361503948014e-07 2.03198711976083e-06 3.18716889361061e-06 1.96377631134902e-06 2.93965418862292e-06 8.4518197535028e-06 6.11646063834202e-06 7.02835492770074e-06 3.24737753774997e-06 2.14526416639254e-06 3.90039606069905e-07 1.61469033266089e-06 7.1385886871196e-07 1.57606010380652e-06 2.49410782667399e-07 6.89096960572503e-07 7.29359562097944e-07 2.49169595698449e-06 4.42808984907775e-06 5.08700762293848e-06 6.14434610186352e-06 2.77836652471089e-06 4.98371724461884e-06 8.53187423868964e-06 3.67981060135238e-06 3.24925694107082e-05 9.58438547366208e-06 1.66503719158838e-05 3.16494091153322e-05 1.22143245152617e-05 1.49865134224691e-05 2.54441142038425e-05 6.94185435592004e-05 4.83794234856807e-05 0.000168568594400988 0.000111534911603467 0.000171689622126063 5.56572659918553e-05 9.91779231413988e-05 0.000140555225090839 4.54808026639621e-05 2.48902565201497e-05 3.24781246040651e-05 9.80987128906124e-06 1.93670372074027e-05 1.8779469742515e-05 9.71870245178689e-06 2.77974905200524e-05 6.96298019887642e-05 4.7925095627132e-05 0.000116459223796043 0.000122476560417318 5.19426451053748e-05 6.09072558291136e-05 0.000104594821945821 0.000342229363532284 0.000199534330415557 0.000717776835775494 0.000605427436639561 0.00102567979151281 0.00130471781491587 0.0016272798247676 0.00287969512988513 0.0030218274901697 0.00194986925302224 0.00273013582561759 0.00165794892475745 0.00128801618274685 0.000811210529019586 0.000568971769963171 0.000338087990196161 0.000209149298668141 0.000286386722825475 0.000299774784302995 0.000702849284848576 0.000674461471733497 0.000396451177035713 0.000249786829916668 0.000372922830653529 0.00040866685700199 0.000656210557837733 0.000786812461801517 0.000904344407439614 0.00166819532740134 0.00205322606733049 0.00141134101436176 0.000892916497781254 0.00207793766221278 0.00200856088992348 0.00499674946803504 0.00323977095223196 0.00580748466065131 0.00338822400286434 0.0075832198077342 0.0120794183466878 0.00557771113664695 0.00342319765219184 0.00715906149937846 0.00970303967314767 0.0150632610643336 0.0127010217124339 0.0361722387781138 0.0256690549851756 0.0360648774668933 0.0158081898220529 0.0164762078596297 0.0270071850620355 0.0414288176596916 0.0280954642726726 0.0342210946457176 0.0126554300346298 0.0193000229514133 0.0166424533455853 0.0389684246614768 0.0242988242432671 0.0301540246362895 0.0203787964018627 0.00998813744492033 0.00832837437353496 0.0116891404311872 0.00442758244813131 0.00402678751070592 0.0047754822223567 0.00722045242753373 0.00659287056813348 0.00745904631627489 0.00797647746304621 0.00340310301804804 0.00590226657373605 0.00305852482570547 0.00513008877596879 0.0058396100079996 0.00360214469498046 0.0108147898524864 0.015519114353663 0.0134826589080426 0.0259136296419247 0.0382699004208251 0.0282554545685262 0.0388692191322422 0.028664996048863 0.0121789672395763 0.0166701825753469 0.0135044321882388 0.037371529168576 0.0424239416667596 0.02948918435109 0.0381238838350678 0.0144449187201594 0.0212072299418985 0.0184840778349963 0.0319905050342869 0.0185670617388105 0.010364869090701 0.00640139391569647 0.00584600160722864 0.00334294323920653 0.0037664557158482 0.00809222422646253 0.00601703856411397 0.00324110592709116 0.00077365819784986 0.000875665287935294 0.00242262004177992 0.00144536591859248 0.00157287405037212 0.00259994539040699 0.000767561658325229 0.00119206923691236 0.00131719033244292 0.000354374329883956 0.000588434226979255 0.000342715581109827 0.000246388373714147 0.000564393952787012 0.000216505576406499 0.000200360731522627 0.000282321894283843 0.000724807009436484 0.00041021314276786 0.000378708098875929 0.00128468801728227 0.00114887393132796 0.00194860942586031 0.00242300470223766 0.00202557449920493 0.00164804548208091 0.000914523127410899 0.000419323322936304 0.000725454485936575 0.000391088224100932 0.000676796059755278 0.000176500361184364 0.000300733300944615 0.000126003242281807 4.21415118462018e-05 7.25265954941674e-05 4.73204355683012e-05 7.25797207666431e-05 0.000126266727460303 0.000157795381528668 9.8622519865254e-05 9.66113817537311e-05 5.09719463231528e-05 1.83606153453959e-05 2.91687595820065e-05 2.37903788665721e-05 1.17313774951281e-05 9.76400269858296e-06 1.16866491587493e-05 2.26749930491723e-05 2.62790006961843e-05 5.24767394977355e-05 0.000147098362257006 9.86257016890079e-05 0.000129846413954677 7.66843727380299e-05 4.48263258372443e-05 7.95475641835157e-05 0.000166412476898028 5.74544082779871e-05 3.35095698904446e-05 8.81622591657149e-06 1.16991214020823e-05 2.15583646938105e-05 2.44249830102329e-05 1.29848576846299e-05 1.49794533802957e-05 2.51378802099782e-06 7.25254225744841e-06 3.55543858290506e-06 2.44181216542986e-06 7.43642797239556e-06 4.12908107236e-06 4.57451047862565e-06 2.85506573800355e-06 1.07286853556524e-06 1.45619480413663e-06 2.121882802215e-07 4.33075840771049e-07 2.03251705924247e-07 1.33168988216441e-06 6.11712549876817e-07 3.71681324198192e-07 8.98399098234078e-07 2.0889860590784e-06 3.61494916973204e-06 3.0655615687641e-06 6.8824374527706e-06 7.31518898024587e-06 3.55440184352382e-06 2.0069218490974e-06 8.03058331692462e-07 6.90976398436758e-07 2.91408710689961e-07 5.12244361585005e-07 1.10619819683198e-06 1.01766128701342e-06 1.88698991646827e-07 4.49867500453958e-07 2.38922828203477e-07 6.38426177127747e-07 1.64916716870895e-06 1.44504681550169e-06 2.26774507328676e-06 3.852123648793e-06 5.95612556484008e-06 4.70999333881476e-06 6.10644381477287e-06 4.57425662208751e-06 2.2020431543609e-06 1.42322310944364e-06 1.65962475316364e-06 6.80772690462873e-07 2.60083803467587e-07 5.93808304283352e-07 5.19803034865351e-07 2.84201162708011e-07 2.01994875841923e-07 1.14788363658513e-06 3.20647054878568e-07 5.61972973582405e-07 1.21176138571537e-06 7.65661942370153e-07 1.85168314852936e-06 2.84795861665609e-06 2.27738462898083e-06 5.86534867435174e-06 2.12555694352012e-06 1.90630130517324e-06 3.67299892977879e-06 4.17849120894023e-06 4.0452481662624e-06 5.59104109895754e-06 9.70336624072455e-06 1.68085252586757e-05 1.66647936300307e-05 3.29470865322884e-05 2.40896350937178e-05 8.62954408155523e-06 1.03307224299779e-05 3.16115515793292e-05 3.98126128375089e-05 8.19702215254427e-05 9.38319891004637e-05 0.000130363950395088 5.59151181241689e-05 5.37577046669083e-05 0.000166017474000502 0.000101449268117864 0.000136828855908753 0.000101478841648603 5.59327761685438e-05 0.000148218084744787 9.52526013240016e-05 0.000153220436049974 9.4533803027766e-05 4.59379341763442e-05 5.27285328428682e-05 3.10713448639561e-05 2.6783885668949e-05 1.3740776882307e-05 9.29760438608048e-06 1.03506811876167e-05 1.82152428948444e-05 1.19195812070214e-05 1.45440900777341e-05 3.543136609144e-05 2.82775229269379e-05 1.99117986590079e-05 6.89593578367215e-06 2.10420425967224e-06 3.18419432857413e-06 1.17783865467477e-06 2.03793216674795e-07 6.12922630339535e-07 6.69493622269292e-07 7.69965620464912e-07 2.60759294178676e-07 2.59150882064957e-07 1.89709451605452e-06 1.99882886898814e-06 3.13351127304161e-06 6.01613986294056e-06 8.30763399915425e-06 4.93338519306806e-06 6.58775438950738e-06 4.42010493711871e-06 2.32593082016999e-06 2.79486638432511e-06 1.6719612499232e-06 7.04150385988575e-07 6.98760603820096e-07 2.82001673101357e-07 1.6906825828512e-06 7.1296738387834e-07 3.52534306068374e-07 3.30993524472671e-06 3.15819615579353e-06 5.95750331900455e-06 6.52905057227474e-06 2.52871121668848e-05 1.18595482668764e-05 1.7657353790164e-05 1.11258990073869e-05 3.12275805301888e-05 4.1757804472342e-05 7.74979499313553e-05 0.000122339332232666 9.52575007863391e-05 7.28943526996434e-05 5.5437500691213e-05 0.000164954317046657 4.96649109459378e-05 2.54587930476835e-05 1.28723209349219e-05 1.50550458091293e-05 9.43819479990185e-06 1.82362047625994e-05 2.70775724546337e-05 4.88637807098074e-05 0.00012790618886756 0.000132162970322044 7.21561062752116e-05 5.18627064597389e-05 6.00522049370984e-05 0.000102340568807766 3.18357004671836e-05 1.9045927178267e-05 2.46445393608667e-05 9.63050211256879e-06 0.00163681330771237 0.00282227053333272 0.00155469685629599 0.00258644093590012 0.000899239681718818 0.00102382206884508 0.000627835216295451 0.000340803774884882 0.000201712575930538 0.000405288588921218 0.000225606489947134 0.000462828526931742 0.000811326590943053 0.00108711210382241 0.000760959894982582 0.00295657789209688 0.00186164405742106 0.00212603280573645 0.00215483205166582 0.00116578394724938 0.00125090498047178 0.000193045191688255 0.000350564559696757 0.000595750782997451 0.000718486711913179 0.00050657994387518 0.000262137089155153 0.000329999398560266 0.000226410677570564 0.000542449961367938 0.00141582851961399 0.00123024294630499 0.00208710109245698 0.00342171356657082 0.00596961368899604 0.00780267570166555 0.00942468011041541 0.0155656184653674 0.0344383522002928 0.0360550344148849 0.0286298107217659 0.0178089675432332 0.0137122967602775 0.015953783387258 0.02590162230543 0.0306561984074026 0.0108812736248558 0.0102818208069084 0.00624261587057245 0.00372636266392099 0.00352751121238553 0.00587026717185812 0.00915809717055125 0.00632904557497686 0.0196653108297606 0.0456101557485 0.0251679715095719 0.0178221054189183 0.0231584353607767 0.0393893831580589 0.0278463653037843 0.043915148232473 0.0175969239360813 0.0103412429812048 0.00689184513099902 0.00394738169602387 0.00117168366135475 0.00193059855696755 0.00189935614278428 0.00285585940260478 0.00170674363991665 0.00113288354925816 0.00117714154197538 0.000727832285720182 0.00114572481423086 0.000408864471231273 0.000291329982735241 0.000282879655054315 0.000391388002517955 0.000699455456993199 0.000698436481220797 0.000265160306931452 0.000329639737095481 0.000174520089259264 0.000553884943024263 0.000519579557044746 0.00039776054442158 0.000254107627096993 0.000357082143604779 0.000295189410540139 0.000724495860544188 0.000880450925797866 0.000892548856279148 0.00306861511568563 0.00248350317554767 0.00228972269593746 0.00141495857392774 0.00117686882624001 0.00105775941314743 0.00445013494413324 0.00368031000406158 0.00913883364449136 0.0059936649337032 0.0114683383725567 0.00885798707866427 0.00561862660281838 0.00903973167091087 0.0238401887098652 0.0241114715767987 0.0151601656565735 0.0145397035682881 0.0388235663110914 0.0190915591961818 0.0209125994430378 0.0349718507007396 0.0312882195763 0.0352854696999783 0.0265756177308329 0.0223368703356391 0.0122975556312172 0.0084049310567139 0.0102753830843466 0.00326466908854696 0.00336082196926216 0.00464637542664737 0.00429066528977421 0.00404240583740812 0.0102504979297799 0.00694417884055214 0.00855644798375334 0.0177594559502389 0.0181361761488529 0.0296486582377725 0.0849049442978422 0.0509042694074681 0.136719087162167 0.160492459316694 0.21189317633072 0.239317632818413 0.285504619664448 0.325129747938495 0.514294431952284 0.430829387659456 0.365420668592408 0.257050435239254 0.154313922288988 0.122447008634886 0.0697420141718492 0.0469696458849552 0.060764018584866 0.0471812235536608 0.0724711614666168 0.154724553983751 0.105350429401475 0.102311864343622 0.0671203371362427 0.110025141738063 0.116375982674019 0.202217449503295 0.301568653810278 0.321076892897555 0.517247481168098 0.477653545163485 0.244254520607242 0.325563085777111 0.562046274809172 1.82060674918697 1.63613316736791 0.692309349146292 1.05173189135586 0.981641184522765 0.64245105521729 1.21166347522998 1.70577038586881 1.14097989339684 2.09963291051035 2.9980629638671 3.06014880139566 3.93177902775234 2.15281706981707 4.36339664858058 4.88963605660433 2.79930673409083 3.05152900750919 3.59168730599373 4.94670364887566 3.38036478118836 2.73665913374819 2.72202068089377 1.7873684781533 1.61901909403483 1.29435328552131 0.793379987942403 0.847664278668721 0.604230229138767 0.750863021290145 1.23114036113787 1.66543258653364 1.39907922205555 0.433629175289963 0.45499263611688 0.198899167786293 0.178474302777787 0.24948091555364 0.106738882165767 0.0745994554343853 0.0872358913802843 0.0551640792701507 0.111661449870245 0.126949208099533 0.0641018367283456 0.167351763803551 0.270754466490081 0.289285377124676 0.39221925565652 0.541087578339289 0.374386752095463 0.52376937118947 0.333390733566816 0.257022462870002 0.171560126413066 0.138368739803555 0.0536231944409483 0.0773226142894105 0.0784018833562315 0.125868585929731 0.162358465074725 0.0589499542831939 0.0600479682294113 0.0824764042993259 0.138177166646095 0.208553792852121 0.279467607805177 0.515419621029795 0.338557430249816 0.80899382448565 0.964128436316834 1.54481177360433 1.7383472939442 1.9994211672327 3.96739595195146 2.82037693400035 2.98903563553543 1.88971280902953 3.5985506958654 2.92067062418062 1.93576996540734 1.57953916101678 1.08947889426127 0.800944192799929 0.830160979225587 0.851371528924725 0.579928873299864 0.964298086727135 0.629528302020544 1.16669192748349 1.67837485717043 3.679337282719 3.22535067931824 4.88536710118722 2.25040798789237 1.9139151344148 5.1455733158453 3.34388691070329 2.2014520034059 1.48612129507505 1.1888117907668 1.00373828478049 0.62644956138229 30.5070310908144 22.3012194198004 22.0040469208321 16.3864650204066 7.86107048969043 12.5244922750111 11.5685809316125 9.92651809192879 6.75225638728857 5.5562834776145 11.8119246847981 19.9519969472773 16.5676825970003 17.8198813281552 30.3514973863938 28.5636898458897 24.6545608581104 27.4081750230856 17.5204922932096 9.96612929521871 12.7494109976582 5.62914730941193 6.92061365306986 11.6491477819876 7.48244924206532 7.65078738551228 5.97404466147728 12.5303715758882 30.4511876168094 14.9676821218189 15.2698063545672 22.0616533682378 32.2101307953121 41.0003043801583 51.9692063903316 47.2600240680052 87.681127286976 62.4348001563534 79.2130941999656 61.7726843670766 78.5123239260233 91.2328204968408 78.4425825359632 48.9938539338078 46.1027876169038 38.8728162684712 32.9569493868945 36.9913815772609 58.5834126044023 48.6773393158427 58.4951020424753 91.0741288326001 91.0753368824763 78.5977836590851 80.1503798104885 92.8148692799078 82.0395000736275 69.72184062176 50.350000423845 57.5617047955976 34.9020110851356 20.4987965377501 16.1924152308944 18.130376504405 26.4854710123988 29.0700654314988 26.3193368437382 18.3708235222457 16.8585064028791 11.7606020496315 8.98730171944725 12.9829328727035 8.99631815079752 6.26129331052949 6.23848552591765 5.55429776488481 11.5342023403485 7.91128260660085 7.7362765736365 5.43784538232587 8.74913923623517 10.6180452005191 7.31470797578064 5.7338220609178 6.2054098481596 12.3952295666471 8.88147287746867 11.119739467483 17.6992776536523 23.7806436581395 25.3754072605723 14.802124366632 18.903326769505 26.1724549983716 30.259302785177 41.3088436445767 42.7237509400577 32.6787610560482 53.1681580128847 50.3399575988992 33.5712184764062 47.0259597854935 54.7473372382277 76.3597965929591 81.1687614160709 88.1750869522941 64.330344137415 69.9014189101547 65.8761660665432 92.8280566631981 92.5640010491763 85.4706701153362 90.3814810307779 77.4597507758789 79.5125280262514 46.4378888854814 57.9854988929071 33.4729733664018 33.9653121493987 57.1890746642895 48.8135010461928 45.7253155493104 71.5114061030949 70.3046951346347 83.9842727274647 85.2831617159915 93.4697359751088 91.7197232377392 80.5031035616563 64.397907156291 61.8803664323276 81.2825817573782 79.7501520174511 90.8623928392477 61.4081093207368 64.5141478597423 55.9747387450388 41.1014253674321 36.4867754845549 54.415022214709 36.1002642362671 43.7941575943136 40.8959698946173 29.8770926690927 24.4567263345047 16.889709590474 15.0698705744662 27.6359223053861 20.7967535593434 25.9435702597139 23.3335664672769 14.1112710586416 16.1557547792538 19.9981287392207 10.7084824948711 7.40287988837574 6.23494139690022 5.69317398500827 7.74351030601755 7.94605835372732 5.66294721067531 12.6510996501759 10.9547583524423 8.58006779647622 13.5424723506767 6.44891517184438 7.68068972378432 5.33152514433285 7.40203886908401 10.758989558582 10.7441041749305 15.0055544333625 28.2151441091896 22.0834416814586 21.8402169160296 27.6185026151942 30.6144474929376 14.8149879182438 17.7674492571596 33.9083227024344 54.2152586036498 48.3488436391658 56.3917470517876 42.5807332507406 36.8288369615377 42.7419013966059 44.944911178544 58.0052344893861 55.7823156329326 68.5193612764901 92.6889912907405 83.0466922655415 90.2039347263707 76.9895175405327 67.166795802973 81.6104396320792 88.7613572877348 87.7902944241265 79.3567538645712 62.5961910356672 91.2648075824792 78.462686746703 78.5589501373521 61.8333516947276 45.9158161686518 48.7166544650175 38.1713244748895 39.2530437569137 32.5355751149882 47.025728555904 50.6893732256226 69.7271919918345 92.8161982948303 82.0424682533803 80.1542714133276 78.602794113983 91.078288815004 91.0782385939407 58.5862665556081 32.8232975206847 36.9340402633643 31.1687393896669 48.7533326670077 58.6630196454793 57.5700969026803 34.9107788696549 50.3575273018308 15.9299893467938 21.3619378932341 30.4091143184626 18.812422199155 22.4646051227437 29.4599510025205 21.0303784378855 16.7049299798929 11.8473763016897 6.35263406259962 6.15117696415972 9.57332804231365 10.6350790317557 11.8503835037436 7.36678814667745 16.2376197390704 17.9127092076545 13.8272308158292 27.3922838806531 22.5175950752964 29.5165608149253 27.1376466381451 24.7708667774153 17.5986755884437 11.5768197804257 12.2186973458532 9.30989366544871 5.42253535301236 7.90792834041922 9.00316765694306 6.7334911960638 3.20614008025722 4.30803670633863 2.21768195561732 2.47777145125197 1.81193558989123 3.98313270756795 3.14134479931911 4.82556224280356 2.17988308046813 1.30437453074869 1.22070863124847 0.77451308374883 0.796731486678743 0.795874490022916 1.07496473945655 1.16952639274977 2.05753918714203 3.20164794391859 4.63405741788225 2.85148164428776 4.28067799712782 2.55549967080992 1.65736876781576 1.33802769335551 0.871739152236078 0.618102814194221 1.83821756936347 1.6141645101541 1.01790491310972 0.678634841362329 0.626785366451122 0.964849737668955 1.43581927760637 0.196943229344248 0.464468382061269 0.284059277158414 0.222971424963979 0.341985155400398 0.318043904637994 0.11157225807564 0.0892735968249041 0.048324847379878 0.123892557915564 0.0924563911524605 0.0553414096588102 0.050499694400579 0.0802278220488778 0.119070290565228 0.251828562462697 0.214062312561593 0.320587585749058 0.514603392234945 0.482183286858276 0.507926230765413 0.193040355345198 0.304784957558306 0.19591469284319 0.128883132721167 0.071822280676953 0.0825122634008718 0.0597134473078495 0.0734321595525286 0.115964377885462 0.148931584970115 0.131049571128322 0.0606909890953127 0.0880107039255665 0.0861367289342831 0.0567502866439488 0.0537185949055534 0.133055131139112 0.139085853390709 0.221701715654389 0.562353850690243 0.325820426559336 0.455738726808952 0.4822800391579 0.213324705736874 0.304283585553568 0.183324570724802 0.250701785266152 0.107522176058745 0.0939670662468365 0.0713829923317755 0.0664157534420887 0.0709095784558337 0.0951697822215519 0.0687503892785244 0.0945471013800452 0.0960581320667151 0.170384909131228 0.16782940836895 0.2203415678649 0.362287334611457 0.509857509175994 0.519417222474285 0.182479076396002 0.24679930352063 0.442018404266693 0.71380218738546 0.702368496650592 1.24657862560464 0.818360444146381 0.793601723727882 1.7593277040428 1.24025954539099 1.29229634153641 2.88702395292207 3.66330539585446 1.82246662101958 1.81727635789566 2.87943202731174 3.69425315205675 3.78606502283238 3.26241474253814 2.90060538255271 2.25702934938553 2.35028823408784 5.111023161175 3.22587093982781 3.55052075785336 3.98193243677946 1.89807284531361 1.55583519372072 1.61287453532357 0.691245445824258 0.708494421008888 1.06807612641855 1.26235700151748 1.3695356761625 
</DataArray>