<?xml version="1.0"?>
<VTKFile type="UnstructuredGrid" version="0.1" byte_order="LittleEndian">
<UnstructuredGrid>
<Piece NumberOfPoints="2826" NumberOfCells="942">
<Points>
<DataArray type="Float64" NumberOfComponents="3" format="ascii">
0.7413313480 0.8002100180 0.0000000000 0.6801241823 0.8025010803 0.0000000000 0.7010514649 0.7589444484 0.0000000000 0.8442301104 0.3538749578 0.0000000000 0.7981107540 0.3231402753 0.0000000000 0.8412154335 0.2965068605 0.0000000000 0.3538278728 0.1557911475 0.0000000000 0.3233041140 0.2019781441 0.0000000000 0.2965646892 0.1588397902 0.0000000000 0.7969355554 0.2599283572 0.0000000000 0.8412154335 0.2965068605 0.0000000000 0.7981107540 0.3231402753 0.0000000000 0.2601573955 0.2032887120 0.0000000000 0.2965646892 0.1588397902 0.0000000000 0.3233041140 0.2019781441 0.0000000000 0.5263157895 1.0000000000 0.0000000000 0.4943139553 0.9409016291 0.0000000000 0.5629513798 0.9447397561 0.0000000000 0.0000000000 0.5263157895 0.0000000000 0.0590530286 0.4944441505 0.0000000000 0.0546415226 0.5587039834 0.0000000000 1.0000000000 0.4736842105 0.0000000000 0.9408580096 0.5056788103 0.0000000000 0.9471034602 0.4395077930 0.0000000000 0.4736842105 0.0000000000 0.0000000000 0.5047168037 0.0589189269 0.0000000000 0.4393112436 0.0528147200 0.0000000000 0.8148084432 0.9173646744 0.0000000000 0.8547968568 0.8889611992 0.0000000000 0.8636388714 0.9481675076 0.0000000000 0.0819302273 0.8170428637 0.0000000000 0.1110961061 0.8554876228 0.0000000000 0.0516597036 0.8642762078 0.0000000000 0.9119896092 0.9102720625 0.0000000000 0.8636388714 0.9481675076 0.0000000000 0.8547968568 0.8889611992 0.0000000000 0.9171677859 0.1851961556 0.0000000000 0.8887937985 0.1452213095 0.0000000000 0.9481214973 0.1363625186 0.0000000000 0.1851973117 0.0828338520 0.0000000000 0.1452231897 0.1112102253 0.0000000000 0.1363627066 0.0518788926 0.0000000000 0.9102468583 0.0880130684 0.0000000000 0.9481214973 0.1363625186 0.0000000000 0.8887937985 0.1452213095 0.0000000000 0.0897343788 0.9121438966 0.0000000000 0.0516597036 0.8642762078 0.0000000000 0.1110961061 0.8554876228 0.0000000000 0.0880131637 0.0897536600 0.0000000000 0.1363627066 0.0518788926 0.0000000000 0.1452231897 0.1112102253 0.0000000000 0.3013163295 0.6425649129 0.0000000000 0.3227338486 0.5826847562 0.0000000000 0.3556330933 0.6148754420 0.0000000000 0.2526256040 0.3975874155 0.0000000000 0.3058646279 0.4127057099 0.0000000000 0.2669156741 0.4584655112 0.0000000000 0.5383039123 0.4303135892 0.0000000000 0.5373202520 0.3838525131 0.0000000000 0.5856484749 0.4058776876 0.0000000000 0.5735593045 0.3536319981 0.0000000000 0.5856484749 0.4058776876 0.0000000000 0.5373202520 0.3838525131 0.0000000000 0.6717156186 0.4405849434 0.0000000000 0.7071784332 0.4729864062 0.0000000000 0.6524396050 0.5025635829 0.0000000000 0.2090376375 0.4932213369 0.0000000000 0.1702564096 0.5393277155 0.0000000000 0.1539860543 0.4947993341 0.0000000000 0.7413313480 0.8002100180 0.0000000000 0.7037442918 0.8442507680 0.0000000000 0.6801241823 0.8025010803 0.0000000000 0.5263157895 1.0000000000 0.0000000000 0.4736842105 1.0000000000 0.0000000000 0.4943139553 0.9409016291 0.0000000000 0.0000000000 0.5263157895 0.0000000000 0.0000000000 0.4736842105 0.0000000000 0.0590530286 0.4944441505 0.0000000000 1.0000000000 0.4736842105 0.0000000000 1.0000000000 0.5263157895 0.0000000000 0.9408580096 0.5056788103 0.0000000000 0.4736842105 0.0000000000 0.0000000000 0.5263157895 0.0000000000 0.0000000000 0.5047168037 0.0589189269 0.0000000000 0.7456944267 0.6054192113 0.0000000000 0.8054113927 0.6156612864 0.0000000000 0.7692870387 0.6580569606 0.0000000000 0.6036739638 0.2580577154 0.0000000000 0.6178391402 0.1969024650 0.0000000000 0.6577303797 0.2333412512 0.0000000000 0.3013163295 0.6425649129 0.0000000000 0.2740944992 0.5914071967 0.0000000000 0.3227338486 0.5826847562 0.0000000000 0.3986146133 0.7424921969 0.0000000000 0.3851272263 0.8032718273 0.0000000000 0.3439030435 0.7673147610 0.0000000000 0.2526256040 0.3975874155 0.0000000000 0.1954637259 0.3850797439 0.0000000000 0.2337977070 0.3452302080 0.0000000000 0.2090376375 0.4932213369 0.0000000000 0.2187724135 0.5448451405 0.0000000000 0.1702564096 0.5393277155 0.0000000000 0.6717156186 0.4405849434 0.0000000000 0.6524396050 0.5025635829 0.0000000000 0.6186627353 0.4501985566 0.0000000000 0.2526256040 0.3975874155 0.0000000000 0.2337977070 0.3452302080 0.0000000000 0.2964700157 0.3503110999 0.0000000000 0.1373507544 0.5925988455 0.0000000000 0.1015426715 0.6494477783 0.0000000000 0.0789709090 0.6028302377 0.0000000000 0.2669156741 0.4584655112 0.0000000000 0.3058646279 0.4127057099 0.0000000000 0.3194845470 0.4559624396 0.0000000000 0.1097808296 0.7371382787 0.0000000000 0.0532576629 0.7169334366 0.0000000000 0.0926616774 0.6942368305 0.0000000000 0.4904508362 0.7801934075 0.0000000000 0.5417492775 0.8018380552 0.0000000000 0.5021370658 0.8399656600 0.0000000000 0.6175845116 0.9319919374 0.0000000000 0.6407791083 0.8973518135 0.0000000000 0.6702958421 0.9373030272 0.0000000000 0.9255057118 0.3890409796 0.0000000000 0.8915155390 0.3597864533 0.0000000000 0.9349620057 0.3308613031 0.0000000000 0.3890099736 0.0744681044 0.0000000000 0.3597623988 0.1084845991 0.0000000000 0.3308614576 0.0650330767 0.0000000000 0.6175845116 0.9319919374 0.0000000000 0.6702958421 0.9373030272 0.0000000000 0.6417310243 0.9671288941 0.0000000000 0.9255057118 0.3890409796 0.0000000000 0.9349620057 0.3308613031 0.0000000000 0.9653088962 0.3601104834 0.0000000000 0.3890099736 0.0744681044 0.0000000000 0.3308614576 0.0650330767 0.0000000000 0.3601046669 0.0346816690 0.0000000000 0.6842105263 1.0000000000 0.0000000000 0.6417310243 0.9671288941 0.0000000000 0.6702958421 0.9373030272 0.0000000000 0.0000000000 0.6842105263 0.0000000000 0.0461631074 0.6413840233 0.0000000000 0.0594357951 0.6774639068 0.0000000000 1.0000000000 0.3157894737 0.0000000000 0.9653088962 0.3601104834 0.0000000000 0.9349620057 0.3308613031 0.0000000000 0.3157894737 0.0000000000 0.0000000000 0.3601046669 0.0346816690 0.0000000000 0.3308614576 0.0650330767 0.0000000000 0.5298510827 0.8903072263 0.0000000000 0.5629513798 0.9447397561 0.0000000000 0.4943139553 0.9409016291 0.0000000000 0.1120056137 0.5338419728 0.0000000000 0.0546415226 0.5587039834 0.0000000000 0.0590530286 0.4944441505 0.0000000000 0.8894165756 0.4638068483 0.0000000000 0.9471034602 0.4395077930 0.0000000000 0.9408580096 0.5056788103 0.0000000000 0.4632945750 0.1103450880 0.0000000000 0.4393112436 0.0528147200 0.0000000000 0.5047168037 0.0589189269 0.0000000000 0.6442503794 0.8477860074 0.0000000000 0.5898258994 0.8831838526 0.0000000000 0.5894279070 0.8246736845 0.0000000000 0.5685839254 0.5461885801 0.0000000000 0.5607710279 0.5900831967 0.0000000000 0.5107715192 0.5590023699 0.0000000000 0.5021370658 0.8399656600 0.0000000000 0.5417492775 0.8018380552 0.0000000000 0.5502194171 0.8479157889 0.0000000000 0.2966662121 0.2959264449 0.0000000000 0.2964700157 0.3503110999 0.0000000000 0.2584702543 0.3099614564 0.0000000000 0.2337977070 0.3452302080 0.0000000000 0.2584702543 0.3099614564 0.0000000000 0.2964700157 0.3503110999 0.0000000000 0.5220654276 0.6141524474 0.0000000000 0.5107715192 0.5590023699 0.0000000000 0.5607710279 0.5900831967 0.0000000000 0.2560221215 0.8868905326 0.0000000000 0.2946150598 0.9449976102 0.0000000000 0.2307060818 0.9468245512 0.0000000000 0.1133293095 0.2559204779 0.0000000000 0.0550207403 0.2946055851 0.0000000000 0.0532196150 0.2306803734 0.0000000000 0.8870421035 0.7443260052 0.0000000000 0.9453659109 0.7056557688 0.0000000000 0.9468802463 0.7693913977 0.0000000000 0.7441524248 0.1133215929 0.0000000000 0.7054091900 0.0550259047 0.0000000000 0.7693312133 0.0532194446 0.0000000000 0.6842105263 1.0000000000 0.0000000000 0.6702958421 0.9373030272 0.0000000000 0.7134655097 0.9599221739 0.0000000000 0.0000000000 0.6842105263 0.0000000000 0.0594357951 0.6774639068 0.0000000000 0.0532576629 0.7169334366 0.0000000000 1.0000000000 0.3157894737 0.0000000000 0.9349620057 0.3308613031 0.0000000000 0.9592233649 0.2867720494 0.0000000000 0.3157894737 0.0000000000 0.0000000000 0.3308614576 0.0650330767 0.0000000000 0.2867731576 0.0407760521 0.0000000000 0.1097808296 0.7371382787 0.0000000000 0.0558367849 0.7710124882 0.0000000000 0.0532576629 0.7169334366 0.0000000000 0.6175845116 0.9319919374 0.0000000000 0.5629513798 0.9447397561 0.0000000000 0.5898258994 0.8831838526 0.0000000000 0.4994038311 0.7021237462 0.0000000000 0.4485239584 0.6886687818 0.0000000000 0.4788596464 0.6459279935 0.0000000000 0.5298510827 0.8903072263 0.0000000000 0.5898258994 0.8831838526 0.0000000000 0.5629513798 0.9447397561 0.0000000000 0.5788102955 0.6772719207 0.0000000000 0.6102458089 0.6452885547 0.0000000000 0.6298128057 0.6944180728 0.0000000000 0.6609118455 0.6451882343 0.0000000000 0.6298128057 0.6944180728 0.0000000000 0.6102458089 0.6452885547 0.0000000000 0.1373507544 0.5925988455 0.0000000000 0.1544872402 0.6467685509 0.0000000000 0.1015426715 0.6494477783 0.0000000000 0.4904508362 0.7801934075 0.0000000000 0.4368419356 0.7840542839 0.0000000000 0.4566368035 0.7354877919 0.0000000000 0.2090376375 0.4932213369 0.0000000000 0.2126612943 0.4369626059 0.0000000000 0.2669156741 0.4584655112 0.0000000000 0.8359800583 0.4984676665 0.0000000000 0.7864384347 0.5076595772 0.0000000000 0.7916397610 0.4637017361 0.0000000000 0.5065362678 0.2135556813 0.0000000000 0.4621482740 0.2098668258 0.0000000000 0.4973476932 0.1635399675 0.0000000000 0.8870421035 0.7443260052 0.0000000000 0.8802205298 0.8004272696 0.0000000000 0.8363412329 0.7795336412 0.0000000000 0.7441524248 0.1133215929 0.0000000000 0.8002267018 0.1198952700 0.0000000000 0.7789283345 0.1639573842 0.0000000000 0.2560221215 0.8868905326 0.0000000000 0.2000026998 0.8804044836 0.0000000000 0.2217687536 0.8369864222 0.0000000000 0.1133293095 0.2559204779 0.0000000000 0.1199031287 0.1998023624 0.0000000000 0.1640021223 0.2211789400 0.0000000000 0.3986146133 0.7424921969 0.0000000000 0.343903043
[...]
<PointData Scalars="1_conc,2_conc," Vectors="" Tensors="1_diff_m,2_diff_m,">
<DataArray type="Float64" Name="1_diff_m" NumberOfComponents="9" format="ascii">
0.0400000000 0.0200000000 0.0000000000 0.0200000000 0.0100000000 0.0000000000 0.0000000000 0.0000000000 0.0000000000 0.0400000000 0.0200000000 0.0000000000 0.0200000000 0.0100000000 0.0000000000 0.0000000000 0.0000000000 0.0000000000 0.0400000000 0.0200000000 0.0000000000 0.0200000000 0.0100000000 0.0000000000 0.0000000000 0.0000000000 0.0000000000 0.0400000000 0.0200000000 0.0000000000 0.0200000000 0.0100000000 0.0000000000 0.0000000000 0.0000000000 0.0000000000 0.0400000000 0.0200000000 0.0000000000 0.0200000000 0.0100000000 0.0000000000 0.0000000000 0.0000000000 0.0000000000 0.0400000000 0.0200000000 0.0000000000 0.0200000000 0.0100000000 0.0000000000 0.0000000000 0.0000000000 0.0000000000 0.0400000000 0.0200000000 0.0000000000 0.0200000000 0.0100000000 0.0000000000 0.0000000000 0.0000000000 0.0000000000 0.0400000000 0.0200000000 0.0000000000 0.0200000000 0.0100000000 0.0000000000 0.0000000000 0.0000000000 0.0000000000 0.0400000000 0.0200000000 0.0000000000 0.0200000000 0.0100000000 0.0000000000 0.0000000000 0.0000000000 0.0000000000 0.0400000000 0.0200000000 0.0000000000 0.0200000000 0.0100000000 0.0000000000 0.0000000000 0.0000000000 0.0000000000 0.0400000000 0.0200000000 0.0000000000 0.0200000000 0.0100000000 0.0000000000 0.0000000000 0.0000000000 0.0000000000 0.0400000000 0.0200000000 0.0000000000 0.0200000000 0.0100000000 0.0000000000 0.0000000000 0.0000000000 0.0000000000 0.0400000000 0.0200000000 0.0000000000 0.0200000000 0.0100000000 0.0000000000 0.0000000000 0.0000000000 0.0000000000 0.0400000000 0.0200000000 0.0000000000 0.0200000000 0.0100000000 0.0000000000 0.0000000000 0.0000000000 0.0000000000 0.0400000000 0.0200000000 0.0000000000 0.0200000000 0.0100000000 0.0000000000 0.0000000000 0.0000000000 0.0000000000 0.0400000000 0.0200000000 0.0000000000 0.0200000000 0.0100000000 0.0000000000 0.0000000000 0.0000000000 0.0000000000 0.0400000000 0.0200000000 0.0000000000 0.0200000000 0.0100000000 0.0000000000 0.0000000000 0.0000000000 0.0000000000 0.0400000000 0.0200000000 0.0000000000 0.0200000000 0.0100000000 0.0000000000 0.0000000000 0.0000000000 0.0000000000 0.0400000000 0.0200000000 0.0000000000 0.0200000000 0.0100000000 0.0000000000 0.0000000000 0.0000000000 0.0000000000 0.0400000000 0.0200000000 0.0000000000 0.0200000000 0.0100000000 0.0000000000 0.0000000000 0.0000000000 0.0000000000 0.0400000000 0.0200000000 0.0000000000 0.0200000000 0.0100000000 0.0000000000 0.0000000000 0.0000000000 0.0000000000 0.0400000000 0.0200000000 0.0000000000 0.0200000000 0.0100000000 0.0000000000 0.0000000000 0.0000000000 0.0000000000 0.0400000000 0.0200000000 0.0000000000 0.0200000000 0.0100000000 0.0000000000 0.0000000000 0.0000000000 0.0000000000 0.0400000000 0.0200000000 0.0000000000 0.0200000000 0.0100000000 0.0000000000 0.0000000000 0.0000000000 0.0000000000 0.0400000000 0.0200000000 0.0000000000 0.0200000000 0.0100000000 0.0000000000 0.0000000000 0.0000000000 0.0000000000 0.0400000000 0.0200000000 0.0000000000 0.0200000000 0.0100000000 0.0000000000 0.0000000000 0.0000000000 0.0000000000 0.0400000000 0.0200000000 0.0000000000 0.0200000000 0.0100000000 0.0000000000 0.0000000000 0.0000000000 0.0000000000 0.0400000000 0.0200000000 0.0000000000 0.0200000000 0.0100000000 0.0000000000 0.0000000000 0.0000000000 0.0000000000 0.0400000000 0.0200000000 0.0000000000 0.0200000000 0.0100000000 0.0000000000 0.0000000000 0.0000000000 0.0000000000 0.0400000000 0.0200000000 0.0000000000 0.0200000000 0.0100000000 0.0000000000 0.0000000000 0.0000000000 0.0000000000 0.0400000000 0.0200000000 0.0000000000 0.0200000000 0.0100000000 0.0000000000 0.0000000000 0.0000000000 0.0000000000 0.0400000000 0.0200000000 0.0000000000 0.0200000000 0.0100000000 0.0000000000 0.0000000000 0.0000000000 0.0000000000 0.0400000000 0.0200000000 0.0000000000 0.0200000000 0.0100000000 0.0000000000 0.0000000000 0.0000000000 0.0000000000 0.0400000000 0.0200000000 0.0000000000 0.0200000000 0.0100000000 0.0000000000 0.0000000000 0.0000000000 0.0000000000 0.0400000000 0.0200000000 0.0000000000 0.0200000000 0.0100000000 0.0000000000 0.0000000000 0.0000000000 0.0000000000 0.0400000000 0.0200000000 0.0000000000 0.0200000000 0.0100000000 0.0000000000 0.0000000000 0.0000000000 0.0000000000 0.0400000000 0.0200000000 0.0000000000 0.0200000000 0.0100000000 0.0000000000 0.0000000000 0.0000000000 0.0000000000 0.0400000000 0.0200000000 0.0000000000 0.0200000000 0.0100000000 0.0000000000 0.0000000000 0.0000000000 0.0000000000 0.0400000000 0.0200000000 0.0000000000 0.0200000000 0.0100000000 0.0000000000 0.0000000000 0.0000000000 0.0000000000 0.0400000000 0.0200000000 0.0000000000 0.0200000000 0.0100000000 0.0000000000 0.0000000000 0.0000000000 0.0000000000 0.0400000000 0.0200000000 0.0000000000 0.0200000000 0.0100000000 0.0000000000 0.0000000000 0.0000000000 0.0000000000 0.0400000000 0.0200000000 0.0000000000 0.0200000000 0.0100000000 0.0000000000 0.0000000000 0.0000000000 0.0000000000 0.0400000000 0.0200000000 0.0000000000 0.0200000000 0.0100000000 0.0000000000 0.0000000000 0.0000000000 0.0000000000 0.0400000000 0.0200000000 0.0000000000 0.0200000000 0.0100000000 0.0000000000 0.0000000000 0.0000000000 0.0000000000 0.0400000000 0.0200000000 0.0000000000 0.0200000000 0.0100000000 0.0000000000 0.0000000000 0.0000000000 0.0000000000 0.0400000000 0.0200000000 0.0000000000 0.0200000000 0.0100000000 0.0000000000 0.0000000000 0.0000000000 0.0000000000 0.0400000000 0.0200000000 0.0000000000 0.0200000000 0.0100000000 0.0000000000 0.0000000000 0.0000000000 0.0000000000 0.0400000000 0.0200000000 0.0000000000 0.0200000000 0.0100000000 0.0000000000 0.0000000000 0.0000000000 0.0000000000 0.0400000000 0.0200000000 0.0000000000 0.0200000000 0.0100000000 0.0000000000 0.0000000000 0.0000000000 0.0000000000 0.0400000000 0.0200000000 0.0000000000 0.0200000000 0.0100000000 0.0000000000 0.0000000000 0.0000000000 0.0000000000 0.0400000000 0.0200000000 0.0000000000 0.0200000000 0.0100000000 0.0000000000 0.0000000000 0.0000000000 0.0000000000 0.0400000000 0.0200000000 0.0000000000 0.0200000000 0.0100000000 0.0000000000 0.0000000000 0.0000000000 0.0000000000 0.0400000000 0.0200000000 0.0000000000 0.0200000000 0.0100000000 0.0000000000 0.0000000000 0.0000000000 0.0000000000 0.0400000000 0.0200000000 0.0000000000 0.0200000000 0.0100000000 0.0000000000 0.0000000000 0.0000000000 0.0000000000 0.0400000000 0.0200000000 0.0000000000 0.0200000000 0.0100000000 0.0000000000 0.0000000000 0.0000000000 0.0000000000 0.0400000000 0.0200000000 0.0000000000 0.0200000000 0.0100000000 0.0000000000 0.0000000000 0.0000000000 0.0000000000 0.0400000000 0.0200000000 0.0000000000 0.0200000000 0.0100000000 0.0000000000 0.0000000000 0.0000000000 0.0000000000 0.0400000000 0.0200000000 0.0000000000 0.0200000000 0.0100000000 0.0000000000 0.0000000000 0.0000000000 0.0000000000 0.0400000000 0.0200000000 0.0000000000 0.0200000000 0.0100000000 0.0000000000 0.0000000000 0.0000000000 0.0000000000 0.0400000000 0.0200000000 0.0000000000 0.0200000000 0.0100000000 0.0000000000 0.0000000000 0.0000000000 0.0000000000 0.0400000000 0.0200000000 0.0000000000 0.0200000000 0.0100000000 0.0000000000 0.0000000000 0.0000000000 0.0000000000 0.0400000000 0.0200000000 0.0000000000 0.0200000000 0.0100000000 0.0000000000 0.0000000000 0.0000000000 0.0000000000 0.0400000000 0.0200000000 0.0000000000 0.0200000000 0.0100000000 0.0000000000 0.0000000000 0.0000000000 0.0000000000 0.0400000000 0.0200000000 0.0000000000 0.0200000000 0.0100000000 0.0000000000 0.0000000000 0.0000000000 0.0000000000 0.0400000000 0.0200000000 0.0000000000 0.0200000000 0.0100000000 0.0000000000 0.0000000000 0.0000000000 0.0000000000 0.0400000000 0.0200000000 0.0000000000 0.0200000000 0.0100000000 0.0000000000 0.0000000000 0.0000000000 0.0000000000 0.0400000000 0.0200000000 0.0000000000 0.0200000000 0.0100000000 0.0000000000 0.0000000000 0.0000000000 0.0000000000 0.0400000000 0.0200000000 0.0000000000 0.0200000000 0.0100000000 0.0000000000 0.0000000000 0.0000000000 0.0000000000 0.0400000000 0.0200000000 0.0000000000 0.0200000000 0.0100000000 0.0000000000 0.0000000000 0.0000000000 0.0000000000 0.0400000000 0.0200000000 0.0000000000 0.0200000000 0.0100000000 0.0000000000 0.0000000000 0.0000000000 0.0000000000 0.0400000000 0.0200000000 0.0000000000 0.0200000000 0.0100000000 0.0000000000 0.0000000000 0.0000000000 0.0000000000 0.0400000000 0.0200000000 0.0000000000 0.0200000000 0.0100000000 0.0000000000 0.0000000000 0.0000000000 0.0000000000 0.0400000000 0.0200000000 0.0000000000 0.0200000000 0.0100000000 0.0000000000 0.0000000000 0.0000000000 0.0000000000 0.0400000000 0.0200000000 0.0000000000 0.0200000000 0.0100000000 0.0000000000 0.0000000000 0.0000000000 0.0000000000 0.0400000000 0.0200000000 0.0000000000 0.0200000000 0.0100000000 0.0000000000 0.0000000000 0.0000000000 0.0000000000 0.0400000000 0.0200000000 0.0000000000 0.0200000000 0.0100000000 0.0000000000 0.0000000000 0.0000000000 0.0000000000 0.0400000000 0.0200000000 0.0000000000 0.0200000000 0.0100000000 0.0000000000 0.0000000000 0.0000000000 0.0000000000 0.0400000000 0.0200000000 0.0000000000 0.0200000000 0.0100000000 0.0000000000 0.0000000000 0.0000000000 0.0000000000 0.0400000000 0.0200000000 0.0000000000 0.0200000000 0.0100000000 0.0000000000 0.0000000000 0.0000000000 0.0000000000 0.0400000000 0.0200000000 0.0000000000 0.0200000000 0.0100000000 0.0000000000 0.0000000000 0.0000000000 0.0000000000 0.0400000000 0.0200000000 0.0000000000 0.0200000000 0.0100000000 0.0000000000 0.0000000000 0.0000000000 0.0000000000 0.0400000000 0.0200000000 0.0000000000 0.0200000000 0.0100000000 0.0000000000 0.0000000000 0.0000000000 0.0000000000 0.0400000000 0.0200000000 0.0000000000 0.0200000000 0.0100000000 0.0000000000 0.0000000000 0.0000000000 0.0000000000 0.0400000000 0.0200000000 0.0000000000 0.0200000000 0.0100000000 0.0000000000 0.0000000000 0.0000000000 0.0000000000 0.0400000000 0.0200000000 0.0000000000 0.0200000000 0.0100000000 0.0000000000 0.0000000000 0.0000000000 0.0000000000 0.0400000000 0.0200000000 0.0000000000 0.0200000000 0.0100000000 0.0000000000 0.0000000000 0.0000000000 0.0000000000 0.0400000000 0.0200000000 0.0000000000 0.0200000000 0.0100000000 0.0000000000 0.0000000000 0.0000000000 0.0000000000 0.0400000000 0.0200000000 0.0000000000 0.0200000000 0.0100000000 0.0000000000 0.0000000000 0.0000000000 0.0000000000 0.0400000000 0.0200000000 0.0000000000 0.0200000000 0.0100000000 0.0000000000 0.0000000000 0.0000000000 0.0000000000 0.0400000000 0.0200000000 0.0000000000 0.0200000000 0.0100000000 0.0000000000 0.0000000000 0.0000000000 0.0000000000 0.0400000000 0.0200000000 0.0000000000 0.0200000000 0.0100000000 0.0000000000 0.0000000000 0.0000000000 0.0000000000 0.0400000000 0.0200000000 0.0000000000 0.0200000000 0.0100000000 0.0000000000 0.0000000000 0.0000000000 0.0000000000 0.0400000000 0.0200000000 0.0000000000 0.0200000000 0.0100000000 0.0000000000 0.0000000000 0.0000000000 0.0000000000 0.0400000000 0.0200000000 0.0000000000 0.0200000000 0.0100000000 0.0000000000 0.0000000000 0.0000000000 0.0000000000 0.0400000000 0.0200000000 0.0000000000 0.0200000000 0.0100000000 0.0000000000 0.0000000000 0.0000000000 0.0000000000 0.0400000000 0.0200000000 0.0000000000 0.0200000000 0.0100000000 0.0000000000 0.0000000000 0.0000000000 0.0000000000 0.0400000000 0.0200000000 0.0000000000 0.0200000000 0.0100000000 0.0000000000 0.0000000000 0.0000000000 0.0000000000 0.0400000000 0.0200000000 0.0000000000 0.0200000000 0.0100000000 0.0000000000 0.0000000000 0.0000000000 0.0000000000 0.0400000000 0.0200000000 0.0000000000 0.0200000000 0.0100000000 0.0000000000 0.0000000000 0.0000000000 0.0000000000 0.0400000000 0.0200000000 0.0000000000 0.0200000000 0.0100000000 0.0000000000 0.0000000000 0.0000000000 0.0000000000 0.0400000000 0.0200000000 0.0000000000 0.0200000000 0.0100000000 0.0000000000 0.0000000000 0.0000000000 0.0000000000 0.0400000000 0.0200000000 0.0000000000 0.0200000000 0.0100000000 0.0000000000 0.0000000000 0.0000000000 0.0000000000 0.0400000000 0.0200000000 0.0000000000 0.0200000000 0.0100000000 0.0000000000 0.0000000000 0.0000000000 0.0000000000 0.0400000000 0.0200000000 0.0000000000 0.0200000000 0.0100000000 0.0000000000 0.0000000000 0.0000000000 0.0000000000 0.0400000000 0.0200000000 0.0000000000 0.0200000000 0.0100000000 0.0000000000 0.0000000000 0.0000000000 0.0000000000 0.0400000000 0.0200000000 0.0000000000 0.0200000000 0.0100000000 0.0000000000 0.0000000000 0.0000000000 0.0000000000 0.0400000000 0.0200000000 0.0000000000 0.0200000000 0.0100000000 0.0000000000 0.0000000000 0.0000000000 0.0000000000 0.0400000000 0.0200000000 0.0000000000 0.0200000000 0.0100000000 0.0000000000 0.0000000000 0.0000000000 0.0000000000 0.0400000000 0.0200000000 0.0000000000 0.0200000000 0.0100000000 0.0000000000 0.0000000000 0.0000000000 0.0000000000 0.0400000000 0.0200000000 0.0000000000 0.0200000000 0.0100000000 0.0000000000 0.0000000000 0.0000000000 0.0000000000 0.0400000000 0.0200000000 0.0000000000 0.0200000000 0.0100000000 0.0000000000 0.0000000000 0.0000000000 0.0000000000 0.0400000000 0.0200000000 0.0000000000 0.0200000000 0.0100000000 0.0000000000 0.0000000000 0.0000000000 0.0000000000 0.0400000000 0.0200000000 0.0000000000 0.0200000000 0.0100000000 0.0000000000 0.0000000000 0.0000000000 0.0000000000 0.0400000000 0.0200000000 0.0000000000 0.0200000000 0.0100000000 0.0000000000 0.0000000000 0.0000000000 0.0000000000 0.0400000000 0.0200000000 0.0000000000 0.0200000000 0.0100000000 0.0000000000 0.0000000000 0.0000000000 0.0000000000 0.0400000000 0.0200000000 0.0000000000 0.0200000000 0.0100000000 0.0000000000 0.0000000000 0.0000000000 0.0000000000 0.0400000000 0.0200000000 0.0000000000 0.0200000000 0.0100000000 0.0000000000 0.0000000000 0.0000000000 0.0000000000 0.0400000000 0.0200000000 0.0000000000 0.0200000000 0.0100000000 0.0000000000 0.0000000000 0.0000000000 0.0000000000 0.0400000000 0.0200000000 0.0000000000 0.0200000000 0.0100000000 0.0000000000 0.0000000000 0.0000000000 0.0000000000 0.0400000000 0.0200000000 0.0000000000 0.0200000000 0.0100000000 0.0000000000 0.0000000000 0.0000000000 0.0000000000 0.0400000000 0.0200000000 0.0000000000 0.0200000000 0.0100000000 0.0000000000 0.0000000000 0.0000000000 0.0000000000 0.0400000000 0.0200000000 0.0000000000 0.0200000000 0.0100000000 0.0000000000 0.0000000000 0.0000000000 0.0000000000 0.0400000000 0.0200000000 0.0000000000 0.0200000000 0.0100000000 0.0000000000 0.0000000000 0.0000000000 0.0000000000 0.0400000000 0.0200000000 0.0000000000 0.0200000000 0.0100000000 0.0000000000 0.0000000000 0.0000000000 0.0000000000 0.0400000000 0.0200000000 0.0000000000 0.0200000000 0.0100000000 0.0000000000 0.0000000000 0.0000000000 0.0000000000 0.0400000000 0.0200000000 0.0000000000 0.0200000000 0.0100000000 0.0000000000 0.0000000000 0.0000000000 0.0000000000 0.0400000000 0.0200000000 0.0000000000 0.0200000000 0.0100000000 0.0000000000 0.0000000000 0.0000000000 0.0000000000 0.0400000000 0.0200000000 0.0000000000 0.0200000000 0.0100000000 0.0000000000 0.0000000000 0.0000000000 0.0000000000 0.0400000000 0.0200000000 0.0000000000 0.0200000000 0.0100000000 0.0000000000 0.0000000000 0.0000000000 0.0000000000 0.0400000000 0.0200000000 0.0000000000 0.0200000000 0.0100000000 0.0000000000 0.0000000000 0.0000000000 0.0000000000 0.0400000000 0.0200000000 0.0000000000 0.0200000000 0.0100000000 0.0000000000 0.0000000000 0.0000000000 0.0000000000 0.0400000000 0.0200000000 0.0000000000 0.0200000000 0.0100000000 0.0000000000 0.0000000000 0.0000000000 0.0000000000 0.0400000000 0.0200000000 0.0000000000 0.0200000000 0.0100000000 0.0000000000 0.0000000000 0.0000000000 0.0000000000 0.0400000000 0.0200000000 0.0000000000 0.0200000000 0.0100000000 0.0000000000 0.0000000000 0.0000000000 0.0000000000 0.0400000000 0.0200000000 0.0000000000 0.0200000000 0.0100000000 0.0000000000 0.0000000000 0.0000000000 0.0000000000 0.0400000000 0.0200000000 0.0000000000 0.0200000000 0.0100000000 0.0000000000 0.0000000000 0.0000000000 0.0000000000 0.0400000000 0.0200000000 0.0000000000 0.0200000000 0.0100000000 0.0000000000 0.0000000000 0.0000000000 0.0000000000 0.0400000000 0.0200000000 0.0000000000 0.0200000000 0.0100000000 0.0000000000 0.0000000000 0.0000000000 0.0000000000 0.0400000000 0.0200000000 0.0000000000 0.0200000000 0.0100000000 0.0000000000 0.0000000000 0.0000000000 0.0000000000 0.0400000000 0.0200000000 0.0000000000 0.0200000000 0.0100000000 0.0000000000 0.0000000000 0.0000000000 0.0000000000 0.0400000000 0.0200000000 0.0000000000 0.0200000000 0.0100000000 0.0000000000 0.0000000000 0.0000000000 0.0000000000 0.0400000000 0.0200000000 0.0000000000 0.0200000000 0.0100000000 0.0000000000 0.0000000000 0.0000000000 0.0000000000 0.0400000000 0.0200000000 0.0000000000 0.0200000000 0.0100000000 0.0000000000 0.0000000000 0.0000000000 0.0000000000 0.0400000000 0.0200000000 0.0000000000 0.0200000000 0.0100000000 0.0000000000 0.0000000000 0.0000000000 0.0000000000 0.0400000000 0.0200000000 0.0000000000 0.0200000000 0.0100000000 0.0000000000 0.0000000000 0.0000000000 0.0000000000 0.0400000000 0.0200000000 0.0000000000 0.0200000000 0.0100000000 0.0000000000 0.0000000000 0.0000000000 0.0000000000 0.0400000000 0.0200000000 0.0000000000 0.0200000000 0.0100000000 0.0000000000 0.0000000000 0.0000000000 0.0000000000 0.0400000000 0.0200000000 0.0000000000 0.0200000000 0.0100000000 0.0000000000 0.0000000000 0.0000000000 0.0000000000 0.0400000000 0.0200000000 0.0000000000 0.0200000000 0.0100000000 0.0000000000 0.0000000000 0.0000000000 0.0000000000 0.0400000000 0.0200000000 0.0000000000 0.0200000000 0.0100000000 0.0000000000 0.0000000000 0.0000000000 0.0000000000 0.0400000000 0.0200000000 0.0000000000 0.0200000000 0.0100000000 0.0000000000 0.0000000000 0.0000000000 0.0000000000 0.0400000000 0.0200000000 0.0000000000 0.0200000000 0.0100000000 0.0000000000 0.0000000000 0.0000000000 0.0000000000 0.0400000000 0.0200000000 0.0000000000 0.0200000000 0.0100000000 0.0000000000 0.0000000000 0.0000000000 0.0000000000 0.0400000000 0.0200000000 0.0000000000 0.0200000000 0.0100000000 0.0000000000 0.0000000000 0.0000000000 0.0000000000 0.0400000000 0.0200000000 0.0000000000 0.0200000000 0.0100000000 0.0000000000 0.0000000000 0.0000000000 0.0000000000 0.0400000000 0.0200000000 0.0000000000 0.0200000000 0.0100000000 0.0000000000 0.0000000000 0.0000000000 0.0000000000 0.0400000000 0.0200000000 0.0000000000 0.0200000000 0.0100000000 0.0000000000 0.0000000000 0.0000000000 0.0000000000 0.0400000000 0.0200000000 0.0000000000 0.0200000000 0.0100000000 0.0000000000 0.0000000000 0.0000000000 0.0000000000 0.0400000000 0.0200000000 0.0000000000 0.0200000000 0.0100000000 0.0000000000 0.0000000000 0.0000000000 0.0000000000 0.0400000000 0.0200000000 0.0000000000 0.0200000000 0.0100000000 0.0000000000 0.0000000000 0.0000000000 0.0000000000 0.0400000000 0.0200000000 0.0000000000 0.0200000000 0.0100000000 0.0000000000 0.0000000000 0.0000000000 0.0000000000 0.0400000000 0.0200000000 0.0000000000 0.0200000000 0.0100000000 0.0000000000 0.0000000000 0.0000000000 0.0000000000 0.0400000000 0.0200000000 0.0000000000 0.0200000000 0.0100000000 0.0000000000 0.0000000000 0.0000000000 0.0000000000 0.0400000000 0.0200000000 0.0000000000 0.0200000000 0.0100000000 0.0000000000 0.0000000000 0.0000000000 0.0000000000 0.0400000000 0.0200000000 0.0000000000 0.0200000000 0.0100000000 0.0000000000 0.0000000000 0.0000000000 0.0000000000 0.0400000000 0.0200000000 0.0000000000 0.0200000000 0.0100000000 0.0000000000 0.0000000000 0.0000000000 0.0000000000 0.0400000000 0.0200000000 0.0000000000 0.0200000000 0.0100000000 0.0000000000 0.0000000000 0.0000000000 0.0000000000 0.0400000000 0.0200000000 0.0000000000 0.0200000000 0.0100000000 0.0000000000 0.0000000000 0.0000000000 0.0000000000 0.0400000000 0.0200000000 0.0000000000 0.0200000000 0.0100000000 0.0000000000 0.0000000000 0.0000000000 0.0000000000 0.0400000000 0.0200000000 0.0000000000 0.0200000000 0.0100000000 0.00