<?xml version="1.0"?>
<VTKFile type="UnstructuredGrid" version="0.1" byte_order="LittleEndian">
<UnstructuredGrid>
<Piece NumberOfPoints="714" NumberOfCells="1306">
<Points>
<DataArray type="Float64" NumberOfComponents="3" format="ascii">
0.000000000000000e+00 0.000000000000000e+00 0.000000000000000e+00 5.000000000000000e+00 0.000000000000000e+00 0.000000000000000e+00 5.000000000000000e+00 1.000000000000000e+00 0.000000000000000e+00 0.000000000000000e+00 1.000000000000000e+00 0.000000000000000e+00 9.999999999992801e-02 0.000000000000000e+00 0.000000000000000e+00 1.999999999998339e-01 0.000000000000000e+00 0.000000000000000e+00 2.999999999997341e-01 0.000000000000000e+00 0.000000000000000e+00 3.999999999996643e-01 0.000000000000000e+00 0.000000000000000e+00 4.999999999995944e-01 0.000000000000000e+00 0.000000000000000e+00 5.999999999995166e-01 0.000000000000000e+00 0.000000000000000e+00 6.999999999992880e-01 0.000000000000000e+00 0.000000000000000e+00 7.999999999989961e-01 0.000000000000000e+00 0.000000000000000e+00 8.999999999987042e-01 0.000000000000000e+00 0.000000000000000e+00 9.999999999984124e-01 0.000000000000000e+00 0.000000000000000e+00 1.099999999998120e+00 0.000000000000000e+00 0.000000000000000e+00 1.199999999997829e+00 0.000000000000000e+00 0.000000000000000e+00 1.299999999997537e+00 0.000000000000000e+00 0.000000000000000e+00 1.399999999997245e+00 0.000000000000000e+00 0.000000000000000e+00 1.499999999996953e+00 0.000000000000000e+00 0.000000000000000e+00 1.599999999996661e+00 0.000000000000000e+00 0.000000000000000e+00 1.699999999996369e+00 0.000000000000000e+00 0.000000000000000e+00 1.799999999996077e+00 0.000000000000000e+00 0.000000000000000e+00 1.899999999995785e+00 0.000000000000000e+00 0.000000000000000e+00 1.999999999995511e+00 0.000000000000000e+00 0.000000000000000e+00 2.099999999995593e+00 0.000000000000000e+00 0.000000000000000e+00 2.199999999995745e+00 0.000000000000000e+00 0.000000000000000e+00 2.299999999995897e+00 0.000000000000000e+00 0.000000000000000e+00 2.399999999996049e+00 0.000000000000000e+00 0.000000000000000e+00 2.499999999996201e+00 0.000000000000000e+00 0.000000000000000e+00 2.599999999996353e+00 0.000000000000000e+00 0.000000000000000e+00 2.699999999996505e+00 0.000000000000000e+00 0.000000000000000e+00 2.799999999996657e+00 0.000000000000000e+00 0.000000000000000e+00 2.899999999996809e+00 0.000000000000000e+00 0.000000000000000e+00 2.999999999996961e+00 0.000000000000000e+00 0.000000000000000e+00 3.099999999997114e+00 0.000000000000000e+00 0.000000000000000e+00 3.199999999997265e+00 0.000000000000000e+00 0.000000000000000e+00 3.299999999997417e+00 0.000000000000000e+00 0.000000000000000e+00 3.399999999997569e+00 0.000000000000000e+00 0.000000000000000e+00 3.499999999997721e+00 0.000000000000000e+00 0.000000000000000e+00 3.599999999997873e+00 0.000000000000000e+00 0.000000000000000e+00 3.699999999998025e+00 0.000000000000000e+00 0.000000000000000e+00 3.799999999998176e+00 0.000000000000000e+00 0.000000000000000e+00 3.899999999998329e+00 0.000000000000000e+00 0.000000000000000e+00 3.999999999998481e+00 0.000000000000000e+00 0.000000000000000e+00 4.099999999998633e+00 0.000000000000000e+00 0.000000000000000e+00 4.199999999998784e+00 0.000000000000000e+00 0.000000000000000e+00 4.299999999998937e+00 0.000000000000000e+00 0.000000000000000e+00 4.399999999999088e+00 0.000000000000000e+00 0.000000000000000e+00 4.499999999999240e+00 0.000000000000000e+00 0.000000000000000e+00 4.599999999999393e+00 0.000000000000000e+00 0.000000000000000e+00 4.699999999999545e+00 0.000000000000000e+00 0.000000000000000e+00 4.799999999999696e+00 0.000000000000000e+00 0.000000000000000e+00 4.899999999999848e+00 0.000000000000000e+00 0.000000000000000e+00 5.000000000000000e+00 9.999999999981467e-02 0.000000000000000e+00 5.000000000000000e+00 1.999999999995579e-01 0.000000000000000e+00 5.000000000000000e+00 2.999999999992664e-01 0.000000000000000e+00 5.000000000000000e+00 3.999999999989749e-01 0.000000000000000e+00 5.000000000000000e+00 4.999999999986943e-01 0.000000000000000e+00 5.000000000000000e+00 5.999999999989468e-01 0.000000000000000e+00 5.000000000000000e+00 6.999999999992100e-01 0.000000000000000e+00 5.000000000000000e+00 7.999999999994734e-01 0.000000000000000e+00 5.000000000000000e+00 8.999999999997368e-01 0.000000000000000e+00 4.899999999999999e+00 1.000000000000000e+00 0.000000000000000e+00 4.800000000000000e+00 1.000000000000000e+00 0.000000000000000e+00 4.699999999999999e+00 1.000000000000000e+00 0.000000000000000e+00 4.600000000000000e+00 1.000000000000000e+00 0.000000000000000e+00 4.499999999999999e+00 1.000000000000000e+00 0.000000000000000e+00 4.399999999999999e+00 1.000000000000000e+00 0.000000000000000e+00 4.299999999999999e+00 1.000000000000000e+00 0.000000000000000e+00 4.199999999999998e+00 1.000000000000000e+00 0.000000000000000e+00 4.099999999999999e+00 1.000000000000000e+00 0.000000000000000e+00 3.999999999999999e+00 1.000000000000000e+00 0.000000000000000e+00 3.899999999999999e+00 1.000000000000000e+00 0.000000000000000e+00 3.799999999999999e+00 1.000000000000000e+00 0.000000000000000e+00 3.699999999999998e+00 1.000000000000000e+00 0.000000000000000e+00 3.599999999999999e+00 1.000000000000000e+00 0.000000000000000e+00 3.499999999999999e+00 1.000000000000000e+00 0.000000000000000e+00 3.399999999999999e+00 1.000000000000000e+00 0.000000000000000e+00 3.299999999999999e+00 1.000000000000000e+00 0.000000000000000e+00 3.199999999999998e+00 1.000000000000000e+00 0.000000000000000e+00 3.099999999999999e+00 1.000000000000000e+00 0.000000000000000e+00 2.999999999999999e+00 1.000000000000000e+00 0.000000000000000e+00 2.899999999999999e+00 1.000000000000000e+00 0.000000000000000e+00 2.799999999999999e+00 1.000000000000000e+00 0.000000000000000e+00 2.699999999999999e+00 1.000000000000000e+00 0.000000000000000e+00 2.599999999999999e+00 1.000000000000000e+00 0.000000000000000e+00 2.500000000000000e+00 1.000000000000000e+00 0.000000000000000e+00 2.399999999999999e+00 1.000000000000000e+00 0.000000000000000e+00 2.299999999999999e+00 1.000000000000000e+00 0.000000000000000e+00 2.199999999999999e+00 1.000000000000000e+00 0.000000000000000e+00 2.100000000000000e+00 1.000000000000000e+00 0.000000000000000e+00 2.000000000000000e+00 1.000000000000000e+00 0.000000000000000e+00 1.899999999999999e+00 1.000000000000000e+00 0.000000000000000e+00 1.799999999999999e+00 1.000000000000000e+00 0.000000000000000e+00 1.699999999999999e+00 1.000000000000000e+00 0.000000000000000e+00 1.599999999999999e+00 1.000000000000000e+00 0.000000000000000e+00 1.500000000000000e+00 1.000000000000000e+00 0.000000000000000e+00 1.399999999999999e+00 1.000000000000000e+00 0.000000000000000e+00 1.299999999999999e+00 1.000000000000000e+00 0.000000000000000e+00 1.199999999999999e+00 1.000000000000000e+00 0.000000000000000e+00 1.100000000000000e+00 1.000000000000000e+00 0.000000000000000e+00 9.999999999999991e-01 1.000000000000000e+00 0.000000000000000e+00 8.999999999999995e-01 1.000000000000000e+00 0.000000000000000e+00 7.999999999999998e-01 1.000000000000000e+00 0.000000000000000e+00 7.000000000000002e-01 1.000000000000000e+00 0.000000000000000e+00 5.999999999999996e-01 1.000000000000000e+00 0.000000000000000e+00 4.999999999999991e-01 1.000000000000000e+00 0.000000000000000e+00 3.999999999999995e-01 1.000000000000000e+00 0.000000000000000e+00 3.000000000000007e-01 1.000000000000000e+00 0.000000000000000e+00 1.999999999999993e-01 1.000000000000000e+00 0.000000000000000e+00 9.999999999999964e-02 1.000000000000000e+00 0.000000000000000e+00 0.000000000000000e+00 8.999999999995836e-01 0.000000000000000e+00 0.000000000000000e+00 7.999999999999998e-01 0.000000000000000e+00 0.000000000000000e+00 7.000000000006934e-01 0.000000000000000e+00 0.000000000000000e+00 6.000000000013869e-01 0.000000000000000e+00 0.000000000000000e+00 5.000000000020587e-01 0.000000000000000e+00 0.000000000000000e+00 4.000000000016644e-01 0.000000000000000e+00 0.000000000000000e+00 3.000000000012483e-01 0.000000000000000e+00 0.000000000000000e+00 2.000000000008322e-01 0.000000000000000e+00 0.000000000000000e+00 1.000000000004160e-01 0.000000000000000e+00 7.477570327540725e-01 4.905967956478702e-01 0.000000000000000e+00 1.346210646643281e+00 4.806066422083806e-01 0.000000000000000e+00 1.949496869330408e+00 5.032480558805372e-01 0.000000000000000e+00 4.449999999999997e+00 5.000000000000384e-01 0.000000000000000e+00 3.859142349610828e+00 5.103468031113156e-01 0.000000000000000e+00 3.246530027037640e+00 5.183101712757180e-01 0.000000000000000e+00 2.657531292711257e+00 5.037429884868682e-01 0.000000000000000e+00 3.824015840967434e-01 6.064457502813875e-01 0.000000000000000e+00 2.306343155343502e+00 6.315316747431162e-01 0.000000000000000e+00 1.049999999998266e+00 3.374999999994497e-01 0.000000000000000e+00 1.641930697057102e+00 3.436055112169133e-01 0.000000000000000e+00 4.150000000000006e+00 6.625000000000185e-01 0.000000000000000e+00 3.552784161359181e+00 6.642488388863971e-01 0.000000000000000e+00 2.940292465243163e+00 6.575992780735344e-01 0.000000000000000e+00 1.641237689750194e+00 6.703960699373966e-01 0.000000000000000e+00 1.050000000000000e+00 6.706367924525535e-01 0.000000000000000e+00 2.960517759676693e+00 3.261740577967960e-01 0.000000000000000e+00 3.551899302943298e+00 3.210887133285832e-01 0.000000000000000e+00 4.150779393876139e+00 3.209867287821391e-01 0.000000000000000e+00 2.213980362532827e+00 3.194901812685164e-01 0.000000000000000e+00 4.927283029162088e-01 3.252862896001115e-01 0.000000000000000e+00 4.696684455724628e+00 3.145438084075651e-01 0.000000000000000e+00 4.690990908683984e+00 6.962960281446974e-01 0.000000000000000e+00 2.487221901830106e+00 2.763334294511438e-01 0.000000000000000e+00 6.215262983536076e-01 7.328515730233995e-01 0.000000000000000e+00 2.065768881873406e+00 7.342557316219342e-01 0.000000000000000e+00 2.543072460766750e+00 7.257064952909391e-01 0.000000000000000e+00 8.105176211436336e-01 2.535517621144286e-01 0.0000000000000
[...]
<CellData Scalars="A_conc,As-lin_conc,Bs-lang_conc,Cs-freund_conc," Vectors="">
<DataArray type="Float64" Name="A_conc" format="ascii">
4.307372627704318e-30 3.734273047522696e-01 0.000000000000000e+00 6.471939174017806e-68 2.685330282005375e-01 2.782514324557554e-296 1.410973445960171e-291 1.060853477996812e-214 3.531699280236974e-01 3.560458996942222e-28 0.000000000000000e+00 4.894816199095811e-191 2.094214485033104e-221 0.000000000000000e+00 1.153881929694636e-70 2.159830590502239e-13 5.147944880634586e-65 5.183573831462366e-27 5.260364802508567e-311 1.856984758895651e-28 4.734271677223484e-255 3.388436274385903e-233 5.545646312381757e-183 2.484751649998875e-211 8.707413004636446e-278 2.590144252243701e-214 5.976695750285232e-31 3.595479480772687e-02 2.569141358374482e-322 5.646551976187201e-32 2.887280379126165e-230 7.192523433543864e-171 7.355576443892492e-228 0.000000000000000e+00 4.306496522939939e-306 3.304569845530188e-01 2.928417357489624e-310 3.040343825998576e-252 5.239093251035987e-297 2.929288289499253e-01 0.000000000000000e+00 1.233166969822307e-226 0.000000000000000e+00 1.484750069989385e-286 6.507758016518162e-263 4.965012039722559e-300 1.887964104668360e-12 4.978235403273893e-258 1.033089832663674e-316 6.570360544037569e-305 3.510359130155279e-01 3.133065761741622e-217 1.901219568336150e-14 3.174242320895754e-01 3.452193600313759e-01 3.893864539227336e-01 3.814991234577585e-251 2.350647030448930e-218 1.152868275084766e-04 4.940393945968464e-14 0.000000000000000e+00 4.808647044673271e-213 2.045019140891986e-276 7.723592211508521e-263 9.838375301591051e-266 2.007663712242592e-290 9.859051473736354e-258 2.869143408248160e-238 3.658708037901503e-01 2.427793576518729e-12 2.989651796717670e-253 0.000000000000000e+00 2.010277065106823e-214 3.034164942211639e-27 2.464141987756360e-253 3.093255964929450e-312 3.125496859547855e-223 4.068724554641624e-303 6.211863702122424e-245 2.863525811644651e-251 1.316509006049412e-13 3.491626500147326e-308 6.214799071807847e-221 0.000000000000000e+00 2.405770734812762e-267 3.679435580149062e-220 1.165686333845819e-307 1.827367147867263e-249 8.807001474113479e-215 1.246389652199001e-238 3.557272650056975e-322 1.247245543951059e-266 2.101104343528642e-72 1.215323167239732e-276 1.167905677546628e-303 1.961178501601293e-68 1.725512931921726e-276 1.415567244525589e-318 0.000000000000000e+00 3.771853896072775e-05 3.684425931566960e-273 1.359300764553024e-211 0.000000000000000e+00 9.109956791378454e-272 8.581845781085944e-224 6.136973264199797e-246 9.107906308650164e-65 1.071179901804287e-01 4.736109398224729e-227 8.191906467038244e-242 1.459640845021823e-247 1.808243198793370e-212 5.401776442224654e-215 2.492308426474460e-224 7.321087974002140e-217 6.032803014872741e-298 6.568695167525793e-71 1.225783077834530e-248 4.251112404900945e-261 4.099073886054386e-02 2.547281268880112e-257 3.373923939847192e-275 1.979710031163891e-241 5.564074498967092e-289 2.877664903784769e-04 7.755031738183071e-249 0.000000000000000e+00 1.436407450525605e-217 7.514902302813386e-90 6.516999210278879e-231 2.615370851332000e-308 1.820191883091574e-242 7.757813134630580e-240 6.732581065357758e-227 1.360842571992387e-285 1.397145047344537e-267 3.424507849500925e-29 3.826323039422193e-01 1.374555440258767e-254 4.622410011387281e-286 8.635678748950870e-245 7.617493676351311e-05 8.500119347053629e-212 8.019240460311671e-289 0.000000000000000e+00 0.000000000000000e+00 1.539643512502860e-253 1.019378814857374e-231 1.720999080585176e-299 4.796478101177972e-249 6.330052206002044e-235 8.165751068967886e-304 7.976637646190336e-286 3.988184001367123e-262 1.740320503503272e-273 0.000000000000000e+00 4.693411894861204e-234 3.827139984274777e-98 1.939685768219488e-211 0.000000000000000e+00 2.368276852628785e-12 2.015755173635975e-234 9.283466817498360e-246 0.000000000000000e+00 1.461810133161918e-272 5.770867334712809e-289 1.336941252018724e-211 2.495061697397756e-241 1.689414067093354e-241 0.000000000000000e+00 1.102200161867031e-211 9.743618491054394e-227 0.000000000000000e+00 0.000000000000000e+00 1.231087440826622e-252 6.443149538910055e-281 1.087152905906382e-217 0.000000000000000e+00 4.866255311949306e-254 3.422071091729230e-254 2.386271432891494e-276 7.326384097835382e-214 3.059556390873577e-01 6.505807260779243e-245 1.837323560718290e-258 2.105665568581166e-227 2.260720822831592e-223 4.313366742325598e-241 0.000000000000000e+00 5.887889116618890e-256 1.594373289026008e-211 8.515422717947890e-227 6.671097934369094e-28 9.920058617871162e-172 3.617418346550044e-214 5.198041586808419e-252 9.259887001811708e-212 2.486485175998690e-214 0.000000000000000e+00 0.000000000000000e+00 4.912181336976142e-214 2.521015870826513e-258 4.130074163368002e-01 2.840494042195367e-233 4.689028162568295e-281 7.993863589694479e-218 7.988558778685011e-285 2.911808024251398e-227 2.245801400417768e-12 3.261357020012118e-01 8.783947646380085e-259 0.000000000000000e+00 5.483368853636544e-290 2.148728530162348e-30 8.753477174726120e-68 2.874651782447495e-275 1.827798827843922e-211 2.803083767871072e-280 1.305749354174117e-177 1.048608246587806e-312 3.545388395011910e-317 2.122697565234670e-01 1.608389229585133e-255 8.582035843204243e-226 1.337886638389058e-221 4.009944703206487e-01 1.486719548811690e-211 1.290508142934390e-73 0.000000000000000e+00 3.246235796617619e-248 1.217884275364102e-244 5.878086237130601e-217 3.612054779034954e-178 5.224056610986478e-283 1.381104464130706e-277 1.315892924219902e-259 2.910921547914047e-250 1.170466826798166e-290 6.305003433682693e-214 0.000000000000000e+00 1.567020690520625e-250 5.585179842262898e-228 1.121918676603490e-299 3.472253268276559e-267 0.000000000000000e+00 1.870199379300741e-271 6.864314886470070e-202 0.000000000000000e+00 1.789755149552071e-12 0.000000000000000e+00 4.737038029964166e-267 6.453484193211052e-262 0.000000000000000e+00 1.655261537751550e-271 4.689226451243855e-319 9.119949893475111e-293 3.789613323842382e-69 0.000000000000000e+00 1.461889272721753e-12 0.000000000000000e+00 4.628318328267117e-252 5.333367663986558e-215 5.830058567605708e-259 2.687906525902302e-263 3.363726717011332e-231 1.232181944465461e-12 5.584342997718124e-174 1.393322087039664e-71 3.436560655503751e-218 0.000000000000000e+00 2.000026278957817e-282 5.764782036769976e-239 5.242183694331133e-244 8.632403882749758e-304 9.534741114678913e-33 1.120003789486571e-12 3.332037745906456e-32 7.343844509681254e-169 1.635590809480280e-226 2.265579072404964e-223 3.462823802762652e-250 3.404535904899755e-235 8.821114069387295e-246 3.561388209587155e-28 6.055806539024740e-02 1.587554949742577e-230 5.157024699694472e-224 6.354946240977923e-241 6.213957876360744e-286 1.065159706986904e-262 2.174349109322198e-234 8.276128923802933e-287 1.083453837515456e-225 3.813600073861172e-222 6.128743923204115e-316 4.090026198205099e-275 1.413698423146086e-234 2.642916903294171e-29 0.000000000000000e+00 2.649197321383465e-249 0.000000000000000e+00 3.352348163817830e-237 7.186845590040331e-267 2.065494123334977e-97 1.159151260194833e-309 1.763934559046296e-13 8.996212362730038e-14 2.103908886666065e-03 1.497066616987331e-267 0.000000000000000e+00 1.071671520113479e-262 4.258845867151545e-321 0.000000000000000e+00 1.414532253465423e-245 0.000000000000000e+00 1.538544689020071e-74 6.067576805462655e-255 1.437532535384392e-250 3.535034708824515e-01 4.531941796403735e-223 3.540368742086240e-227 1.292225199916522e-248 4.265277022868215e-245 2.899552317576921e-217 1.277085443850190e-264 5.495824250416069e-272 8.272630344546116e-277 4.161185031925097e-218 0.000000000000000e+00 3.483197194484495e-68 3.842820726392706e-01 3.780642025074629e-01 3.792640018850793e-01 3.836158440829966e-01 7.392216481349939e-13 6.598564803824528e-28 5.239782528077679e-278 3.164323511006342e-256 2.465563158826870e-281 8.403843247638147e-230 9.798292971162579e-268 4.724233285156313e-214 0.000000000000000e+00 3.120178701667662e-01 0.000000000000000e+00 5.211822804648567e-171 1.264111754820042e-243 0.000000000000000e+00 5.603548075338435e-220 6.774469460758440e-217 4.049668746889021e-01 0.000000000000000e+00 2.167284496646877e-217 8.806830896541162e-278 2.067993657844697e-12 5.837460743352177e-254 2.177784027680979e-253 1.581139665874184e-249 2.696634998283816e-318 2.421435469766054e-242 6.013570320349035e-66 1.996902472965721e-293 1.887560528377645e-27 1.721665843187849e-230 1.312635367228109e-67 2.453863487748992e-226 5.937976786797501e-231 1.882492796353182e-267 2.705279167658012e-281 3.627506102475865e-01 4.138429069311604e-01 4.138429128427060e-01 2.584249291831026e-01 2.361713910827355e-01 0.000000000000000e+00 5.286118954186863e-260 4.154095330710942e-289 6.389410115221189e-260 6.900321433754245e-218 8.808012608332854e-261 3.610552308756285e-01 4.937898936023765e-27 1.157824010301910e-211 8.550528140705457e-263 3.270714575469052e-321 8.748269328614869e-227 4.689245046077798e-249 0.000000000000000e+00 1.434662125529631e-259 2.314682141586356e-01 3.584143302219930e-01 1.188488700254761e-279 6.384872680346013e-221 3.542320250196956e-209 3.765312052619033e-225 1.470309369341796e-26 2.056437132179940e-169 2.549703846568457e-238 3.951274102291408e-242 4.644903114442276e-237 0.000000000000000e+00 3.434090922344804e-01 1.633768660842057e-213 1.401910304527319e-81 1.729229760444363e-322 2.023759707083439e-278 3.858635428581227e-234 5.126144389521995e-299 3.191793538637491e-01 2.501974248287094e-239 0.000000000000000e+00 4.132385569685972e-01 0.000000000000000e+00 2.020309162712434e-217 4.107809966362580e-226 3.493692919394968e-01 6.673609774926550e-224 8.467927467995527e-221 7.818697147333626e-277 1.185162662996625e-268 1.992922211537456e-233 1.537690966737168e-303 8.306427455118436e-244 1.725165221409944e-04 2.206224358667735e-229 6.404335132888649e-77 5.706594867641706e-248 8.455991069954381e-246 6.444598885465501e-313 4.020669631423010e-257 3.369438347821012e-09 4.386984630809650e-29 3.665987636335394e-242 1.548942735948663e-317 9.312309363691697e-262 7.342918267513103e-26 1.895824337746677e-167 3.552840996166122e-269 6.288737765578344e-267 2.785962908926061e-281 0.000000000000000e+00 5.250218186925229e-273 6.512118445292641e-264 7.503766520429652e-232 1.956063390487937e-294 1.307290886572840e-222 4.477097702310188e-281 0.000000000000000e+00 2.150950144083881e-27 3.953398608522011e-01 0.000000000000000e+00 1.377152694836858e-233 1.627744042793625e-294 3.858757134411889e-01 4.231784624017121e-237 6.150473250680813e-299 0.000000000000000e+00 2.079820183359026e-211 0.000000000000000e+00 6.366608455529700e-258 3.077181831176919e-01 3.518211282408351e-01 9.883529321101759e-28 0.000000000000000e+00 1.117587039339928e-81 1.010489810218251e-168 3.873699366858933e-01 3.792149858598951e-01 2.360545385505574e-220 1.486288139463023e-222 0.000000000000000e+00 0.000000000000000e+00 0.000000000000000e+00 3.463021222193083e-01 3.311506915662389e-01 3.420579842105888e-01 2.890468083987875e-223 1.883740490628127e-211 6.653600217142441e-239 0.000000000000000e+00 2.187536320213893e-12 1.611610396596594e-224 2.497435172913349e-01 4.617688641193909e-281 1.249925513327059e-243 6.230002197651696e-263 5.588675304921927e-93 6.655138511951353e-268 1.989958123594206e-272 1.294476828624250e-275 8.863443285774603e-238 3.783912759816907e-01 2.906554630089986e-01 9.396215534253704e-227 1.075738272173303e-219 2.772261962539862e-276 0.000000000000000e+00 8.018696149888070e-02 1.086944420850742e-322 2.941669833464521e-01 6.290170250125655e-234 9.548880855618284e-275 6.410870189533272e-269 9.669243832205204e-245 3.388923163458301e-307 2.957627711592713e-255 3.541459781519959e-282 9.543565702475531e-221 2.287718058165704e-267 0.000000000000000e+00 1.111324832892457e-01 1.982223620860340e-12 0.000000000000000e+00 3.988593191485955e-164 1.972997996881005e-225 3.197614073117462e-214 5.542994758526839e-230 7.585008787126760e-12 2.941473191674068e-01 3.023762808339015e-01 8.733307607011905e-69 7.138426873157232e-28 8.759270167724428e-235 5.660159447851427e-265 3.223470109043257e-01 2.004216771546000e-01 1.749297279710613e-223 2.265949969931567e-219 0.000000000000000e+00 3.310314357530476e-01 0.000000000000000e+00 5.059616405042865e-214 2.711720368982697e-01 1.021519447717541e-89 0.000000000000000e+00 3.558386815609166e-300 0.000000000000000e+00 4.477439018242777e-169 3.945761633595388e-70 1.001506152312876e-01 3.728066258587406e-301 1.167887331608275e-142 2.165275650821109e-271 1.784688235707217e-266 0.000000000000000e+00 1.408281992248138e-264 3.577830335699335e-254 2.853267059844641e-01 0.000000000000000e+00 2.237598790443301e-27 3.922179251023297e-12 2.460284938626106e-300 6.402869273544408e-237 1.931716165018078e-239 5.412170269429482e-299 4.225250115750456e-67 1.302188453517053e-04 3.367444702687681e-01 3.892419335050039e-15 1.567084951670506e-34 6.765993144324869e-260 4.700358995237755e-185 1.632866047445846e-223 3.466539470460814e-317 2.844052934845764e-257 2.958234258468909e-237 6.077476462379091e-230 5.555475279266806e-12 3.665352575732348e-01 9.577088841338995e-27 2.195118059391138e-221 3.080788740154853e-01 2.979892378318476e-01 1.669690343920476e-249 2.030210106677095e-03 6.702053748790140e-02 4.290346395106855e-239 0.000000000000000e+00 3.963059661565454e-272 1.170572970026174e-174 0.000000000000000e+00 3.626896911053838e-01 3.523035652694900e-01 2.342017560842148e-199 2.196203013576706e-237 3.537318046731576e-281 0.000000000000000e+00 0.000000000000000e+00 5.769391592243716e-241 3.150445696336110e-39 1.890844653591971e-247 5.231651863813064e-242 3.641696046700825e-243 1.951506617778443e-245 5.533777245806311e-239 3.863116806988534e-01 3.762874122180243e-01 2.470328229206233e-323 1.680597591342220e-303 4.551088423891459e-13 2.036702611827686e-270 2.435808575541089e-241 9.905785474685469e-249 4.119883670604080e-12 9.267895203246643e-308 3.607096462652692e-01 3.608392603990046e-284 3.698493936386078e-231 1.212108395279066e-256 0.000000000000000e+00 6.398519958919198e-228 1.636210846445642e-27 1.759667632077015e-260 1.073552888019390e-220 5.586464441080705e-02 1.844359065040893e-230 8.117548231239951e-245 0.000000000000000e+00 0.000000000000000e+00 3.352413861467079e-256 1.172713541368647e-226 0.000000000000000e+00 3.890296375387023e-235 1.680483361678235e-12 1.375590716935266e-32 1.209493898083048e-256 0.000000000000000e+00 2.860954137569407e-228 7.021033960833976e-27 7.380629315544298e-168 1.660093534721036e-223 1.121171140545006e-222 4.573464090005535e-256 0.000000000000000e+00 7.032372414615710e-242 4.874995727854395e-220 1.585580882744788e-263 2.462479953032989e-276 1.341777304459020e-226 1.082044574931072e-312 8.391527682246567e-253 3.260893350268374e-241 1.043730473251017e-237 3.365115316617286e-241 4.178615161001978e-246 2.531719385684677e-295 7.056161362211582e-245 0.000000000000000e+00 5.353407679648950e-256 7.793897950600546e-235 3.008646825054380e-211 2.889934027461059e-01 2.355992511182244e-12 3.256856643150600e-224 3.118984384796103e-244 2.785945399671452e-303 3.687398120409422e-214 1.165912388424987e-34 1.949873883939962e-102 8.613387672291438e-224 2.362330314518233e-227 3.196733848669099e-219 4.076237890244670e-68 4.078579227634953e-221 4.802096159080263e-248 2.251151829350384e-263 0.000000000000000e+00 0.000000000000000e+00 0.000000000000000e+00 8.481547604642660e-215 5.741102847614668e-217 5.654235264659648e-216 1.875379006089468e-219 0.000000000000000e+00 5.060171264903661e-256 2.012724973885074e-252 1.953156960325187e-260 3.580438254532291e-14 3.334943109428414e-321 8.603882952553595e-271 4.449521374760924e-253 1.168614747518287e-271 8.585283904024960e-263 2.029451467551287e-12 0.000000000000000e+00 3.224823380562519e-01 3.169393027186365e-28 4.064714741372327e-01 4.051112152968900e-01 2.894561164043023e-228 9.458509985376945e-13 8.048494350382501e-277 2.212009477870514e-281 0.000000000000000e+00 3.309024790718218e-203 1.753290713615978e-207 5.121355129904026e-308 4.788588629234148e-230 3.763083381038088e-248 0.000000000000000e+00 6.670354595118492e-15 6.521679361123746e-257 3.959468820301258e-01 4.058146036682558e-01 4.060896167267569e-01 3.962394517628061e-01 3.926031519344459e-01 3.940345226391550e-01 8.005357712267045e-214 3.894401723569925e-248 0.000000000000000e+00 0.000000000000000e+00 1.055840219009452e-244 1.410104512452300e-236 1.697409837889378e-71 1.652077963102173e-231 3.078595310069364e-01 2.981177866558370e-232 1.711579504998116e-15 5.132015528120473e-217 2.820635055271045e-214 6.996783284463975e-251 7.179561379414525e-287 3.157315635598254e-12 1.603925954706046e-14 1.479343817756464e-211 0.000000000000000e+00 4.796562236777936e-257 1.385021494921373e-211 9.140872730623997e-260 4.120484848870678e-274 3.206465093126306e-316 5.679750951336978e-231 1.153459176470912e-243 4.468813128149121e-290 5.935389650178577e-13 2.542985108930255e-237 3.895637271999369e-271 5.461153265464812e-227 3.879758000498001e-27 6.667968719736565e-262 1.252634147167468e-220 9.727800013855156e-215 4.209153732624124e-317 1.007893917516143e-321 1.653672669703783e-246 4.847440285609679e-231 1.268235227191003e-220 9.460957845007306e-163 0.000000000000000e+00 4.165051167695055e-01 4.165051189024491e-01 3.280630853993891e-245 8.575053599754921e-12 4.918270472456466e-315 1.435919453632247e-13 4.519260220626925e-214 3.532606710492631e-246 3.642120496351584e-231 2.380589226500868e-304 1.344196629134487e-12 1.831273447352861e-285 4.051839807085632e-01 4.051839872754793e-01 1.515647130359207e-252 3.077433215405483e-01 2.893473828256253e-01 2.807592607889662e-02 3.246811381386425e-177 1.113060546122737e-256 3.326061755248745e-01 3.204336636537368e-01 7.558501857351085e-212 2.058387600380663e-255 1.202962414182104e-271 9.331395314929327e-261 6.613855214252413e-263 3.015961614614723e-01 0.000000000000000e+00 3.943394231509545e-01 3.945302633699426e-01 3.708649965074924e-224 2.113729262554238e-220 3.242892643957855e-226 5.452842031480041e-233 1.346939014468299e-289 6.158185621275975e-235 2.402237433431753e-211 8.939672259845918e-246 6.150526675009646e-34 3.841418091239731e-12 3.680603627444108e-12 5.440533445737340e-236 1.077459330084210e-231 0.000000000000000e+00 3.683605784509064e-231 9.612028754891843e-14 2.507463753174488e-298 1.022364094579316e-302 3.488493154075310e-231 2.361868655483495e-240 5.177807968416264e-321 2.530364235673281e-64 8.956113702496236e-286 7.504985466871637e-227 1.799434016949890e-258 1.250740164078311e-217 0.000000000000000e+00 1.200314606188352e-271 1.784833307480359e-271 7.143733141179611e-222 2.494291778912992e-285 0.000000000000000e+00 1.893714091877588e-290 8.818962195039706e-231 6.757533539874473e-259 1.027028606919987e-27 4.094888640347242e-259 2.468829697703448e-162 1.227213278574583e-272 3.347858197428807e-219 0.000000000000000e+00 3.430949590993091e-01 8.052660424681799e-268 6.378566865722630e-42 6.257331552134628e-310 8.806352851449295e-225 1.173506774774374e-254 4.276287837450460e-295 4.015157405158569e-108 0.000000000000000e+00 0.000000000000000e+00 5.695236986042118e-13 2.704447265163013e-65 1.492434587852550e-234 0.000000000000000e+00 3.583541577858491e-01 3.661940595111985e-01 2.281742213079000e-13 1.740653731596531e-267 0.000000000000000e+00 3.453534226568068e-01 2.764629435496784e-260 4.353377606301526e-34 5.733424633106012e-15 3.162659119742054e-01 3.291136904948566e-01 1.493415336634927e-227 1.713386372925352e-249 2.347376015036965e-308 1.620567707727952e-252 2.238471216531168e-208 1.078047585046152e-212 1.465700091407106e-276 1.096487632180901e-248 2.489499073696401e-254 3.341572729593799e-35 0.000000000000000e+00 3.318333241381772e-01 2.644318665553328e-291 0.000000000000000e+00 5.446949705052890e-13 3.661061171910105e-01 3.949901395690369e-01 4.054766482108396e-01 1.180682338754309e-246 9.341113709835067e-250 0.000000000000000e+00 0.000000000000000e+00 6.433345250901454e-260 1.790562081210252e-213 6.233962972065220e-281 4.866655305978364e-318 1.693038924544524e-12 1.727653722802550e-313 3.684193173817133e-318 1.581697476940112e-162 6.203183794555558e-217 1