<?xml version="1.0"?>
<VTKFile type="UnstructuredGrid" version="0.1" byte_order="LittleEndian">
<UnstructuredGrid>
<Piece NumberOfPoints="714" NumberOfCells="1306">
<Points>
<DataArray type="Float64" NumberOfComponents="3" format="ascii">
0.000000000000000e+00 0.000000000000000e+00 0.000000000000000e+00 5.000000000000000e+00 0.000000000000000e+00 0.000000000000000e+00 5.000000000000000e+00 1.000000000000000e+00 0.000000000000000e+00 0.000000000000000e+00 1.000000000000000e+00 0.000000000000000e+00 9.999999999992801e-02 0.000000000000000e+00 0.000000000000000e+00 1.999999999998339e-01 0.000000000000000e+00 0.000000000000000e+00 2.999999999997341e-01 0.000000000000000e+00 0.000000000000000e+00 3.999999999996643e-01 0.000000000000000e+00 0.000000000000000e+00 4.999999999995944e-01 0.000000000000000e+00 0.000000000000000e+00 5.999999999995166e-01 0.000000000000000e+00 0.000000000000000e+00 6.999999999992880e-01 0.000000000000000e+00 0.000000000000000e+00 7.999999999989961e-01 0.000000000000000e+00 0.000000000000000e+00 8.999999999987042e-01 0.000000000000000e+00 0.000000000000000e+00 9.999999999984124e-01 0.000000000000000e+00 0.000000000000000e+00 1.099999999998120e+00 0.000000000000000e+00 0.000000000000000e+00 1.199999999997829e+00 0.000000000000000e+00 0.000000000000000e+00 1.299999999997537e+00 0.000000000000000e+00 0.000000000000000e+00 1.399999999997245e+00 0.000000000000000e+00 0.000000000000000e+00 1.499999999996953e+00 0.000000000000000e+00 0.000000000000000e+00 1.599999999996661e+00 0.000000000000000e+00 0.000000000000000e+00 1.699999999996369e+00 0.000000000000000e+00 0.000000000000000e+00 1.799999999996077e+00 0.000000000000000e+00 0.000000000000000e+00 1.899999999995785e+00 0.000000000000000e+00 0.000000000000000e+00 1.999999999995511e+00 0.000000000000000e+00 0.000000000000000e+00 2.099999999995593e+00 0.000000000000000e+00 0.000000000000000e+00 2.199999999995745e+00 0.000000000000000e+00 0.000000000000000e+00 2.299999999995897e+00 0.000000000000000e+00 0.000000000000000e+00 2.399999999996049e+00 0.000000000000000e+00 0.000000000000000e+00 2.499999999996201e+00 0.000000000000000e+00 0.000000000000000e+00 2.599999999996353e+00 0.000000000000000e+00 0.000000000000000e+00 2.699999999996505e+00 0.000000000000000e+00 0.000000000000000e+00 2.799999999996657e+00 0.000000000000000e+00 0.000000000000000e+00 2.899999999996809e+00 0.000000000000000e+00 0.000000000000000e+00 2.999999999996961e+00 0.000000000000000e+00 0.000000000000000e+00 3.099999999997114e+00 0.000000000000000e+00 0.000000000000000e+00 3.199999999997265e+00 0.000000000000000e+00 0.000000000000000e+00 3.299999999997417e+00 0.000000000000000e+00 0.000000000000000e+00 3.399999999997569e+00 0.000000000000000e+00 0.000000000000000e+00 3.499999999997721e+00 0.000000000000000e+00 0.000000000000000e+00 3.599999999997873e+00 0.000000000000000e+00 0.000000000000000e+00 3.699999999998025e+00 0.000000000000000e+00 0.000000000000000e+00 3.799999999998176e+00 0.000000000000000e+00 0.000000000000000e+00 3.899999999998329e+00 0.000000000000000e+00 0.000000000000000e+00 3.999999999998481e+00 0.000000000000000e+00 0.000000000000000e+00 4.099999999998633e+00 0.000000000000000e+00 0.000000000000000e+00 4.199999999998784e+00 0.000000000000000e+00 0.000000000000000e+00 4.299999999998937e+00 0.000000000000000e+00 0.000000000000000e+00 4.399999999999088e+00 0.000000000000000e+00 0.000000000000000e+00 4.499999999999240e+00 0.000000000000000e+00 0.000000000000000e+00 4.599999999999393e+00 0.000000000000000e+00 0.000000000000000e+00 4.699999999999545e+00 0.000000000000000e+00 0.000000000000000e+00 4.799999999999696e+00 0.000000000000000e+00 0.000000000000000e+00 4.899999999999848e+00 0.000000000000000e+00 0.000000000000000e+00 5.000000000000000e+00 9.999999999981467e-02 0.000000000000000e+00 5.000000000000000e+00 1.999999999995579e-01 0.000000000000000e+00 5.000000000000000e+00 2.999999999992664e-01 0.000000000000000e+00 5.000000000000000e+00 3.999999999989749e-01 0.000000000000000e+00 5.000000000000000e+00 4.999999999986943e-01 0.000000000000000e+00 5.000000000000000e+00 5.999999999989468e-01 0.000000000000000e+00 5.000000000000000e+00 6.999999999992100e-01 0.000000000000000e+00 5.000000000000000e+00 7.999999999994734e-01 0.000000000000000e+00 5.000000000000000e+00 8.999999999997368e-01 0.000000000000000e+00 4.899999999999999e+00 1.000000000000000e+00 0.000000000000000e+00 4.800000000000000e+00 1.000000000000000e+00 0.000000000000000e+00 4.699999999999999e+00 1.000000000000000e+00 0.000000000000000e+00 4.600000000000000e+00 1.000000000000000e+00 0.000000000000000e+00 4.499999999999999e+00 1.000000000000000e+00 0.000000000000000e+00 4.399999999999999e+00 1.000000000000000e+00 0.000000000000000e+00 4.299999999999999e+00 1.000000000000000e+00 0.000000000000000e+00 4.199999999999998e+00 1.000000000000000e+00 0.000000000000000e+00 4.099999999999999e+00 1.000000000000000e+00 0.000000000000000e+00 3.999999999999999e+00 1.000000000000000e+00 0.000000000000000e+00 3.899999999999999e+00 1.000000000000000e+00 0.000000000000000e+00 3.799999999999999e+00 1.000000000000000e+00 0.000000000000000e+00 3.699999999999998e+00 1.000000000000000e+00 0.000000000000000e+00 3.599999999999999e+00 1.000000000000000e+00 0.000000000000000e+00 3.499999999999999e+00 1.000000000000000e+00 0.000000000000000e+00 3.399999999999999e+00 1.000000000000000e+00 0.000000000000000e+00 3.299999999999999e+00 1.000000000000000e+00 0.000000000000000e+00 3.199999999999998e+00 1.000000000000000e+00 0.000000000000000e+00 3.099999999999999e+00 1.000000000000000e+00 0.000000000000000e+00 2.999999999999999e+00 1.000000000000000e+00 0.000000000000000e+00 2.899999999999999e+00 1.000000000000000e+00 0.000000000000000e+00 2.799999999999999e+00 1.000000000000000e+00 0.000000000000000e+00 2.699999999999999e+00 1.000000000000000e+00 0.000000000000000e+00 2.599999999999999e+00 1.000000000000000e+00 0.000000000000000e+00 2.500000000000000e+00 1.000000000000000e+00 0.000000000000000e+00 2.399999999999999e+00 1.000000000000000e+00 0.000000000000000e+00 2.299999999999999e+00 1.000000000000000e+00 0.000000000000000e+00 2.199999999999999e+00 1.000000000000000e+00 0.000000000000000e+00 2.100000000000000e+00 1.000000000000000e+00 0.000000000000000e+00 2.000000000000000e+00 1.000000000000000e+00 0.000000000000000e+00 1.899999999999999e+00 1.000000000000000e+00 0.000000000000000e+00 1.799999999999999e+00 1.000000000000000e+00 0.000000000000000e+00 1.699999999999999e+00 1.000000000000000e+00 0.000000000000000e+00 1.599999999999999e+00 1.000000000000000e+00 0.000000000000000e+00 1.500000000000000e+00 1.000000000000000e+00 0.000000000000000e+00 1.399999999999999e+00 1.000000000000000e+00 0.000000000000000e+00 1.299999999999999e+00 1.000000000000000e+00 0.000000000000000e+00 1.199999999999999e+00 1.000000000000000e+00 0.000000000000000e+00 1.100000000000000e+00 1.000000000000000e+00 0.000000000000000e+00 9.999999999999991e-01 1.000000000000000e+00 0.000000000000000e+00 8.999999999999995e-01 1.000000000000000e+00 0.000000000000000e+00 7.999999999999998e-01 1.000000000000000e+00 0.000000000000000e+00 7.000000000000002e-01 1.000000000000000e+00 0.000000000000000e+00 5.999999999999996e-01 1.000000000000000e+00 0.000000000000000e+00 4.999999999999991e-01 1.000000000000000e+00 0.000000000000000e+00 3.999999999999995e-01 1.000000000000000e+00 0.000000000000000e+00 3.000000000000007e-01 1.000000000000000e+00 0.000000000000000e+00 1.999999999999993e-01 1.000000000000000e+00 0.000000000000000e+00 9.999999999999964e-02 1.000000000000000e+00 0.000000000000000e+00 0.000000000000000e+00 8.999999999995836e-01 0.000000000000000e+00 0.000000000000000e+00 7.999999999999998e-01 0.000000000000000e+00 0.000000000000000e+00 7.000000000006934e-01 0.000000000000000e+00 0.000000000000000e+00 6.000000000013869e-01 0.000000000000000e+00 0.000000000000000e+00 5.000000000020587e-01 0.000000000000000e+00 0.000000000000000e+00 4.000000000016644e-01 0.000000000000000e+00 0.000000000000000e+00 3.000000000012483e-01 0.000000000000000e+00 0.000000000000000e+00 2.000000000008322e-01 0.000000000000000e+00 0.000000000000000e+00 1.000000000004160e-01 0.000000000000000e+00 7.477570327540725e-01 4.905967956478702e-01 0.000000000000000e+00 1.346210646643281e+00 4.806066422083806e-01 0.000000000000000e+00 1.949496869330408e+00 5.032480558805372e-01 0.000000000000000e+00 4.449999999999997e+00 5.000000000000384e-01 0.000000000000000e+00 3.859142349610828e+00 5.103468031113156e-01 0.000000000000000e+00 3.246530027037640e+00 5.183101712757180e-01 0.000000000000000e+00 2.657531292711257e+00 5.037429884868682e-01 0.000000000000000e+00 3.824015840967434e-01 6.064457502813875e-01 0.000000000000000e+00 2.306343155343502e+00 6.315316747431162e-01 0.000000000000000e+00 1.049999999998266e+00 3.374999999994497e-01 0.000000000000000e+00 1.641930697057102e+00 3.436055112169133e-01 0.000000000000000e+00 4.150000000000006e+00 6.625000000000185e-01 0.000000000000000e+00 3.552784161359181e+00 6.642488388863971e-01 0.000000000000000e+00 2.940292465243163e+00 6.575992780735344e-01 0.000000000000000e+00 1.641237689750194e+00 6.703960699373966e-01 0.000000000000000e+00 1.050000000000000e+00 6.706367924525535e-01 0.000000000000000e+00 2.960517759676693e+00 3.261740577967960e-01 0.000000000000000e+00 3.551899302943298e+00 3.210887133285832e-01 0.000000000000000e+00 4.150779393876139e+00 3.209867287821391e-01 0.000000000000000e+00 2.213980362532827e+00 3.194901812685164e-01 0.000000000000000e+00 4.927283029162088e-01 3.252862896001115e-01 0.000000000000000e+00 4.696684455724628e+00 3.145438084075651e-01 0.000000000000000e+00 4.690990908683984e+00 6.962960281446974e-01 0.000000000000000e+00 2.487221901830106e+00 2.763334294511438e-01 0.000000000000000e+00 6.215262983536076e-01 7.328515730233995e-01 0.000000000000000e+00 2.065768881873406e+00 7.342557316219342e-01 0.000000000000000e+00 2.543072460766750e+00 7.257064952909391e-01 0.000000000000000e+00 8.105176211436336e-01 2.535517621144286e-01 0.0000000000000
[...]
<CellData Scalars="A_conc,As-lin_conc,Bs-lang_conc,Cs-freund_conc," Vectors="" Tensors="">
<DataArray type="Float64" Name="A_conc" format="ascii">
4.831280294003924e-35 3.385950538123679e-02 0.000000000000000e+00 3.598146016155100e-81 3.184506565294865e-212 0.000000000000000e+00 0.000000000000000e+00 2.240379559983848e-251 5.214016788507694e-11 3.993526364766927e-33 0.000000000000000e+00 3.784023826962088e-225 9.871171487384223e-225 0.000000000000000e+00 6.415118136799594e-84 4.909512131612623e-15 2.862067005139899e-78 5.814075107097104e-32 0.000000000000000e+00 2.082853479818477e-33 4.925783234147781e-274 8.715687984591777e-250 4.287173968147726e-217 3.110827792490979e-229 3.560208215066696e-210 2.226820214286701e-234 6.703642666180814e-36 9.312709352629378e-227 1.524488956807750e-319 6.333335485152305e-37 9.372140510497740e-246 5.560358100064043e-205 1.997933960768118e-244 0.000000000000000e+00 0.000000000000000e+00 3.365461341129047e-76 1.801711407510599e-230 3.070450576456813e-274 3.456026059770435e-222 2.280169135836224e-213 0.000000000000000e+00 1.939016343803174e-232 0.000000000000000e+00 0.000000000000000e+00 1.180367200543028e-284 0.000000000000000e+00 4.291537934686932e-14 5.613785033384413e-292 0.000000000000000e+00 0.000000000000000e+00 1.258196404624809e-08 2.845900347636756e-223 4.321661633421136e-16 1.504308820377799e-207 2.143141691896954e-29 1.327962889515854e-01 1.024294105099360e-268 1.359703591338892e-255 8.990711410663258e-234 1.123000134762739e-15 0.000000000000000e+00 1.445550217515796e-255 4.059859603446964e-310 2.230878850931430e-303 3.272380140703851e-292 9.881312916824931e-324 3.287866426260742e-293 5.596166729935430e-255 7.821055918641432e-04 1.278574151969180e-238 4.888719617098107e-277 0.000000000000000e+00 4.294114994433752e-240 3.403218494221447e-32 1.706621523858629e-287 0.000000000000000e+00 2.941604622401478e-227 0.000000000000000e+00 3.127143615973634e-278 1.105700796489271e-273 2.992556983184121e-15 0.000000000000000e+00 1.180454019085218e-255 0.000000000000000e+00 2.033669528866237e-301 3.980173618994476e-223 0.000000000000000e+00 1.328133168124334e-282 1.227137846047337e-216 8.648448738024798e-260 0.000000000000000e+00 4.547876325363934e-301 1.614975811535482e-244 3.939946898723314e-309 0.000000000000000e+00 1.090337905133016e-81 3.598071532727896e-309 1.555790135199546e-249 0.000000000000000e+00 1.121109226564143e-230 2.031700602540412e-315 1.364063090622830e-211 2.371515100037983e-322 1.022724718216527e-305 4.756986892349226e-234 3.096579094070454e-280 5.063666893687944e-78 1.458656622337538e-222 5.142441399403566e-239 4.571238032518840e-276 1.422897641122918e-268 3.302310186561465e-221 4.879876925951877e-226 3.081951875227294e-239 4.936212574436224e-219 2.341161842464742e-247 3.651929754143753e-84 3.065259285313037e-269 2.214571076342874e-290 4.013279738623762e-223 2.557224699836623e-285 1.476144771946795e-208 9.121687212072495e-280 3.588479734967584e-217 1.741267080574208e-227 6.690927524202119e-270 0.000000000000000e+00 1.394213760959265e-222 4.475640259155567e-244 1.792560727630484e-266 0.000000000000000e+00 1.157819071677958e-260 9.554263987600671e-276 4.327040638513423e-262 6.492862497951910e-319 2.199114298943054e-289 3.841034378576881e-34 9.687623738172163e-02 6.972160113330396e-289 1.721324710110903e-319 1.948115424963069e-264 9.309029345000515e-235 8.524528066156516e-212 0.000000000000000e+00 0.000000000000000e+00 0.000000000000000e+00 5.653768298714106e-289 2.552255599289606e-245 0.000000000000000e+00 1.130168389339837e-284 4.180866203175810e-250 0.000000000000000e+00 3.713940866353234e-319 3.166366007714509e-297 1.757283005441487e-316 0.000000000000000e+00 3.098113948556820e-249 6.297247108602486e-244 4.009050648100164e-227 0.000000000000000e+00 5.383339976476059e-14 1.778301198336807e-268 1.231408618544069e-284 0.000000000000000e+00 8.060864873489381e-315 3.671284379644561e-217 4.516559888872070e-222 7.144069565464225e-277 4.837435891756909e-277 0.000000000000000e+00 2.913375058606516e-213 1.311842919712070e-240 0.000000000000000e+00 0.000000000000000e+00 4.339617696358432e-275 2.857923902268665e-314 3.366167343441661e-257 0.000000000000000e+00 5.134760581402453e-294 1.206422616130658e-276 7.313206429141498e-310 4.505570351494877e-253 1.864977884120379e-279 2.437848029155983e-281 5.346945039859187e-299 3.311933927990119e-233 6.591274306818698e-228 2.081113835118414e-276 0.000000000000000e+00 2.546918187077015e-279 3.536590796714502e-235 1.112677121397631e-246 7.482518436098233e-33 7.668962784727754e-206 3.959023499115318e-220 4.510204127977719e-273 9.287053815177032e-212 2.750447649233207e-218 0.000000000000000e+00 0.000000000000000e+00 8.633262489364846e-227 6.023350621254184e-298 1.832449062290564e-01 3.181368575441738e-266 1.871484060134810e-314 4.237317601535559e-258 0.000000000000000e+00 3.160102236582709e-239 5.104940183291935e-14 6.132331258646880e-161 3.728966673213639e-279 0.000000000000000e+00 2.964393875047479e-323 2.410079405397522e-35 4.866592359153306e-81 2.274296419521993e-316 6.178293696609705e-222 5.928787750094959e-322 1.009438053865942e-211 0.000000000000000e+00 0.000000000000000e+00 2.348250009215115e-216 5.841545159697366e-278 3.770824257594575e-256 1.559032498795728e-250 1.635844603099631e-01 3.726792843865244e-215 7.174705273014381e-87 0.000000000000000e+00 7.135735838677048e-268 7.243887090206623e-263 5.512435953970773e-225 2.792371517081713e-212 1.939986834103020e-213 2.229116468388664e-311 7.558372388094342e-294 1.414651752410298e-284 9.881312916824931e-324 2.248433976066137e-220 0.000000000000000e+00 7.730235706928873e-285 6.065603999846464e-240 0.000000000000000e+00 1.306352535796266e-308 0.000000000000000e+00 1.628200322203826e-305 3.565933565250581e-249 0.000000000000000e+00 4.068298576014409e-14 0.000000000000000e+00 1.777990198279014e-308 4.479183468413437e-287 0.000000000000000e+00 1.128323488734692e-305 2.360094698226027e-251 4.666926905872804e-247 2.106879728766909e-82 0.000000000000000e+00 3.323024858136446e-14 0.000000000000000e+00 1.519293365266948e-290 5.631285269376703e-241 3.288913088242144e-293 1.791611295786548e-297 2.452249360913250e-238 2.800876021566552e-14 4.317114342872513e-208 7.746306819024985e-85 7.114013531813531e-246 0.000000000000000e+00 0.000000000000000e+00 1.125322492688211e-255 6.536302496010755e-280 0.000000000000000e+00 1.069444990168665e-37 2.545883363179443e-14 3.737313173249619e-37 5.677338411204754e-203 6.471806972184654e-240 4.427307534458478e-235 2.988180896101831e-271 4.766214945849367e-271 2.018310165906457e-282 3.994568645058596e-33 8.638759718465001e-231 1.157779811400196e-237 8.950220978096789e-234 1.101814066858111e-257 2.522254528584148e-319 1.578544029847432e-297 1.435061158549648e-249 0.000000000000000e+00 2.536499518337210e-256 2.307837986330486e-251 0.000000000000000e+00 5.085019444211970e-305 2.948317904254139e-254 2.964377765904508e-34 0.000000000000000e+00 9.980085916216667e-289 0.000000000000000e+00 1.346805521442235e-271 3.598295115940649e-301 3.718475931229134e-245 4.257237550672500e-230 4.009600412966918e-15 2.044929125926435e-15 6.219190345541870e-234 2.245222975562727e-300 0.000000000000000e+00 2.649565802311867e-296 0.000000000000000e+00 0.000000000000000e+00 1.314279381611548e-258 0.000000000000000e+00 8.553678639157301e-88 6.402639628675191e-295 5.415673856216102e-290 1.863355156686580e-13 3.944796140115929e-257 1.615732491270750e-261 1.114737882886803e-269 9.621929325182124e-265 2.720435477259053e-225 6.765043584849383e-306 3.673237085105600e-306 1.422346061682515e-310 2.805732789878689e-220 0.000000000000000e+00 1.936521146369275e-81 1.078690613119695e-01 6.393422866986331e-02 7.287515323106705e-02 1.033462767979453e-01 2.002685947765838e-238 7.401144643419956e-33 2.591868809748739e-210 4.834428484984925e-280 5.754494497803751e-315 9.401334863518438e-262 2.061816792823476e-309 5.174085939944557e-220 0.000000000000000e+00 9.409939814885234e-278 0.000000000000000e+00 4.029121022828710e-205 6.719015068141891e-281 0.000000000000000e+00 6.628923511089131e-230 1.275601645752732e-252 1.711768463614577e-01 0.000000000000000e+00 5.750187710851004e-241 1.250480149624195e-320 4.700764232575039e-14 6.907711431180511e-253 1.889714099675440e-274 3.475867061638291e-269 2.947389173055480e-316 4.198162704784171e-259 3.343318504915104e-79 0.000000000000000e+00 2.117150371266210e-32 2.206570434688699e-264 7.297749568683833e-81 5.780804361672052e-260 1.485820734188268e-244 6.445288842390047e-302 7.314004754444748e-315 3.581869109489628e-05 1.845355104283871e-01 1.845355194273789e-01 3.733765185304549e-225 1.869611845492962e-219 0.000000000000000e+00 3.689563511599294e-285 2.362755929530426e-250 4.461485403355294e-285 4.126908967684374e-260 3.648037631049459e-301 5.297664443397720e-06 5.538516690458507e-32 1.161350951672679e-211 7.629180025592260e-296 0.000000000000000e+00 1.550210308863385e-263 1.811031454250335e-271 0.000000000000000e+00 4.175274621016761e-300 4.747329389628352e-227 7.274913191263456e-07 2.509853480873532e-321 3.010890957813943e-224 6.730847452882821e-244 1.654766180496745e-255 1.649153147020532e-31 1.589777440142999e-203 1.714596604749516e-272 2.188722558249672e-276 1.287334284603266e-255 0.000000000000000e+00 2.923869357155740e-36 9.834320324428045e-249 7.794025114907735e-95 1.119355127217928e-319 1.430182117671154e-210 7.723956365047469e-249 0.000000000000000e+00 7.060215172354103e-192 3.803319055032962e-275 0.000000000000000e+00 1.836059754399675e-01 0.000000000000000e+00 5.735972982918371e-224 1.007340802875652e-259 5.634877808879260e-18 3.584256610008801e-242 9.296586688895860e-229 1.221094621997585e-310 2.493878902426963e-310 1.722729791709111e-243 0.000000000000000e+00 3.151633798227139e-279 8.917181965549037e-232 4.513324455021008e-261 3.560547026937147e-90 1.885333616720906e-285 8.635792397733839e-270 0.000000000000000e+00 2.683275065448997e-292 8.914217726680553e-236 4.920578567951749e-34 9.345938206153945e-265 0.000000000000000e+00 1.366893585373548e-296 4.579042189432972e-240 1.465595791144693e-201 2.522349341210917e-311 1.260227496771770e-301 1.029336863575693e-314 0.000000000000000e+00 5.993365915383704e-307 4.433478648145339e-298 4.640042711643382e-269 0.000000000000000e+00 7.740428473252357e-258 1.832635557850295e-314 0.000000000000000e+00 2.412578293376315e-32 1.533051684912946e-01 0.000000000000000e+00 1.233753385760963e-250 0.000000000000000e+00 1.195423649406719e-01 1.048292425956033e-273 0.000000000000000e+00 0.000000000000000e+00 2.404986031051246e-218 0.000000000000000e+00 9.727231379701310e-282 4.331397012459331e-217 7.518862059292497e-16 1.108569061047235e-32 0.000000000000000e+00 6.213320428188888e-95 7.811837946185825e-203 1.302848790445662e-01 6.688582560445862e-02 8.186491490920203e-229 8.692310293327575e-256 0.000000000000000e+00 0.000000000000000e+00 0.000000000000000e+00 2.500898421576879e-29 1.761225852726454e-71 1.781525151076750e-22 1.552410249927911e-241 1.523552983185353e-213 3.659786078392979e-254 0.000000000000000e+00 3.885552713952160e-237 3.817724541693586e-241 1.116726622612912e-217 5.558136937299436e-314 3.316357551519252e-263 1.804068748429518e-303 1.881326555164712e-248 5.578688796051840e-302 2.216574998132223e-306 8.111510111809844e-209 5.885106471159101e-272 5.703544263303050e-02 4.568247993763836e-214 2.784745118238152e-262 1.778692611820037e-253 6.505686382637912e-310 0.000000000000000e+00 9.532291865081482e-224 0.000000000000000e+00 4.151484629000396e-217 9.366998285824193e-254 2.828232751177939e-208 0.000000000000000e+00 1.482637263177368e-278 0.000000000000000e+00 1.523758831463294e-289 8.580735449437161e-316 1.216875854245081e-226 1.044330675030550e-294 0.000000000000000e+00 1.840117453304383e-229 4.505790888855971e-14 0.000000000000000e+00 3.083495308318181e-198 1.180104826027270e-260 1.094024467449639e-218 7.419871201062392e-264 1.992712167996800e-232 5.084616158585908e-279 6.219262361372976e-276 4.855379694489246e-82 8.006692035875582e-33 1.381990056088960e-272 1.606744945242740e-295 1.834113535478542e-130 1.681521668281182e-223 9.692451568518121e-234 5.726099065470032e-252 0.000000000000000e+00 4.949957263732780e-60 0.000000000000000e+00 8.890903869349077e-227 1.274276578065131e-223 3.593447645128533e-244 0.000000000000000e+00 0.000000000000000e+00 0.000000000000000e+00 3.461398638658505e-203 2.193684621010807e-83 5.059185336591573e-223 0.000000000000000e+00 5.841798074075452e-247 1.126617671265638e-313 4.279776308811447e-301 0.000000000000000e+00 2.437335411181303e-292 7.604931148581687e-293 8.031283105810626e-215 0.000000000000000e+00 2.509766730551780e-32 8.915528539556860e-14 2.873469008931148e-224 1.471052768146998e-248 7.304306079904096e-275 0.000000000000000e+00 2.349062016617815e-80 2.014084641054945e-233 1.774695219597512e-60 8.847856604613559e-17 1.757689017840264e-39 2.354840308171339e-286 3.633698042774747e-219 8.161590626664597e-229 0.000000000000000e+00 2.867394727932375e-292 5.772713996829232e-254 8.263534796133163e-264 1.262819152291298e-13 2.807818492434827e-03 1.074200213360053e-31 2.766568913295343e-236 0.000000000000000e+00 1.954261541308426e-215 5.156379623687610e-264 1.323076438626047e-231 8.900911394411464e-229 7.568442358409730e-276 0.000000000000000e+00 1.084258278009169e-304 9.049352282916555e-209 0.000000000000000e+00 3.293097827755898e-04 1.630980192612674e-10 1.386593093844015e-233 1.208131465235656e-252 1.155983894234388e-313 0.000000000000000e+00 0.000000000000000e+00 1.735965814983416e-252 5.169157453527199e-239 1.388037812251793e-263 3.327631670821658e-260 1.852948429618952e-279 4.404489540400586e-265 3.939298359387045e-275 1.226213490720156e-01 4.644342189168879e-02 9.230497073441259e-239 0.000000000000000e+00 1.034508454115170e-14 7.002241319652871e-295 2.304086066091909e-261 6.341899591787795e-283 9.364932398143370e-14 0.000000000000000e+00 1.058691615013183e-05 0.000000000000000e+00 2.899366648735975e-259 4.986571123129611e-274 0.000000000000000e+00 1.006206470398724e-233 1.835227802808236e-32 2.861761426770530e-279 2.913301916205965e-237 2.923591769106147e-221 1.415161606737868e-243 7.909330737598535e-266 0.000000000000000e+00 0.000000000000000e+00 5.123790537450999e-280 3.683659740496220e-264 0.000000000000000e+00 2.249231124637158e-271 3.819912250858026e-14 1.399470353670619e-237 4.255970874140544e-296 0.000000000000000e+00 1.131599059276685e-241 7.875038214037403e-32 5.705790277788809e-202 7.614015785651144e-257 6.245135635903823e-256 1.637174867105251e-295 0.000000000000000e+00 3.876589839107999e-276 1.691411457077333e-228 5.301935139255635e-290 3.892265835654435e-310 1.974918985807307e-233 0.000000000000000e+00 5.110853638735245e-288 8.647059906820675e-261 8.204217163395307e-256 6.344847651397369e-259 2.083008912775184e-280 0.000000000000000e+00 9.359332420295867e-284 0.000000000000000e+00 3.931668979479802e-281 2.243271565042425e-243 8.677966579270422e-229 3.695065060591771e-221 5.355416354099693e-14 9.498150334571771e-229 2.765979821968688e-278 0.000000000000000e+00 3.185991251475871e-215 5.495141157519648e-241 2.978303297515178e-246 1.665527789094809e-231 2.564065779831850e-239 1.504559114462938e-252 2.266230952428826e-81 2.818934413480453e-234 1.483448739429608e-262 2.081020229348220e-289 0.000000000000000e+00 0.000000000000000e+00 0.000000000000000e+00 1.093149400771250e-232 3.870150108621939e-219 1.254604002465542e-252 7.117037309901784e-257 0.000000000000000e+00 7.730368521228605e-280 7.094427025323785e-275 8.216654347930745e-301 8.138693560069647e-16 0.000000000000000e+00 2.511854299523437e-311 4.873476019024029e-269 2.736809536086375e-300 5.791711827952128e-297 4.613153734325957e-14 0.000000000000000e+00 2.842240176422940e-200 3.554892140924109e-33 1.737898187219798e-01 1.713823792181517e-01 5.129314016644254e-265 2.150015951636477e-14 1.260095220638228e-310 5.177254708765394e-315 0.000000000000000e+00 1.960413380762296e-237 3.331381879839676e-242 0.000000000000000e+00 1.743134533844729e-238 1.666317372538084e-283 0.000000000000000e+00 4.035227116407811e-237 8.705679704327435e-296 1.546327954150971e-01 1.726683764301754e-01 1.731164849642864e-01 1.555627324749276e-01 1.440867687103962e-01 1.492920558704092e-01 4.368972814885193e-223 7.008242584613345e-284 0.000000000000000e+00 0.000000000000000e+00 6.984140496456600e-264 2.225161042736929e-274 9.436923536380727e-85 1.557842586999884e-246 1.120605636785522e-213 1.587818326429733e-269 3.890590520323599e-17 1.458235056295916e-223 9.659815660540557e-219 3.448942527366479e-285 2.778625192211171e-320 7.176910128895219e-14 3.645883568350974e-16 1.286389639017771e-216 0.000000000000000e+00 1.742029200373120e-279 3.477055521691966e-215 1.785232855535090e-284 6.825963655411381e-300 0.000000000000000e+00 2.451476795688691e-266 2.470624568989533e-258 1.976262583364986e-323 1.349174311518138e-14 2.000786693032860e-255 9.123083114253376e-300 1.842942189481118e-237 4.351670619449744e-32 1.362083104602758e-296 1.439125798866270e-227 3.326536941430770e-219 0.000000000000000e+00 0.000000000000000e+00 3.732163336968563e-266 8.982778152508846e-267 4.396871454355902e-229 7.314083234859154e-197 0.000000000000000e+00 1.884445167763187e-01 1.884445198200679e-01 7.402451976960732e-265 1.929546902475327e-232 0.000000000000000e+00 3.263988968438202e-15 8.801734707476911e-234 1.787569353549242e-280 9.118206159372136e-245 0.000000000000000e+00 3.055497126108686e-14 8.701335934862282e-319 1.716668827786936e-01 1.716668942456759e-01 3.755082871182119e-288 4.115567196874092e-210 3.257727685472460e-220 2.247170006109957e-221 2.510011292428729e-211 4.814921368279712e-280 8.027460826202964e-61 1.036493127196639e-161 4.549641465396453e-247 3.365341156832874e-279 0.000000000000000e+00 3.249064486973150e-287 2.302508533329129e-289 5.522740808964007e-216 0.000000000000000e+00 1.493309779594924e-01 1.506102656284932e-01 2.299492911213377e-249 2.919379106135851e-224 2.289492517060996e-265 1.829583210460504e-240 6.916919041777452e-323 1.584152733358320e-251 7.069737758073691e-212 5.166523156429216e-248 1.461088244653255e-243 8.731949571335511e-14 8.366400699378196e-14 8.584956016269922e-274 5.738509944289693e-269 0.000000000000000e+00 2.590430809886639e-249 1.646980824580590e-234 0.000000000000000e+00 0.000000000000000e+00 5.343805230930135e-270 3.017974190481570e-274 0.000000000000000e+00 1.406791327361352e-77 3.322789094540720e-319 2.697345178682974e-236 1.027406711230742e-292 3.550023897458192e-224 0.000000000000000e+00 1.623940570806369e-305 4.924183919829518e-249 2.492288014745020e-261 1.205381837471806e-318 0.000000000000000e+00 9.881312916824931e-324 6.928695717840131e-242 3.869723076510678e-293 1.151949437576188e-32 3.008290926203808e-284 1.908603337687755e-196 5.883269656440331e-207 7.640651504681549e-252 0.000000000000000e+00 3.296403118473174e-26 6.725809811627770e-302 2.689928674073722e-241 0.000000000000000e+00 4.882260425173413e-235 6.042114561776774e-289 0.000000000000000e+00 4.374076087393841e-243 0.000000000000000e+00 0.000000000000000e+00 1.294585144709283e-14 1.503572883866815e-78 4.297263432842436e-243 0.000000000000000e+00 4.029952843644790e-10 4.803519512599623e-04 5.186629595362717e-15 1.018207925708873e-300 0.000000000000000e+00 4.582535582476016e-28 5.399672381381341e-285 4.882877683382778e-39 1.303264505423438e-16 2.396294197866817e-264 3.237564535201161e-98 3.024524358843082e-254 7.565012556962210e-275 0.000000000000000e+00 6.524184654432173e-288 7.149664603294044e-231 9.990524197129495e-236 1.758407623937342e-309 3.622196391565538e-286 2.626896398051771e-294 3.748007105170403e-40 0.000000000000000e+00 1.000548448199722e-79 0.000000000000000e+00 0.000000000000000e+00 1.238146898004443e-14 7.651791542905855e-04 1.520307532970707e-01 1.720296175634334e-01 5.969894464375279e-281 1.939780170043813e-287 0.000000000000000e+00 0.000000000000000e+00 4.490601083459336e-285 1.340665728521787e-253 1.499058435279984e-313 4.772546422856992e-316 3.848452371205752e-14 0.000000000000000e+00 0.000000000000000e+00 1.222780052128067e-196 1.11541650