<?xml version="1.0"?>
<VTKFile type="UnstructuredGrid" version="0.1" byte_order="LittleEndian">
<UnstructuredGrid>
<Piece NumberOfPoints="714" NumberOfCells="1306">
<Points>
<DataArray type="Float64" NumberOfComponents="3" format="ascii">
0.000000000000000e+00 0.000000000000000e+00 0.000000000000000e+00 5.000000000000000e+00 0.000000000000000e+00 0.000000000000000e+00 5.000000000000000e+00 1.000000000000000e+00 0.000000000000000e+00 0.000000000000000e+00 1.000000000000000e+00 0.000000000000000e+00 9.999999999992801e-02 0.000000000000000e+00 0.000000000000000e+00 1.999999999998339e-01 0.000000000000000e+00 0.000000000000000e+00 2.999999999997341e-01 0.000000000000000e+00 0.000000000000000e+00 3.999999999996643e-01 0.000000000000000e+00 0.000000000000000e+00 4.999999999995944e-01 0.000000000000000e+00 0.000000000000000e+00 5.999999999995166e-01 0.000000000000000e+00 0.000000000000000e+00 6.999999999992880e-01 0.000000000000000e+00 0.000000000000000e+00 7.999999999989961e-01 0.000000000000000e+00 0.000000000000000e+00 8.999999999987042e-01 0.000000000000000e+00 0.000000000000000e+00 9.999999999984124e-01 0.000000000000000e+00 0.000000000000000e+00 1.099999999998120e+00 0.000000000000000e+00 0.000000000000000e+00 1.199999999997829e+00 0.000000000000000e+00 0.000000000000000e+00 1.299999999997537e+00 0.000000000000000e+00 0.000000000000000e+00 1.399999999997245e+00 0.000000000000000e+00 0.000000000000000e+00 1.499999999996953e+00 0.000000000000000e+00 0.000000000000000e+00 1.599999999996661e+00 0.000000000000000e+00 0.000000000000000e+00 1.699999999996369e+00 0.000000000000000e+00 0.000000000000000e+00 1.799999999996077e+00 0.000000000000000e+00 0.000000000000000e+00 1.899999999995785e+00 0.000000000000000e+00 0.000000000000000e+00 1.999999999995511e+00 0.000000000000000e+00 0.000000000000000e+00 2.099999999995593e+00 0.000000000000000e+00 0.000000000000000e+00 2.199999999995745e+00 0.000000000000000e+00 0.000000000000000e+00 2.299999999995897e+00 0.000000000000000e+00 0.000000000000000e+00 2.399999999996049e+00 0.000000000000000e+00 0.000000000000000e+00 2.499999999996201e+00 0.000000000000000e+00 0.000000000000000e+00 2.599999999996353e+00 0.000000000000000e+00 0.000000000000000e+00 2.699999999996505e+00 0.000000000000000e+00 0.000000000000000e+00 2.799999999996657e+00 0.000000000000000e+00 0.000000000000000e+00 2.899999999996809e+00 0.000000000000000e+00 0.000000000000000e+00 2.999999999996961e+00 0.000000000000000e+00 0.000000000000000e+00 3.099999999997114e+00 0.000000000000000e+00 0.000000000000000e+00 3.199999999997265e+00 0.000000000000000e+00 0.000000000000000e+00 3.299999999997417e+00 0.000000000000000e+00 0.000000000000000e+00 3.399999999997569e+00 0.000000000000000e+00 0.000000000000000e+00 3.499999999997721e+00 0.000000000000000e+00 0.000000000000000e+00 3.599999999997873e+00 0.000000000000000e+00 0.000000000000000e+00 3.699999999998025e+00 0.000000000000000e+00 0.000000000000000e+00 3.799999999998176e+00 0.000000000000000e+00 0.000000000000000e+00 3.899999999998329e+00 0.000000000000000e+00 0.000000000000000e+00 3.999999999998481e+00 0.000000000000000e+00 0.000000000000000e+00 4.099999999998633e+00 0.000000000000000e+00 0.000000000000000e+00 4.199999999998784e+00 0.000000000000000e+00 0.000000000000000e+00 4.299999999998937e+00 0.000000000000000e+00 0.000000000000000e+00 4.399999999999088e+00 0.000000000000000e+00 0.000000000000000e+00 4.499999999999240e+00 0.000000000000000e+00 0.000000000000000e+00 4.599999999999393e+00 0.000000000000000e+00 0.000000000000000e+00 4.699999999999545e+00 0.000000000000000e+00 0.000000000000000e+00 4.799999999999696e+00 0.000000000000000e+00 0.000000000000000e+00 4.899999999999848e+00 0.000000000000000e+00 0.000000000000000e+00 5.000000000000000e+00 9.999999999981467e-02 0.000000000000000e+00 5.000000000000000e+00 1.999999999995579e-01 0.000000000000000e+00 5.000000000000000e+00 2.999999999992664e-01 0.000000000000000e+00 5.000000000000000e+00 3.999999999989749e-01 0.000000000000000e+00 5.000000000000000e+00 4.999999999986943e-01 0.000000000000000e+00 5.000000000000000e+00 5.999999999989468e-01 0.000000000000000e+00 5.000000000000000e+00 6.999999999992100e-01 0.000000000000000e+00 5.000000000000000e+00 7.999999999994734e-01 0.000000000000000e+00 5.000000000000000e+00 8.999999999997368e-01 0.000000000000000e+00 4.899999999999999e+00 1.000000000000000e+00 0.000000000000000e+00 4.800000000000000e+00 1.000000000000000e+00 0.000000000000000e+00 4.699999999999999e+00 1.000000000000000e+00 0.000000000000000e+00 4.600000000000000e+00 1.000000000000000e+00 0.000000000000000e+00 4.499999999999999e+00 1.000000000000000e+00 0.000000000000000e+00 4.399999999999999e+00 1.000000000000000e+00 0.000000000000000e+00 4.299999999999999e+00 1.000000000000000e+00 0.000000000000000e+00 4.199999999999998e+00 1.000000000000000e+00 0.000000000000000e+00 4.099999999999999e+00 1.000000000000000e+00 0.000000000000000e+00 3.999999999999999e+00 1.000000000000000e+00 0.000000000000000e+00 3.899999999999999e+00 1.000000000000000e+00 0.000000000000000e+00 3.799999999999999e+00 1.000000000000000e+00 0.000000000000000e+00 3.699999999999998e+00 1.000000000000000e+00 0.000000000000000e+00 3.599999999999999e+00 1.000000000000000e+00 0.000000000000000e+00 3.499999999999999e+00 1.000000000000000e+00 0.000000000000000e+00 3.399999999999999e+00 1.000000000000000e+00 0.000000000000000e+00 3.299999999999999e+00 1.000000000000000e+00 0.000000000000000e+00 3.199999999999998e+00 1.000000000000000e+00 0.000000000000000e+00 3.099999999999999e+00 1.000000000000000e+00 0.000000000000000e+00 2.999999999999999e+00 1.000000000000000e+00 0.000000000000000e+00 2.899999999999999e+00 1.000000000000000e+00 0.000000000000000e+00 2.799999999999999e+00 1.000000000000000e+00 0.000000000000000e+00 2.699999999999999e+00 1.000000000000000e+00 0.000000000000000e+00 2.599999999999999e+00 1.000000000000000e+00 0.000000000000000e+00 2.500000000000000e+00 1.000000000000000e+00 0.000000000000000e+00 2.399999999999999e+00 1.000000000000000e+00 0.000000000000000e+00 2.299999999999999e+00 1.000000000000000e+00 0.000000000000000e+00 2.199999999999999e+00 1.000000000000000e+00 0.000000000000000e+00 2.100000000000000e+00 1.000000000000000e+00 0.000000000000000e+00 2.000000000000000e+00 1.000000000000000e+00 0.000000000000000e+00 1.899999999999999e+00 1.000000000000000e+00 0.000000000000000e+00 1.799999999999999e+00 1.000000000000000e+00 0.000000000000000e+00 1.699999999999999e+00 1.000000000000000e+00 0.000000000000000e+00 1.599999999999999e+00 1.000000000000000e+00 0.000000000000000e+00 1.500000000000000e+00 1.000000000000000e+00 0.000000000000000e+00 1.399999999999999e+00 1.000000000000000e+00 0.000000000000000e+00 1.299999999999999e+00 1.000000000000000e+00 0.000000000000000e+00 1.199999999999999e+00 1.000000000000000e+00 0.000000000000000e+00 1.100000000000000e+00 1.000000000000000e+00 0.000000000000000e+00 9.999999999999991e-01 1.000000000000000e+00 0.000000000000000e+00 8.999999999999995e-01 1.000000000000000e+00 0.000000000000000e+00 7.999999999999998e-01 1.000000000000000e+00 0.000000000000000e+00 7.000000000000002e-01 1.000000000000000e+00 0.000000000000000e+00 5.999999999999996e-01 1.000000000000000e+00 0.000000000000000e+00 4.999999999999991e-01 1.000000000000000e+00 0.000000000000000e+00 3.999999999999995e-01 1.000000000000000e+00 0.000000000000000e+00 3.000000000000007e-01 1.000000000000000e+00 0.000000000000000e+00 1.999999999999993e-01 1.000000000000000e+00 0.000000000000000e+00 9.999999999999964e-02 1.000000000000000e+00 0.000000000000000e+00 0.000000000000000e+00 8.999999999995836e-01 0.000000000000000e+00 0.000000000000000e+00 7.999999999999998e-01 0.000000000000000e+00 0.000000000000000e+00 7.000000000006934e-01 0.000000000000000e+00 0.000000000000000e+00 6.000000000013869e-01 0.000000000000000e+00 0.000000000000000e+00 5.000000000020587e-01 0.000000000000000e+00 0.000000000000000e+00 4.000000000016644e-01 0.000000000000000e+00 0.000000000000000e+00 3.000000000012483e-01 0.000000000000000e+00 0.000000000000000e+00 2.000000000008322e-01 0.000000000000000e+00 0.000000000000000e+00 1.000000000004160e-01 0.000000000000000e+00 7.477570327540725e-01 4.905967956478702e-01 0.000000000000000e+00 1.346210646643281e+00 4.806066422083806e-01 0.000000000000000e+00 1.949496869330408e+00 5.032480558805372e-01 0.000000000000000e+00 4.449999999999997e+00 5.000000000000384e-01 0.000000000000000e+00 3.859142349610828e+00 5.103468031113156e-01 0.000000000000000e+00 3.246530027037640e+00 5.183101712757180e-01 0.000000000000000e+00 2.657531292711257e+00 5.037429884868682e-01 0.000000000000000e+00 3.824015840967434e-01 6.064457502813875e-01 0.000000000000000e+00 2.306343155343502e+00 6.315316747431162e-01 0.000000000000000e+00 1.049999999998266e+00 3.374999999994497e-01 0.000000000000000e+00 1.641930697057102e+00 3.436055112169133e-01 0.000000000000000e+00 4.150000000000006e+00 6.625000000000185e-01 0.000000000000000e+00 3.552784161359181e+00 6.642488388863971e-01 0.000000000000000e+00 2.940292465243163e+00 6.575992780735344e-01 0.000000000000000e+00 1.641237689750194e+00 6.703960699373966e-01 0.000000000000000e+00 1.050000000000000e+00 6.706367924525535e-01 0.000000000000000e+00 2.960517759676693e+00 3.261740577967960e-01 0.000000000000000e+00 3.551899302943298e+00 3.210887133285832e-01 0.000000000000000e+00 4.150779393876139e+00 3.209867287821391e-01 0.000000000000000e+00 2.213980362532827e+00 3.194901812685164e-01 0.000000000000000e+00 4.927283029162088e-01 3.252862896001115e-01 0.000000000000000e+00 4.696684455724628e+00 3.145438084075651e-01 0.000000000000000e+00 4.690990908683984e+00 6.962960281446974e-01 0.000000000000000e+00 2.487221901830106e+00 2.763334294511438e-01 0.000000000000000e+00 6.215262983536076e-01 7.328515730233995e-01 0.000000000000000e+00 2.065768881873406e+00 7.342557316219342e-01 0.000000000000000e+00 2.543072460766750e+00 7.257064952909391e-01 0.000000000000000e+00 8.105176211436336e-01 2.535517621144286e-01 0.0000000000000
[...]
<CellData Scalars="A_conc,As-lin_conc,Bs-lang_conc,Cs-freund_conc," Vectors="" Tensors="">
<DataArray type="Float64" Name="A_conc" format="ascii">
2.882246145226945e-34 1.055739966539178e-01 0.000000000000000e+00 4.326345583799542e-79 3.183514274036224e-212 0.000000000000000e+00 6.126414008431457e-322 8.388119466535505e-246 5.612192815403203e-05 2.382458607353298e-32 0.000000000000000e+00 8.698624877206631e-220 1.227700875042387e-223 0.000000000000000e+00 7.713422427388377e-82 8.875374646588070e-15 3.441297128762818e-76 3.468561673492812e-31 0.000000000000000e+00 1.242589083969878e-32 2.357974865873741e-267 1.390925140406650e-243 9.855253087420345e-212 1.074543160232839e-223 0.000000000000000e+00 9.473376716440978e-229 3.999260480393152e-35 6.970833723394657e-225 7.978614424606662e-311 3.778342693402041e-36 1.188983936217120e-239 1.278201600460219e-199 2.022589363583302e-238 0.000000000000000e+00 0.000000000000000e+00 2.112628531559665e-30 5.069189654896017e-225 1.641672250276491e-267 9.723672277664621e-217 2.279456823064237e-213 0.000000000000000e+00 1.880617391782942e-230 0.000000000000000e+00 1.976262583364986e-323 1.317225575051339e-277 0.000000000000000e+00 7.758205777475211e-14 1.922928599685958e-288 0.000000000000000e+00 0.000000000000000e+00 2.603672233760009e-04 2.157255462857584e-219 7.812663565284603e-16 2.180874977389358e-83 1.034616126802994e-12 1.720500512310665e-01 2.679772452327966e-262 2.066550864611054e-250 2.422523177560619e-231 2.030150238254506e-15 0.000000000000000e+00 4.267567190836604e-252 1.635397465747447e-307 1.962291119800415e-296 3.817083542127333e-285 5.652110988423860e-321 1.003297106553641e-290 1.127884141978799e-248 4.150403634166283e-02 1.919225144743513e-235 2.613837774434538e-270 0.000000000000000e+00 1.826843177770130e-234 2.030292629965305e-31 6.956892112882922e-284 0.000000000000000e+00 4.873136578098502e-226 0.000000000000000e+00 4.145914389060384e-276 4.601886728633040e-267 5.409919310127368e-15 0.000000000000000e+00 3.326582570117906e-250 0.000000000000000e+00 3.070685188524933e-299 3.051759661933806e-222 0.000000000000000e+00 2.400145749514839e-280 1.089948767940909e-215 1.743053494540648e-253 0.000000000000000e+00 1.723792717501808e-298 9.717979579080982e-238 2.008465215754052e-306 0.000000000000000e+00 1.311002579146708e-79 1.682846282077143e-306 4.023470570462673e-241 0.000000000000000e+00 5.381721783555875e-229 1.398870042844476e-308 1.363533120404970e-211 1.230356730969286e-313 2.043863122371850e-303 1.453377228258866e-228 1.272526003321868e-278 6.088460357172121e-76 1.137376338971969e-220 3.573689183969326e-233 1.509506312555704e-274 4.630563908218179e-262 1.140682579118672e-215 2.075999804829116e-220 2.498862600200855e-233 2.484255430953962e-218 7.650912745520354e-241 4.391014510297580e-82 1.275749977055629e-262 1.981833604514111e-283 4.774247890670756e-222 1.764638259608568e-278 7.559204381371072e-322 1.158514386441336e-273 1.009632588337456e-211 9.747517907402721e-226 2.784731973469855e-263 0.000000000000000e+00 1.480559889943325e-219 2.680362853663804e-238 2.364039069714962e-262 0.000000000000000e+00 2.958993982107230e-254 1.663817535317315e-273 4.124929901465336e-257 2.932264489659035e-316 2.589936552107644e-282 2.291485003777920e-33 1.539262517582968e-01 4.728743703185957e-287 8.347667935468451e-317 6.339790835790768e-258 1.302507317556954e-230 8.521812528626421e-212 0.000000000000000e+00 0.000000000000000e+00 0.000000000000000e+00 9.235846051727476e-287 2.983628476985805e-239 0.000000000000000e+00 1.559634266321667e-282 6.672161653697247e-244 0.000000000000000e+00 1.683890344256803e-316 1.112017588077389e-294 3.077305435893094e-309 0.000000000000000e+00 4.944242741743669e-243 3.349388916713165e-242 1.384807403316038e-221 0.000000000000000e+00 9.731956140856440e-14 1.793391950838080e-266 1.971683613426760e-278 0.000000000000000e+00 5.550079694000197e-308 1.032930735206267e-211 1.560110017399992e-216 1.677763985179360e-270 1.136056583598867e-270 0.000000000000000e+00 1.104608326169542e-211 1.328028809893323e-234 0.000000000000000e+00 0.000000000000000e+00 2.320249298341451e-268 1.198719309720435e-311 1.237795856528883e-250 0.000000000000000e+00 1.314367776986306e-287 6.450329805205441e-270 2.944338821458727e-307 7.507500164416310e-246 1.071631098262901e-217 7.750172086877422e-275 1.739819696090183e-292 3.212079353357625e-231 2.189350663615622e-226 4.887450221951979e-270 0.000000000000000e+00 1.757526819112811e-272 1.221612684845848e-229 1.126405575185162e-240 4.463922091843196e-32 1.762922402413564e-200 1.750726287302843e-215 2.411461905069964e-266 9.284031348705006e-212 2.178501431049875e-215 0.000000000000000e+00 0.000000000000000e+00 3.672767666156000e-221 4.162414896714327e-291 2.093160473330276e-01 4.197347009104847e-260 7.851091809868718e-312 2.097380043751751e-252 3.035539328048619e-320 2.196100701223517e-233 9.228667385932586e-14 9.045934697762112e-78 2.868813356412348e-272 0.000000000000000e+00 1.377455020605395e-320 1.437805643171887e-34 5.851502483250185e-79 9.398257934132658e-310 2.134103101322715e-216 3.143029929781036e-315 2.320471926000244e-206 0.000000000000000e+00 0.000000000000000e+00 1.525815239034494e-215 4.031011037306497e-271 3.069766316132808e-250 1.016951562412968e-244 1.923317603365094e-01 1.490020515538934e-211 8.626736292161754e-85 0.000000000000000e+00 2.969866678181778e-261 2.357393232130532e-256 1.123433147748891e-219 6.419036954779822e-207 5.458230901306589e-208 5.935281395760318e-309 6.661394526705328e-292 7.440746564213918e-283 4.901131206745166e-321 2.400685536940972e-215 0.000000000000000e+00 4.095287021637006e-283 4.215218025187595e-234 0.000000000000000e+00 1.454360687415676e-301 0.000000000000000e+00 6.398417456179496e-303 1.474707201063979e-242 0.000000000000000e+00 7.354635576947874e-14 0.000000000000000e+00 1.979710609939578e-301 4.008783459234446e-280 0.000000000000000e+00 4.435785131158614e-303 2.718108664122581e-247 2.588688025411585e-245 2.533273926834251e-80 0.000000000000000e+00 6.007336124410632e-14 0.000000000000000e+00 8.233828358787787e-284 2.395711623203165e-235 2.893973099136717e-291 2.058270115401194e-295 7.679008450805149e-236 5.063399915344856e-14 9.924077493980966e-203 9.314019783655585e-83 3.740135281449217e-240 0.000000000000000e+00 1.327653203504598e-319 2.268022135697819e-249 9.643150375417410e-278 0.000000000000000e+00 6.380097133869276e-37 4.602426361728710e-14 2.229607060145129e-36 1.305092765672018e-197 6.551649440963607e-234 3.589676845706505e-229 1.243663726032609e-264 6.239111717619809e-268 6.416402236252346e-276 2.383080409836069e-32 3.267636609391983e-226 3.625351751755283e-235 1.521828733643771e-228 2.724237538255422e-251 1.191894289999421e-316 3.305159839931387e-295 2.290200966797281e-243 0.000000000000000e+00 2.064915176538801e-250 1.505391505242761e-245 0.000000000000000e+00 1.355462328000155e-297 4.705178498292069e-248 1.768489037472758e-33 0.000000000000000e+00 2.017715797992404e-282 0.000000000000000e+00 2.343323593011348e-265 1.363325840678414e-298 1.180825176813428e-237 1.197791850054335e-224 7.248521840474967e-15 3.696805659733076e-15 6.346174016151038e-232 1.780942044056462e-297 0.000000000000000e+00 6.308386741271283e-293 0.000000000000000e+00 0.000000000000000e+00 9.074408483753041e-254 0.000000000000000e+00 1.028478938282740e-85 1.638905286097413e-288 1.094905606164885e-283 9.030425813768770e-06 6.738532628628674e-255 4.970673987436083e-259 4.639493431853740e-263 3.131283171212843e-258 5.544188021173333e-220 7.531499537302369e-299 1.255448318830910e-303 5.227195124534603e-308 1.412041562042678e-219 0.000000000000000e+00 2.328437972575465e-79 1.599504395557237e-01 1.328714569363270e-01 1.385313716366050e-01 1.573665009182773e-01 8.651395367298666e-235 4.415376429693662e-32 0.000000000000000e+00 3.336034992374580e-273 2.060500812018067e-312 9.653188958934024e-256 1.100386774237728e-302 2.287988267454787e-215 0.000000000000000e+00 7.136378831747614e-209 0.000000000000000e+00 9.262045979169468e-200 5.466991133683628e-275 0.000000000000000e+00 3.393044256241804e-224 5.413162840878018e-247 1.983766026706536e-01 0.000000000000000e+00 4.662284070194650e-235 1.116315966092256e-313 8.498001570711352e-14 3.684426059379283e-248 1.010368959744802e-267 1.446641591336523e-262 1.542567265718419e-307 1.037996859429091e-252 4.019945309137631e-77 0.000000000000000e+00 1.263049889218270e-31 1.222148572370033e-261 8.774681555375311e-79 1.744592917493471e-256 1.736960386901599e-238 1.529019632007112e-299 2.775295755107638e-312 1.671048736869158e-02 2.104736665895844e-01 2.104736747199209e-01 8.773554283823624e-224 5.626155250011839e-219 0.000000000000000e+00 3.301805472064768e-278 1.904798819380466e-247 3.992576180690584e-278 2.671043394093680e-257 3.208343602993210e-294 8.444751664893497e-03 3.304169016082328e-31 1.160958539109874e-211 6.251150512473063e-293 0.000000000000000e+00 1.006233184342007e-257 7.537428514698794e-265 0.000000000000000e+00 1.358569889103841e-293 3.854293550831838e-222 2.426970143109651e-03 1.332633441538161e-314 3.744530631461225e-223 1.891976745534276e-238 1.347116265673293e-249 9.838519305203816e-31 3.654541878793571e-198 6.094653706011457e-271 7.244657553938281e-275 2.594555300166233e-249 0.000000000000000e+00 2.304549158167451e-15 3.393537369621798e-243 9.371396465716740e-93 5.858367905655978e-311 0.000000000000000e+00 1.161476867638196e-242 0.000000000000000e+00 4.595921556624215e-85 6.618723079821945e-273 0.000000000000000e+00 2.096381176114279e-01 0.000000000000000e+00 1.089980598522240e-219 3.030122514550223e-256 4.815076865867341e-08 2.906129347272814e-236 4.073028470882788e-224 3.253875993656307e-308 1.330978017084046e-303 2.113592098285759e-239 0.000000000000000e+00 4.624768818951248e-277 3.317953856311458e-230 4.634248487575480e-255 4.281137764337671e-88 7.930869026563854e-279 2.810362418112265e-263 0.000000000000000e+00 8.166716590041087e-290 3.900876494458595e-229 2.935519670645751e-33 2.388517424986013e-258 0.000000000000000e+00 4.792621775536512e-294 3.063860792590810e-233 3.369077211373759e-196 3.530369378397954e-304 4.782580821066565e-299 4.280905313076887e-312 0.000000000000000e+00 1.197782373298576e-304 5.098989700177172e-296 1.566449815534040e-265 0.000000000000000e+00 3.873425799195810e-252 7.687681636392130e-312 0.000000000000000e+00 1.439296296864937e-31 1.841500831482766e-01 0.000000000000000e+00 1.968926135642753e-244 0.000000000000000e+00 1.658163130773654e-01 1.786375213640470e-270 0.000000000000000e+00 0.000000000000000e+00 8.307300810461063e-213 0.000000000000000e+00 6.712346514149386e-275 5.439088397786876e-258 1.716539296259210e-06 6.613503040507744e-32 0.000000000000000e+00 7.470784983434094e-93 1.795766337675468e-197 1.706865779015856e-01 1.472519746785240e-01 7.683024186402533e-224 1.279756768089904e-251 0.000000000000000e+00 0.000000000000000e+00 0.000000000000000e+00 1.902518031836395e-11 2.710662074224512e-31 6.718124908387700e-11 1.258700331721819e-235 1.887864266250440e-211 6.190606953013361e-248 0.000000000000000e+00 7.415197071277229e-229 3.095427216718813e-235 7.256353776821008e-217 3.110608446119308e-311 8.475529554534155e-257 1.586629962972892e-296 1.145796242648321e-243 8.424286406486406e-300 4.429823241357199e-304 2.865580745879230e-322 2.019005098721874e-270 1.421125924262956e-01 4.566439156514612e-214 2.631455642722145e-257 3.244592323664218e-247 2.619972191026189e-307 0.000000000000000e+00 1.165352364391286e-222 0.000000000000000e+00 2.311014312855515e-216 1.188330749334657e-247 2.134363590034185e-321 1.434041085300093e-315 1.964810903815005e-276 0.000000000000000e+00 1.035650021564868e-287 3.066727318482775e-313 1.450219577183666e-223 1.595758673523039e-287 0.000000000000000e+00 8.348632760336829e-228 8.145530925385127e-14 0.000000000000000e+00 7.088262981989067e-193 4.107298586050272e-255 2.498721617320601e-215 3.985141275994370e-261 7.250409844687303e-230 5.136181546517947e-217 1.606416376148339e-209 5.838020546469566e-80 4.776633619738010e-32 1.395677539759413e-266 1.874041524553927e-288 1.347866880742406e-59 1.505751868217348e-222 2.961315896139057e-228 3.510554418243327e-247 0.000000000000000e+00 5.752658837891294e-29 0.000000000000000e+00 3.782372490980427e-221 2.584549065581396e-223 2.984232068664545e-238 0.000000000000000e+00 0.000000000000000e+00 0.000000000000000e+00 7.956978763820852e-198 2.637646839850650e-81 3.944654005502458e-221 0.000000000000000e+00 2.240898618332838e-242 1.576979534752378e-306 1.623443898270388e-298 0.000000000000000e+00 2.842802927586911e-285 4.121506785600332e-286 2.660218799793835e-281 0.000000000000000e+00 1.497276981063027e-31 1.611741615333093e-13 8.084623647336446e-219 7.375984794958959e-244 1.268831897599195e-272 0.000000000000000e+00 2.824470060195638e-78 7.145065746287967e-225 6.090740353060690e-29 1.599508081475122e-16 1.048602481235867e-38 2.107372025307780e-279 8.353058921665618e-214 8.912298785544765e-227 0.000000000000000e+00 8.719737869199799e-290 1.163460530181868e-247 4.438477202210240e-261 2.282913603081276e-13 4.996454119013412e-02 6.408464838909717e-31 1.803020314438027e-230 6.942080912088287e-161 7.065396972442439e-312 1.174991046437588e-258 5.167578911964080e-225 4.803237837865675e-227 4.961164366998039e-270 0.000000000000000e+00 6.533729490503240e-302 2.080243470307938e-203 0.000000000000000e+00 2.257809875127145e-02 5.130028169624192e-05 4.161987687981987e-228 2.043577366090072e-246 5.645886641140102e-311 0.000000000000000e+00 0.000000000000000e+00 3.144518245673805e-248 5.426280500673847e-232 1.715264284773498e-257 8.504306512193080e-254 3.995843312704676e-276 1.433353886206110e-258 7.086889358093421e-272 1.675823734416767e-01 1.256971781933826e-01 3.390482534522467e-233 0.000000000000000e+00 1.870175646375370e-14 1.409259027660561e-287 5.888483429353483e-255 2.327271494962065e-279 1.692984455551904e-13 0.000000000000000e+00 8.421413432933046e-03 1.371081573774043e-319 3.678274999858304e-253 8.157885417583985e-268 0.000000000000000e+00 9.758900494914251e-232 1.094860488895684e-31 1.024938768812013e-272 1.898647314771601e-231 2.279590404706754e-219 1.346547229771959e-237 2.573963644443998e-259 0.000000000000000e+00 0.000000000000000e+00 3.535691136138013e-273 6.826415364338763e-262 0.000000000000000e+00 1.190611905789811e-265 6.905604904403730e-14 6.099954016351392e-234 2.941066760833461e-289 0.000000000000000e+00 1.145563210476043e-235 4.698091223665607e-31 1.311633107779775e-196 1.124761518605712e-252 9.301103020094218e-252 1.131361572262979e-288 0.000000000000000e+00 1.278837704538056e-274 1.587364401294907e-223 6.183930572811965e-283 1.037132865257342e-307 9.748511672916999e-231 0.000000000000000e+00 1.262355157061185e-285 2.209919847000947e-254 1.653530811029068e-249 1.621539829009919e-252 8.556592922045169e-279 0.000000000000000e+00 1.498585545893822e-277 0.000000000000000e+00 2.713100697137747e-274 2.522686769290246e-240 2.997536983104793e-223 4.659892475480803e-220 9.681476056237182e-14 3.154801720115705e-227 6.949011535267360e-275 0.000000000000000e+00 6.940048815946353e-215 4.677892667593694e-233 8.160616662027093e-243 1.284619058809025e-227 1.781883250752503e-233 1.524818702603385e-250 2.724874984112536e-79 1.837148725412568e-228 3.380282471180360e-257 2.427212888317835e-282 0.000000000000000e+00 0.000000000000000e+00 0.000000000000000e+00 4.650493893872235e-227 1.947779041138084e-218 1.269459046862621e-250 1.201857894012532e-254 0.000000000000000e+00 5.334404880843323e-273 3.793156818054004e-268 7.226312864575248e-294 1.471306176468108e-15 0.000000000000000e+00 8.108864474746879e-305 3.186337133765814e-263 5.508056236217306e-293 6.653635963873946e-295 8.339620063337340e-14 0.000000000000000e+00 7.428099907160631e-96 2.120778167502423e-32 2.005856739560557e-01 1.985891984716722e-01 3.329403695164307e-259 3.886780626809644e-14 3.357530500415787e-308 1.853510501409273e-312 0.000000000000000e+00 4.413831437971421e-232 9.324476581623748e-237 0.000000000000000e+00 4.348057646862984e-235 3.188848052433607e-281 0.000000000000000e+00 1.496497410872542e-227 1.382373507943313e-289 1.851369837757512e-01 1.996265240349453e-01 2.000159425546687e-01 1.856846744122165e-01 1.787050886411066e-01 1.817451484871811e-01 1.858651114889747e-217 1.345876647879090e-281 0.000000000000000e+00 0.000000000000000e+00 2.272865876213229e-257 2.247050483948364e-268 1.134678641946054e-82 1.976337493930206e-240 5.125453840793959e-227 1.281532081104804e-263 7.033376850994264e-17 2.770907840768483e-219 2.206143941705977e-215 1.819041968294742e-283 1.343442553414392e-317 1.297435681911453e-13 6.590997663382209e-16 1.483554482008379e-211 0.000000000000000e+00 1.202103421402882e-272 1.390079987303697e-211 1.597615976971968e-277 1.819524906768070e-292 0.000000000000000e+00 3.243824961101456e-262 1.234982746554887e-252 1.123011212997153e-320 2.439025915534717e-14 4.032475975534347e-249 1.836096937736162e-292 2.850238002958317e-232 2.596120211251362e-31 4.773232416104797e-294 1.143095569589867e-223 7.597959515259469e-216 0.000000000000000e+00 0.000000000000000e+00 1.214559087681774e-259 1.180831457808272e-262 4.126515819719417e-224 1.681343268120575e-191 0.000000000000000e+00 2.140682944097402e-01 2.140682972457258e-01 2.408988540627451e-258 7.019854950174809e-230 0.000000000000000e+00 5.900611763323099e-15 3.744435121204539e-228 7.482364527826402e-279 1.065934003598565e-238 0.000000000000000e+00 5.523701775295318e-14 3.929709215205024e-316 1.987370910580150e-01 1.987371006988180e-01 9.302355715498109e-286 1.489541807462670e-231 1.279142337205863e-214 1.752182935721527e-219 5.769954122476503e-206 3.322583884595215e-273 5.212840729284435e-30 9.003111338471434e-81 1.569346272602409e-241 1.799344621301560e-272 2.690844548914556e-318 2.907603579497871e-280 2.060534283309870e-282 3.641908358298448e-254 0.000000000000000e+00 1.819732440865002e-01 1.825969309442136e-01 1.864443924750667e-243 8.173108118752856e-223 2.015046322397661e-260 4.404804849996594e-238 3.390278461762634e-320 2.528126412118795e-245 2.408361295669381e-211 1.268022254876015e-242 1.003443479953280e-239 1.578554368399039e-13 1.512470759639112e-13 8.669437038431233e-268 4.631582051190743e-263 0.000000000000000e+00 3.286319094909409e-243 5.402242316498377e-233 0.000000000000000e+00 0.000000000000000e+00 1.882322310290840e-265 5.180116093763710e-271 0.000000000000000e+00 1.691500125279284e-75 1.611912489455551e-316 1.003986059903827e-231 9.040329860385294e-291 6.746044257246786e-220 0.000000000000000e+00 6.378628840474712e-303 3.077651256863216e-241 1.626786577964654e-255 5.443697498402322e-316 0.000000000000000e+00 7.000910201570464e-321 9.595888871758172e-237 3.407831301983889e-291 6.872301670630887e-32 2.075905563643602e-277 4.387449974072011e-191 2.745127541423134e-319 4.917144431159059e-247 0.000000000000000e+00 2.216412591032196e-11 1.015563070249165e-299 5.039165475725271e-232 0.000000000000000e+00 1.491644954432213e-229 4.108567678289447e-287 0.000000000000000e+00 2.712889337771563e-236 0.000000000000000e+00 0.000000000000000e+00 2.340340082877966e-14 1.807868584654904e-76 4.832322501611859e-240 0.000000000000000e+00 4.336670769954399e-04 3.860799850035927e-02 9.376345256655427e-15 1.538353265795041e-297 0.000000000000000e+00 3.293865985859383e-11 4.832196468769158e-278 2.913028186207785e-38 2.356030619742621e-16 5.817065002977372e-115 2.537513153163011e-42 3.061853035917957e-248 3.148529386506866e-268 0.000000000000000e+00 1.613056496255079e-285 3.758321001417424e-225 6.510996649684741e-230 1.184114578444106e-306 1.523720668103071e-279 6.724175880349328e-288 2.235986863142260e-39 0.000000000000000e+00 1.114537662660008e-34 0.000000000000000e+00 0.000000000000000e+00 2.238311499153847e-14 4.002328200497322e-02 1.834547579098272e-01 1.991122953834383e-01 2.462369502819246e-279 8.159914489161526e-281 0.000000000000000e+00 0.000000000000000e+00 4.018653970357595e-278 9.546205980901978e-246 7.004525366118504e-311 2.497795013099289e-307 6.957199489753640e-14 0.000000000000000e+00 0.000000000000000e+00 2.810896353084530e-191 5.863340188