<?xml version="1.0"?>
<VTKFile type="UnstructuredGrid" version="0.1" byte_order="LittleEndian">
<UnstructuredGrid>
<Piece NumberOfPoints="714" NumberOfCells="1306">
<Points>
<DataArray type="Float64" NumberOfComponents="3" format="ascii">
0.000000000000000e+00 0.000000000000000e+00 0.000000000000000e+00 5.000000000000000e+00 0.000000000000000e+00 0.000000000000000e+00 5.000000000000000e+00 1.000000000000000e+00 0.000000000000000e+00 0.000000000000000e+00 1.000000000000000e+00 0.000000000000000e+00 9.999999999992801e-02 0.000000000000000e+00 0.000000000000000e+00 1.999999999998339e-01 0.000000000000000e+00 0.000000000000000e+00 2.999999999997341e-01 0.000000000000000e+00 0.000000000000000e+00 3.999999999996643e-01 0.000000000000000e+00 0.000000000000000e+00 4.999999999995944e-01 0.000000000000000e+00 0.000000000000000e+00 5.999999999995166e-01 0.000000000000000e+00 0.000000000000000e+00 6.999999999992880e-01 0.000000000000000e+00 0.000000000000000e+00 7.999999999989961e-01 0.000000000000000e+00 0.000000000000000e+00 8.999999999987042e-01 0.000000000000000e+00 0.000000000000000e+00 9.999999999984124e-01 0.000000000000000e+00 0.000000000000000e+00 1.099999999998120e+00 0.000000000000000e+00 0.000000000000000e+00 1.199999999997829e+00 0.000000000000000e+00 0.000000000000000e+00 1.299999999997537e+00 0.000000000000000e+00 0.000000000000000e+00 1.399999999997245e+00 0.000000000000000e+00 0.000000000000000e+00 1.499999999996953e+00 0.000000000000000e+00 0.000000000000000e+00 1.599999999996661e+00 0.000000000000000e+00 0.000000000000000e+00 1.699999999996369e+00 0.000000000000000e+00 0.000000000000000e+00 1.799999999996077e+00 0.000000000000000e+00 0.000000000000000e+00 1.899999999995785e+00 0.000000000000000e+00 0.000000000000000e+00 1.999999999995511e+00 0.000000000000000e+00 0.000000000000000e+00 2.099999999995593e+00 0.000000000000000e+00 0.000000000000000e+00 2.199999999995745e+00 0.000000000000000e+00 0.000000000000000e+00 2.299999999995897e+00 0.000000000000000e+00 0.000000000000000e+00 2.399999999996049e+00 0.000000000000000e+00 0.000000000000000e+00 2.499999999996201e+00 0.000000000000000e+00 0.000000000000000e+00 2.599999999996353e+00 0.000000000000000e+00 0.000000000000000e+00 2.699999999996505e+00 0.000000000000000e+00 0.000000000000000e+00 2.799999999996657e+00 0.000000000000000e+00 0.000000000000000e+00 2.899999999996809e+00 0.000000000000000e+00 0.000000000000000e+00 2.999999999996961e+00 0.000000000000000e+00 0.000000000000000e+00 3.099999999997114e+00 0.000000000000000e+00 0.000000000000000e+00 3.199999999997265e+00 0.000000000000000e+00 0.000000000000000e+00 3.299999999997417e+00 0.000000000000000e+00 0.000000000000000e+00 3.399999999997569e+00 0.000000000000000e+00 0.000000000000000e+00 3.499999999997721e+00 0.000000000000000e+00 0.000000000000000e+00 3.599999999997873e+00 0.000000000000000e+00 0.000000000000000e+00 3.699999999998025e+00 0.000000000000000e+00 0.000000000000000e+00 3.799999999998176e+00 0.000000000000000e+00 0.000000000000000e+00 3.899999999998329e+00 0.000000000000000e+00 0.000000000000000e+00 3.999999999998481e+00 0.000000000000000e+00 0.000000000000000e+00 4.099999999998633e+00 0.000000000000000e+00 0.000000000000000e+00 4.199999999998784e+00 0.000000000000000e+00 0.000000000000000e+00 4.299999999998937e+00 0.000000000000000e+00 0.000000000000000e+00 4.399999999999088e+00 0.000000000000000e+00 0.000000000000000e+00 4.499999999999240e+00 0.000000000000000e+00 0.000000000000000e+00 4.599999999999393e+00 0.000000000000000e+00 0.000000000000000e+00 4.699999999999545e+00 0.000000000000000e+00 0.000000000000000e+00 4.799999999999696e+00 0.000000000000000e+00 0.000000000000000e+00 4.899999999999848e+00 0.000000000000000e+00 0.000000000000000e+00 5.000000000000000e+00 9.999999999981467e-02 0.000000000000000e+00 5.000000000000000e+00 1.999999999995579e-01 0.000000000000000e+00 5.000000000000000e+00 2.999999999992664e-01 0.000000000000000e+00 5.000000000000000e+00 3.999999999989749e-01 0.000000000000000e+00 5.000000000000000e+00 4.999999999986943e-01 0.000000000000000e+00 5.000000000000000e+00 5.999999999989468e-01 0.000000000000000e+00 5.000000000000000e+00 6.999999999992100e-01 0.000000000000000e+00 5.000000000000000e+00 7.999999999994734e-01 0.000000000000000e+00 5.000000000000000e+00 8.999999999997368e-01 0.000000000000000e+00 4.899999999999999e+00 1.000000000000000e+00 0.000000000000000e+00 4.800000000000000e+00 1.000000000000000e+00 0.000000000000000e+00 4.699999999999999e+00 1.000000000000000e+00 0.000000000000000e+00 4.600000000000000e+00 1.000000000000000e+00 0.000000000000000e+00 4.499999999999999e+00 1.000000000000000e+00 0.000000000000000e+00 4.399999999999999e+00 1.000000000000000e+00 0.000000000000000e+00 4.299999999999999e+00 1.000000000000000e+00 0.000000000000000e+00 4.199999999999998e+00 1.000000000000000e+00 0.000000000000000e+00 4.099999999999999e+00 1.000000000000000e+00 0.000000000000000e+00 3.999999999999999e+00 1.000000000000000e+00 0.000000000000000e+00 3.899999999999999e+00 1.000000000000000e+00 0.000000000000000e+00 3.799999999999999e+00 1.000000000000000e+00 0.000000000000000e+00 3.699999999999998e+00 1.000000000000000e+00 0.000000000000000e+00 3.599999999999999e+00 1.000000000000000e+00 0.000000000000000e+00 3.499999999999999e+00 1.000000000000000e+00 0.000000000000000e+00 3.399999999999999e+00 1.000000000000000e+00 0.000000000000000e+00 3.299999999999999e+00 1.000000000000000e+00 0.000000000000000e+00 3.199999999999998e+00 1.000000000000000e+00 0.000000000000000e+00 3.099999999999999e+00 1.000000000000000e+00 0.000000000000000e+00 2.999999999999999e+00 1.000000000000000e+00 0.000000000000000e+00 2.899999999999999e+00 1.000000000000000e+00 0.000000000000000e+00 2.799999999999999e+00 1.000000000000000e+00 0.000000000000000e+00 2.699999999999999e+00 1.000000000000000e+00 0.000000000000000e+00 2.599999999999999e+00 1.000000000000000e+00 0.000000000000000e+00 2.500000000000000e+00 1.000000000000000e+00 0.000000000000000e+00 2.399999999999999e+00 1.000000000000000e+00 0.000000000000000e+00 2.299999999999999e+00 1.000000000000000e+00 0.000000000000000e+00 2.199999999999999e+00 1.000000000000000e+00 0.000000000000000e+00 2.100000000000000e+00 1.000000000000000e+00 0.000000000000000e+00 2.000000000000000e+00 1.000000000000000e+00 0.000000000000000e+00 1.899999999999999e+00 1.000000000000000e+00 0.000000000000000e+00 1.799999999999999e+00 1.000000000000000e+00 0.000000000000000e+00 1.699999999999999e+00 1.000000000000000e+00 0.000000000000000e+00 1.599999999999999e+00 1.000000000000000e+00 0.000000000000000e+00 1.500000000000000e+00 1.000000000000000e+00 0.000000000000000e+00 1.399999999999999e+00 1.000000000000000e+00 0.000000000000000e+00 1.299999999999999e+00 1.000000000000000e+00 0.000000000000000e+00 1.199999999999999e+00 1.000000000000000e+00 0.000000000000000e+00 1.100000000000000e+00 1.000000000000000e+00 0.000000000000000e+00 9.999999999999991e-01 1.000000000000000e+00 0.000000000000000e+00 8.999999999999995e-01 1.000000000000000e+00 0.000000000000000e+00 7.999999999999998e-01 1.000000000000000e+00 0.000000000000000e+00 7.000000000000002e-01 1.000000000000000e+00 0.000000000000000e+00 5.999999999999996e-01 1.000000000000000e+00 0.000000000000000e+00 4.999999999999991e-01 1.000000000000000e+00 0.000000000000000e+00 3.999999999999995e-01 1.000000000000000e+00 0.000000000000000e+00 3.000000000000007e-01 1.000000000000000e+00 0.000000000000000e+00 1.999999999999993e-01 1.000000000000000e+00 0.000000000000000e+00 9.999999999999964e-02 1.000000000000000e+00 0.000000000000000e+00 0.000000000000000e+00 8.999999999995836e-01 0.000000000000000e+00 0.000000000000000e+00 7.999999999999998e-01 0.000000000000000e+00 0.000000000000000e+00 7.000000000006934e-01 0.000000000000000e+00 0.000000000000000e+00 6.000000000013869e-01 0.000000000000000e+00 0.000000000000000e+00 5.000000000020587e-01 0.000000000000000e+00 0.000000000000000e+00 4.000000000016644e-01 0.000000000000000e+00 0.000000000000000e+00 3.000000000012483e-01 0.000000000000000e+00 0.000000000000000e+00 2.000000000008322e-01 0.000000000000000e+00 0.000000000000000e+00 1.000000000004160e-01 0.000000000000000e+00 7.477570327540725e-01 4.905967956478702e-01 0.000000000000000e+00 1.346210646643281e+00 4.806066422083806e-01 0.000000000000000e+00 1.949496869330408e+00 5.032480558805372e-01 0.000000000000000e+00 4.449999999999997e+00 5.000000000000384e-01 0.000000000000000e+00 3.859142349610828e+00 5.103468031113156e-01 0.000000000000000e+00 3.246530027037640e+00 5.183101712757180e-01 0.000000000000000e+00 2.657531292711257e+00 5.037429884868682e-01 0.000000000000000e+00 3.824015840967434e-01 6.064457502813875e-01 0.000000000000000e+00 2.306343155343502e+00 6.315316747431162e-01 0.000000000000000e+00 1.049999999998266e+00 3.374999999994497e-01 0.000000000000000e+00 1.641930697057102e+00 3.436055112169133e-01 0.000000000000000e+00 4.150000000000006e+00 6.625000000000185e-01 0.000000000000000e+00 3.552784161359181e+00 6.642488388863971e-01 0.000000000000000e+00 2.940292465243163e+00 6.575992780735344e-01 0.000000000000000e+00 1.641237689750194e+00 6.703960699373966e-01 0.000000000000000e+00 1.050000000000000e+00 6.706367924525535e-01 0.000000000000000e+00 2.960517759676693e+00 3.261740577967960e-01 0.000000000000000e+00 3.551899302943298e+00 3.210887133285832e-01 0.000000000000000e+00 4.150779393876139e+00 3.209867287821391e-01 0.000000000000000e+00 2.213980362532827e+00 3.194901812685164e-01 0.000000000000000e+00 4.927283029162088e-01 3.252862896001115e-01 0.000000000000000e+00 4.696684455724628e+00 3.145438084075651e-01 0.000000000000000e+00 4.690990908683984e+00 6.962960281446974e-01 0.000000000000000e+00 2.487221901830106e+00 2.763334294511438e-01 0.000000000000000e+00 6.215262983536076e-01 7.328515730233995e-01 0.000000000000000e+00 2.065768881873406e+00 7.342557316219342e-01 0.000000000000000e+00 2.543072460766750e+00 7.257064952909391e-01 0.000000000000000e+00 8.105176211436336e-01 2.535517621144286e-01 0.0000000000000
[...]
<CellData Scalars="A_conc,As-lin_conc,Bs-lang_conc,Cs-freund_conc," Vectors="" Tensors="">
<DataArray type="Float64" Name="A_conc" format="ascii">
1.726156552055500e-30 3.470239317172015e-01 0.000000000000000e+00 5.610853480112669e-69 1.649799280714298e-01 2.482971106528589e-302 7.494599044480526e-298 9.919665256281449e-221 3.260020404213329e-01 1.426835481944962e-28 0.000000000000000e+00 9.130047528634996e-194 1.514593230785026e-221 0.000000000000000e+00 1.000358419899706e-71 1.593713129695247e-13 4.463019032788205e-66 2.077291177512290e-27 3.377874153218756e-316 7.441769417495938e-29 1.028859289377597e-255 1.353083933474849e-233 1.034401505018541e-185 2.485464167606636e-211 3.288170050322199e-282 2.105918028907423e-214 2.395128766378210e-31 3.004434128628705e-05 1.346929180118166e-268 2.262824774894432e-32 1.308566054492783e-230 1.341586977760593e-173 3.632392748279372e-228 0.000000000000000e+00 1.355431733086792e-311 3.016969780643607e-01 1.105851278543625e-314 6.466684335123196e-253 1.978428587555005e-301 2.369130124233468e-01 0.000000000000000e+00 7.145476683967567e-227 0.000000000000000e+00 5.922457404791921e-290 1.096310049737596e-263 8.312991959105198e-306 1.393106518767311e-12 1.123748076300258e-261 5.631854296944369e-320 2.118594778350927e-310 3.237163202137640e-01 2.456477425778802e-217 1.402887033636333e-14 2.857853117146713e-01 3.176922604449716e-01 3.634981284863449e-01 9.396443800208354e-252 8.793359756517118e-225 2.962418519624149e-12 3.645456730569942e-14 0.000000000000000e+00 9.525483377376945e-220 1.074774582916404e-279 6.546156270904759e-265 1.337796207664469e-266 8.351940772451105e-294 1.786424586167705e-262 1.035413575440799e-238 3.392151951279017e-01 4.315923980881095e-34 5.896615125311604e-254 0.000000000000000e+00 1.483030743689004e-214 1.215925918398721e-27 2.944078509738413e-257 2.334641483869944e-315 2.049713518365692e-223 8.220174883702811e-307 1.822438487578756e-251 6.526834250641947e-252 9.714362032122749e-14 4.863857399261682e-312 1.069283600775296e-223 0.000000000000000e+00 1.925898647134312e-271 2.685702192611509e-220 1.624284256853802e-311 1.407921883684956e-255 7.844392320189185e-215 3.940760287951986e-239 0.000000000000000e+00 2.049573729084900e-270 1.912657667393262e-223 1.305928067950965e-279 2.359295142586273e-307 1.700245137093770e-69 1.571775798512463e-279 2.263666054690938e-217 0.000000000000000e+00 2.165898507435839e-14 1.927167061984396e-276 1.359829089763132e-211 2.077058266500416e-271 2.285352155955913e-276 5.217060082747560e-224 3.982521330332897e-248 7.896116640342541e-66 2.309815191946139e-03 2.532983810925408e-227 1.068970799252742e-243 3.837781982321584e-248 1.809005889433953e-212 4.675143615020761e-215 1.422552227324002e-224 5.905797452339372e-217 1.044039011096222e-217 5.694733074475572e-72 2.991599039896187e-249 5.206898560124471e-262 2.125695163795500e-04 3.674766770169460e-258 1.274090705997699e-279 1.905590051824835e-244 2.101150510627724e-293 2.669903947555274e-11 1.861755383980424e-249 0.000000000000000e+00 1.132157762321034e-217 2.223311815281459e-235 3.250305125927987e-233 3.619095233548678e-312 5.744062512195662e-243 1.254563878516663e-243 9.551736254820156e-229 9.116061827298729e-289 1.942063435193325e-268 1.372353381259514e-29 3.565451493410660e-01 1.903987900460307e-257 2.485804897229867e-292 2.378806730038259e-245 1.111145984597153e-17 8.502827971893673e-212 3.826951248441591e-292 0.000000000000000e+00 0.000000000000000e+00 8.649928259505442e-258 4.789368936833332e-232 4.610084775142710e-303 3.048107058771619e-253 2.608685213806574e-235 1.618686728634577e-307 4.935797350942555e-289 1.659985244561508e-266 4.942702679638440e-276 0.000000000000000e+00 1.934064861827835e-234 1.276586578350446e-318 1.940281765475694e-211 0.000000000000000e+00 1.747523752980038e-12 9.430611935679800e-236 8.205418351091391e-249 0.000000000000000e+00 7.646110917128512e-276 2.179242981095835e-293 1.337443881768966e-211 1.590272523267025e-242 1.076791219017542e-242 0.000000000000000e+00 1.102500895057421e-211 5.058951437532417e-227 0.000000000000000e+00 0.000000000000000e+00 2.571282012053429e-253 5.520450573408925e-284 8.764610581377963e-226 0.000000000000000e+00 3.620104548457609e-257 7.147536680684325e-255 1.935019468224387e-279 1.968829846652834e-221 2.690819927006534e-01 3.093418436792470e-246 1.252794958646146e-261 1.220150837553785e-227 1.464306855894934e-223 2.982677416008106e-242 0.000000000000000e+00 1.089541635420336e-256 1.594556173370827e-211 3.881813094474944e-227 2.673407785566218e-28 1.850341944154617e-174 3.188159601488956e-214 1.145186379693455e-252 9.262901607961397e-212 2.203487308368816e-214 0.000000000000000e+00 0.000000000000000e+00 4.217690625130798e-214 3.247335781471201e-260 3.877396462619827e-01 4.039877700033415e-234 3.616552386931147e-284 4.722538949597659e-224 4.174572008631982e-288 1.557210927164656e-227 1.657150526906907e-12 2.973240938151439e-01 1.681930880215291e-259 0.000000000000000e+00 2.775231127395056e-293 8.610914755070558e-31 7.588834937450383e-69 1.795178584990138e-278 1.828632455949950e-211 1.602040357838434e-283 2.435549731415955e-180 9.548764247528230e-317 2.010847178573873e-321 3.493163965412061e-02 3.093361528262040e-256 2.419869893684907e-226 5.242086300410103e-222 3.754280246657958e-01 1.487131769395363e-211 1.118806589855733e-74 0.000000000000000e+00 8.179178271790895e-249 3.503786551367569e-245 4.557688223091247e-217 6.737383809805494e-181 1.972754288825666e-287 9.189574343292890e-283 7.487256059349984e-263 8.970920360240970e-253 6.394373483851291e-297 5.549112037124508e-214 0.000000000000000e+00 4.829568051110535e-253 2.987163236802346e-228 2.072724358904253e-303 1.933118194654246e-269 0.000000000000000e+00 5.775105524851324e-275 6.511536751242751e-216 0.000000000000000e+00 1.320639268296421e-12 0.000000000000000e+00 2.635461962681851e-269 1.014041248181549e-262 0.000000000000000e+00 4.002506160838765e-275 1.015391361883444e-215 8.100980616868135e-217 3.285409509457098e-70 0.000000000000000e+00 1.078710846426238e-12 0.000000000000000e+00 1.012986228446331e-253 3.901230121749422e-215 3.398657719033838e-262 6.093272517236649e-267 1.741696457597212e-231 9.092124880713316e-13 1.041620771118842e-176 1.207941093147822e-72 1.822865129297800e-218 0.000000000000000e+00 2.567000960856685e-285 2.080609701300107e-239 8.884347017862808e-249 1.711183946384743e-307 3.820996038682213e-33 8.264375393300350e-13 1.335296166153524e-32 1.369812054785919e-171 8.557863582377204e-227 1.353605050583506e-223 8.313413895209170e-251 3.562023074641360e-238 3.819672532925676e-247 1.427207862777511e-28 4.625110946011679e-06 8.220489399708843e-231 3.152101754050329e-224 2.084346288102227e-241 1.323803578352520e-289 6.481632508826417e-267 8.959897228072041e-235 7.342011396925328e-290 2.943913315508867e-226 1.454275779525226e-222 8.320065475966592e-321 3.671642363079318e-276 5.196268609330585e-235 1.059134955289534e-29 0.000000000000000e+00 2.148840989188485e-252 0.000000000000000e+00 3.115008833273747e-238 1.621162093986330e-270 4.847899507961174e-309 4.377275321410660e-314 1.301586172229511e-13 6.638197075359771e-14 9.422597248577874e-11 1.229602862033702e-270 0.000000000000000e+00 4.874979063826711e-266 0.000000000000000e+00 0.000000000000000e+00 4.615430604640150e-246 0.000000000000000e+00 1.333841632820841e-75 4.513813719807120e-258 1.166029032525589e-253 3.263521625839654e-01 1.494056918905744e-227 1.585299658876523e-231 3.102187058203229e-249 1.174923162364182e-245 2.248351341746989e-217 8.268760518367109e-267 9.781092409407807e-276 2.805345590506727e-280 3.356766875650089e-218 0.000000000000000e+00 3.019760662660540e-69 3.582489605026179e-01 3.518251226251640e-01 3.530649002232541e-01 3.575608177980245e-01 1.041596589629864e-49 2.644339017010689e-28 1.978691598221085e-282 5.739923619575749e-257 4.015815795658319e-287 1.612094138765082e-230 5.602223171174627e-271 4.163998645285668e-214 0.000000000000000e+00 2.793696619254213e-01 0.000000000000000e+00 9.721359605057942e-174 1.440510648829003e-246 0.000000000000000e+00 3.816672829256377e-220 9.901335138509798e-220 3.795065001009674e-01 0.000000000000000e+00 3.167762723106616e-220 4.211387881986521e-281 1.525948244667572e-12 9.221706527213740e-221 4.797936843597055e-254 3.983862318389772e-250 9.881312916824931e-324 7.941995048701009e-243 5.213472900596196e-67 8.688272423298159e-297 7.564301929755035e-28 1.432486948091322e-231 1.137990704600267e-68 4.037996028073677e-227 2.789641166183541e-231 1.474651262463221e-271 4.955317320054361e-285 3.359764954872974e-01 3.885957099879221e-01 3.885957160438755e-01 9.376117836998500e-02 8.695572063912010e-02 0.000000000000000e+00 8.312689378227945e-261 4.007806744086079e-212 1.004826163213957e-260 2.733739444642636e-224 8.547168301835965e-263 3.342240100076704e-01 1.978838117878721e-27 1.158215362764652e-211 3.320187899272985e-266 0.000000000000000e+00 1.083749398911720e-229 1.068849558626733e-249 0.000000000000000e+00 9.782407585390149e-263 2.382975142621692e-02 3.314645656500105e-01 6.792550076905335e-283 4.617945722858418e-221 6.094722311164458e-212 1.061774371824624e-225 5.892193739586266e-27 3.835772612389274e-172 6.417396460902033e-240 5.145051455648448e-244 1.596011218136369e-237 0.000000000000000e+00 3.157891947725290e-01 2.591503136052678e-216 1.215385634803674e-82 9.889939808957692e-269 7.642305346017414e-283 1.606034915681430e-234 1.435432332768635e-302 2.889430293937003e-01 4.067221312342043e-243 0.000000000000000e+00 3.879765117473336e-01 0.000000000000000e+00 1.579834572713293e-217 6.769174989548012e-227 3.220334771704613e-01 3.575949279017051e-224 5.866136325071111e-221 5.313590992896661e-282 6.776222938995202e-272 8.994438285897003e-234 3.106266921548108e-307 2.044773591487603e-248 4.678500374871434e-15 4.438114298450090e-230 5.552239255273602e-78 1.848966161587988e-249 1.966086617324917e-246 5.880466153669101e-317 1.458341322077992e-261 6.158605094196149e-29 1.758060880122241e-29 9.950111274218564e-243 8.794368495974188e-322 7.165621294132360e-266 1.615635869536248e-80 3.536180414689580e-170 1.521403879036122e-271 5.680199628546424e-271 1.871741518619964e-284 0.000000000000000e+00 1.286604506914720e-277 1.439554267652507e-267 3.087759882898374e-239 2.287511760667760e-297 2.872636520278889e-224 3.541327495937802e-284 0.000000000000000e+00 8.619823428686314e-28 3.696280218733740e-01 0.000000000000000e+00 5.439244417029095e-234 6.140676172586745e-298 3.598924288774049e-01 1.915596085661101e-244 7.492906913926980e-302 0.000000000000000e+00 2.080615533257353e-211 0.000000000000000e+00 1.154876906366511e-258 2.727287020904983e-01 3.246094195965737e-01 3.960773399001284e-28 0.000000000000000e+00 9.688921014499336e-83 1.884818102600202e-171 3.614363969703409e-01 3.530287831447504e-01 1.628671303867056e-220 4.844501969584780e-223 0.000000000000000e+00 0.000000000000000e+00 0.000000000000000e+00 3.188333230689382e-01 3.026370739178122e-01 3.143237749463891e-01 1.548812074260519e-223 1.884255469562240e-211 2.484147262186901e-239 0.000000000000000e+00 3.989226230010894e-40 8.927719763129017e-225 1.085515657758575e-01 4.423605428208719e-284 3.784181836180349e-244 5.284234474234272e-265 4.999960574845854e-264 5.308587887496382e-272 4.975057806913294e-277 4.888315236077605e-280 2.239727587560580e-239 3.521823631162272e-01 2.293469449417001e-01 1.849826383376630e-228 6.685555168741365e-220 1.722085621324370e-279 0.000000000000000e+00 8.780739043491032e-04 0.000000000000000e+00 2.417515939143817e-01 2.561847153930864e-234 3.605933881383211e-279 2.420929629262879e-273 2.823621971789996e-252 2.288099806574548e-310 4.008184769529105e-258 5.653297784762085e-288 6.715427981483575e-221 2.758260341271858e-268 0.000000000000000e+00 7.290191203032194e-04 1.462658865931395e-12 0.000000000000000e+00 7.439740025904378e-167 3.129587201362552e-228 2.830039223595595e-214 4.891146779859273e-231 2.084869930262600e-31 2.406460065936815e-01 2.608934775416614e-01 7.571349203897225e-70 2.860687619122264e-28 9.176437086246534e-238 5.872076661742151e-266 2.925993644456615e-01 2.574317524579340e-02 1.063375235039994e-223 1.837936577897190e-219 0.000000000000000e+00 3.025258984643421e-01 0.000000000000000e+00 4.344175391978560e-214 1.543527068674148e-01 5.772521514807076e-235 0.000000000000000e+00 5.944552140048116e-306 0.000000000000000e+00 8.351554749641517e-172 3.420779796868029e-71 7.961678781477147e-04 6.079990857222464e-307 7.904201386229777e-212 7.913010841457278e-274 1.929079127700093e-270 0.000000000000000e+00 1.779053889179979e-265 6.958565453529411e-256 2.154002326448577e-01 0.000000000000000e+00 8.967063791184085e-28 2.894130611968981e-12 9.290717771149055e-305 2.566769489087294e-237 3.267658543850882e-243 1.518163843811130e-302 3.663079952590295e-68 1.732303792077964e-14 3.087200208672640e-01 2.872169326952559e-15 6.280008214061110e-35 9.934641671153449e-261 8.767337983287259e-188 1.043822515465214e-223 1.966381270448161e-321 1.557986113488104e-261 1.067631180143109e-237 5.365762409702844e-231 4.099321423895674e-12 3.398914939169539e-01 3.837970984566616e-27 1.413805287162468e-221 2.723858700938265e-01 2.505850451983521e-01 4.839090343422094e-250 2.390460144930290e-10 3.245669006153512e-04 5.314946436182913e-242 0.000000000000000e+00 4.519495032510200e-275 2.183410939434980e-177 0.000000000000000e+00 3.358909879826136e-01 3.250703111248666e-01 4.368442371945363e-202 8.199709696829499e-238 3.428974005510654e-284 0.000000000000000e+00 0.000000000000000e+00 2.116758898987563e-241 2.435092589970622e-109 5.270958632911885e-248 1.650962655447391e-242 5.917458267955780e-248 5.376013997418877e-246 8.722394973019602e-243 3.603431313431960e-01 3.499946231686763e-01 0.000000000000000e+00 3.392596674696045e-307 3.358193861011252e-13 2.598245109395123e-271 7.268488069970524e-242 6.844312232650532e-253 3.040014469400340e-12 9.054035683887366e-311 3.338492833549982e-01 1.885635689389725e-287 1.005217779350613e-231 2.760958489573130e-257 0.000000000000000e+00 3.707611378949641e-228 6.557030623483269e-28 3.546301697276725e-261 6.746339783118947e-221 3.790099965313533e-05 8.738518419151318e-231 2.134173341843587e-245 0.000000000000000e+00 0.000000000000000e+00 6.081440565886980e-257 1.830163991893876e-228 0.000000000000000e+00 5.236206741462620e-238 1.240008883443587e-12 7.064466591613759e-86 1.763147832986671e-258 0.000000000000000e+00 1.496855472588170e-228 2.813644455703150e-27 1.376674136342598e-170 3.014969254796900e-224 3.650232247289281e-223 6.708888921534871e-258 0.000000000000000e+00 9.174972468614763e-244 3.363707572152505e-220 2.157669591858993e-264 1.674101951330244e-281 7.646953637141409e-227 9.873093640740716e-317 2.542906399300484e-257 9.871677744071404e-242 3.631853339562175e-238 1.075944155764262e-241 2.711349406620300e-248 2.319268938461721e-301 6.236734351823750e-248 0.000000000000000e+00 9.118769747139117e-257 3.601989444029651e-235 3.009887184860577e-211 2.238648267308358e-01 1.738459278766394e-12 2.109584579881567e-224 1.363421706104982e-248 3.208574517975179e-306 3.314180474338789e-214 2.462159568919931e-111 6.918503856149617e-316 5.376644472436983e-224 1.263372837169394e-227 1.744201144400436e-223 3.533898629768918e-69 2.685738286486921e-221 1.391791467603141e-248 3.136516027103026e-264 0.000000000000000e+00 0.000000000000000e+00 0.000000000000000e+00 7.041986947270104e-215 4.631148586593952e-217 7.067527860640825e-217 1.953292217539025e-227 0.000000000000000e+00 9.178809204385701e-257 4.203791253803617e-253 1.907801772089835e-262 2.641962320209037e-14 0.000000000000000e+00 5.866300343677737e-274 1.143989746664933e-253 1.216962731803324e-272 1.946298712095904e-266 1.497508407642364e-12 0.000000000000000e+00 2.933530491742035e-01 1.270117666296934e-28 3.810509434315844e-01 3.796551030391433e-01 3.585835656174885e-231 6.979322361821960e-13 5.461382770027500e-282 3.597572478560678e-287 0.000000000000000e+00 6.172150783347120e-206 3.016618624070070e-210 7.135017609504245e-312 2.430081609693299e-230 6.758679009984386e-253 0.000000000000000e+00 4.700043263644678e-43 5.764292891691474e-260 3.702525776855704e-01 3.803766660976665e-01 3.806586694094105e-01 3.705536238912537e-01 3.668118678639923e-01 3.682856312825705e-01 6.978764698759737e-214 2.840050224817154e-253 0.000000000000000e+00 0.000000000000000e+00 2.951826650343527e-245 1.477267025302637e-239 1.471570498516496e-72 7.557666953031136e-232 2.731105229520394e-01 3.397201234252575e-235 1.262953888740544e-15 4.013501887618586e-217 2.496679158363586e-214 2.118079945367239e-253 3.769584943063083e-293 2.329746434951857e-12 1.183517651829623e-14 1.479869496530794e-211 0.000000000000000e+00 9.225036595074353e-258 1.385652798414993e-211 1.469060041603635e-260 4.607519645530322e-275 4.352718339861382e-321 2.189644928054194e-233 3.634186664790363e-244 2.262274450459052e-293 4.379653354866719e-13 8.849904581928022e-238 4.056794025798404e-272 2.981085322081127e-227 1.554793555704805e-27 7.138522655487160e-266 8.746890444347083e-221 8.609041442156999e-215 2.391277725871633e-321 0.000000000000000e+00 4.555520221711081e-247 2.418847038895764e-233 8.749914593094140e-221 1.764710233460554e-165 0.000000000000000e+00 3.913213549751662e-01 3.913213571577129e-01 9.037189941817099e-246 1.923025520980347e-31 6.814153387442472e-320 1.059547744756070e-13 3.688813470011195e-214 2.292304623734646e-248 1.711168496257495e-231 3.975663735192939e-308 9.918668162625022e-13 1.221725286695060e-288 3.797299264559174e-01 3.797299331963931e-01 1.868029944869302e-257 2.733171466792312e-01 2.249735456656678e-01 1.188196049181468e-05 6.056112896100575e-180 2.059705213828057e-257 3.042792263224668e-01 2.905840545163242e-01 1.198939227722409e-214 4.059745419300565e-256 4.542713090749409e-276 1.370231556209724e-261 9.711634810797752e-264 2.589198614076254e-01 0.000000000000000e+00 3.685988277718038e-01 3.687955913464508e-01 1.582011418094008e-224 1.513857943334700e-220 2.178891160726115e-235 2.577159699901539e-233 6.826885053263653e-293 2.459142804767532e-235 2.403002063834438e-211 6.139023972834544e-216 6.793581115247491e-95 2.834537865931837e-12 2.715874694865294e-12 5.699642698353283e-239 1.227814024425771e-234 0.000000000000000e+00 1.570906961321101e-231 2.373853641103292e-39 2.026026503779306e-301 7.811278273941756e-306 3.449071091274735e-244 3.247223697205008e-248 0.000000000000000e+00 2.193704147988303e-65 4.827115669489450e-292 4.150504964858386e-227 1.049041187854847e-261 9.780160386881167e-218 0.000000000000000e+00 5.757415366209657e-275 1.513268508079796e-217 1.919773280070931e-230 1.691810625423930e-288 0.000000000000000e+00 2.842168271102508e-294 4.315149422909795e-231 3.939508167198091e-262 4.115764549904797e-28 6.975363734996291e-260 4.604997241444269e-165 4.634314393531213e-277 2.714322709253306e-219 0.000000000000000e+00 3.154361091108945e-01 6.446136064579592e-272 3.169421344644633e-119 4.108269638369515e-315 5.353653291781206e-225 1.625593278238734e-257 7.505266890314737e-299 7.271521917409966e-300 0.000000000000000e+00 0.000000000000000e+00 4.202447542355230e-13 2.344624945430988e-66 6.897664430613592e-235 0.000000000000000e+00 3.314185716506397e-01 3.395567847743272e-01 1.683670262419109e-13 1.499065958844565e-270 0.000000000000000e+00 3.178388147146549e-01 4.443161123660085e-261 1.744592543774612e-34 4.230624964866755e-15 2.852333409965072e-01 3.004754124764005e-01 5.096075462192155e-228 3.405357673342815e-250 3.270350833896036e-312 3.246635482099693e-257 3.851390826729551e-211 1.710016860593579e-215 1.562862522352377e-279 3.552524107029644e-250 1.851990882473593e-257 1.339117195269291e-35 0.000000000000000e+00 3.034276849306975e-01 1.666188395262918e-294 0.000000000000000e+00 4.019239293709377e-13 3.394566601591614e-01 3.692682723495376e-01 3.800295335815949e-01 7.567484167858955e-249 2.722550994151942e-251 0.000000000000000e+00 0.000000000000000e+00 1.011685879543609e-260 2.864390372649665e-221 5.658950036660815e-284 1.976262583364986e-323 1.249273487557180e-12 1.541706650499672e-317 2.075075712533235e-322 2.950269900305119e-165 4.561559732