<?xml version="1.0"?>
<VTKFile type="UnstructuredGrid" version="0.1" byte_order="LittleEndian">
<UnstructuredGrid>
<Piece NumberOfPoints="714" NumberOfCells="1306">
<Points>
<DataArray type="Float64" NumberOfComponents="3" format="ascii">
0.000000000000000e+00 0.000000000000000e+00 0.000000000000000e+00 5.000000000000000e+00 0.000000000000000e+00 0.000000000000000e+00 5.000000000000000e+00 1.000000000000000e+00 0.000000000000000e+00 0.000000000000000e+00 1.000000000000000e+00 0.000000000000000e+00 9.999999999992801e-02 0.000000000000000e+00 0.000000000000000e+00 1.999999999998339e-01 0.000000000000000e+00 0.000000000000000e+00 2.999999999997341e-01 0.000000000000000e+00 0.000000000000000e+00 3.999999999996643e-01 0.000000000000000e+00 0.000000000000000e+00 4.999999999995944e-01 0.000000000000000e+00 0.000000000000000e+00 5.999999999995166e-01 0.000000000000000e+00 0.000000000000000e+00 6.999999999992880e-01 0.000000000000000e+00 0.000000000000000e+00 7.999999999989961e-01 0.000000000000000e+00 0.000000000000000e+00 8.999999999987042e-01 0.000000000000000e+00 0.000000000000000e+00 9.999999999984124e-01 0.000000000000000e+00 0.000000000000000e+00 1.099999999998120e+00 0.000000000000000e+00 0.000000000000000e+00 1.199999999997829e+00 0.000000000000000e+00 0.000000000000000e+00 1.299999999997537e+00 0.000000000000000e+00 0.000000000000000e+00 1.399999999997245e+00 0.000000000000000e+00 0.000000000000000e+00 1.499999999996953e+00 0.000000000000000e+00 0.000000000000000e+00 1.599999999996661e+00 0.000000000000000e+00 0.000000000000000e+00 1.699999999996369e+00 0.000000000000000e+00 0.000000000000000e+00 1.799999999996077e+00 0.000000000000000e+00 0.000000000000000e+00 1.899999999995785e+00 0.000000000000000e+00 0.000000000000000e+00 1.999999999995511e+00 0.000000000000000e+00 0.000000000000000e+00 2.099999999995593e+00 0.000000000000000e+00 0.000000000000000e+00 2.199999999995745e+00 0.000000000000000e+00 0.000000000000000e+00 2.299999999995897e+00 0.000000000000000e+00 0.000000000000000e+00 2.399999999996049e+00 0.000000000000000e+00 0.000000000000000e+00 2.499999999996201e+00 0.000000000000000e+00 0.000000000000000e+00 2.599999999996353e+00 0.000000000000000e+00 0.000000000000000e+00 2.699999999996505e+00 0.000000000000000e+00 0.000000000000000e+00 2.799999999996657e+00 0.000000000000000e+00 0.000000000000000e+00 2.899999999996809e+00 0.000000000000000e+00 0.000000000000000e+00 2.999999999996961e+00 0.000000000000000e+00 0.000000000000000e+00 3.099999999997114e+00 0.000000000000000e+00 0.000000000000000e+00 3.199999999997265e+00 0.000000000000000e+00 0.000000000000000e+00 3.299999999997417e+00 0.000000000000000e+00 0.000000000000000e+00 3.399999999997569e+00 0.000000000000000e+00 0.000000000000000e+00 3.499999999997721e+00 0.000000000000000e+00 0.000000000000000e+00 3.599999999997873e+00 0.000000000000000e+00 0.000000000000000e+00 3.699999999998025e+00 0.000000000000000e+00 0.000000000000000e+00 3.799999999998176e+00 0.000000000000000e+00 0.000000000000000e+00 3.899999999998329e+00 0.000000000000000e+00 0.000000000000000e+00 3.999999999998481e+00 0.000000000000000e+00 0.000000000000000e+00 4.099999999998633e+00 0.000000000000000e+00 0.000000000000000e+00 4.199999999998784e+00 0.000000000000000e+00 0.000000000000000e+00 4.299999999998937e+00 0.000000000000000e+00 0.000000000000000e+00 4.399999999999088e+00 0.000000000000000e+00 0.000000000000000e+00 4.499999999999240e+00 0.000000000000000e+00 0.000000000000000e+00 4.599999999999393e+00 0.000000000000000e+00 0.000000000000000e+00 4.699999999999545e+00 0.000000000000000e+00 0.000000000000000e+00 4.799999999999696e+00 0.000000000000000e+00 0.000000000000000e+00 4.899999999999848e+00 0.000000000000000e+00 0.000000000000000e+00 5.000000000000000e+00 9.999999999981467e-02 0.000000000000000e+00 5.000000000000000e+00 1.999999999995579e-01 0.000000000000000e+00 5.000000000000000e+00 2.999999999992664e-01 0.000000000000000e+00 5.000000000000000e+00 3.999999999989749e-01 0.000000000000000e+00 5.000000000000000e+00 4.999999999986943e-01 0.000000000000000e+00 5.000000000000000e+00 5.999999999989468e-01 0.000000000000000e+00 5.000000000000000e+00 6.999999999992100e-01 0.000000000000000e+00 5.000000000000000e+00 7.999999999994734e-01 0.000000000000000e+00 5.000000000000000e+00 8.999999999997368e-01 0.000000000000000e+00 4.899999999999999e+00 1.000000000000000e+00 0.000000000000000e+00 4.800000000000000e+00 1.000000000000000e+00 0.000000000000000e+00 4.699999999999999e+00 1.000000000000000e+00 0.000000000000000e+00 4.600000000000000e+00 1.000000000000000e+00 0.000000000000000e+00 4.499999999999999e+00 1.000000000000000e+00 0.000000000000000e+00 4.399999999999999e+00 1.000000000000000e+00 0.000000000000000e+00 4.299999999999999e+00 1.000000000000000e+00 0.000000000000000e+00 4.199999999999998e+00 1.000000000000000e+00 0.000000000000000e+00 4.099999999999999e+00 1.000000000000000e+00 0.000000000000000e+00 3.999999999999999e+00 1.000000000000000e+00 0.000000000000000e+00 3.899999999999999e+00 1.000000000000000e+00 0.000000000000000e+00 3.799999999999999e+00 1.000000000000000e+00 0.000000000000000e+00 3.699999999999998e+00 1.000000000000000e+00 0.000000000000000e+00 3.599999999999999e+00 1.000000000000000e+00 0.000000000000000e+00 3.499999999999999e+00 1.000000000000000e+00 0.000000000000000e+00 3.399999999999999e+00 1.000000000000000e+00 0.000000000000000e+00 3.299999999999999e+00 1.000000000000000e+00 0.000000000000000e+00 3.199999999999998e+00 1.000000000000000e+00 0.000000000000000e+00 3.099999999999999e+00 1.000000000000000e+00 0.000000000000000e+00 2.999999999999999e+00 1.000000000000000e+00 0.000000000000000e+00 2.899999999999999e+00 1.000000000000000e+00 0.000000000000000e+00 2.799999999999999e+00 1.000000000000000e+00 0.000000000000000e+00 2.699999999999999e+00 1.000000000000000e+00 0.000000000000000e+00 2.599999999999999e+00 1.000000000000000e+00 0.000000000000000e+00 2.500000000000000e+00 1.000000000000000e+00 0.000000000000000e+00 2.399999999999999e+00 1.000000000000000e+00 0.000000000000000e+00 2.299999999999999e+00 1.000000000000000e+00 0.000000000000000e+00 2.199999999999999e+00 1.000000000000000e+00 0.000000000000000e+00 2.100000000000000e+00 1.000000000000000e+00 0.000000000000000e+00 2.000000000000000e+00 1.000000000000000e+00 0.000000000000000e+00 1.899999999999999e+00 1.000000000000000e+00 0.000000000000000e+00 1.799999999999999e+00 1.000000000000000e+00 0.000000000000000e+00 1.699999999999999e+00 1.000000000000000e+00 0.000000000000000e+00 1.599999999999999e+00 1.000000000000000e+00 0.000000000000000e+00 1.500000000000000e+00 1.000000000000000e+00 0.000000000000000e+00 1.399999999999999e+00 1.000000000000000e+00 0.000000000000000e+00 1.299999999999999e+00 1.000000000000000e+00 0.000000000000000e+00 1.199999999999999e+00 1.000000000000000e+00 0.000000000000000e+00 1.100000000000000e+00 1.000000000000000e+00 0.000000000000000e+00 9.999999999999991e-01 1.000000000000000e+00 0.000000000000000e+00 8.999999999999995e-01 1.000000000000000e+00 0.000000000000000e+00 7.999999999999998e-01 1.000000000000000e+00 0.000000000000000e+00 7.000000000000002e-01 1.000000000000000e+00 0.000000000000000e+00 5.999999999999996e-01 1.000000000000000e+00 0.000000000000000e+00 4.999999999999991e-01 1.000000000000000e+00 0.000000000000000e+00 3.999999999999995e-01 1.000000000000000e+00 0.000000000000000e+00 3.000000000000007e-01 1.000000000000000e+00 0.000000000000000e+00 1.999999999999993e-01 1.000000000000000e+00 0.000000000000000e+00 9.999999999999964e-02 1.000000000000000e+00 0.000000000000000e+00 0.000000000000000e+00 8.999999999995836e-01 0.000000000000000e+00 0.000000000000000e+00 7.999999999999998e-01 0.000000000000000e+00 0.000000000000000e+00 7.000000000006934e-01 0.000000000000000e+00 0.000000000000000e+00 6.000000000013869e-01 0.000000000000000e+00 0.000000000000000e+00 5.000000000020587e-01 0.000000000000000e+00 0.000000000000000e+00 4.000000000016644e-01 0.000000000000000e+00 0.000000000000000e+00 3.000000000012483e-01 0.000000000000000e+00 0.000000000000000e+00 2.000000000008322e-01 0.000000000000000e+00 0.000000000000000e+00 1.000000000004160e-01 0.000000000000000e+00 7.477570327540725e-01 4.905967956478702e-01 0.000000000000000e+00 1.346210646643281e+00 4.806066422083806e-01 0.000000000000000e+00 1.949496869330408e+00 5.032480558805372e-01 0.000000000000000e+00 4.449999999999997e+00 5.000000000000384e-01 0.000000000000000e+00 3.859142349610828e+00 5.103468031113156e-01 0.000000000000000e+00 3.246530027037640e+00 5.183101712757180e-01 0.000000000000000e+00 2.657531292711257e+00 5.037429884868682e-01 0.000000000000000e+00 3.824015840967434e-01 6.064457502813875e-01 0.000000000000000e+00 2.306343155343502e+00 6.315316747431162e-01 0.000000000000000e+00 1.049999999998266e+00 3.374999999994497e-01 0.000000000000000e+00 1.641930697057102e+00 3.436055112169133e-01 0.000000000000000e+00 4.150000000000006e+00 6.625000000000185e-01 0.000000000000000e+00 3.552784161359181e+00 6.642488388863971e-01 0.000000000000000e+00 2.940292465243163e+00 6.575992780735344e-01 0.000000000000000e+00 1.641237689750194e+00 6.703960699373966e-01 0.000000000000000e+00 1.050000000000000e+00 6.706367924525535e-01 0.000000000000000e+00 2.960517759676693e+00 3.261740577967960e-01 0.000000000000000e+00 3.551899302943298e+00 3.210887133285832e-01 0.000000000000000e+00 4.150779393876139e+00 3.209867287821391e-01 0.000000000000000e+00 2.213980362532827e+00 3.194901812685164e-01 0.000000000000000e+00 4.927283029162088e-01 3.252862896001115e-01 0.000000000000000e+00 4.696684455724628e+00 3.145438084075651e-01 0.000000000000000e+00 4.690990908683984e+00 6.962960281446974e-01 0.000000000000000e+00 2.487221901830106e+00 2.763334294511438e-01 0.000000000000000e+00 6.215262983536076e-01 7.328515730233995e-01 0.000000000000000e+00 2.065768881873406e+00 7.342557316219342e-01 0.000000000000000e+00 2.543072460766750e+00 7.257064952909391e-01 0.000000000000000e+00 8.105176211436336e-01 2.535517621144286e-01 0.0000000000000
[...]
<CellData Scalars="A_conc,As-lin_conc,Bs-lang_conc,Cs-freund_conc," Vectors="">
<DataArray type="Float64" Name="A_conc" format="ascii">
1.342665309300649e-26 6.826031938163728e-01 9.628111459678157e-302 1.403937826611306e-58 6.195712293268366e-01 5.899724537803549e-239 4.236667110965950e-235 5.427169155075459e-01 6.666597745709724e-01 1.109827049887234e-24 6.883184695165679e-297 4.629376270128196e-167 2.312183504541039e-220 4.911012857057869e-292 2.503128384066616e-61 3.137445299499112e-12 1.116696852427028e-55 1.615744026408346e-23 1.094938394479090e-250 5.788407501014549e-25 2.801394749215913e-250 1.921392855869025e-230 5.244776707787691e-159 2.476217354264233e-211 3.422092777924483e-304 8.377707493273221e-214 1.863018249324155e-27 6.004057289773896e-01 6.916919041777452e-322 1.760125408896738e-28 6.744252981524743e-228 6.801995696792080e-147 8.373712867760331e-226 0.000000000000000e+00 3.366549331592738e-247 6.496237032098678e-01 1.946542178389019e-271 1.431736706118236e-247 5.525061054049087e-315 6.264484988045201e-01 2.295729042930673e-284 6.948482579999308e-225 0.000000000000000e+00 2.296911753685868e-265 2.284440763379642e-257 1.075135025752531e-236 2.742494608826504e-11 2.649275373819637e-01 2.173167642166053e-258 3.925733163540473e-241 6.650999960300064e-01 1.762522248077410e-216 2.761785982660185e-13 6.404889021039570e-01 6.605568108272044e-01 6.954289764820228e-01 9.356056643277315e-247 5.353937338048074e-01 5.898999579745561e-01 7.176643597616930e-13 4.839203595874165e-270 5.391969360212130e-01 6.073058685064372e-76 4.883735423801913e-254 8.866227422469506e-260 5.864402040709022e-226 2.024993082946161e-01 3.541774873461113e-235 6.765587711941912e-01 5.807234866518777e-01 1.937379657561870e-248 3.458459520888726e-323 8.318910065576088e-214 9.457751289688307e-24 4.249715820911894e-01 6.024697746094806e-254 7.320163428190806e-222 3.206692457155442e-235 4.802940194155081e-01 7.090322213155999e-247 1.912408805625166e-12 3.149746683207488e-243 1.515340556076319e-311 1.508005978575710e-279 2.736982847919076e-18 3.884265745580825e-219 1.964675202047802e-239 4.610102183641460e-01 2.031337499854429e-214 2.665613555790085e-235 9.312332546796643e-257 5.072617245068450e-10 5.638840006684528e-01 2.018251167522311e-36 7.408792221056989e-239 4.254352229423799e-59 2.074968859610280e-36 5.454048120723536e-01 9.209834331863313e-307 5.897195112989094e-01 1.573710835721738e-254 1.352976850041857e-211 0.000000000000000e+00 6.494545297826425e-54 2.857368470987213e-222 4.444380711152165e-01 1.975671777995769e-55 6.047187031392239e-01 3.853056496479505e-225 4.713055433965506e-01 1.390770653411706e-243 1.799116739602644e-212 1.407469073449408e-214 1.083409556570186e-222 3.605495048817768e-216 5.522057248971729e-01 1.424953526519426e-61 2.269840509507263e-244 3.987670474911340e-255 5.998317953503405e-01 8.488105582788175e-252 0.000000000000000e+00 6.008524460264765e-230 1.825360113155694e-318 5.929234849375272e-01 1.541141513878437e-244 8.708368633715054e-297 7.889748878018646e-217 5.611895978351400e-01 5.032370411562349e-01 1.927224745718776e-243 5.629212340716808e-239 4.836971899161087e-01 5.138768170352387e-01 9.264203383153838e-223 2.003652234787985e-261 1.067460102878185e-25 6.899368822544161e-01 5.544031349918260e-02 7.180154872312665e-225 6.750312484900955e-241 5.903916590211614e-01 8.467683072572027e-212 1.754467933379699e-261 5.557746226080579e-267 1.141360905537084e-271 4.518687080358906e-01 2.038766805854599e-229 1.831387400211407e-234 4.739002329296903e-01 3.132737474297031e-232 8.169470805258506e-239 3.136440308080962e-222 3.324679913551181e-03 1.369958999968417e-262 1.078779755170443e-272 2.324822360180256e-231 5.633879288725427e-01 1.932548064749219e-211 7.502102414684494e-271 3.440199543936814e-11 4.989094447445844e-01 4.044326325286568e-233 3.543767309388323e-309 6.243657326643105e-254 1.912231675663961e-318 1.330924408553791e-211 4.278309465847267e-236 2.896436122426326e-236 7.084772164633011e-271 1.098597755690067e-211 9.010302346956775e-225 1.210926021140663e-269 1.580911282768397e-274 6.266081968214396e-248 3.008841922080458e-215 5.328377850959619e-01 7.563648339648337e-309 3.045423912965080e-239 1.741475954699992e-249 7.208125887294731e-74 5.438192264578315e-01 6.327906398437921e-01 4.592728714237976e-239 1.182630405071802e-242 1.185986749933284e-225 5.623457116602248e-222 6.307657697498155e-236 6.729624663052548e-306 7.101477057759281e-251 1.592169813203824e-211 1.322563800895283e-224 2.079444405558633e-24 9.381281606081358e-148 8.745549413523951e-214 2.101614118628182e-247 9.223788162717274e-212 5.869538157146464e-214 0.000000000000000e+00 0.000000000000000e+00 1.319754574917242e-213 2.928482444647812e-250 7.149148310569603e-01 1.894329626431135e-229 2.955893992949807e-216 5.281053802851150e-01 4.655830025275190e-258 2.370600652187863e-225 3.262291244200355e-11 6.463880801595924e-01 1.261953815434517e-253 2.885599529373105e-307 2.211362722650695e-226 6.697871195864973e-27 1.898864505455011e-58 9.540537827187390e-250 1.817824883446289e-211 4.052567557126773e-254 1.234887899626233e-153 5.800570154877078e-248 1.593386394073351e-252 6.116189207179770e-01 1.642103178653197e-250 2.823674085999802e-223 1.004956627236158e-219 7.049394426156252e-01 1.481781805357110e-211 2.799511584319625e-64 1.824598855430576e-286 5.232653887185118e-244 7.879545569935580e-241 3.471159113214729e-216 3.416093049445187e-154 7.523039063921340e-311 6.329421564430648e-278 1.843111957424095e-04 3.159756022680905e-01 1.004794498958238e-228 1.532631492653874e-213 1.502776335466842e-281 4.354580643489094e-01 4.542422241568906e-226 2.144784623360900e-234 1.198596799268797e-257 1.715532100334693e-261 6.086864069650225e-30 5.514644962144964e-01 2.149212309754367e-275 2.599835454823024e-11 3.202867005032994e-287 1.650039516739483e-257 2.222818007670626e-256 1.646257262923243e-265 1.222972113413074e-26 5.506553456808950e-01 5.507781631423085e-01 8.220619536839097e-60 0.000000000000000e+00 2.123573973571239e-11 1.800187168338679e-291 8.104848445880859e-245 2.243642159954430e-214 5.337355719207614e-05 4.071070371628853e-14 4.315382880015389e-229 1.789897922000413e-11 5.281134550928147e-150 3.022554587865525e-62 6.219749375245711e-217 2.300038281791245e-282 5.309885687535418e-270 7.107186818508193e-236 4.749380625240883e-01 8.636307887571387e-239 2.972118567952580e-29 1.626946145410176e-11 1.038644370319524e-28 6.945121446131423e-145 1.462928696387860e-224 8.133593460083543e-222 6.879701646556096e-246 4.933597571211824e-01 7.469786665291347e-240 1.110116596743065e-24 6.031016032833163e-01 2.035736870562425e-228 1.677730676089268e-222 1.661280197986366e-237 4.026978029791925e-222 6.767848642457571e-03 1.077292944584024e-231 1.312366888725283e-273 3.837255687808194e-223 3.024797850501652e-220 6.192567316372397e-255 6.067764658464403e-268 1.128462140549711e-231 8.238286931949627e-26 5.633180526322126e-280 1.461868445911758e-235 1.164864307116878e-260 1.188450467949545e-232 1.204594710404716e-08 5.609928197397155e-01 7.704970103838860e-271 2.562354024095126e-12 1.306823243575786e-12 5.948589873744135e-01 1.650304094936592e-04 1.093641213284025e-257 4.585883960684733e-02 1.172075558020148e-262 1.057723410786529e-277 5.154638076154851e-242 1.349497359463347e-274 3.337609554235722e-65 3.795171124205255e-240 7.928634780162418e-237 6.669147573672839e-01 5.358044111505779e-01 5.270504986752109e-01 2.568670001941613e-244 3.334111006406125e-241 1.711097030444699e-216 3.252925544092762e-255 2.735922874437525e-24 6.261542564475387e-70 2.049233740871186e-217 1.942556883218402e-263 7.556015951749981e-59 6.912589423585223e-01 6.862823114881391e-01 6.872418285243387e-01 6.907252844268061e-01 5.849140796023105e-01 2.056875968430282e-24 1.790893635428232e-304 4.154499240786653e-251 1.026250695375667e-220 1.354891942317184e-226 5.171047885871638e-250 1.140944464572020e-213 7.937240289279638e-299 6.366029232278950e-01 1.580980574808202e-289 4.928911128370325e-147 6.926170222675685e-224 7.342666617725423e-285 8.136655877213113e-219 3.698741833254014e-214 7.082087101871382e-01 9.652990928633142e-304 1.048842458686948e-213 2.847664557580695e-258 3.004006793988228e-11 5.460769819224000e-01 8.804171052180745e-249 2.548346266940943e-245 3.764362241773917e-317 6.330226710319803e-239 1.304481934800451e-56 1.535899215234827e-265 5.883669436583379e-24 5.113237202501264e-01 2.847434135263516e-58 5.151931568496326e-01 1.188679466857226e-228 3.465223385304991e-08 4.095410576109456e-201 6.741089233503988e-01 7.156093106705520e-01 7.156093155889531e-01 6.159604553974385e-01 6.145574994684234e-01 2.226103287921175e-265 1.803626486291692e-254 5.599759588843606e-01 2.178530029508980e-254 5.327730001887823e-01 4.240975586876991e-252 6.727540718170384e-01 1.539168138808787e-23 1.153138097836690e-211 9.204433243802713e-02 5.596074732712684e-253 3.299174432781009e-219 1.160704291592595e-244 0.000000000000000e+00 9.230724938653438e-244 6.124152355505266e-01 6.707347355944105e-01 1.718203206121196e-253 7.045187864934465e-220 9.769877507741736e-293 1.237838752293278e-222 4.582947949480655e-23 1.944800477222946e-145 4.890270560130045e-01 4.704307807437271e-01 7.066847146018331e-234 1.678392627165938e-272 6.591927016479850e-01 4.117860445894673e-211 3.041273676649840e-72 4.446590812571219e-322 5.324414335188262e-305 1.829980902831829e-231 2.133169028478647e-234 6.414939541383511e-01 4.812092698832621e-01 2.297241259440969e-277 7.151068282339622e-01 7.260812928906915e-275 1.149499536445703e-216 5.211496864199434e-01 6.637412462220429e-01 3.711830393011066e-222 1.142020521871411e-219 0.000000000000000e+00 6.255006052705577e-251 6.546698833582752e-231 1.239951598677167e-238 4.656850647548850e-01 5.927667532672467e-01 3.236491652070230e-226 1.389314398909091e-67 1.984425280238757e-241 1.329279964813358e-241 8.570132382660189e-248 1.128096352824027e-01 5.854551054655298e-01 1.367474922043714e-25 2.117053547473872e-238 2.827006544454426e-252 2.135935153376303e-03 5.769677544839270e-01 1.793066824822294e-143 4.980094519799778e-259 5.516198846501374e-09 1.922359759519885e-201 5.117428477234165e-266 6.597784499982280e-99 2.632216283806600e-12 5.047776852338350e-01 1.852556862045580e-237 5.265517326579673e-01 6.570744194053083e-249 7.649306268598141e-312 6.704644555498481e-24 7.002636408568308e-01 9.494852927548710e-307 8.180304780803808e-231 3.503477904660086e-230 6.925442254727305e-01 4.921675985004593e-01 5.337626917654351e-242 4.203528603923037e-279 2.070299666158021e-211 0.000000000000000e+00 8.358302530049077e-253 6.337828210997937e-01 6.655811758159985e-01 3.080777649899316e-24 8.037529095735817e-318 2.424432111379815e-72 9.556271530824281e-145 6.937380121255652e-01 6.871544596700434e-01 3.239510302910526e-219 5.310090849013294e-01 7.278138661323236e-287 3.664664333390689e-287 2.233244452025986e-277 6.613666389776096e-01 6.500904537145659e-01 6.582242743942400e-01 1.607664495879098e-221 1.877571710690636e-211 7.074619445822386e-236 6.336954154618954e-317 5.847650537822759e-01 7.891136969223242e-223 6.160322028189367e-01 2.280228828710039e-131 4.616420523721960e-240 3.901229166738471e-254 5.574160645309041e-01 6.885891705513008e-36 6.418597528638159e-101 0.000000000000000e+00 4.843930775473265e-01 6.864796453893292e-01 6.247651622932744e-01 5.174312060276814e-01 5.404863240510327e-01 2.316363237651997e-86 6.296862612107152e-301 6.028559420808181e-01 4.837826584935078e-259 6.261912800063827e-01 2.264717699226272e-231 0.000000000000000e+00 9.598522124093511e-311 4.799511329203968e-01 2.394146318242288e-240 6.882980415666060e-02 8.089371042875417e-228 1.198572673173905e-219 4.840984294428294e-261 0.000000000000000e+00 6.054762948774709e-01 2.879461999564484e-11 2.343321286931883e-312 3.771886962201591e-140 3.753576156449841e-211 7.588682391500718e-214 5.067190692573490e-01 5.799960303421876e-01 6.281307805297582e-01 6.311702036101553e-01 1.894486673961868e-59 2.225110100086473e-24 4.529496773797423e-226 1.507823820888356e-258 6.437682102857487e-01 6.108041783261804e-01 5.827948995946287e-222 5.397061286578227e-01 1.076888669324025e-272 6.500342492682458e-01 4.076953494145891e-268 1.359762909752158e-213 6.187920010935558e-01 5.594686009981766e-01 2.594752587119953e-296 3.871480889768116e-237 1.914503357393895e-280 4.234295315430197e-145 8.559573860296976e-61 6.046553566252120e-01 4.958890847686043e-243 5.631333342500361e-01 4.234083013898898e-261 6.249375828450150e-12 1.055281735793291e-260 1.713881646173461e-258 7.883158442896929e-247 6.239192988784639e-01 6.761594301392766e-285 6.974725342884142e-24 5.697392490116110e-11 4.626183674834512e-319 4.925108371864029e-234 4.838734822685369e-01 2.360469036212053e-234 9.166094967743061e-58 5.920551754347230e-01 6.542041082480534e-01 5.654283804026523e-14 4.884837483167645e-31 3.076188730223546e-254 4.445439370773816e-161 4.323755642028038e-222 1.000915457812050e-251 2.068225825853535e-01 3.649018079910175e-234 5.099651591971859e-01 8.069892134463894e-11 6.771224853845015e-01 2.985203426095246e-23 4.011462894685538e-220 6.342755773536621e-01 6.287229170933998e-01 1.424776989401724e-245 5.954738762184523e-01 6.017579195605290e-01 1.827417727274538e-220 1.211754071644133e-276 1.152432306022052e-12 1.107064245700037e-150 1.948823690730903e-296 6.741235553339853e-01 6.660586040751382e-01 2.215045464760211e-175 2.334826125120593e-234 6.579415112147964e-104 4.940656458412465e-322 5.229179483107583e-296 9.026465906337165e-238 5.717312728168226e-01 1.933747161187945e-243 1.618125362673728e-238 4.950431988485272e-01 1.524280928903643e-241 5.028210066381668e-01 6.928921991092398e-01 6.848442610169235e-01 1.621315725928721e-284 1.069783015747030e-238 6.611055674261801e-12 5.012627314932800e-264 9.560387827684576e-238 4.606367759356104e-01 5.984575798256032e-11 2.185056422852086e-250 6.725294455152510e-01 2.102941121995738e-257 5.150756915515339e-228 5.770372691316890e-252 2.463145438235536e-294 3.604818321360598e-226 5.100202964511505e-24 1.996778212545982e-255 2.156459962655033e-219 6.022100325735849e-01 3.557426059992557e-228 7.740840737734516e-241 0.000000000000000e+00 6.414490653202827e-261 4.398574007366203e-251 5.266294472692457e-01 2.259572150686449e-291 9.683538844054900e-218 2.441106217035110e-11 5.712051649772426e-01 1.106108001178408e-248 3.844201235342159e-314 2.560472850577240e-226 2.188479245865348e-23 6.979771121615478e-144 5.364120512906713e-01 5.277760656110946e-01 4.120789536743799e-248 0.000000000000000e+00 4.613340752537499e-01 6.686000046402616e-219 1.415989813019480e-257 1.560105432548284e-158 8.177886926709030e-225 2.215642860916973e-247 3.725707397223844e-01 1.205478957293833e-237 1.506707703795811e-234 9.838524236714896e-238 4.253555880633833e-01 8.548476501601232e-233 3.075806687780037e-232 9.493749142487316e-290 9.157698688165929e-251 2.289353959800139e-232 2.993802316603694e-211 6.236594022857163e-01 3.422355270063968e-11 8.098366999976735e-223 4.809136219987022e-01 3.148152153391696e-246 8.144771389700743e-214 5.760313908077653e-01 5.697712097322866e-01 2.547341389944829e-222 1.922921891379398e-225 5.434828284688814e-01 8.842411654212898e-59 6.820668002450091e-220 4.095957758306674e-244 1.819728300806208e-257 0.000000000000000e+00 1.207442852900268e-286 2.848634294226875e-319 2.568400519579716e-214 2.828127518812838e-216 5.520491637584731e-01 5.448193528132290e-01 4.427046093685493e-270 6.644347266738980e-251 1.024568106506086e-247 9.255075075707487e-252 5.201082660224419e-13 5.211066334901695e-259 6.022349247656687e-246 8.941060658384587e-249 6.522123922556519e-265 5.278894958747426e-06 2.948020167019421e-11 5.406734172799757e-282 6.437579542707714e-01 9.879324451428788e-25 7.094480453321461e-01 7.083257623071417e-01 1.090923175893818e-220 1.373968704034846e-11 3.222934147216156e-283 3.332479078176720e-221 1.019543408230272e-267 3.129616073800461e-179 5.025740291698613e-290 6.479248546667774e-243 6.756273834896242e-228 4.431598092942169e-01 3.275257755452237e-301 5.807180487258499e-01 2.344929438355585e-234 7.007580617149252e-01 7.089070694684649e-01 7.091347670273919e-01 7.009963521624548e-01 6.980350007234075e-01 6.991976152481501e-01 2.025428248258171e-213 4.220404636405511e-01 2.507355452481748e-262 1.108970287701233e-267 7.742477052940381e-241 2.576027812635530e-226 3.682180664516976e-62 3.708396677450612e-229 6.339787995573122e-01 2.753798247522883e-223 2.486309087392056e-14 2.916608431667889e-216 6.684886871940543e-214 3.333500058760952e-01 2.426825473626406e-231 4.586356947587866e-11 2.329925840178520e-13 1.473050218563691e-211 1.078224837279610e-291 4.897308913773524e-252 1.377468250071781e-211 2.843880148132180e-254 2.526227366280487e-267 1.087110151575802e-254 5.046296756376868e-01 4.949305262249073e-240 2.232834389859846e-226 8.621926746484480e-12 3.665443362595440e-234 2.174271954457985e-264 4.059870878874935e-225 1.209337943239355e-23 7.858633270146366e-03 1.629968562197411e-219 2.310313839909660e-214 5.652533216132931e-252 4.152932940276139e-256 1.291718115464556e-242 5.054380732499141e-01 1.741294421894860e-219 8.946730429448020e-139 1.922624096287265e-263 7.178308122009646e-01 7.178308139858239e-01 2.563446643902431e-241 5.825379982753808e-01 2.964288686181771e-250 2.085868443483431e-12 1.443122411798423e-213 4.746663148939372e-01 7.285124299232119e-229 4.263112718808372e-239 1.952612084932697e-11 8.836999259904811e-223 7.083853496497887e-01 7.083853550604419e-01 3.426804455622669e-01 6.337265316933702e-01 6.244292472326751e-01 5.992794555674171e-01 3.070678968866384e-153 1.342403195884750e-251 6.511387608921871e-01 6.423417051581263e-01 4.083784965227250e-211 1.334286709172995e-250 1.879459453064597e-314 4.239426201956620e-255 3.005612732077347e-257 6.306937152753231e-01 4.756218462700810e-259 6.994475795661762e-01 6.996017665353690e-01 4.399424560877841e-222 2.444969578278172e-219 5.145878324411041e-01 1.437688195734739e-230 2.699218583750532e-223 3.491426187290987e-232 2.393080824175624e-211 5.490546752987087e-01 5.697600788721106e-01 5.580079613613002e-11 5.346481933450540e-11 9.945798963508185e-226 9.961770604771468e-223 6.427596109001578e-282 1.106143420413630e-228 5.827901147757123e-01 3.218432852861676e-232 3.574603768823961e-236 5.022707333701066e-01 4.918534216255407e-01 2.445056921274523e-259 5.488817075231808e-55 3.365729539757679e-224 5.256734174996780e-225 3.343572724952472e-02 7.119301891639516e-217 4.199463815471711e-265 2.487363551224211e-25 5.536695875859182e-01 5.219907850650614e-01 5.848216495198829e-220 9.192698552196657e-264 5.841970570461335e-226 1.472082440739290e-228 2.048462811820711e-01 3.201322789083820e-24 7.001213237080985e-254 2.334652701812259e-138 8.427835867074249e-316 5.396998923511789e-01 2.219146178870536e-263 6.589910254965827e-01 1.505250079777179e-40 5.689940853257039e-01 1.062508699451998e-245 2.931387714266362e-223 3.817999231689349e-01 4.578346363529714e-230 5.634258583731495e-01 2.601243530590188e-275 5.943967270951110e-280 8.273075130143727e-12 5.866505283660113e-56 4.381522607615581e-232 5.715612386003659e-277 6.706399053463984e-01 6.767955334469904e-01 3.314537954188151e-12 1.890892737870719e-05 6.342598176817580e-267 6.606409358331221e-01 8.600456391549028e-255 1.357012536347020e-30 8.328600890364817e-14 6.394679765266686e-01 6.485808828382689e-01 6.031698047055140e-225 7.392191416279483e-245 2.264436414033212e-243 3.546381085725163e-01 1.866284261971196e-291 5.324294489696942e-211 1.402448285399481e-45 3.815147427693734e-242 1.557730014492908e-239 1.041618257565792e-31 0.000000000000000e+00 6.505654681070780e-01 2.549882468531385e-277 3.656085779225224e-322 7.912406869712889e-12 6.767564057805237e-01 6.999783403388773e-01 7.086295614468467e-01 4.371599052948879e-01 3.991221867569659e-243 4.116913295031750e-304 2.555964977697581e-299 2.194805363072895e-254 5.356046136396631e-01 4.375095419277981e-103 7.539003519309561e-317 2.459344553510393e-11 2.974096204689235e-249 8.310084665328308e-255 1.495724595145091e-138 4.537480878842258e-216 1.173540496718164e-136 1.548507369707315e-