<?xml version="1.0"?>
<VTKFile type="UnstructuredGrid" version="0.1" byte_order="LittleEndian">
<UnstructuredGrid>
<Piece NumberOfPoints="3918" NumberOfCells="1306">
<Points>
<DataArray type="Float64" NumberOfComponents="3" format="ascii">
2.199999999999999e+00 1.000000000000000e+00 0.000000000000000e+00 2.167042760209688e+00 9.180909330202516e-01 0.000000000000000e+00 2.276253312368741e+00 8.960026502048396e-01 0.000000000000000e+00 4.794660531865603e+00 4.928781786967001e-01 0.000000000000000e+00 4.895148782943732e+00 5.622595023726160e-01 0.000000000000000e+00 4.773700345920383e+00 5.924187786805324e-01 0.000000000000000e+00 2.543072460766750e+00 7.257064952909391e-01 0.000000000000000e+00 2.612778635682587e+00 6.379739460669237e-01 0.000000000000000e+00 2.649888912334054e+00 7.569619856190068e-01 0.000000000000000e+00 1.948052693999185e+00 1.289873040940654e-01 0.000000000000000e+00 1.894432874635162e+00 7.551835003504323e-02 0.000000000000000e+00 1.999999999995511e+00 0.000000000000000e+00 0.000000000000000e+00 4.558741850192379e+00 1.706710584301058e-01 0.000000000000000e+00 4.482003026509532e+00 2.394413792785933e-01 0.000000000000000e+00 4.451469977250477e+00 1.357957442429618e-01 0.000000000000000e+00 3.299999999999999e+00 1.000000000000000e+00 0.000000000000000e+00 3.204890379983837e+00 9.254368576810614e-01 0.000000000000000e+00 3.273830491511281e+00 8.834576202305108e-01 0.000000000000000e+00 3.299999999999999e+00 1.000000000000000e+00 0.000000000000000e+00 3.273830491511281e+00 8.834576202305108e-01 0.000000000000000e+00 3.353422182013107e+00 9.028315595988372e-01 0.000000000000000e+00 4.111703902366866e+00 1.331175536465074e-01 0.000000000000000e+00 4.099999999998633e+00 0.000000000000000e+00 0.000000000000000e+00 4.182764237453481e+00 8.084782043728693e-02 0.000000000000000e+00 4.699999999999545e+00 0.000000000000000e+00 0.000000000000000e+00 4.776755050008729e+00 9.373387207737824e-02 0.000000000000000e+00 4.690158205531358e+00 1.364814217295172e-01 0.000000000000000e+00 1.948052693999185e+00 1.289873040940654e-01 0.000000000000000e+00 1.999999999995511e+00 0.000000000000000e+00 0.000000000000000e+00 2.049999999995552e+00 8.978335458097943e-02 0.000000000000000e+00 2.612778635682587e+00 6.379739460669237e-01 0.000000000000000e+00 2.680790723483929e+00 5.770944853520404e-01 0.000000000000000e+00 2.721274941296599e+00 6.860745476515622e-01 0.000000000000000e+00 2.217157304231143e+00 1.490340955835976e-01 0.000000000000000e+00 2.263108527926066e+00 7.883543312226374e-02 0.000000000000000e+00 2.320771471773918e+00 1.774611341310380e-01 0.000000000000000e+00 6.201761285132973e-01 8.145180217066926e-01 0.000000000000000e+00 5.107672864112288e-01 8.169186336319382e-01 0.000000000000000e+00 5.291217175395199e-01 7.399324289248853e-01 0.000000000000000e+00 2.764640797973617e+00 6.197673077442869e-01 0.000000000000000e+00 2.721274941296599e+00 6.860745476515622e-01 0.000000000000000e+00 2.680790723483929e+00 5.770944853520404e-01 0.000000000000000e+00 3.000000000000007e-01 1.000000000000000e+00 0.000000000000000e+00 2.235202862591317e-01 8.887389633270458e-01 0.000000000000000e+00 3.153592145619369e-01 8.815404533065442e-01 0.000000000000000e+00 2.299999999999999e+00 1.000000000000000e+00 0.000000000000000e+00 2.199999999999999e+00 1.000000000000000e+00 0.000000000000000e+00 2.276253312368741e+00 8.960026502048396e-01 0.000000000000000e+00 1.299999999999999e+00 1.000000000000000e+00 0.000000000000000e+00 1.246238897717278e+00 9.001620782265900e-01 0.000000000000000e+00 1.325594839248253e+00 8.832813258746552e-01 0.000000000000000e+00 1.299999999999999e+00 1.000000000000000e+00 0.000000000000000e+00 1.325594839248253e+00 8.832813258746552e-01 0.000000000000000e+00 1.386478687610004e+00 9.220875103295796e-01 0.000000000000000e+00 3.099999999999999e+00 1.000000000000000e+00 0.000000000000000e+00 3.138079516399413e+00 8.908467724822530e-01 0.000000000000000e+00 3.204890379983837e+00 9.254368576810614e-01 0.000000000000000e+00 1.599999999996661e+00 0.000000000000000e+00 0.000000000000000e+00 1.679983210048711e+00 8.220201556683318e-02 0.000000000000000e+00 1.609545399082946e+00 1.308291592921435e-01 0.000000000000000e+00 1.061007011519329e+00 5.618772874050625e-01 0.000000000000000e+00 1.160572984923127e+00 6.015530474704378e-01 0.000000000000000e+00 1.050000000000000e+00 6.706367924525535e-01 0.000000000000000e+00 6.215262983536076e-01 7.328515730233995e-01 0.000000000000000e+00 6.201761285132973e-01 8.145180217066926e-01 0.000000000000000e+00 5.291217175395199e-01 7.399324289248853e-01 0.000000000000000e+00 1.948052693999185e+00 1.289873040940654e-01 0.000000000000000e+00 2.049999999995552e+00 8.978335458097943e-02 0.000000000000000e+00 2.057936946544583e+00 1.849235821189668e-01 0.000000000000000e+00 2.091091774288676e+00 8.874649005201438e-01 0.000000000000000e+00 1.981107049933336e+00 8.600018538720656e-01 0.000000000000000e+00 2.085258760309228e+00 8.052686384966041e-01 0.000000000000000e+00 1.039491394416145e+00 8.340298301149526e-01 0.000000000000000e+00 9.354088824890808e-01 8.828123294523768e-01 0.000000000000000e+00 9.137231126914012e-01 8.048617635747636e-01 0.000000000000000e+00 1.981107049933336e+00 8.600018538720656e-01 0.000000000000000e+00 1.996885229669902e+00 7.683000423456376e-01 0.000000000000000e+00 2.085258760309228e+00 8.052686384966041e-01 0.000000000000000e+00 2.299999999999999e+00 1.000000000000000e+00 0.000000000000000e+00 2.276253312368741e+00 8.960026502048396e-01 0.000000000000000e+00 2.395017918255099e+00 9.023368606738377e-01 0.000000000000000e+00 4.399999999999088e+00 0.000000000000000e+00 0.000000000000000e+00 4.443360971034338e+00 6.001006090376452e-02 0.000000000000000e+00 4.340464407462508e+00 1.058022966868348e-01 0.000000000000000e+00 7.543413513517198e-01 1.288879963162577e-01 0.000000000000000e+00 6.466910199083232e-01 1.799054750174742e-01 0.000000000000000e+00 6.626722243468293e-01 7.849715957809261e-02 0.000000000000000e+00 9.999999999992801e-02 0.000000000000000e+00 0.000000000000000e+00 2.066914384950196e-01 8.554607894793897e-02 0.000000000000000e+00 8.279903559142687e-02 8.279903559151081e-02 0.000000000000000e+00 3.431815931955504e-01 3.314386771104964e-01 0.000000000000000e+00 2.371857680100064e-01 3.586554844111011e-01 0.000000000000000e+00 2.478307344467225e-01 2.478307344464838e-01 0.000000000000000e+00 1.039491394416145e+00 8.340298301149526e-01 0.000000000000000e+00 1.035017143854235e+00 9.257730596464975e-01 0.000000000000000e+00 9.354088824890808e-01 8.828123294523768e-01 0.000000000000000e+00 1.763223103020597e+00 6.969213383069597e-01 0.000000000000000e+00 1.659764170257915e+00 7.783869792876411e-01 0.000000000000000e+00 1.641237689750194e+00 6.703960699373966e-01 0.000000000000000e+00 2.171230381509611e+00 6.460806590265337e-01 0.000000000000000e+00 2.235035871331497e+00 5.528935828550036e-01 0.000000000000000e+00 2.240765570563543e+00 6.710361137189144e-01 0.000000000000000e+00 3.099999999999999e+00 1.000000000000000e+00 0.000000000000000e+00 3.204890379983837e+00 9.254368576810614e-01 0.000000000000000e+00 3.199999999999998e+00 1.000000000000000e+00 0.000000000000000e+00 4.689375887502736e+00 8.629982390821114e-01 0.000000000000000e+00 4.559658010798574e+00 8.268398885804081e-01 0.000000000000000e+00 4.659699064592896e+00 7.795622692497817e-01 0.000000000000000e+00 2.217157304231143e+00 1.490340955835976e-01 0.000000000000000e+00 2.320771471773918e+00 1.774611341310380e-01 0.000000000000000e+00 2.244951071131736e+00 2.260199244934647e-01 0.000000000000000e+00 3.859396958574677e-01 4.484332494195724e-01 0.000000000000000e+00 2.998774732159264e-01 4.343088009374657e-01 0.000000000000000e+00 3.431815931955504e-01 3.314386771104964e-01 0.000000000000000e+00 1.948052693999185e+00 1.289873040940654e-01 0.000000000000000e+00 2.057936946544583e+00 1.849235821189668e-01 0.000000000000000e+00 1.949071218763063e+00 2.055183505669977e-01 0.000000000000000e+00 4.558741850192379e+00 1.706710584301058e-01 0.000000000000000e+00 4.451469977250477e+00 1.357957442429618e-01 0.000000000000000e+00 4.536544111235556e+00 7.547590122663222e-02 0.000000000000000e+00 2.764640797973617e+00 6.197673077442869e-01 0.000000000000000e+00 2.748586785039362e+00 5.211021237021853e-01 0.000000000000000e+00 2.861122426073405e+00 5.967442355315300e-01 0.000000000000000e+00 9.849196667091529e-01 7.457027191416240e-01 0.000000000000000e+00 1.039491394416145e+00 8.340298301149526e-01 0.000000000000000e+00 9.137231126914012e-01 8.048617635747636e-01 0.000000000000000e+00 2.171230381509611e+00 6.460806590265337e-01 0.000000000000000e+00 2.122199951799849e+00 5.850416005702397e-01 0.000000000000000e+00 2.235035871331497e+00 5.528935828550036e-01 0.000000000000000e+00 1.948411343815324e+00 5.977864372950021e-01 0.000000000000000e+00 1.831604818415202e+00 5.415700660643472e-01 0.000000000000000e+00 1.949496869330408e+00 5.032480558805372e-01 0.000000000000000e+00 9.555466748202026e-01 6.138712331357172e-01 0.000000000000000e+00 9.543842823432471e-01 5.002189144552502e-01 0.000000000000000e+00 1.061007011519329e+00 5.618772874050625e-01 0.000000000000000e+00 3.211383243381871e+00 8.238513614296178e-01 0.000000000000000e+00 3.287305785442545e+00 7.342276537100590e-01 0.000000000000000e+00 3.314972634714863e+00 8.093336828947851e-01 0.000000000000000e+00 1.399999999999999e+00 1.000000000000000e+00 0.000000000000000e+00 1.463012078585596e+00 8.920964591701215e-01 0.000000000000000e+00 1.500000000000000e+00 1.000000000000000e+00 0.000000000000000e+00 3.699999999998025e+00 0.000000000000000e+00 0.000000000000000e+00 3.799999999998176e+00 0.000000000000000e+00 0.000000000000000e+00 3.736690596671465e+00 1.064195787014745e-01 0.000000000000000e+00 3.099999999997114e+00 0.000000000000000e+00 0.000000000000000e+00 3.199999999997265e+00 0.000000000000000e+00 0.000000000000000e+00 3.138143461708514e+00 1.082496513635721e-01 0.000000000000000e+00 3.287305785442545e+00 7.342276537100590e-01 0.000000000000
[...]
<PointData Scalars="A_conc," Vectors="" Tensors="">
<DataArray type="Float64" Name="A_conc" format="ascii">
2.048570914182899e-07 3.787584882286226e-08 1.583790777224653e-07 3.064840130897533e-03 7.884353559096212e-03 2.225164588374852e-03 2.319608271038417e-07 6.744338075683922e-07 9.242993234971529e-07 -6.206195744623116e-08 1.136168868691845e-08 2.238628148049700e-07 2.004213420431411e-03 9.758843625830663e-04 6.243735351313221e-04 1.211480461867523e-05 3.554776185179574e-06 9.762012055689252e-06 9.067290608906971e-06 6.530117930444833e-06 1.538848521042737e-05 2.142755571603586e-04 1.842681797592535e-04 4.328817234179145e-04 2.223996365517282e-03 4.712117917773958e-03 1.913200108537486e-03 -6.732966730810891e-08 2.400833559676777e-07 -5.815123928767039e-09 3.058805284677407e-07 8.687204143235655e-07 1.245967926669415e-06 7.639827435279929e-08 1.434141863041878e-07 2.565544720516321e-07 6.086075814177661e-10 1.372600441837197e-10 3.539082164635601e-10 1.437921221641983e-06 9.646427995763953e-07 5.532062049282866e-07 2.951800576785880e-07 -1.226834761696751e-07 -1.562456138279968e-07 2.724336237307342e-07 1.450741432216499e-07 9.427298496381934e-08 4.101562149913890e-07 -1.344329347146745e-07 -2.223554715526556e-07 4.383549188419737e-07 -2.420089233556218e-07 -1.405023578975514e-07 2.644844883922061e-06 4.802136101755860e-06 8.825537566554436e-06 2.981725100257499e-07 -1.022755693771539e-07 -1.430132451990717e-07 1.015942703899349e-09 2.445822340546428e-09 7.085755476577250e-10 6.142568809596790e-10 5.376119952236695e-10 1.750846855661062e-10 1.407514355315405e-08 6.813676709352328e-08 9.032144833241006e-08 9.198267272559332e-08 1.648919285246197e-08 9.441444437883023e-08 6.791372032357849e-09 -2.032763847479297e-08 1.353626644243512e-08 3.414727605738282e-08 4.344916779265804e-08 1.026378404869386e-07 2.071094420190081e-07 7.228588815914941e-08 3.242584843768832e-07 8.285646253748228e-04 1.215499460047237e-03 3.419410131542993e-04 -9.387413127282459e-09 3.264926811745007e-08 -2.326185499016762e-08 1.885878202504946e-07 -5.694114869863466e-08 -6.730305004729149e-08 -3.044760338408653e-11 -1.108558783815200e-10 3.873607706290420e-10 4.069375876550797e-08 -4.793582337505078e-08 7.242064609542848e-09 2.848958367173871e-08 1.091911637549721e-08 7.932884429350537e-09 6.877971892774327e-08 1.526657071113278e-07 1.665409791907176e-07 1.616561658850713e-06 8.241267874266435e-06 7.772544467750353e-06 3.284802042684799e-03 4.287182092704710e-04 2.578718938895603e-03 8.598274432982921e-08 2.543461886647775e-07 1.244898726718835e-07 1.200090195484373e-10 3.909508535506986e-11 1.263464942087032e-10 2.910101407394415e-08 9.412351552594965e-08 3.206439478560407e-08 1.891823436655771e-03 4.223910978037185e-04 1.556863020441067e-03 9.158775682508593e-07 7.113609215655653e-07 2.283738362049415e-06 -4.196539482587959e-10 5.170083281233333e-09 1.074519569253508e-09 1.034904956964848e-07 4.729753929544217e-08 1.803919821940320e-07 5.004715909936843e-08 7.054001706259751e-09 5.324007747454949e-08 5.421242016835283e-10 6.356854168112986e-10 1.693599964562663e-09 3.352242436402792e-06 1.024196132469506e-05 1.302517775323950e-05 3.532419245735522e-07 -3.968286880598021e-07 3.211936940532244e-07 3.095540933682387e-05 9.451452980499311e-05 5.236405574864847e-05 2.783485683791171e-06 8.554379354966949e-06 4.816681088459661e-06 1.227354735985843e-05 5.938005204570087e-06 4.327854974500552e-06 1.566918739244960e-03 5.798429010874388e-03 2.087700679893358e-03 -7.384142054587948e-09 7.511502521013339e-09 1.778746528878059e-09 5.351445233630227e-07 1.709864332941775e-06 1.052654426204476e-06 3.441035348196799e-03 1.605760319157832e-03 7.852305359826850e-04 3.118444768703810e-03 2.825704045268833e-03 1.343570777722154e-03 1.559683525766664e-03 6.876065708268048e-03 6.990250651481245e-03 3.591781729785846e-10 2.202411833151830e-09 2.132270837708492e-09 2.955342406518534e-04 1.261653388789412e-04 2.673197031517600e-04 3.059627107315989e-04 6.588601885601571e-04 1.044442679209188e-03 1.404864376018776e-07 1.722045291129870e-07 -1.346204937840420e-07 7.069034993199456e-07 2.984332781164667e-06 2.848156390746715e-06 3.525899335620784e-04 7.872758219678940e-05 3.613800889620598e-04 3.211493901422998e-05 6.043780103720200e-06 3.338015637756648e-05 1.032014298141303e-08 2.672150822068764e-08 8.113988247835681e-09 3.228653923424755e-10 1.437278860942214e-09 1.538394811204734e-09 8.872255440151472e-06 8.688058769459511e-06 2.433368956314511e-05 7.099363668511076e-05 1.503348204611442e-05 7.176640529745189e-05 4.516209316051383e-09 1.230669329275158e-08 4.266250647831469e-09 8.941639177700873e-04 3.936454088475245e-03 5.530368235529929e-03 5.257781302666078e-04 2.693209434411384e-04 8.510540819436147e-04 2.869349751037100e-10 1.412914294157542e-10 4.590905270648853e-11 4.835003575076114e-07 6.888122525565440e-08 3.867122971795178e-07 1.109322872880158e-07 1.200708006709698e-07 3.169612274087674e-08 4.411824731616221e-07 -8.348290997374623e-08 -2.670864391885460e-07 3.186139596319799e-05 7.822691855203954e-05 1.007644559515514e-04 7.055064243536458e-06 9.182998780677190e-06 2.943596390432133e-06 8.366322852299676e-09 3.573323296924760e-09 1.334980484544664e-09 3.208802642151775e-06 1.292292585688349e-05 1.099463041853882e-05 3.555234334629194e-05 1.425156507059937e-04 1.211350224465323e-04 2.029904441777115e-10 2.548836518832574e-10 3.771450237101752e-11 1.319833446931932e-07 2.565928346268753e-07 3.487577971800752e-07 3.377893269326392e-06 1.202576620291896e-05 4.829298454705840e-06 5.097103868789020e-07 2.261713558818039e-07 1.272567589372004e-07 1.999890683764379e-06 2.073147362838292e-06 3.490971537843028e-07 5.236841339255341e-05 3.456637148087428e-05 1.496729447569849e-05 5.727025867190188e-10 5.274861296516342e-09 8.235235603184501e-09 4.684899259935759e-06 5.725137000488841e-06 1.284047091084376e-05 5.120114796090575e-05 6.345063471438772e-05 1.415564460104049e-04 2.163810522297385e-08 1.398743779651900e-08 -3.680534888553096e-10 1.717886904295605e-08 5.860258110952995e-09 6.232956729998310e-09 9.782186017071957e-07 4.668017186801321e-06 4.436212666369177e-06 7.687259170330700e-06 5.433432134220404e-05 4.939254304438920e-05 8.227335129946641e-05 6.011178746050682e-04 5.434338872970205e-04 4.724418556021311e-05 1.194580818176985e-05 2.800845103104552e-05 8.488115046684797e-06 1.147217680266539e-05 2.046590689821824e-06 2.561084389778624e-07 -1.588551573506653e-07 2.257549281672292e-09 4.746215136323851e-05 2.485122663317770e-05 1.314192741920430e-05 5.493742567905071e-04 2.673244458132275e-04 1.408097554150216e-04 4.159646621454748e-07 3.029622520209434e-07 8.204016354357654e-07 3.353778475644214e-04 1.039166475430001e-03 5.967813735688592e-04 1.173145013272271e-07 9.943361248612540e-08 2.659388610962965e-08 5.651584000062108e-09 2.167987960298753e-08 7.216554742234967e-09 1.678279026042233e-08 2.611075419403614e-08 1.166578244429579e-09 2.546149834937760e-05 4.362014144821878e-05 1.570016439329224e-05 2.550846566103086e-09 8.449884177989671e-09 4.975897438042231e-09 1.341621938311259e-04 4.803353457314909e-05 6.031802130053400e-05 -3.697562580760583e-08 2.743803742833688e-08 9.537588379268965e-09 2.165324432731452e-04 1.135988752372345e-03 1.203050528127857e-03 6.550366691420329e-09 2.125245944544211e-09 4.332371337493922e-09 1.395711739296071e-04 1.132970547713713e-04 3.263104703724784e-05 1.670334905985682e-10 1.095502265706168e-10 3.815240496539371e-10 -1.365611536900138e-09 5.129415619834826e-09 -3.763804082934688e-09 1.467486595221189e-09 -4.862878069563413e-09 3.395391474342223e-09 2.535417536214248e-08 2.396618695882925e-08 5.760816383545231e-09 4.357669141357027e-09 -9.336144307086089e-09 4.978475165729064e-09 5.430830157792943e-04 1.078527340160366e-04 3.463643097088164e-04 2.418178219578115e-07 -1.583246205447347e-07 -2.644900433866168e-08 7.851960743880480e-11 8.536978510486017e-11 1.940620328301376e-10 5.024214676812792e-09 1.732621027232984e-09 2.587125026200312e-09 4.342874905127532e-04 6.981767584639922e-04 1.257543493815873e-03 4.023851289630149e-09 1.373298040879993e-09 5.892846390230142e-09 -6.676916727535498e-09 5.124068587249783e-08 4.348774612551959e-08 3.174058053133525e-07 2.226355872091776e-07 5.285508260493658e-07 -3.117342644724520e-08 1.514191348116242e-08 1.623449045256051e-08 6.838993832807480e-04 3.554764179483730e-04 9.317052906106509e-04 7.932316647690171e-10 5.944242982834739e-10 2.197260089041259e-10 6.600351220948408e-07 3.859155686695399e-07 1.275993716666494e-06 3.813760749795593e-09 3.726497201582970e-10 -8.905524042086902e-10 3.686595248640513e-04 1.773845779448746e-04 6.735303249126208e-04 2.734060573562076e-04 1.142072201974781e-04 8.411273147740378e-05 7.805604598453869e-06 2.857142517202081e-06 9.851874791139183e-06 5.000594422844173e-09 1.364130206758767e-09 3.716122189848037e-09 6.549221695932572e-05 1.706812076308171e-04 8.854973401730165e-05 4.827336811006504e-05 2.198255841755937e-04 2.530306514593919e-04 1.982073246077081e-05 2.297838888543784e-05 4.709859341932395e-06 2.601904676801556e-10 3.695552146884901e-10 7.212633110361124e-11 3.118720059430782e-07 -1.805907826122493e-07 -9.894836488568921e-08 7.638864356009026e-03 4.827052716280996e-03 1.577302576653405e-03 4.862552751786391e-05 8.021023718526587e-05 1.985688631362536e-05 2.274166061200556e-05 7.974792002505122e-06 1.337809953146006e-05 7.513695141515063e-10 2.865223920278011e-10 4.233631923800552e-10 1.099091893086611e-03 3.029646056396515e-04 6.340306246446759e-04 2.630308159000298e-08 3.206435222287672e-09 -4.905476183982058e-09 1.768892315300257e-08 1.186552665624963e-08 3.999920479094387e-08 4.410747360369689e-06 1.853549167134275e-06 1.961649372355292e-06 2.853990901147641e-06 2.753305822106849e-06 1.053632388723657e-06 3.048034112230691e-05 8.141722650457849e-05 1.143061483835215e-04 7.556442897422423e-09 4.245245589598400e-09 2.384723308708042e-09 1.562463999333557e-05 5.013765487980092e-06 8.551004975363258e-06 5.647120403381344e-05 1.199123250760796e-04 9.229014958785637e-05 5.510173531707792e-09 2.668306577318383e-09 3.751581058232342e-09 1.118339736888711e-05 7.840381223022972e-06 5.486532806551937e-06 4.721536704576531e-06 2.089242747987501e-05 2.199310286228516e-05 7.999175687105472e-05 2.843485552584672e-05 2.991757658398810e-05 2.239004075553007e-09 1.113692199676789e-08 1.046195729488653e-08 2.838236003135134e-06 2.628679218280405e-06 6.591259871095635e-07 1.909231383339404e-09 5.491594524712868e-10 5.091891875948723e-10 1.716154698031315e-04 3.915348200464775e-04 6.662153957161598e-04 1.200437217144171e-08 5.101631956521111e-08 5.370828074550043e-08 3.327492390631990e-06 1.238945225919076e-06 1.194000590855576e-06 3.218758138103684e-07 -4.105999358696119e-07 3.680466733149405e-07 2.073373005869319e-04 6.475392643024947e-05 1.282263823897148e-04 1.509299625787225e-07 3.263945929368853e-07 4.149433679008298e-07 1.363643493677279e-07 6.973479333530576e-07 5.177738199280459e-07 1.260303647491137e-07 4.263914243999874e-08 5.245133814498714e-08 2.517113074026872e-10 8.981824236648306e-09 -9.233535544050993e-09 -9.724436644971810e-09 5.117002735921973e-09 4.868231402053244e-09 1.275228001654415e-08 4.010115556892022e-08 6.627540979431269e-08 8.839760653969424e-09 6.556017853534255e-08 4.898434066813300e-08 3.403698766455304e-06 1.155051911623243e-06 1.247909622142074e-06 -1.693827636844330e-08 2.285134051632726e-08 -5.913064147883978e-09 -3.376092056984632e-10 3.002522720913449e-10 6.749164045967339e-10 3.099170424286101e-06 7.055441684413783e-07 2.782330098900397e-06 1.197576691519993e-06 1.564828529297242e-06 3.119130431215541e-06 2.335739957426946e-10 3.970332011348794e-10 7.101731703765443e-10 3.610312026208477e-05 1.085047982942808e-05 1.617615853405526e-05 3.959624674608774e-04 1.204505950049843e-04 1.789686516967410e-04 1.772821373220047e-07 4.028045893590375e-07 7.201604976749177e-07 1.011902268868651e-07 2.223435404353248e-07 1.069112518992774e-07 1.242070625667375e-09 1.326653467302682e-09 3.987335105633816e-09 3.155637193005120e-05 9.721893798271553e-06 3.183209319370769e-05 3.448401803398125e-04 1.072565277265328e-04 3.544511855301214e-04 9.802885170762765e-04 2.481082856700401e-03 1.106869250921397e-03 1.441367228847556e-08 3.694767287933525e-08 3.348265393582512e-08 1.475791019665182e-07 1.528609617815567e-07 4.835056084428806e-08 7.457242333146527e-10 5.996621127061682e-10 1.969182244462001e-09 -8.468648301207981e-10 1.614640195491304e-09 5.345151515432295e-09 2.384227305611823e-08 2.755439172121478e-08 5.013283585023021e-08 8.950602045150170e-07 7.613726119798265e-07 2.493509868298489e-07 3.942815829402199e-11 1.436332864179378e-10 6.391805582140097e-11 1.625350696093064e-07 8.600316635103916e-08 7.600954260170614e-08 1.403029445790845e-09 -1.143422481241441e-09 1.204092998380658e-09 3.665070207708571e-07 -2.231925527248564e-07 -1.887592690397991e-08 -5.737968441090636e-08 2.717453043120681e-08 3.020515397969953e-08 6.068334836162103e-09 6.607743382486554e-09 -1.008287362825014e-08 2.186406928680843e-10 1.008553841230594e-10 8.748986187350494e-11 -2.374709300840442e-08 6.716789781605644e-08 -4.342080480765197e-08 -1.044007774312144e-08 9.969982497225979e-09 6.044067668285553e-09 1.664359399546608e-07 3.258496617154101e-07 9.816814281462267e-08 6.584822346335025e-08 3.082776582841153e-07 2.594961712359999e-07 -6.386223992780026e-09 7.387731938394460e-09 -1.001507945614430e-09 4.685026755003261e-09 2.413181875911786e-08 2.159679884018691e-08 1.068133926563215e-02 1.068133926563215e-02 1.985465520397750e-03 2.707870018003782e-08 3.341906651957487e-08 8.195008983696565e-08 3.689545800650146e-05 1.190897951010516e-05 1.442394304923835e-05 4.021597827282521e-04 1.420344623265553e-04 1.559925529179072e-04 7.920312485604056e-09 2.832664708029661e-08 3.820332028343656e-08 1.611510904779536e-08 3.830596572144084e-09 1.297715483992480e-08 2.369762228068415e-07 1.972966063620654e-07 -1.434058384441162e-07 8.622014143236834e-04 2.325574062369868e-03 2.447323443617608e-03 3.194794131680371e-10 1.565068690193024e-09 1.285694353448132e-09 9.742097450180821e-07 3.933696401777949e-07 3.271082254602001e-07 2.460460736038206e-05 1.136783024471219e-05 7.584214223434375e-06 1.518655790728013e-07 -2.173984502111768e-09 2.260660665455912e-07 3.695990147956158e-07 -2.495349286960905e-07 -3.756696910366028e-08 5.073076757825468e-08 1.373014044268278e-08 5.181523881069223e-08 -2.544697180005271e-08 7.524772610979132e-09 1.792219918907357e-08 5.697327989295599e-08 2.574680449333724e-08 1.483327187474924e-08 1.502854231512213e-08 1.141392426764138e-08 -2.644246658276354e-08 8.954558862150474e-06 5.083776019461646e-06 4.277709184020657e-06 2.579787870303034e-06 6.001767479833429e-06 6.753210924858711e-06 1.381959358859356e-03 4.363495950159942e-04 1.055390612386110e-03 1.423756950043136e-10 6.252673033050062e-11 1.297732095278728e-10 4.053920745245742e-08 1.100579894220140e-07 5.142623672342138e-08 6.463107283736633e-08 1.081365214194535e-07 3.561129576990983e-08 1.195800248497060e-02 4.240748353586400e-03 4.115239626001893e-03 -5.796952124310192e-09 1.812872289265476e-08 -1.233177076834455e-08 6.235178207643065e-08 3.783287808706814e-08 1.247185254224730e-07 2.068507733829285e-06 1.216491645072614e-06 6.629333823275723e-07 1.990162400585872e-10 5.913506431734708e-11 1.900992612613699e-10 1.351684945340570e-10 1.254937770440345e-10 3.010258869052636e-10 6.152926056564797e-09 -8.812489643587020e-09 4.376799847703976e-09 -2.680350506421049e-08 3.519216703422702e-08 -8.388661970016560e-09 6.495373392345334e-08 1.047055710085409e-08 4.161289132733499e-08 8.626417813313429e-06 1.765415390232306e-05 2.791584163149150e-05 1.974413918049821e-05 3.769380731649518e-05 6.249615253508445e-05 6.538194898936073e-05 3.036845848599948e-05 8.320085444632912e-05 1.733563394813124e-05 1.228691044638297e-05 7.287050226159643e-06 -7.959502235629197e-10 -9.080784630290017e-09 9.876734853852943e-09 1.698487849750234e-06 2.216432382605864e-06 7.668783845780558e-07 3.435918512233445e-05 1.151404167535102e-04 7.214994362737867e-05 7.465283938794619e-09 2.296054623536377e-09 4.647055980009500e-09 1.578397725685373e-05 8.748128631579800e-06 4.815069146354993e-06 1.476830158250137e-08 1.582123904895820e-08 2.969309829219357e-09 1.787339260250148e-06 1.887360696672024e-06 5.051166730001601e-06 2.027262519636440e-05 1.876830090943471e-05 5.636554627554214e-05 2.220277466612163e-04 2.045719117952227e-04 6.223242384523162e-04 1.900129104559167e-06 6.235629323012188e-07 1.985817332729986e-06 3.285666303993194e-07 3.649949798542406e-07 -4.036872550311003e-07 1.346261259689720e-06 2.035850632604045e-06 6.233303713630818e-07 3.807951893726275e-09 1.630759106879445e-08 1.429323955773435e-08 8.489762599917092e-10 2.526334340560561e-09 9.602424932931821e-10 4.923465078006128e-06 1.723895795848843e-06 1.873201978697431e-06 5.318693169983474e-05 1.962318920163270e-05 2.102387295169216e-05 2.169982946532370e-04 2.266676134277624e-04 5.897464712837337e-04 4.432085843473917e-04 3.805168246759242e-04 1.132929982607030e-04 5.992840600716404e-08 -3.815929829879186e-08 -2.176910770837223e-08 2.318572292054924e-07 1.234795366044893e-07 1.086562384878272e-07 2.662958896513905e-07 -3.245152519987775e-07 3.145794402780152e-07 1.691445205637350e-06 5.161301085309798e-07 1.097430969937283e-06 3.008656219615201e-08 1.552037162655914e-08 1.286904692084046e-08 1.777692721028868e-07 1.366747677579421e-07 5.627693674530118e-08 6.266864877307171e-05 3.620847520977795e-05 2.297293233712566e-05 1.381319275055834e-05 3.644501402014438e-05 4.864831348607721e-05 4.557987068926791e-10 2.343878466167768e-11 -7.055639297711243e-12 2.744048240861880e-07 -3.038095069606380e-07 3.153762801489842e-07 6.318439795335752e-08 3.986480494391441e-08 1.080267971668844e-08 -4.462152638968297e-08 6.438736911184504e-08 -1.976584272216213e-08 4.966509172650492e-08 9.337556918979307e-08 1.673159227195136e-07 5.840903306227423e-07 2.090554479605754e-06 1.733671439407333e-06 2.579118298104935e-09 6.407708098231477e-09 8.475743586136402e-09 3.981346316091403e-09 2.585497084791957e-09 5.449803582046984e-09 9.726113825147658e-05 1.189586388562496e-04 5.483329361490148e-05 5.518860765283615e-06 7.745279692762280e-06 1.120366674528198e-05 8.995602606911616e-07 1.372416667205752e-06 4.178629726093959e-07 2.411020657029304e-07 2.621332210785162e-07 -2.449937739595651e-07 9.234124343707625e-07 2.315232730292941e-07 6.263265491742453e-07 5.697956432138456e-08 -1.414679574405573e-08 -4.283276857732883e-08 1.268776339775198e-10 -1.287398538739547e-11 2.884295328403173e-10 -6.684013886763498e-11 2.870367626363364e-10 2.552641927813320e-10 3.032253862273259e-09 3.723717396322984e-09 6.553043249840329e-10 3.820902759115884e-05 1.727625864561165e-04 1.528481004561924e-04 2.526186142615602e-08 5.899047288194127e-08 1.503918917562623e-08 4.284398497539436e-07 -1.740855759687575e-07 -2.319407540287940e-07 8.793432507440708e-04 3.626380592470979e-04 1.240858096477254e-03 1.152259176304641e-09 4.393443364901736e-10 1.015024912423227e-09 3.123833600309779e-09 -7.577074647756232e-10 -1.214923767266982e-09 3.094319152554239e-10 2.538446644121928e-10 7.992652788241323e-11 5.026403591053971e-06 2.201429254106369e-05 2.044798168994840e-05 7.909976848320647e-05 3.248052914136695e-05 2.781743804443073e-05 2.518587109208568e-09 9.750456753497085e-09 1.138323152513436e-08 2.439348121744798e-09 7.838374783079997e-09 4.337524443724843e-09 2.892358785282537e-08 9.371536840551248e-08 1.141262032887838e-07 1.680060959441693e-07 7.822903642794520e-08 5.589296257157001e-08 4.407578042510769e-06 2.517050727314608e-06 6.414848534595998e-06 4.903810292740007e-12 3.843800421993585e-11 3.846948336787639e-11 1.613166112571995e-08 1.000300431927640e-08 4.726712004710875e-09 2.748187385696530e-07 -7.964544220528800e-08 -1.604929828094383e-07 8.389363553075271e-07 9.773265922302609e-07 2.153063466494700e-06 6.368913248575490e-08 2.286081792166066e-07 1.946184911087456e-07 1.3