<?xml version="1.0"?>
<VTKFile type="UnstructuredGrid" version="0.1" byte_order="LittleEndian">
<UnstructuredGrid>
<Piece NumberOfPoints="3918" NumberOfCells="1306">
<Points>
<DataArray type="Float64" NumberOfComponents="3" format="ascii">
2.199999999999999e+00 1.000000000000000e+00 0.000000000000000e+00 2.167042760209688e+00 9.180909330202516e-01 0.000000000000000e+00 2.276253312368741e+00 8.960026502048396e-01 0.000000000000000e+00 4.794660531865603e+00 4.928781786967001e-01 0.000000000000000e+00 4.895148782943732e+00 5.622595023726160e-01 0.000000000000000e+00 4.773700345920383e+00 5.924187786805324e-01 0.000000000000000e+00 2.543072460766750e+00 7.257064952909391e-01 0.000000000000000e+00 2.612778635682587e+00 6.379739460669237e-01 0.000000000000000e+00 2.649888912334054e+00 7.569619856190068e-01 0.000000000000000e+00 1.948052693999185e+00 1.289873040940654e-01 0.000000000000000e+00 1.894432874635162e+00 7.551835003504323e-02 0.000000000000000e+00 1.999999999995511e+00 0.000000000000000e+00 0.000000000000000e+00 4.558741850192379e+00 1.706710584301058e-01 0.000000000000000e+00 4.482003026509532e+00 2.394413792785933e-01 0.000000000000000e+00 4.451469977250477e+00 1.357957442429618e-01 0.000000000000000e+00 3.299999999999999e+00 1.000000000000000e+00 0.000000000000000e+00 3.204890379983837e+00 9.254368576810614e-01 0.000000000000000e+00 3.273830491511281e+00 8.834576202305108e-01 0.000000000000000e+00 3.299999999999999e+00 1.000000000000000e+00 0.000000000000000e+00 3.273830491511281e+00 8.834576202305108e-01 0.000000000000000e+00 3.353422182013107e+00 9.028315595988372e-01 0.000000000000000e+00 4.111703902366866e+00 1.331175536465074e-01 0.000000000000000e+00 4.099999999998633e+00 0.000000000000000e+00 0.000000000000000e+00 4.182764237453481e+00 8.084782043728693e-02 0.000000000000000e+00 4.699999999999545e+00 0.000000000000000e+00 0.000000000000000e+00 4.776755050008729e+00 9.373387207737824e-02 0.000000000000000e+00 4.690158205531358e+00 1.364814217295172e-01 0.000000000000000e+00 1.948052693999185e+00 1.289873040940654e-01 0.000000000000000e+00 1.999999999995511e+00 0.000000000000000e+00 0.000000000000000e+00 2.049999999995552e+00 8.978335458097943e-02 0.000000000000000e+00 2.612778635682587e+00 6.379739460669237e-01 0.000000000000000e+00 2.680790723483929e+00 5.770944853520404e-01 0.000000000000000e+00 2.721274941296599e+00 6.860745476515622e-01 0.000000000000000e+00 2.217157304231143e+00 1.490340955835976e-01 0.000000000000000e+00 2.263108527926066e+00 7.883543312226374e-02 0.000000000000000e+00 2.320771471773918e+00 1.774611341310380e-01 0.000000000000000e+00 6.201761285132973e-01 8.145180217066926e-01 0.000000000000000e+00 5.107672864112288e-01 8.169186336319382e-01 0.000000000000000e+00 5.291217175395199e-01 7.399324289248853e-01 0.000000000000000e+00 2.764640797973617e+00 6.197673077442869e-01 0.000000000000000e+00 2.721274941296599e+00 6.860745476515622e-01 0.000000000000000e+00 2.680790723483929e+00 5.770944853520404e-01 0.000000000000000e+00 3.000000000000007e-01 1.000000000000000e+00 0.000000000000000e+00 2.235202862591317e-01 8.887389633270458e-01 0.000000000000000e+00 3.153592145619369e-01 8.815404533065442e-01 0.000000000000000e+00 2.299999999999999e+00 1.000000000000000e+00 0.000000000000000e+00 2.199999999999999e+00 1.000000000000000e+00 0.000000000000000e+00 2.276253312368741e+00 8.960026502048396e-01 0.000000000000000e+00 1.299999999999999e+00 1.000000000000000e+00 0.000000000000000e+00 1.246238897717278e+00 9.001620782265900e-01 0.000000000000000e+00 1.325594839248253e+00 8.832813258746552e-01 0.000000000000000e+00 1.299999999999999e+00 1.000000000000000e+00 0.000000000000000e+00 1.325594839248253e+00 8.832813258746552e-01 0.000000000000000e+00 1.386478687610004e+00 9.220875103295796e-01 0.000000000000000e+00 3.099999999999999e+00 1.000000000000000e+00 0.000000000000000e+00 3.138079516399413e+00 8.908467724822530e-01 0.000000000000000e+00 3.204890379983837e+00 9.254368576810614e-01 0.000000000000000e+00 1.599999999996661e+00 0.000000000000000e+00 0.000000000000000e+00 1.679983210048711e+00 8.220201556683318e-02 0.000000000000000e+00 1.609545399082946e+00 1.308291592921435e-01 0.000000000000000e+00 1.061007011519329e+00 5.618772874050625e-01 0.000000000000000e+00 1.160572984923127e+00 6.015530474704378e-01 0.000000000000000e+00 1.050000000000000e+00 6.706367924525535e-01 0.000000000000000e+00 6.215262983536076e-01 7.328515730233995e-01 0.000000000000000e+00 6.201761285132973e-01 8.145180217066926e-01 0.000000000000000e+00 5.291217175395199e-01 7.399324289248853e-01 0.000000000000000e+00 1.948052693999185e+00 1.289873040940654e-01 0.000000000000000e+00 2.049999999995552e+00 8.978335458097943e-02 0.000000000000000e+00 2.057936946544583e+00 1.849235821189668e-01 0.000000000000000e+00 2.091091774288676e+00 8.874649005201438e-01 0.000000000000000e+00 1.981107049933336e+00 8.600018538720656e-01 0.000000000000000e+00 2.085258760309228e+00 8.052686384966041e-01 0.000000000000000e+00 1.039491394416145e+00 8.340298301149526e-01 0.000000000000000e+00 9.354088824890808e-01 8.828123294523768e-01 0.000000000000000e+00 9.137231126914012e-01 8.048617635747636e-01 0.000000000000000e+00 1.981107049933336e+00 8.600018538720656e-01 0.000000000000000e+00 1.996885229669902e+00 7.683000423456376e-01 0.000000000000000e+00 2.085258760309228e+00 8.052686384966041e-01 0.000000000000000e+00 2.299999999999999e+00 1.000000000000000e+00 0.000000000000000e+00 2.276253312368741e+00 8.960026502048396e-01 0.000000000000000e+00 2.395017918255099e+00 9.023368606738377e-01 0.000000000000000e+00 4.399999999999088e+00 0.000000000000000e+00 0.000000000000000e+00 4.443360971034338e+00 6.001006090376452e-02 0.000000000000000e+00 4.340464407462508e+00 1.058022966868348e-01 0.000000000000000e+00 7.543413513517198e-01 1.288879963162577e-01 0.000000000000000e+00 6.466910199083232e-01 1.799054750174742e-01 0.000000000000000e+00 6.626722243468293e-01 7.849715957809261e-02 0.000000000000000e+00 9.999999999992801e-02 0.000000000000000e+00 0.000000000000000e+00 2.066914384950196e-01 8.554607894793897e-02 0.000000000000000e+00 8.279903559142687e-02 8.279903559151081e-02 0.000000000000000e+00 3.431815931955504e-01 3.314386771104964e-01 0.000000000000000e+00 2.371857680100064e-01 3.586554844111011e-01 0.000000000000000e+00 2.478307344467225e-01 2.478307344464838e-01 0.000000000000000e+00 1.039491394416145e+00 8.340298301149526e-01 0.000000000000000e+00 1.035017143854235e+00 9.257730596464975e-01 0.000000000000000e+00 9.354088824890808e-01 8.828123294523768e-01 0.000000000000000e+00 1.763223103020597e+00 6.969213383069597e-01 0.000000000000000e+00 1.659764170257915e+00 7.783869792876411e-01 0.000000000000000e+00 1.641237689750194e+00 6.703960699373966e-01 0.000000000000000e+00 2.171230381509611e+00 6.460806590265337e-01 0.000000000000000e+00 2.235035871331497e+00 5.528935828550036e-01 0.000000000000000e+00 2.240765570563543e+00 6.710361137189144e-01 0.000000000000000e+00 3.099999999999999e+00 1.000000000000000e+00 0.000000000000000e+00 3.204890379983837e+00 9.254368576810614e-01 0.000000000000000e+00 3.199999999999998e+00 1.000000000000000e+00 0.000000000000000e+00 4.689375887502736e+00 8.629982390821114e-01 0.000000000000000e+00 4.559658010798574e+00 8.268398885804081e-01 0.000000000000000e+00 4.659699064592896e+00 7.795622692497817e-01 0.000000000000000e+00 2.217157304231143e+00 1.490340955835976e-01 0.000000000000000e+00 2.320771471773918e+00 1.774611341310380e-01 0.000000000000000e+00 2.244951071131736e+00 2.260199244934647e-01 0.000000000000000e+00 3.859396958574677e-01 4.484332494195724e-01 0.000000000000000e+00 2.998774732159264e-01 4.343088009374657e-01 0.000000000000000e+00 3.431815931955504e-01 3.314386771104964e-01 0.000000000000000e+00 1.948052693999185e+00 1.289873040940654e-01 0.000000000000000e+00 2.057936946544583e+00 1.849235821189668e-01 0.000000000000000e+00 1.949071218763063e+00 2.055183505669977e-01 0.000000000000000e+00 4.558741850192379e+00 1.706710584301058e-01 0.000000000000000e+00 4.451469977250477e+00 1.357957442429618e-01 0.000000000000000e+00 4.536544111235556e+00 7.547590122663222e-02 0.000000000000000e+00 2.764640797973617e+00 6.197673077442869e-01 0.000000000000000e+00 2.748586785039362e+00 5.211021237021853e-01 0.000000000000000e+00 2.861122426073405e+00 5.967442355315300e-01 0.000000000000000e+00 9.849196667091529e-01 7.457027191416240e-01 0.000000000000000e+00 1.039491394416145e+00 8.340298301149526e-01 0.000000000000000e+00 9.137231126914012e-01 8.048617635747636e-01 0.000000000000000e+00 2.171230381509611e+00 6.460806590265337e-01 0.000000000000000e+00 2.122199951799849e+00 5.850416005702397e-01 0.000000000000000e+00 2.235035871331497e+00 5.528935828550036e-01 0.000000000000000e+00 1.948411343815324e+00 5.977864372950021e-01 0.000000000000000e+00 1.831604818415202e+00 5.415700660643472e-01 0.000000000000000e+00 1.949496869330408e+00 5.032480558805372e-01 0.000000000000000e+00 9.555466748202026e-01 6.138712331357172e-01 0.000000000000000e+00 9.543842823432471e-01 5.002189144552502e-01 0.000000000000000e+00 1.061007011519329e+00 5.618772874050625e-01 0.000000000000000e+00 3.211383243381871e+00 8.238513614296178e-01 0.000000000000000e+00 3.287305785442545e+00 7.342276537100590e-01 0.000000000000000e+00 3.314972634714863e+00 8.093336828947851e-01 0.000000000000000e+00 1.399999999999999e+00 1.000000000000000e+00 0.000000000000000e+00 1.463012078585596e+00 8.920964591701215e-01 0.000000000000000e+00 1.500000000000000e+00 1.000000000000000e+00 0.000000000000000e+00 3.699999999998025e+00 0.000000000000000e+00 0.000000000000000e+00 3.799999999998176e+00 0.000000000000000e+00 0.000000000000000e+00 3.736690596671465e+00 1.064195787014745e-01 0.000000000000000e+00 3.099999999997114e+00 0.000000000000000e+00 0.000000000000000e+00 3.199999999997265e+00 0.000000000000000e+00 0.000000000000000e+00 3.138143461708514e+00 1.082496513635721e-01 0.000000000000000e+00 3.287305785442545e+00 7.342276537100590e-01 0.000000000000
[...]
<PointData Scalars="A_conc," Vectors="" Tensors="">
<DataArray type="Float64" Name="A_conc" format="ascii">
6.266036775405948e-02 5.961992450769621e-02 7.045627154888512e-02 5.975277086663680e-01 6.256579626071880e-01 5.916638534688756e-01 9.563805876630717e-02 1.052553897392808e-01 1.105313751889187e-01 4.465983899963880e-02 4.086804498502514e-02 4.908775181709393e-02 5.317777822493363e-01 5.103888601095389e-01 5.018886934944093e-01 2.169260034252745e-01 1.966687738475541e-01 2.112732718573734e-01 2.161512320361803e-01 2.104824032724448e-01 2.277929804100326e-01 4.094007657244899e-01 4.062532027860272e-01 4.287586019265540e-01 5.710692558433176e-01 5.925444644313732e-01 5.683164175233688e-01 4.396575013674978e-02 4.842662725577680e-02 5.212910331068979e-02 1.038976789675909e-01 1.138207914291091e-01 1.199002175528158e-01 6.349712878677986e-02 6.819275011640298e-02 7.427616348016609e-02 5.728556624738242e-03 4.466172830289889e-03 4.653628020343539e-03 1.257026838167566e-01 1.190243897384518e-01 1.129081143405015e-01 3.210417744096810e-03 2.607081877206225e-03 3.286084441796458e-03 7.224317846158657e-02 6.195691960588402e-02 6.981926882637546e-02 1.720036736500918e-02 1.546454894710864e-02 1.815449322894969e-02 1.685416227938026e-02 1.781858005321278e-02 2.001974550832547e-02 1.775148867188927e-01 1.850324834185911e-01 1.985254938710341e-01 2.708916393095958e-02 3.102882194761995e-02 2.722366727480998e-02 1.152671450759704e-02 1.412473311332044e-02 1.125402695344774e-02 5.665069896793718e-03 5.633385893375301e-03 4.537783476043254e-03 4.370236832729976e-02 5.194248603842010e-02 5.253011053411395e-02 5.501432915517378e-02 4.583575771213443e-02 5.457187403006131e-02 1.163849069682632e-02 9.359890436198488e-03 8.946462266174121e-03 4.638869453212426e-02 4.766126867890585e-02 5.492215285067197e-02 7.122911162646636e-02 6.878495017874542e-02 8.178990836381031e-02 4.877770287196750e-01 4.998094580818341e-01 4.712535447232938e-01 7.163181569576898e-03 5.639837993887617e-03 5.862117779672923e-03 2.208380410033844e-03 2.742827593856878e-03 2.025448067452514e-03 3.522303186116169e-03 2.732927034981376e-03 2.801395098860732e-03 1.146532295268559e-02 1.139365104466088e-02 9.129143696877331e-03 3.526576387853185e-02 2.938520087657342e-02 2.843763278656478e-02 5.994612005193603e-02 6.615830297542390e-02 6.684238903757590e-02 1.771197479815566e-01 1.981938551477320e-01 1.973849746528137e-01 5.681401365607034e-01 5.318905550220291e-01 5.598456411005881e-01 6.363344627873088e-02 7.434065684190029e-02 6.648608946129309e-02 3.748254421561529e-03 3.039785337713766e-03 3.399982397209756e-03 4.420704331843307e-02 5.293337651563543e-02 4.445030966119724e-02 5.317500462877994e-01 5.018514036516294e-01 5.255668184422010e-01 1.245848037093013e-01 1.218968276943836e-01 1.401628019378689e-01 1.034814181869706e-02 1.158590495671910e-02 8.823953098054034e-03 6.055634337979968e-02 5.596538746035692e-02 6.671571805737625e-02 4.532900855299191e-02 3.695773634981155e-02 4.540098392035330e-02 9.659016952929129e-03 9.608400595161064e-03 1.202275494427467e-02 1.978896171412188e-01 2.139891197356277e-01 2.199813856570741e-01 1.958281208481917e-02 2.218006124190076e-02 2.374863056363766e-02 3.044306087848418e-01 3.297866188844356e-01 3.134694748779798e-01 1.778387478035107e-01 1.978804452902444e-01 1.848774124693676e-01 2.146354448879619e-01 1.985904107682266e-01 1.941369532697159e-01 5.683118957385173e-01 6.036890399510318e-01 5.731160170781054e-01 7.073537033672026e-03 7.106297005956994e-03 5.520222838703554e-03 1.156039839300828e-01 1.311871123474163e-01 1.223588174076775e-01 5.681540845039799e-01 5.441110981039279e-01 5.319125783485001e-01 5.710895983951352e-01 5.683368128426332e-01 5.523040425656000e-01 5.975199702633166e-01 6.250863859992358e-01 6.256512250319284e-01 1.101317518199707e-02 1.396396370880449e-02 1.394479262303031e-02 4.096336086070815e-01 3.910620815602530e-01 4.064878752082989e-01 4.601758340482669e-01 4.744705326625984e-01 4.888092113023151e-01 2.136155431937064e-03 2.756733520309476e-03 2.684276536313254e-03 1.368903405983115e-01 1.543733354246868e-01 1.531433568763077e-01 4.198917708868204e-01 3.932650305014571e-01 4.211638038403080e-01 2.703328641911988e-01 2.456556531534623e-01 2.716427905177649e-01 2.872227613197169e-02 3.473998103449790e-02 2.865410326441245e-02 9.414337412026524e-03 1.163872274603429e-02 1.187381086167810e-02 2.260855472237137e-01 2.257216826711090e-01 2.491479420004684e-01 3.170284646784481e-01 2.914651266243642e-01 3.172980660443173e-01 2.142740378204658e-02 2.585359488692972e-02 2.131094668863134e-02 5.682980234958567e-01 5.925304232485107e-01 6.036790093147797e-01 4.603125258549603e-01 4.474954413541110e-01 4.746031064949483e-01 5.201729027014892e-03 4.154164236057006e-03 4.000660096992485e-03 9.106885706177044e-02 7.585425064192314e-02 8.771797769998696e-02 5.890793260895899e-02 5.963599484814193e-02 5.111039044343077e-02 1.990728276717621e-02 1.941525366424098e-02 2.248391357582232e-02 3.130224703147698e-01 3.293647848810842e-01 3.366388035335738e-01 1.971751912443785e-01 2.029208497895116e-01 1.841213318324315e-01 2.007938191314897e-02 1.671483437170030e-02 1.706732702267267e-02 1.982463212102714e-01 2.200846651395493e-01 2.159873312560359e-01 3.320125833566082e-01 3.586693451243492e-01 3.537110471794809e-01 5.052836503640582e-03 5.130218673206476e-03 3.902678653711271e-03 7.052286235926733e-02 8.119064791058585e-02 8.187760615411277e-02 1.873288151913447e-01 2.123726277278339e-01 1.919411060885456e-01 9.133323059976084e-02 8.047001670647606e-02 7.636297830265125e-02 1.388053380965062e-01 1.396805347799202e-01 1.212431095759852e-01 2.950558721748357e-01 2.836659286700842e-01 2.696899896087041e-01 1.677926553734786e-02 2.035379963045536e-02 1.982879763341871e-02 1.961175717281033e-01 1.989002931695425e-01 2.165776012327133e-01 3.286465048590134e-01 3.323596306094283e-01 3.540290321860229e-01 3.353186209849379e-02 2.840724067847212e-02 2.697553892750020e-02 2.952953134098220e-02 2.440211240457079e-02 2.442954382213790e-02 1.533058687315450e-01 1.728974092512629e-01 1.717209861345088e-01 2.691839257271456e-01 2.987350924393507e-01 2.957772111273294e-01 4.195919231683559e-01 4.529256922736384e-01 4.497024198441080e-01 2.875987386422512e-01 2.601888124622108e-01 2.733738135706784e-01 2.047444343200982e-01 2.120733289682224e-01 1.868456711165710e-01 2.754043676022291e-02 2.767243800008481e-02 2.450744913345317e-02 2.876363678098679e-01 2.700877696790352e-01 2.602868403784471e-01 4.425721145684579e-01 4.205498183665650e-01 4.092303493516832e-01 9.642897503319821e-02 9.340856190636576e-02 1.059800404034665e-01 4.602153840304702e-01 4.878877045187864e-01 4.713682822350911e-01 5.868224422596056e-02 5.718359609862000e-02 4.952043671308159e-02 2.530640107950507e-02 3.012653178987303e-02 2.840371977442169e-02 2.964778796039555e-02 3.252403783512971e-02 2.790809155310947e-02 2.702737240764054e-01 2.842234066945299e-01 2.622434694573761e-01 1.713385614919915e-02 2.084569189539847e-02 1.983083018029289e-02 3.505864261059295e-01 3.251137622676621e-01 3.291074125779562e-01 1.151145364465989e-02 9.630795598925402e-03 9.320297776299946e-03 4.712056646980212e-01 4.997833093198552e-01 5.020232049200489e-01 2.012190644695537e-02 1.667455864658499e-02 1.745915842095434e-02 3.565629447617295e-01 3.502408831637977e-01 3.287335644511631e-01 4.930869047300798e-03 4.852027838998013e-03 6.159287349877785e-03 2.751097554389910e-03 2.493617065952131e-03 2.264615999563907e-03 2.061037777410681e-03 2.333092637768556e-03 2.558831864859032e-03 3.492046624533073e-02 3.440312943968166e-02 2.893010534299795e-02 5.706265933479329e-03 5.052259378646860e-03 4.419293604069940e-03 4.425325730490839e-01 4.091590395698011e-01 4.285521577648883e-01 3.299487526780974e-03 3.073181741530206e-03 2.519104756282077e-03 3.659512467170293e-03 3.305958090462519e-03 4.025667565644978e-03 1.911547334159650e-02 1.571999143492159e-02 1.619663932528162e-02 4.743790436732875e-01 4.837877738025236e-01 5.011584877108957e-01 1.881493229474645e-02 1.586023886430507e-02 1.997625710394529e-02 3.733689083278843e-02 4.553112132873802e-02 3.858030121273684e-02 8.713732388977274e-02 8.405749743944786e-02 9.398384532594320e-02 2.677527858869077e-03 2.672898865822738e-03 3.221570453783106e-03 4.744860134559912e-01 4.614423870511001e-01 4.838930197468797e-01 9.130660227577905e-03 8.214179867567646e-03 7.246402959741171e-03 1.095073264780462e-01 1.041950620515647e-01 1.200698705140714e-01 9.966605823035376e-03 1.135928411280217e-02 8.864097084955636e-03 4.385959226514164e-01 4.255938128047855e-01 4.569535447349836e-01 3.954981336552855e-01 3.707269258240033e-01 3.655890485031779e-01 2.009163696612191e-01 1.865345677549541e-01 2.063382675912600e-01 1.874269258050978e-02 1.537417712421783e-02 1.781645125356677e-02 3.436289691703487e-01 3.672496406346915e-01 3.492234903686356e-01 3.653598865822217e-01 3.908602736249266e-01 3.953122281851349e-01 2.460262525404301e-01 2.498781947340110e-01 2.250840374782357e-01 5.910452725002272e-03 6.089314880321734e-03 4.742652539307045e-03 3.110761059666568e-03 3.188665855008906e-03 3.671974796805295e-03 6.256547548660738e-01 6.109300243256020e-01 5.916579297565149e-01 3.052361696923231e-01 3.191330847293541e-01 2.904721372752924e-01 2.476833702551345e-01 2.264751888802418e-01 2.348502427097125e-01 9.143474351938713e-03 7.277537520166102e-03 8.024596955124972e-03 4.913039980524031e-01 4.605948651070558e-01 4.743205868701835e-01 3.338494079099030e-02 2.677550902807264e-02 3.061141542050199e-02 3.426687523687357e-02 3.304315099674877e-02 4.003346230386134e-02 1.676079844230639e-01 1.519037454421744e-01 1.526304196404860e-01 1.535670588934558e-01 1.528440416831536e-01 1.402153313833294e-01 3.161017406837308e-01 3.329590360261223e-01 3.427903869431307e-01 2.213161017625780e-02 1.952703569765190e-02 1.813173462971822e-02 2.274103314392063e-01 2.050884180464845e-01 2.130976185484012e-01 3.325606890586183e-01 3.496015555966563e-01 3.424049178379494e-01 1.986620460617217e-02 1.748058449454984e-02 1.848203064256697e-02 2.137818623627589e-01 2.057906044183886e-01 2.002009106212076e-01 2.251255844819394e-01 2.471999172453871e-01 2.487383369930546e-01 3.176327231681870e-01 2.919061452801480e-01 2.924568337970123e-01 2.095486318742662e-02 2.559575559930702e-02 2.551289673309321e-02 1.519553120213168e-01 1.504885005495647e-01 1.344560724192290e-01 1.138063449426918e-02 1.012761500836641e-02 8.838911408557063e-03 4.255833571119033e-01 4.404885075330334e-01 4.569336430634957e-01 3.803272487470021e-02 4.510338665942083e-02 4.534500609300839e-02 1.548965955891039e-01 1.376089394257110e-01 1.371525686365836e-01 1.766463071400683e-02 1.588702873827679e-02 1.446302423061085e-02 3.804122163302045e-01 3.539271040439042e-01 3.660911653580567e-01 7.808434073944309e-02 8.482931956900426e-02 8.789130814344413e-02 8.605092664097642e-02 1.015117530518001e-01 9.686342499877376e-02 5.898203683854149e-02 4.997492137189714e-02 5.099661675760529e-02 3.888684362948518e-03 3.335956353223925e-03 2.951581509525614e-03 3.059147338960404e-03 3.439297721663219e-03 2.776596447430024e-03 3.824811603425253e-02 4.328328696509370e-02 4.761093721681916e-02 3.805051270684291e-02 4.755137647543332e-02 4.515695516542221e-02 1.558106574836481e-01 1.371280888717453e-01 1.379600074613249e-01 8.674317337739670e-03 8.354932689168254e-03 6.642020184650026e-03 3.467926353660240e-03 2.726786017387446e-03 3.413670639788152e-03 1.553584973323492e-01 1.371788953262687e-01 1.529402632488521e-01 1.378233695369973e-01 1.408719117682967e-01 1.533934052689657e-01 6.713368225618636e-03 7.460562416245379e-03 8.408784474642392e-03 2.710924984688427e-01 2.449882725721260e-01 2.509019820072382e-01 4.202625050305642e-01 3.904285035763750e-01 3.974145310055464e-01 8.631011634932677e-02 9.314906891724233e-02 1.016541221100184e-01 6.374630283942484e-02 7.156888856659523e-02 6.398469433361995e-02 1.351392780707984e-02 1.333419874694734e-02 1.682294595827397e-02 2.706190238062190e-01 2.503768989918453e-01 2.706549829733189e-01 4.200754717281715e-01 3.972119274741506e-01 4.207566877082701e-01 5.220315591410973e-01 5.473483928640595e-01 5.242745547145586e-01 3.521354722664945e-02 4.014479588558340e-02 3.931635010530451e-02 6.454494644462790e-02 6.478127183242102e-02 5.670974476217908e-02 1.003716098048250e-02 1.155619466141240e-02 1.226767820859115e-02 1.006178523159752e-02 1.227576959038869e-02 1.132032783119774e-02 3.877540127438955e-02 3.961021680049252e-02 4.378577162680148e-02 1.103456529813329e-01 1.077365033235037e-01 9.699203466367787e-02 2.685036606832394e-03 3.495765247909659e-03 3.141825962750768e-03 6.496137338720555e-02 5.887290274633791e-02 5.813892896783066e-02 1.763605707596784e-03 1.763944410653973e-03 2.209076376720352e-03 2.023446864294892e-02 2.221971249629532e-02 1.814574360249208e-02 5.039533349656965e-03 5.940378143563064e-03 4.843661075678315e-03 8.114455949498103e-03 9.404243621174544e-03 7.678470501817115e-03 5.178243123997700e-03 4.212930576007582e-03 4.392841191631487e-03 1.315393579839758e-02 1.495910199063878e-02 1.605445164524554e-02 6.820288138885947e-03 8.492335504919424e-03 6.853360960866478e-03 7.205365623358230e-02 8.013886454352849e-02 6.829223995434114e-02 6.788866133815001e-02 7.992073334841983e-02 7.762344110723299e-02 3.135073311501744e-03 2.855813774286246e-03 2.619042049866220e-03 2.822339078622904e-02 3.445676531437437e-02 3.380000147666119e-02 6.550012021783082e-01 6.550012021783079e-01 6.250786025327781e-01 4.275362871024359e-02 4.383676877722838e-02 5.106043558790713e-02 2.720357478980545e-01 2.462002383701546e-01 2.490147029549004e-01 4.213217811538342e-01 3.934654260505901e-01 3.949428554060156e-01 3.268868186779332e-02 3.826162773753605e-02 3.989128661003156e-02 2.929013020615420e-02 2.439862206952993e-02 2.893074807451836e-02 4.184310433150955e-02 4.922569486045125e-02 4.108758069433312e-02 5.316555002196900e-01 5.523482570407300e-01 5.536987112944571e-01 9.444198294414946e-03 1.189703389674917e-02 1.162851217773537e-02 1.108019164232212e-01 9.759416136823225e-02 9.612095535441695e-02 2.502335456408716e-01 2.313461630724750e-01 2.254887254188681e-01 6.912528339647518e-02 5.763692633090549e-02 6.318735094977318e-02 4.668009458548110e-03 4.498227015629202e-03 3.877071771905917e-03 4.486117865171185e-02 3.849849119038282e-02 4.527218461413524e-02 2.763631147895644e-03 2.318614931082187e-03 2.759184192684644e-03 4.567403015539739e-02 3.908995373546568e-02 3.744145649841947e-02 3.870417021021098e-03 2.930844557256126e-03 3.488226652175109e-03 2.013791601692098e-01 1.895166913466545e-01 1.870496490298914e-01 1.751475882133723e-01 1.878056680292787e-01 1.902654636795275e-01 5.104725037690199e-01 4.849160168610978e-01 5.019734437803340e-01 4.337017479899848e-03 3.830719126211239e-03 4.515015934501850e-03 4.864578466778038e-02 5.670751545734094e-02 4.993663668213930e-02 5.202897040152289e-02 5.656527425049165e-02 4.841238103364954e-02 6.550029878166921e-01 6.256459792693172e-01 6.250811299108477e-01 7.518221713897516e-03 9.287447567604809e-03 9.693442035029292e-03 5.163373144231233e-02 5.103988576337262e-02 5.935257078359872e-02 1.376341039891968e-01 1.281774667446993e-01 1.215966049340552e-01 5.085715433395746e-03 4.276490934879386e-03 5.355447971663554e-03 4.921302621638606e-03 5.195012991873228e-03 6.102036924860761e-03 8.319980599296763e-03 7.889490207041799e-03 6.937722251132413e-03 2.611044265026201e-03 3.167750380081088e-03 3.292500314949340e-03 4.766971668306858e-02 3.899910422628096e-02 4.288249112474592e-02 2.362077145626066e-01 2.469708886085874e-01 2.592689896142253e-01 2.806595991833805e-01 2.910858443736973e-01 3.053459763078727e-01 3.186560588333985e-01 3.047308458044018e-01 3.257734599420704e-01 2.355035114148537e-01 2.271472899848690e-01 2.187327628367630e-01 3.602246851515728e-03 4.574116590783326e-03 4.500289498604102e-03 1.368958768690619e-01 1.418340109504109e-01 1.273852555617414e-01 3.161755732824649e-01 3.428003249763007e-01 3.293564402801128e-01 2.211593174106380e-02 1.810140589280015e-02 1.967427098707700e-02 2.273967020595185e-01 2.136309646487567e-01 2.050267258797885e-01 2.940451684100989e-02 2.921671413240927e-02 2.403041160202287e-02 1.531186424128327e-01 1.540239470935285e-01 1.723536724159971e-01 2.707538375611468e-01 2.697346863738588e-01 2.962253523708352e-01 4.208669843471073e-01 4.197696604085149e-01 4.498548198499651e-01 1.382553236427858e-01 1.250358018625913e-01 1.390842451988359e-01 1.493387216818294e-02 1.215786157276025e-02 1.350678869193473e-02 1.303399194957635e-01 1.375373418699246e-01 1.214601102247619e-01 2.453307171636844e-02 2.940758486764571e-02 2.934012099228944e-02 1.127570355078073e-02 1.395363841992509e-02 1.151449997108794e-02 1.713279336443177e-01 1.519721437703865e-01 1.532093226421896e-01 2.935503106940142e-01 2.694733663027281e-01 2.707868169993291e-01 4.195950278328027e-01 4.208683395504008e-01 4.471864719025676e-01 4.333563895978853e-01 4.286351349465419e-01 4.060931527013665e-01 5.837846636566478e-03 4.927394212824965e-03 6.055772179972575e-03 7.291461654959380e-02 6.615151637193310e-02 6.546354717509739e-02 2.397438067905367e-02 2.181626317617109e-02 1.980703502838352e-02 1.309690802601126e-01 1.153733584254690e-01 1.228966339187872e-01 3.630006935737139e-02 3.220375781238532e-02 3.192431575370496e-02 6.741204492190442e-02 6.433625742705169e-02 5.839304698654767e-02 3.057725304778743e-01 2.910309401218240e-01 2.831720503622779e-01 2.677157955644910e-01 2.837977663269774e-01 2.916409759698977e-01 4.106492853174659e-03 3.219056160350531e-03 4.019019799080629e-03 3.213714926297812e-02 3.072711740419985e-02 2.674964838821196e-02 4.755414431576174e-02 4.521035126115118e-02 3.878347706219434e-02 3.521522880068048e-03 3.481526334775263e-03 4.301846970367710e-03 5.513712010877828e-02 5.908586064245403e-02 6.498047747560293e-02 1.238384030113116e-01 1.396657246630615e-01 1.360921274464214e-01 1.917124283521601e-02 2.171207439386356e-02 2.299728482481054e-02 1.841705768525761e-02 1.747955091391648e-02 1.985269169589677e-02 3.439992435754287e-01 3.495890863037719e-01 3.325364379162005e-01 2.001814454512227e-01 2.056219396182106e-01 2.137513105145199e-01 1.165270949550181e-01 1.232361331852129e-01 1.083344386259879e-01 4.247300162129804e-02 3.572868317248554e-02 3.982611767090853e-02 1.101412004979174e-01 9.492432058427036e-02 1.038814120738326e-01 3.656694189334444e-03 3.947745143665045e-03 4.597804779212391e-03 2.644288563012065e-03 2.882712891950569e-03 3.201059509459327e-03 2.803871942799300e-03 3.454975771173307e-03 3.126403683505643e-03 1.597811602995476e-02 1.667023533798517e-02 1.309126398974757e-02 3.433458227296259e-01 3.711614233902028e-01 3.670525891875036e-01 3.877298750759483e-02 4.573607653059181e-02 3.750301500293718e-02 4.544657183359898e-03 5.227656082458430e-03 4.373938936340799e-03 4.911949530650451e-01 4.742063680500006e-01 5.016349666360039e-01 1.022725048240570e-02 1.002089408221436e-02 1.173127265402006e-02 5.812687105170839e-03 6.408315957220228e-03 5.069778145505165e-03 6.405264394236204e-03 5.982381522234114e-03 5.047494724529307e-03 2.254874285046446e-01 2.487029710609739e-01 2.465545830847870e-01 3.173431983397640e-01 2.942198081631712e-01 2.919025403314771e-01 2.106208823804952e-02 2.534040167390296e-02 2.560942315603987e-02 1.806555838408094e-02 2.205224658140676e-02 1.954322626378493e-02 4.931568303833658e-02 5.621021620623293e-02 5.815325014924008e-02 6.502640749614241e-02 5.728570848679500e-02 5.532378034151323e-02 1.783690339851361e-01 1.700646814173286e-01 1.858610258523979e-01 1.694987914578502e-03 2.121435363300728e-03 2.337327877897581e-03 2.945363601173110e-02 2.631061436443049e-02 2.418915385643279e-02 3.202669433352446e-03 3.563438960433886e-03 2.973826880457376e-03 1.240048788339501e-01 1.256389899375870e-01 1.387893855510741e-01 6.316832918693126e-02 7.313778304183831e-02 7.112399498891139e-02 1.537045958666550e-01 1.642672960892004e-01 1.730213632256166e-01 4.248748285479979e-02 5.09