<?xml version="1.0"?>
<VTKFile type="UnstructuredGrid" version="0.1" byte_order="LittleEndian">
<UnstructuredGrid>
<Piece NumberOfPoints="3764" NumberOfCells="1271">
<Points>
<DataArray type="Float64" NumberOfComponents="3" format="ascii">
1.000000000000000e-01 0.000000000000000e+00 0.000000000000000e+00 1.000000000000000e-01 2.040816326526773e-02 0.000000000000000e+00 1.000000000000000e-01 2.040816326526773e-02 0.000000000000000e+00 1.000000000000000e-01 4.081632653053230e-02 0.000000000000000e+00 1.000000000000000e-01 4.081632653053230e-02 0.000000000000000e+00 1.000000000000000e-01 6.122448979579424e-02 0.000000000000000e+00 1.000000000000000e-01 6.122448979579424e-02 0.000000000000000e+00 1.000000000000000e-01 8.163265306106718e-02 0.000000000000000e+00 1.000000000000000e-01 8.163265306106718e-02 0.000000000000000e+00 1.000000000000000e-01 1.020408163263421e-01 0.000000000000000e+00 1.000000000000000e-01 1.020408163263421e-01 0.000000000000000e+00 1.000000000000000e-01 1.224489795916153e-01 0.000000000000000e+00 1.000000000000000e-01 1.224489795916153e-01 0.000000000000000e+00 1.000000000000000e-01 1.428571428568673e-01 0.000000000000000e+00 1.000000000000000e-01 1.428571428568673e-01 0.000000000000000e+00 1.000000000000000e-01 1.632653061221139e-01 0.000000000000000e+00 1.000000000000000e-01 1.632653061221139e-01 0.000000000000000e+00 1.000000000000000e-01 1.836734693873606e-01 0.000000000000000e+00 1.000000000000000e-01 1.836734693873606e-01 0.000000000000000e+00 1.000000000000000e-01 2.040816326526072e-01 0.000000000000000e+00 1.000000000000000e-01 2.040816326526072e-01 0.000000000000000e+00 1.000000000000000e-01 2.244897959178539e-01 0.000000000000000e+00 1.000000000000000e-01 2.244897959178539e-01 0.000000000000000e+00 1.000000000000000e-01 2.448979591831005e-01 0.000000000000000e+00 1.000000000000000e-01 2.448979591831005e-01 0.000000000000000e+00 1.000000000000000e-01 2.653061224483471e-01 0.000000000000000e+00 1.000000000000000e-01 2.653061224483471e-01 0.000000000000000e+00 1.000000000000000e-01 2.857142857135938e-01 0.000000000000000e+00 1.000000000000000e-01 2.857142857135938e-01 0.000000000000000e+00 1.000000000000000e-01 3.061224489788404e-01 0.000000000000000e+00 1.000000000000000e-01 3.061224489788404e-01 0.000000000000000e+00 1.000000000000000e-01 3.265306122440871e-01 0.000000000000000e+00 1.000000000000000e-01 3.265306122440871e-01 0.000000000000000e+00 1.000000000000000e-01 3.469387755093337e-01 0.000000000000000e+00 1.000000000000000e-01 3.469387755093337e-01 0.000000000000000e+00 1.000000000000000e-01 3.673469387745804e-01 0.000000000000000e+00 1.000000000000000e-01 3.673469387745804e-01 0.000000000000000e+00 1.000000000000000e-01 3.877551020398269e-01 0.000000000000000e+00 1.000000000000000e-01 3.877551020398269e-01 0.000000000000000e+00 1.000000000000000e-01 4.081632653050736e-01 0.000000000000000e+00 1.000000000000000e-01 4.081632653050736e-01 0.000000000000000e+00 1.000000000000000e-01 4.285714285703202e-01 0.000000000000000e+00 1.000000000000000e-01 4.285714285703202e-01 0.000000000000000e+00 1.000000000000000e-01 4.489795918355669e-01 0.000000000000000e+00 1.000000000000000e-01 4.489795918355669e-01 0.000000000000000e+00 1.000000000000000e-01 4.693877551008135e-01 0.000000000000000e+00 1.000000000000000e-01 4.693877551008135e-01 0.000000000000000e+00 1.000000000000000e-01 4.897959183660601e-01 0.000000000000000e+00 1.000000000000000e-01 4.897959183660601e-01 0.000000000000000e+00 1.000000000000000e-01 5.102040816313634e-01 0.000000000000000e+00 1.000000000000000e-01 5.102040816313634e-01 0.000000000000000e+00 1.000000000000000e-01 5.306122448967233e-01 0.000000000000000e+00 1.000000000000000e-01 5.306122448967233e-01 0.000000000000000e+00 1.000000000000000e-01 5.510204081620832e-01 0.000000000000000e+00 1.000000000000000e-01 5.510204081620832e-01 0.000000000000000e+00 1.000000000000000e-01 5.714285714274430e-01 0.000000000000000e+00 1.000000000000000e-01 5.714285714274430e-01 0.000000000000000e+00 1.000000000000000e-01 5.918367346928030e-01 0.000000000000000e+00 1.000000000000000e-01 5.918367346928030e-01 0.000000000000000e+00 1.000000000000000e-01 6.122448979581627e-01 0.000000000000000e+00 1.000000000000000e-01 6.122448979581627e-01 0.000000000000000e+00 1.000000000000000e-01 6.326530612235226e-01 0.000000000000000e+00 1.000000000000000e-01 6.326530612235226e-01 0.000000000000000e+00 1.000000000000000e-01 6.530612244888825e-01 0.000000000000000e+00 1.000000000000000e-01 6.530612244888825e-01 0.000000000000000e+00 1.000000000000000e-01 6.734693877542424e-01 0.000000000000000e+00 1.000000000000000e-01 6.734693877542424e-01 0.000000000000000e+00 1.000000000000000e-01 6.938775510196021e-01 0.000000000000000e+00 1.000000000000000e-01 6.938775510196021e-01 0.000000000000000e+00 1.000000000000000e-01 7.142857142849620e-01 0.000000000000000e+00 1.000000000000000e-01 7.142857142849620e-01 0.000000000000000e+00 1.000000000000000e-01 7.346938775503219e-01 0.000000000000000e+00 1.000000000000000e-01 7.346938775503219e-01 0.000000000000000e+00 1.000000000000000e-01 7.551020408156818e-01 0.000000000000000e+00 1.000000000000000e-01 7.551020408156818e-01 0.000000000000000e+00 1.000000000000000e-01 7.755102040810415e-01 0.000000000000000e+00 1.000000000000000e-01 7.755102040810415e-01 0.000000000000000e+00 1.000000000000000e-01 7.959183673464014e-01 0.000000000000000e+00 1.000000000000000e-01 7.959183673464014e-01 0.000000000000000e+00 1.000000000000000e-01 8.163265306117613e-01 0.000000000000000e+00 1.000000000000000e-01 8.163265306117613e-01 0.000000000000000e+00 1.000000000000000e-01 8.367346938771211e-01 0.000000000000000e+00 1.000000000000000e-01 8.367346938771211e-01 0.000000000000000e+00 1.000000000000000e-01 8.571428571424810e-01 0.000000000000000e+00 1.000000000000000e-01 8.571428571424810e-01 0.000000000000000e+00 1.000000000000000e-01 8.775510204078409e-01 0.000000000000000e+00 1.000000000000000e-01 8.775510204078409e-01 0.000000000000000e+00 1.000000000000000e-01 8.979591836732008e-01 0.000000000000000e+00 1.000000000000000e-01 8.979591836732008e-01 0.000000000000000e+00 1.000000000000000e-01 9.183673469385606e-01 0.000000000000000e+00 1.000000000000000e-01 9.183673469385606e-01 0.000000000000000e+00 1.000000000000000e-01 9.387755102039205e-01 0.000000000000000e+00 1.000000000000000e-01 9.387755102039205e-01 0.000000000000000e+00 1.000000000000000e-01 9.591836734692804e-01 0.000000000000000e+00 1.000000000000000e-01 9.591836734692804e-01 0.000000000000000e+00 1.000000000000000e-01 9.795918367346401e-01 0.000000000000000e+00 1.000000000000000e-01 9.795918367346401e-01 0.000000000000000e+00 1.000000000000000e-01 1.000000000000000e+00 0.000000000000000e+00 4.999999999998959e-02 5.114756178172757e-01 0.000000000000000e+00 6.228151969683019e-02 5.312445519176795e-01 0.000000000000000e+00 3.751914167667291e-02 5.312592799347757e-01 0.000000000000000e+00 3.133542164424451e-02 4.639238697356087e-01 0.000000000000000e+00 2.409851663476202e-02 4.410528110032798e-01 0.000000000000000e+00 4.648260855400819e-02 4.547803401498470e-01 0.000000000000000e+00 0.000000000000000e+00 9.387755102038267e-01 0.000000000000000e+00 0.000000000000000e+00 9.183673469384355e-01 0.000000000000000e+00 1.944462618255723e-02 9.288128947356744e-01 0.000000000000000e+00 1.000000000000000e-01 5.306122448967233e-01 0.000000000000000e+00 1.000000000000000e-01 5.510204081620832e-01 0.000000000000000e+00 8.012197144515044e-02 5.416148681194984e-01 0.000000000000000e+00 0.000000000000000e+00 5.510204081649921e-01 0.000000000000000e+00 0.000000000000000e+00 5.306122448998274e-01 0.000000000000000e+00 1.963064815290805e-02 5.416826923830900e-01 0.000000000000000e+00 0.000000000000000e+00 8.571428571424604e-01 0.000000000000000e+00 0.000000000000000e+00 8.367346938772958e-01 0.000000000000000e+00 1.947907892149852e-02 8.466968164341721e-01 0.000000000000000e+00 0.000000000000000e+00 7.959183673469667e-01 0.000000000000000e+00 0.000000000000000e+00 7.755102040818023e-01 0.000000000000000e+00 2.258563083861561e-02 7.856795524796590e-01 0.000000000000000e+00 0.000000000000000e+00 7.346938775514733e-01 0.000000000000000e+00 0.000000000000000e+00 7.142857142863088e-01 0.000000000000000e+00 2.258563083859787e-02 7.244550626841598e-01 0.000000000000000e+00 1.000000000000000e-01 5.918367346928030e-01 0.000000000000000e+00 1.000000000000000e-01 6.122448979581627e-01 0.000000000000000e+00 7.741436916128577e-02 6.020060830913998e-01 0.000000000000000e+00 0.000000000000000e+00 4.489795918386030e-01 0.000000000000000e+00 0.000000000000000e+00 4.285714285732120e-01 0.000000000000000e+00 2.409851663476202e-02 4.410528110032798e-01 0.000000000000000e+00 0.000000000000000e+00 6.734693877559796e-01 0.000000000000000e+00 0.000000000000000e+00 6.530612244908152e-01 0.000000000000000e+00 1.986707969698399e-02 6.633683120936215e-01 0.000000000000000e+00 1.000000000000000e-01 6.530612244888825e-01 0.000000000000000e+00 1.000000000000000e-01 6.734693877542424e-01 0.000000000000000e+00 7.769343978564471e-02 6.632834118678752e-01 0.000000000000000e+00 0.000000000000000e+00 3.877551020424299e-01 0.000000000000000e+00 0.000000000000000e+00 3.673469387770387e-01 0.000000000000000e+00 2.258563083872488e-02 3.775857536437918e-01 0.000000000000000e+00 0.000000000000000e+00 6.122448979604860e-01 0.000000000000000e+00 0.000000000000000e+00 5.918367346953213e-01 0.000000000000000e+00 1.954480862887780e-02 6.024198660057475e-01 0.000000000000000e+00 1.000000000000000e-01 7.142857142849620e-01 0.000000000000000e+00 1.000000000000000e-01 7.346938775503219e-01 0.000000000000000e+00 8.045519137097396e-02 7.248688455956910e-01 0.000000000000000e+00 0.000000000000000e+00 3.265306122462567e-01 0.000000000000000e+00 0.000000000000000e+00 3.061224489808657e-01 0.000000000000000e+00 2.261300864914188e-02 3.164931898911296e-01 0.000000000000000e+00 1.000000000000000e-01 1.224489795916153e-01 0.000000000000000e+00 1.000000000000000e-01 1.428571428568673e-01 0.000000000000
[...]
<PointData Scalars="temperature," Vectors="" Tensors="">
<DataArray type="Float64" Name="temperature" format="ascii">
1.000326028155377e+00 9.998423915485667e-01 1.000043090558464e+00 9.986677972647230e-01 9.988995699262057e-01 9.964950058505320e-01 9.967612060105768e-01 9.931999704467757e-01 9.934644708681842e-01 9.886942462531748e-01 9.889725334735870e-01 9.829555502037407e-01 9.832264148920408e-01 9.760096569146560e-01 9.762482759009236e-01 9.679201390217129e-01 9.681412573144058e-01 9.587761291647582e-01 9.589691592126635e-01 9.486915046039026e-01 9.488540087921542e-01 9.377844716668920e-01 9.379233129816933e-01 9.261681905743113e-01 9.262818828900359e-01 9.139548752261600e-01 9.140480995939056e-01 9.012463686965060e-01 9.013249444979222e-01 8.881221010512619e-01 8.881773392547940e-01 8.746590230485722e-01 8.746998283246202e-01 8.609398466830891e-01 8.609770095202344e-01 8.470108761833313e-01 8.470367197702461e-01 8.329086774216071e-01 8.329246887197822e-01 8.186798628917067e-01 8.186889630073726e-01 8.043640502791998e-01 8.043640576337597e-01 7.899824959977055e-01 7.899813956230007e-01 7.755524018684736e-01 7.755487505707701e-01 7.610972439448911e-01 7.610945277163470e-01 7.466354290347675e-01 7.466279253409207e-01 7.321957664043854e-01 7.321864475651526e-01 7.177775837954148e-01 7.177598512244278e-01 7.034093168492795e-01 7.033909744519991e-01 6.890921583985584e-01 6.890639823553675e-01 6.748364168682743e-01 6.748007526451065e-01 6.606676167556620e-01 6.606453287415754e-01 6.465914884613562e-01 6.465655073909640e-01 6.326129311444098e-01 6.325759597249134e-01 6.187313218627596e-01 6.186989616743007e-01 6.049829259970616e-01 6.049515508897712e-01 5.913487094689605e-01 5.913139194714394e-01 5.778536235836564e-01 5.778145844690797e-01 5.644992418924540e-01 5.644636774548135e-01 5.512767518817832e-01 5.512382405708690e-01 5.382017885052089e-01 5.381584186244138e-01 5.252901787669310e-01 5.252546432327888e-01 5.125481405568154e-01 5.125084417076572e-01 4.999704787745122e-01 4.999289391069636e-01 4.875841587876778e-01 4.875336256125776e-01 4.753759668321474e-01 4.753190781292617e-01 4.634054523797941e-01 4.633422367308264e-01 4.516719964167799e-01 4.515708780657053e-01 4.402417061779904e-01 4.399867368942878e-01 4.294694403705606e-01 4.493699378838263e-01 4.716559564708941e-01 3.983634180741290e-01 4.325085206369688e-01 4.316561785023787e-01 4.685217823656851e-01 1.857184724263489e-01 1.914155569828001e-01 1.926079821244084e-01 6.497705646037661e-01 6.357441584186214e-01 5.378623118737087e-01 3.495560957429553e-01 3.613021814488172e-01 3.610102257183239e-01 2.116935810584388e-01 2.189332049887210e-01 2.199248703062560e-01 2.346117158304744e-01 2.428082690444892e-01 2.453224016787585e-01 2.599464424996002e-01 2.688764250208324e-01 2.714183470093399e-01 6.077175409217859e-01 5.944617672639922e-01 4.855936212104443e-01 4.099501755992717e-01 4.235947964360691e-01 4.249941195613420e-01 2.876066907036490e-01 2.972223877964326e-01 2.980246427658028e-01 5.670829515518240e-01 5.542786620389296e-01 4.495384650401995e-01 4.523519848826655e-01 4.679129967462908e-01 4.688876713524024e-01 3.173806656350895e-01 3.278922476200607e-01 3.281504495782655e-01 5.278344725439822e-01 5.154565780299117e-01 4.265113772193755e-01 5.024417265414534e-01 5.216730382271941e-01 5.206608945954864e-01 9.469179339276618e-01 9.293083239489309e-01 8.772708319357488e-01 9.818933913288213e-01 9.683834990709803e-01 9.496726780076957e-01 5.659224762857633e-01 5.911339745784694e-01 5.867846285990941e-01 9.026925457515367e-01 8.853595730217692e-01 8.174285783099511e-01 4.899037393684913e-01 4.781507744664655e-01 3.921997560629156e-01 6.503041441310079e-01 6.836005985694191e-01 6.740424948727026e-01 8.564267561552898e-01 8.399828727587719e-01 7.568916443033409e-01 7.594064778640000e-01 7.991096696238272e-01 7.836194766870586e-01 8.105205688673709e-01 7.949953418970871e-01 7.031529455630877e-01 8.806035224752297e-01 9.174760874623245e-01 9.016299327168749e-01 7.655205710673869e-01 7.506664372669417e-01 6.547131391056423e-01 7.213304364060728e-01 7.070607747211708e-01 6.107764557354950e-01 2.011184510199103e-01 2.359944670522597e-01 2.160171416283863e-01 9.653538281769014e-01 9.518612937577404e-01 9.818085155232678e-01 4.908685089679792e-01 4.742080736896186e-01 4.257967616165196e-01 2.663258188062684e-01 2.350746987478474e-01 2.983345555258340e-01 9.158694067059618e-01 9.387364485719970e-01 9.033638251438119e-01 2.623109173541938e-01 2.127495717380502e-01 2.391791907207340e-01 9.607078024162838e-01 9.835972740335239e-01 9.500943386552525e-01 2.631979806950786e-01 3.020795556957170e-01 3.272654591538703e-01 4.300655250455221e-01 4.076880983547533e-01 4.354377138105064e-01 4.272942950361819e-01 3.988676819612745e-01 4.711589222013912e-01 2.987280311778621e-01 2.350495986284935e-01 2.776163097247490e-01 2.381308831182643e-01 2.737149299998591e-01 2.394985421057829e-01 1.883105290991972e-01 2.004212982129437e-01 1.960086401444112e-01 1.887936911457369e-01 1.839284812835230e-01 2.096924067527328e-01 1.003195014200194e+00 9.839637049873259e-01 9.826073903281228e-01 4.047712390464636e-01 4.299753885310618e-01 4.114011743248344e-01 7.036177862359421e-01 6.147839080964111e-01 6.142767450929698e-01 2.081319222174428e-01 2.234142713218537e-01 2.149764910765928e-01 5.490543176062507e-01 4.625535463907532e-01 4.544502648007663e-01 5.110096519400064e-01 4.277091576916080e-01 4.308429382593851e-01 6.795565178631503e-01 7.109952322731938e-01 6.782470581773623e-01 7.968327462156580e-01 8.259198275011603e-01 7.860994501180419e-01 4.737164620262572e-01 3.953784090984286e-01 3.965644964483199e-01 3.125925254345311e-01 3.326948069412311e-01 3.214076571475547e-01 8.531933915540052e-01 7.604242795341958e-01 7.867476976812438e-01 8.072229883889295e-01 7.066714080174211e-01 7.324010643650376e-01 7.621044750736136e-01 6.583086929618431e-01 6.835457132857017e-01 7.178873608706133e-01 6.144313385460525e-01 6.382396335646744e-01 3.447319520521533e-01 3.656188194815712e-01 3.534382307659580e-01 4.165890342442811e-01 4.421447258104022e-01 4.321666265171659e-01 5.892854486773180e-01 4.981434963606561e-01 4.905415600404097e-01 4.616756608405815e-01 4.877633485618691e-01 4.753670096829025e-01 5.157069315897302e-01 5.435279958620095e-01 5.268381409297979e-01 5.859163099889731e-01 6.156057693724345e-01 5.922412424858888e-01 2.151844798767981e-01 2.304162646605697e-01 2.238878359823976e-01 2.297645880506322e-01 2.498553297850670e-01 2.392948778630887e-01 2.379059080294278e-01 2.558837380798284e-01 2.503917515217028e-01 2.547998436892461e-01 2.762311954068065e-01 2.648053591222383e-01 2.637142714952607e-01 2.828157420785778e-01 2.767643501117191e-01 2.829176129631102e-01 3.025031333566530e-01 2.919711372424961e-01 9.430134703388620e-01 8.817691843608686e-01 9.103188729624091e-01 9.293746978721681e-01 8.700027014679558e-01 8.761164185789486e-01 9.690154358246668e-01 9.353630319494576e-01 9.482338425014363e-01 8.994300661313929e-01 8.211462727131678e-01 8.458677185502840e-01 6.454071270576565e-01 6.786697947277164e-01 6.440253980356014e-01 5.624201689655118e-01 4.542750506592294e-01 4.866284289224442e-01 5.602022749009651e-01 5.921581433873205e-01 5.650349363494397e-01 6.030837816070317e-01 4.903318642920156e-01 5.252411071031698e-01 4.962018881770870e-01 5.264773174479558e-01 5.048287141142622e-01 4.459895338234783e-01 4.748205785055740e-01 4.564026676901140e-01 6.316838107595115e-01 5.383178085844303e-01 5.418878690285792e-01 6.460633662408117e-01 5.420308990435001e-01 5.671794748611615e-01 3.563826227649271e-01 3.746213792550497e-01 3.664486769174581e-01 9.793077183601091e-01 9.529134291973286e-01 9.693910969392245e-01 9.880327981734777e-01 9.727424376079918e-01 9.843498545749991e-01 1.779671724424546e-01 1.889582251418508e-01 1.857114303886784e-01 1.826686055738780e-01 1.955936626465430e-01 1.895140373634685e-01 3.957530207603970e-01 4.548465493788199e-01 4.883386388281170e-01 3.644726526210119e-01 4.194233976559896e-01 4.523849612178389e-01 2.907575366161890e-01 2.479488573177703e-01 2.754233635379844e-01 5.278130179984636e-01 4.891761819910074e-01 4.725593904641490e-01 5.790154652518785e-01 5.384531523125731e-01 5.241837052528370e-01 3.194876126784957e-01 2.742387574253375e-01 3.034019787041128e-01 6.415641084258197e-01 5.989690426632990e-01 5.898143882807114e-01 6.764807472197076e-01 7.191431537582148e-01 6.768404601077198e-01 8.230954827983917e-01 8.791496789600451e-01 8.340386443454773e-01 3.645583992911371e-01 4.518606823542884e-01 4.049624579431327e-01 6.780132011290860e-01 7.196483067958901e-01 7.178156300994090e-01 7.174803642732929e-01 7.480460476167471e-01 7.098587893081085e-01 5.370894144208118e-01 4.508830303148945e-01 4.621362424158894e-01 8.381663109939598e-01 8.663961449332238e-01 8.252210011449195e-01 4.987180927918074e-01 4.138883565238669e-01 4.277383115127175e-01 8.689503536480890e-01 7.884221207816471e-01 8.066813493828181e-01 8.227206022820968e-01 7.331793418092593e-01 7.482993278085869e-01 7.773247928363508e-01 6.837573231881726e-01 6.977907261930749e-01 7.327876139855061e-01 6.381332639175916e-01 6.513342394653835e-01 3.028372553646440e-01 3.207797735033708e-01 3.108996179745294e-01 2.925553796076991e-01 3.109481201678479e-01 3.029420245876060e-01 3.231321537674462e-01 3.418571038820437e-01 3.331587646940810e-01 8.842549551359284e-01 8.090161070162395e-01 8.178755913417549e-01 5.239227302028732e-01 4.305661072074201e-01 4.513385967072325e-01 4.859363366134452e-01 3.962934568385239e-01 4.144899490810089e-01 8.378174069043420e-01 7.497604408666332e-01 7.586200041147593e-01 7.920793961692975e-01 6.986130079663994e-01 7.058095245446343e-01 7.562270462597284e-01 7.867372785857508e-01 7.478775473263466e-01 7.472189972809007e-01 6.517973639933097e-01 6.580055843059164e-01 8.781127062578379e-01 9.040561493878408e-01 8.659815625634487e-01 3.961553511543398e-01 4.875763629944332e-01 4.353798590586234e-01 4.872984421653183e-01 4.300189480618198e-01 4.679954672200383e-01 5.282641216917651e-01 4.726044251123034e-01 5.125393937268096e-01 5.791581852284237e-01 5.245030928751383e-01 5.662060710129453e-01 6.412200375049342e-01 5.905545486746363e-01 6.338173704727484e-01 2.903959945805114e-01 2.641403552039752e-01 2.479731168384459e-01 3.191224756756799e-01 2.911991622061698e-01 2.742383509642210e-01 8.267104632185969e-01 8.715153234178360e-01 8.756825761364078e-01 3.342423392597098e-01 3.526721428515086e-01 3.418846035044071e-01 1.965717312068499e-01 1.999095338412158e-01 2.144289596880593e-01 3.956494348272860e-01 3.495626384888472e-01 3.627518103259996e-01 6.419544150551419e-01 7.155039734760055e-01 6.896566555428372e-01 5.795336740666212e-01 6.554764743202955e-01 6.337828638321934e-01 5.283668324429771e-01 6.044091621650446e-01 5.853377269194309e-01 2.903448845136209e-01 3.476481609352468e-01 3.397418480791940e-01 8.242926063351368e-01 7.836160063997394e-01 8.197473661303885e-01 3.191685179373525e-01 3.796827655325202e-01 3.706005654372369e-01 6.733857626988631e-01 5.783615033377365e-01 5.629725674702085e-01 3.786728664263958e-01 3.986915868163849e-01 3.865389249255786e-01 3.309167295348172e-01 3.624674271753592e-01 3.504346986153792e-01 7.578648065607054e-01 6.910253473916242e-01 7.147378835051383e-01 7.044474881786600e-01 6.344782657445051e-01 6.554782105129678e-01 6.562840377264355e-01 5.856326638389189e-01 6.048547835340766e-01 3.946603304521956e-01 3.398770240765528e-01 3.481100836545836e-01 7.854958508277408e-01 8.218964231881625e-01 7.819139109320959e-01 4.288340145224678e-01 3.707055961068940e-01 3.801723977404656e-01 3.934964844769056e-01 2.983117673336708e-01 3.405117071458853e-01 9.968447740182870e-01 9.877153856316108e-01 9.851849373098779e-01 1.778494891752807e-01 1.811199272912273e-01 1.826350675907263e-01 3.927855661157459e-01 3.299435744115476e-01 2.987979459611346e-01 2.181902881983772e-01 2.172022364008842e-01 1.975087319038294e-01 2.244924086416045e-01 2.369596856967815e-01 2.141778184835199e-01 5.767784183287389e-01 4.857678382158344e-01 4.977644215312604e-01 4.324739806974336e-01 4.554157546034890e-01 4.413966232487914e-01 4.795802186625067e-01 5.039307388121235e-01 4.870762364505292e-01 5.381797748192112e-01 5.643385226238509e-01 5.427139651027493e-01 6.153749644346644e-01 6.436165522816114e-01 6.146685809251592e-01 2.229789064153907e-01 2.384046439354993e-01 2.304871312586831e-01 9.568452975593370e-01 9.138577827771538e-01 9.315840928818444e-01 2.472535595629495e-01 2.639124405109111e-01 2.554714758823111e-01 9.148553241009574e-01 8.487166620541062e-01 8.666133900800885e-01 2.740073727806506e-01 2.913812336130587e-01 2.823284630730333e-01 9.992191136159999e-01 1.002131282523063e+00 9.841027299773988e-01 2.233145150734300e-01 1.837115869639053e-01 2.150794892398147e-01 6.180537110762361e-01 5.243437694119213e-01 5.381942631821229e-01 6.150096115106328e-01 6.140664649556413e-01 5.362323709609195e-01 3.643381261709345e-01 3.210460710098653e-01 3.314800413536200e-01 7.189324917011949e-01 7.834803418485813e-01 7.553726266743296e-01 6.740000806569103e-01 5.628116068533557e-01 5.990998363211979e-01 3.792323826967527e-01 4.037070203154295e-01 3.986697315630961e-01 9.181509792091692e-01 9.510726584222927e-01 9.365709566007606e-01 5.296949560832847e-01 4.705642644528584e-01 4.733553848579468e-01 5.337665220611448e-01 4.693089434305311e-01 5.400039751328310e-01 9.183275524973642e-01 8.934775289440829e-01 9.277910457200731e-01 3.005295047712596e-01 3.314394980866281e-01 3.215431461922764e-01 8.179625472239019e-01 7.578629269816113e-01 7.813462399197750e-01 3.920166321293943e-01 4.622141172916996e-01 4.513580457424296e-01 7.451822367080615e-01 7.110557947489430e-01 7.473242268625729e-01 3.591927689263598e-01 4.274395035389810e-01 4.147365620273528e-01 8.558341641570325e-01 8.263643159608622e-01 8.654838269749678e-01 7.375264044985409e-01 8.087596137408899e-01 7.866120448524935e-01 6.739923382813299e-01 7.495403680489922e-01 7.322820223471785e-01 6.204982061564571e-01 6.984113155168500e-01 6.834891590825745e-01 5.733976193972850e-01 6.516070358816678e-01 6.382208082522700e-01 3.350957704009881e-01 3.111351288983433e-01 3.212149137308121e-01 3.673738831969685e-01 3.419156119916747e-01 3.532199988225430e-01 9.026358362632767e-01 9.295927414672424e-01 8.917683673326872e-01 9.494303013683912e-01 9.445969733018000e-01 9.728577797855628e-01 9.668004910234129e-01 9.884049527926697e-01 9.691148987323990e-01 2.012269003405133e-01 1.865086480302860e-01 1.887423618055638e-01 1.965772769674220e-01 2.086521410724822e-01 1.888095476693890e-01 2.293790458567725e-01 2.116702653582209e-01 2.395959927704652e-01 4.883440929124892e-01 5.590345382869117e-01 5.403210175302752e-01 2.267994561874818e-01 2.671754314905570e-01 2.387663788195137e-01 2.735859377549843e-01 2.349703778615591e-01 2.714726194862208e-01 5.342595424140881e-01 5.398504034468868e-01 6.105382666450676e-01 2.707919305546269e-01 2.401579475289352e-01 2.474538307445980e-01 4.305486379246095e-01 4.197246339883683e-01 3.564832173288804e-01 4.232964816851938e-01 4.976510840982182e-01 4.863614942997614e-01 4.723376704759387e-01 4.418117075983161e-01 4.558692082925926e-01 5.194862865063573e-01 4.874823425595720e-01 5.043500298140084e-01 5.767026594067818e-01 5.432915109796194e-01 5.645091733024201e-01 6.500030923286144e-01 6.154616070836905e-01 6.434695470570323e-01 8.934938474600829e-01 9.353420959099478e-01 9.102293501734394e-01 2.521129292835540e-01 2.303273115588675e-01 2.390411863457393e-01 8.091633618953931e-01 8.698820962555099e-01 8.456668879438881e-01 2.784849421623307e-01 2.555450076384753e-01 2.644409999287575e-01 3.066461135702065e-01 2.825316090416147e-01 2.916831701845958e-01 1.883405997896270e-01 1.797348120480247e-01 1.866212838061338e-01 9.987341364300293e-01 9.960067540299989e-01 9.878430267164900e-01 4.596086285819997e-01 5.379020903001921e-01 5.249560944782107e-01 9.185934408385492e-01 9.472923136995889e-01 9.186111350471532e-01 3.986819747323553e-01 4.441924376711853e-01 4.047901874993221e-01 5.097078662366276e-01 4.776136517396399e-01 4.447614793025592e-01 4.235107339945524e-01 3.826774360812424e-01 4.037331905485732e-01 9.676912117775728e-01 9.791236463223009e-01 9.869450353592294e-01 2.045024660718923e-01 2.124517428892034e-01 1.825463888181658e-01 2.299216266761757e-01 2.356167436751496e-01 2.055912974626059e-01 2.188335957749325e-01 2.057232558555037e-01 2.351807765834573e-01 4.501198185496297e-01 3.558002157355292e-01 3.964668963656252e-01 6.121726320058843e-01 5.396545161869218e-01 5.602614178004975e-01 2.216737630534449e-01 2.474436835947338e-01 2.401294357606517e-01 4.320687246015077e-01 4.280710868227165e-01 3.987661728702998e-01 5.343429113670835e-01 5.946327409664085e-01 5.134390199887736e-01 9.496793585198957e-01 9.217411181686472e-01 9.441299867650114e-01 4.491526743882343e-01 3.782214904366918e-01 3.562869748959122e-01 2.034373965799575e-01 1.865062579047612e-01 2.109138898751398e-01 5.537373133968509e-01 5.413220119593437e-01 4.582854285198506e-01 6.842701377164577e-01 7.204090576566394e-01 7.070393365352553e-01 5.150405302699674e-01 5.029308422132658e-01 4.238657743870058e-01 7.998045051478698e-01 8.400893398630719e-01 8.232477000339010e-01 4.775159144759431e-01 4.661817573240597e-01 3.916642043288873e-01 3.073874272030822e-01 3.174020999318862e-01 3.167413093021396e-01 8.718232474179686e-01 8.552334064095365e-01 7.853611363344885e-01 8.257368431286908e-01 8.100217680613733e-01 7.301202376028253e-01 7.804682423804765e-01 7.654449793606087e-01 6.806357945298199e-01 7.360531758803669e-01 7.215561226919674e-01 6.349222754612202e-01 3.388010192387182e-01 3.497210871632273e-01 3.485816728892752e-01 4.236976638843780e-01 4.379344286945797e-01 4.362442702148335e-01 4.681909123462760e-01 4.847957112205365e-01 4.820297989947905e-01 5.939218093797555e-01 5.810789710798928e-01 4.937943467351935e-01 5.220179266811122e-01 5.430014147592106e-01 5.380427748055217e-01 5.915975088680778e-01 6.194740250832345e-01 6.106803304545074e-01 2.191751100294326e-01 2.267474936246609e-01 2.267613480061536e-01 2.269174161744869e-01 2.344236364815522e-01 2.348490025750547e-01 2.429866130549901e-01 2.514445632134784e-01 2.514242094089700e-01 2.515437193771768e-01 2.597627109292548e-01 2.600855477775734e-01 2.690549968040036e-01 2.783220338407812e-01 2.781163384485305e-01 2.783653394569328e-01 2.875437906845646e-01 2.874157785238411e-01 9.595706239849446e-01 9.435464549204580e-01 9.105816151480082e-01 9.713595166033190e-01 9.567116029954770e-01 9.325146149714236e-01 9.323524492910971e-01 9.154301546691326e-01 8.669016862312818e-01 9.176913951720648e-01 9.005410611075647e-01 8.455124507379838e-01 6.197531072573803e-01 6.498780318597092e-01 6.397450787403786e-01 5.432090122109150e-01 5.656144325069263e-01 5.598848374605550e-01 5.806576595144222e-01 5.675592018183436e-01 4.820515681472843e-01 4.849650021591707e-01 5.021822646835142e-01 4.991584515154374e-01 6.217499564733791e-01 6.081544881685625e-01 5.207485559298937e-01 4.379518752618045e-01 4.521105643149030e-01 4.506106971214114e-01 6.355509411795739e-01 6.220242279710607e-01 5.344654117631110e-01 2.729895226481135e-01 2.551171626047367e-01 2.352023869181151e-01 2.155931492993135e-01 2.385603070672529e-01 2.516464028541120e-01 6.782885417450284e-01 6.638831849355304e-01 5.740356431423919e-01 3.726973135764300e-01 3.852493108137010e-01 3.807317569749580e-01 8.931111282224041e-01 8.579471917403850e-01 8.877054499635115e-01 8.557447457540376e-01 8.898624896210455e-01 8.557870555024623e-01 8.086487740505358e-01 7.582477592876166e-01 7.896779019197585e-01 7.368413272441460e-01 6.792026198109574e-01 6.995557472307025e-01 6.731542315755638e-01 6.127185939700623e-01 6.285431508271903e-01 6.196568963067590e-01 5.587392188035325e-01 5.714183481495700e-01 5.726331226594670e-01 5.128493708684386e-01 5.233456979843900e-01 7.450845540967600e-01 7.911088801983192e-01 7.568313380685256e-01 6.504415475847108e-01 7.010809189903777e-01 6.777680393805718e-01 5.770791806597376e-01 6.29470075446729