<?xml version="1.0"?>
<VTKFile type="UnstructuredGrid" version="0.1" byte_order="LittleEndian">
<UnstructuredGrid>
<Piece NumberOfPoints="3764" NumberOfCells="1271">
<Points>
<DataArray type="Float64" NumberOfComponents="3" format="ascii">
1.000000000000000e-01 0.000000000000000e+00 0.000000000000000e+00 1.000000000000000e-01 2.040816326526773e-02 0.000000000000000e+00 1.000000000000000e-01 2.040816326526773e-02 0.000000000000000e+00 1.000000000000000e-01 4.081632653053230e-02 0.000000000000000e+00 1.000000000000000e-01 4.081632653053230e-02 0.000000000000000e+00 1.000000000000000e-01 6.122448979579424e-02 0.000000000000000e+00 1.000000000000000e-01 6.122448979579424e-02 0.000000000000000e+00 1.000000000000000e-01 8.163265306106718e-02 0.000000000000000e+00 1.000000000000000e-01 8.163265306106718e-02 0.000000000000000e+00 1.000000000000000e-01 1.020408163263421e-01 0.000000000000000e+00 1.000000000000000e-01 1.020408163263421e-01 0.000000000000000e+00 1.000000000000000e-01 1.224489795916153e-01 0.000000000000000e+00 1.000000000000000e-01 1.224489795916153e-01 0.000000000000000e+00 1.000000000000000e-01 1.428571428568673e-01 0.000000000000000e+00 1.000000000000000e-01 1.428571428568673e-01 0.000000000000000e+00 1.000000000000000e-01 1.632653061221139e-01 0.000000000000000e+00 1.000000000000000e-01 1.632653061221139e-01 0.000000000000000e+00 1.000000000000000e-01 1.836734693873606e-01 0.000000000000000e+00 1.000000000000000e-01 1.836734693873606e-01 0.000000000000000e+00 1.000000000000000e-01 2.040816326526072e-01 0.000000000000000e+00 1.000000000000000e-01 2.040816326526072e-01 0.000000000000000e+00 1.000000000000000e-01 2.244897959178539e-01 0.000000000000000e+00 1.000000000000000e-01 2.244897959178539e-01 0.000000000000000e+00 1.000000000000000e-01 2.448979591831005e-01 0.000000000000000e+00 1.000000000000000e-01 2.448979591831005e-01 0.000000000000000e+00 1.000000000000000e-01 2.653061224483471e-01 0.000000000000000e+00 1.000000000000000e-01 2.653061224483471e-01 0.000000000000000e+00 1.000000000000000e-01 2.857142857135938e-01 0.000000000000000e+00 1.000000000000000e-01 2.857142857135938e-01 0.000000000000000e+00 1.000000000000000e-01 3.061224489788404e-01 0.000000000000000e+00 1.000000000000000e-01 3.061224489788404e-01 0.000000000000000e+00 1.000000000000000e-01 3.265306122440871e-01 0.000000000000000e+00 1.000000000000000e-01 3.265306122440871e-01 0.000000000000000e+00 1.000000000000000e-01 3.469387755093337e-01 0.000000000000000e+00 1.000000000000000e-01 3.469387755093337e-01 0.000000000000000e+00 1.000000000000000e-01 3.673469387745804e-01 0.000000000000000e+00 1.000000000000000e-01 3.673469387745804e-01 0.000000000000000e+00 1.000000000000000e-01 3.877551020398269e-01 0.000000000000000e+00 1.000000000000000e-01 3.877551020398269e-01 0.000000000000000e+00 1.000000000000000e-01 4.081632653050736e-01 0.000000000000000e+00 1.000000000000000e-01 4.081632653050736e-01 0.000000000000000e+00 1.000000000000000e-01 4.285714285703202e-01 0.000000000000000e+00 1.000000000000000e-01 4.285714285703202e-01 0.000000000000000e+00 1.000000000000000e-01 4.489795918355669e-01 0.000000000000000e+00 1.000000000000000e-01 4.489795918355669e-01 0.000000000000000e+00 1.000000000000000e-01 4.693877551008135e-01 0.000000000000000e+00 1.000000000000000e-01 4.693877551008135e-01 0.000000000000000e+00 1.000000000000000e-01 4.897959183660601e-01 0.000000000000000e+00 1.000000000000000e-01 4.897959183660601e-01 0.000000000000000e+00 1.000000000000000e-01 5.102040816313634e-01 0.000000000000000e+00 1.000000000000000e-01 5.102040816313634e-01 0.000000000000000e+00 1.000000000000000e-01 5.306122448967233e-01 0.000000000000000e+00 1.000000000000000e-01 5.306122448967233e-01 0.000000000000000e+00 1.000000000000000e-01 5.510204081620832e-01 0.000000000000000e+00 1.000000000000000e-01 5.510204081620832e-01 0.000000000000000e+00 1.000000000000000e-01 5.714285714274430e-01 0.000000000000000e+00 1.000000000000000e-01 5.714285714274430e-01 0.000000000000000e+00 1.000000000000000e-01 5.918367346928030e-01 0.000000000000000e+00 1.000000000000000e-01 5.918367346928030e-01 0.000000000000000e+00 1.000000000000000e-01 6.122448979581627e-01 0.000000000000000e+00 1.000000000000000e-01 6.122448979581627e-01 0.000000000000000e+00 1.000000000000000e-01 6.326530612235226e-01 0.000000000000000e+00 1.000000000000000e-01 6.326530612235226e-01 0.000000000000000e+00 1.000000000000000e-01 6.530612244888825e-01 0.000000000000000e+00 1.000000000000000e-01 6.530612244888825e-01 0.000000000000000e+00 1.000000000000000e-01 6.734693877542424e-01 0.000000000000000e+00 1.000000000000000e-01 6.734693877542424e-01 0.000000000000000e+00 1.000000000000000e-01 6.938775510196021e-01 0.000000000000000e+00 1.000000000000000e-01 6.938775510196021e-01 0.000000000000000e+00 1.000000000000000e-01 7.142857142849620e-01 0.000000000000000e+00 1.000000000000000e-01 7.142857142849620e-01 0.000000000000000e+00 1.000000000000000e-01 7.346938775503219e-01 0.000000000000000e+00 1.000000000000000e-01 7.346938775503219e-01 0.000000000000000e+00 1.000000000000000e-01 7.551020408156818e-01 0.000000000000000e+00 1.000000000000000e-01 7.551020408156818e-01 0.000000000000000e+00 1.000000000000000e-01 7.755102040810415e-01 0.000000000000000e+00 1.000000000000000e-01 7.755102040810415e-01 0.000000000000000e+00 1.000000000000000e-01 7.959183673464014e-01 0.000000000000000e+00 1.000000000000000e-01 7.959183673464014e-01 0.000000000000000e+00 1.000000000000000e-01 8.163265306117613e-01 0.000000000000000e+00 1.000000000000000e-01 8.163265306117613e-01 0.000000000000000e+00 1.000000000000000e-01 8.367346938771211e-01 0.000000000000000e+00 1.000000000000000e-01 8.367346938771211e-01 0.000000000000000e+00 1.000000000000000e-01 8.571428571424810e-01 0.000000000000000e+00 1.000000000000000e-01 8.571428571424810e-01 0.000000000000000e+00 1.000000000000000e-01 8.775510204078409e-01 0.000000000000000e+00 1.000000000000000e-01 8.775510204078409e-01 0.000000000000000e+00 1.000000000000000e-01 8.979591836732008e-01 0.000000000000000e+00 1.000000000000000e-01 8.979591836732008e-01 0.000000000000000e+00 1.000000000000000e-01 9.183673469385606e-01 0.000000000000000e+00 1.000000000000000e-01 9.183673469385606e-01 0.000000000000000e+00 1.000000000000000e-01 9.387755102039205e-01 0.000000000000000e+00 1.000000000000000e-01 9.387755102039205e-01 0.000000000000000e+00 1.000000000000000e-01 9.591836734692804e-01 0.000000000000000e+00 1.000000000000000e-01 9.591836734692804e-01 0.000000000000000e+00 1.000000000000000e-01 9.795918367346401e-01 0.000000000000000e+00 1.000000000000000e-01 9.795918367346401e-01 0.000000000000000e+00 1.000000000000000e-01 1.000000000000000e+00 0.000000000000000e+00 4.999999999998959e-02 5.114756178172757e-01 0.000000000000000e+00 6.228151969683019e-02 5.312445519176795e-01 0.000000000000000e+00 3.751914167667291e-02 5.312592799347757e-01 0.000000000000000e+00 3.133542164424451e-02 4.639238697356087e-01 0.000000000000000e+00 2.409851663476202e-02 4.410528110032798e-01 0.000000000000000e+00 4.648260855400819e-02 4.547803401498470e-01 0.000000000000000e+00 0.000000000000000e+00 9.387755102038267e-01 0.000000000000000e+00 0.000000000000000e+00 9.183673469384355e-01 0.000000000000000e+00 1.944462618255723e-02 9.288128947356744e-01 0.000000000000000e+00 1.000000000000000e-01 5.306122448967233e-01 0.000000000000000e+00 1.000000000000000e-01 5.510204081620832e-01 0.000000000000000e+00 8.012197144515044e-02 5.416148681194984e-01 0.000000000000000e+00 0.000000000000000e+00 5.510204081649921e-01 0.000000000000000e+00 0.000000000000000e+00 5.306122448998274e-01 0.000000000000000e+00 1.963064815290805e-02 5.416826923830900e-01 0.000000000000000e+00 0.000000000000000e+00 8.571428571424604e-01 0.000000000000000e+00 0.000000000000000e+00 8.367346938772958e-01 0.000000000000000e+00 1.947907892149852e-02 8.466968164341721e-01 0.000000000000000e+00 0.000000000000000e+00 7.959183673469667e-01 0.000000000000000e+00 0.000000000000000e+00 7.755102040818023e-01 0.000000000000000e+00 2.258563083861561e-02 7.856795524796590e-01 0.000000000000000e+00 0.000000000000000e+00 7.346938775514733e-01 0.000000000000000e+00 0.000000000000000e+00 7.142857142863088e-01 0.000000000000000e+00 2.258563083859787e-02 7.244550626841598e-01 0.000000000000000e+00 1.000000000000000e-01 5.918367346928030e-01 0.000000000000000e+00 1.000000000000000e-01 6.122448979581627e-01 0.000000000000000e+00 7.741436916128577e-02 6.020060830913998e-01 0.000000000000000e+00 0.000000000000000e+00 4.489795918386030e-01 0.000000000000000e+00 0.000000000000000e+00 4.285714285732120e-01 0.000000000000000e+00 2.409851663476202e-02 4.410528110032798e-01 0.000000000000000e+00 0.000000000000000e+00 6.734693877559796e-01 0.000000000000000e+00 0.000000000000000e+00 6.530612244908152e-01 0.000000000000000e+00 1.986707969698399e-02 6.633683120936215e-01 0.000000000000000e+00 1.000000000000000e-01 6.530612244888825e-01 0.000000000000000e+00 1.000000000000000e-01 6.734693877542424e-01 0.000000000000000e+00 7.769343978564471e-02 6.632834118678752e-01 0.000000000000000e+00 0.000000000000000e+00 3.877551020424299e-01 0.000000000000000e+00 0.000000000000000e+00 3.673469387770387e-01 0.000000000000000e+00 2.258563083872488e-02 3.775857536437918e-01 0.000000000000000e+00 0.000000000000000e+00 6.122448979604860e-01 0.000000000000000e+00 0.000000000000000e+00 5.918367346953213e-01 0.000000000000000e+00 1.954480862887780e-02 6.024198660057475e-01 0.000000000000000e+00 1.000000000000000e-01 7.142857142849620e-01 0.000000000000000e+00 1.000000000000000e-01 7.346938775503219e-01 0.000000000000000e+00 8.045519137097396e-02 7.248688455956910e-01 0.000000000000000e+00 0.000000000000000e+00 3.265306122462567e-01 0.000000000000000e+00 0.000000000000000e+00 3.061224489808657e-01 0.000000000000000e+00 2.261300864914188e-02 3.164931898911296e-01 0.000000000000000e+00 1.000000000000000e-01 1.224489795916153e-01 0.000000000000000e+00 1.000000000000000e-01 1.428571428568673e-01 0.000000000000
[...]
<PointData Scalars="temperature," Vectors="" Tensors="">
<DataArray type="Float64" Name="temperature" format="ascii">
1.001966742175691e+00 9.989678271836381e-01 1.000035139309154e+00 9.920768505779692e-01 9.930040679491697e-01 9.806045581466365e-01 9.813845398088517e-01 9.651548573444001e-01 9.657295384513589e-01 9.465470617492346e-01 9.469911123378166e-01 9.255420954831688e-01 9.258413366332882e-01 9.028188422460518e-01 9.029930046587616e-01 8.789490301520035e-01 8.790500553948094e-01 8.543540664367885e-01 8.543870832874828e-01 8.293598983791848e-01 8.293476544908289e-01 8.042218403991100e-01 8.041768664957392e-01 7.791037954787851e-01 7.790303310791685e-01 7.541400798253866e-01 7.540552135697718e-01 7.294425184412773e-01 7.293432509569342e-01 7.050496195625429e-01 7.049282146413441e-01 6.810148005713467e-01 6.808908517967275e-01 6.574373123234323e-01 6.573316062139704e-01 6.343089216837139e-01 6.341945730638217e-01 6.116401231169376e-01 6.115167888936134e-01 5.894660096768903e-01 5.893426173987365e-01 5.678166300619576e-01 5.676772046441296e-01 5.466909104088405e-01 5.465648578518606e-01 5.260706179625921e-01 5.259418581906241e-01 5.059818613261469e-01 5.058639126360689e-01 4.864251451621973e-01 4.863078177001812e-01 4.674228739579937e-01 4.673028621224278e-01 4.489489575165990e-01 4.488238484690765e-01 4.310289850586673e-01 4.309049299894412e-01 4.136422105187854e-01 4.135053775027587e-01 3.967793275101802e-01 3.966378436552840e-01 3.804618565765700e-01 3.803490902924118e-01 3.646778707622754e-01 3.645632009894119e-01 3.494135659794846e-01 3.492864101366450e-01 3.346479759413114e-01 3.345360128425463e-01 3.204114330524063e-01 3.203036128932599e-01 3.066587775408418e-01 3.065520470161880e-01 2.934038739742555e-01 2.932936852886662e-01 2.806317111517241e-01 2.805316299395769e-01 2.683095544802837e-01 2.682091691926505e-01 2.564401990653709e-01 2.563373810303378e-01 2.450250975960184e-01 2.449383456768713e-01 2.340521609048774e-01 2.339642071917154e-01 2.234953547709417e-01 2.234103829770438e-01 2.133663101660982e-01 2.132753086849509e-01 2.036270523700523e-01 2.035365040664265e-01 1.943118034054979e-01 1.942255925156952e-01 1.853822858563121e-01 1.852741010048482e-01 1.768474547715397e-01 1.766384857471508e-01 1.689248833748303e-01 1.582219222426697e-01 1.804200692717447e-01 1.168700708672981e-01 1.335964238066523e-01 1.275094948046319e-01 1.635173544149813e-01 3.070471628665818e-02 3.229193430768820e-02 3.321158526433374e-02 3.676479559388764e-01 3.535171557178756e-01 2.409996760931402e-01 8.520687431979060e-02 9.019875245224108e-02 9.194471098688764e-02 3.791482487728449e-02 4.000069624655379e-02 4.111327057107347e-02 4.461454593474974e-02 4.718497804425222e-02 4.928829689825267e-02 5.257241765071485e-02 5.558038455235648e-02 5.799022735075532e-02 3.229568684163268e-01 3.109310278664965e-01 1.966040121185450e-01 1.106905003130009e-01 1.170016629898136e-01 1.215416351560642e-01 6.195782633547400e-02 6.540776624167099e-02 6.712099139769490e-02 2.831784868711504e-01 2.723757966099654e-01 1.712492295500679e-01 1.297443334992117e-01 1.369925828320774e-01 1.417986000681115e-01 7.274971535202689e-02 7.681933706510920e-02 7.852307347668756e-02 2.476910079810959e-01 2.378378390463052e-01 1.583636203724467e-01 1.527155078454852e-01 1.619237434340605e-01 1.668014507899049e-01 7.991514050238696e-01 7.654784724393716e-01 5.941272344671273e-01 9.044639801561388e-01 8.596134256197432e-01 7.678279896419342e-01 1.832578291578502e-01 1.967604254987710e-01 2.006587701096707e-01 7.118419628388076e-01 6.864377140728830e-01 5.207466441655590e-01 2.158165315774111e-01 2.071919293756684e-01 1.364715693394005e-01 2.323033121129390e-01 2.572238283670929e-01 2.563492181853539e-01 6.371567074681974e-01 6.154884025709645e-01 4.531024991323743e-01 3.306511741174739e-01 3.840553283467041e-01 3.669306019369033e-01 5.698328578351729e-01 5.504402509856922e-01 3.970277358133429e-01 5.405355013802536e-01 6.447006112052722e-01 6.020993084298388e-01 5.080629259470981e-01 4.904514591626669e-01 3.482297564204343e-01 4.512257999099837e-01 4.353994954619072e-01 3.062529980862772e-01 3.757724604965972e-02 5.312449646096869e-02 4.496395512905184e-02 8.218582452243497e-01 7.634555250008650e-01 8.930711238603841e-01 1.806311485699422e-01 1.698850804895094e-01 1.209341318486592e-01 6.910322963997964e-02 5.217616183032053e-02 8.500354401809389e-02 6.447443949468049e-01 7.157634788886037e-01 6.024907878078105e-01 6.632418927118058e-02 4.284450534548583e-02 5.512334276295053e-02 8.064651963567110e-01 9.014439873708606e-01 7.554881183290760e-01 6.647533277693365e-02 8.803809042342561e-02 1.021575501236877e-01 1.317414347173043e-01 1.112963821704237e-01 1.307768587523027e-01 1.445374000189005e-01 1.180974301913938e-01 1.791487914215982e-01 8.547482768139943e-02 5.198651634150091e-02 7.423976427260241e-02 5.377347782942490e-02 7.135803029384542e-02 5.523681743129719e-02 3.093161586471373e-02 3.571161199528245e-02 3.470735785013068e-02 3.332156746267078e-02 3.089013649956928e-02 4.172747924312161e-02 1.013594807689181e+00 9.078892353812943e-01 9.021157881982365e-01 1.063093564411635e-01 1.257010929032021e-01 1.147409556157226e-01 4.264361234895964e-01 3.186495098793146e-01 3.155584117078628e-01 3.628130737504634e-02 4.272803896977397e-02 4.007469950389284e-02 2.635390711306807e-01 1.882756431909409e-01 1.797602399422927e-01 2.309064754745735e-01 1.635987373593097e-01 1.652001973365262e-01 2.504030687904317e-01 2.875142007522357e-01 2.633980982807390e-01 3.810117177697167e-01 4.301841661385489e-01 3.703826405392718e-01 2.009175298129469e-01 1.425875078229676e-01 1.427121572475549e-01 6.963470783056776e-02 8.149792277079668e-02 7.692266657473763e-02 6.289780259928153e-01 4.613659060658717e-01 5.004801830656501e-01 5.616507353822136e-01 4.052296539266916e-01 4.402246613018788e-01 5.000091885290034e-01 3.562690867805434e-01 3.881402274105339e-01 4.436464805595750e-01 3.139064356788773e-01 3.417068209142630e-01 8.177576625099932e-02 9.524006956738756e-02 8.992429066524335e-02 1.106466068306211e-01 1.303880457135375e-01 1.280438904716462e-01 3.012437428954289e-01 2.149584629971303e-01 2.060720082638597e-01 1.306087243531263e-01 1.523318710146795e-01 1.484350381049368e-01 1.548159870724008e-01 1.798612292859659e-01 1.741533723640818e-01 1.893063873873533e-01 2.188209743586033e-01 2.084204529147769e-01 3.819070336591257e-02 4.479156238763751e-02 4.303544453181213e-02 4.217475963815088e-02 5.156979917959523e-02 4.783058585075842e-02 4.458982845809670e-02 5.314205862252146e-02 5.197973856034516e-02 4.975276781376818e-02 6.062653034255715e-02 5.627976369604620e-02 5.260285054844380e-02 6.246159781169763e-02 6.108311466039106e-02 5.917096563571738e-02 6.980222275733855e-02 6.581267929432823e-02 7.883301299851483e-01 6.054080435662977e-01 6.747907652531682e-01 7.581627543054196e-01 6.026415498252752e-01 5.995649847258074e-01 8.583346769958854e-01 7.307096974610793e-01 7.658947040882789e-01 7.035008395654013e-01 5.294077165938648e-01 5.711798531997851e-01 2.251424028221508e-01 2.630595175627701e-01 2.366665541648200e-01 2.759314648939699e-01 1.784226619828684e-01 2.069771720632737e-01 1.759649224265775e-01 2.074621810773319e-01 1.911020360932976e-01 3.151049614452344e-01 2.044106621598404e-01 2.379070005477587e-01 1.459062777709486e-01 1.731173611388495e-01 1.609477600504498e-01 1.236744767891952e-01 1.474397447785106e-01 1.373277555176412e-01 3.448503801612197e-01 2.476860862611525e-01 2.497398844877360e-01 3.604606694859055e-01 2.487311110745324e-01 2.743914882344926e-01 8.651158535301476e-02 9.872676801774222e-02 9.604564017023637e-02 8.947904525884111e-01 7.787734993112119e-01 8.420928484498683e-01 9.321738434231318e-01 8.546603942105161e-01 9.086530181509426e-01 2.817294128311549e-02 3.242438057283304e-02 3.174242776137428e-02 2.942412686771954e-02 3.447783157348185e-02 3.267920977188073e-02 1.246505968760103e-01 1.740440729700729e-01 2.037997514544941e-01 1.088220585493463e-01 1.511079080345513e-01 1.778269136327410e-01 7.399312878975220e-02 5.015402488370468e-02 6.445082490883536e-02 2.009925232849493e-01 1.669286545739095e-01 1.449837023870999e-01 2.333068742977439e-01 1.944795673087032e-01 1.704012934196767e-01 8.647098460069712e-02 5.901214561538595e-02 7.548297220610688e-02 2.740167548917172e-01 2.291098923774977e-01 2.045016309065141e-01 2.603093183852339e-01 3.309153727709893e-01 2.795655415999234e-01 4.567145816686168e-01 5.995964336358821e-01 5.057724159727131e-01 1.095188106900834e-01 1.766096140959408e-01 1.423204132781778e-01 2.606655963554419e-01 3.137499985386912e-01 3.310737774697946e-01 2.849094261661758e-01 3.232864773897013e-01 2.860551048797695e-01 2.534906064659428e-01 1.795408031200603e-01 1.882672970744281e-01 4.517479390208415e-01 5.087696861816534e-01 4.289198482202520e-01 2.209249206528595e-01 1.539056606961007e-01 1.641641707243086e-01 6.538220182387320e-01 4.989932114127595e-01 5.235453599099315e-01 5.840556288607976e-01 4.383192550573566e-01 4.563538550349097e-01 5.205923187814501e-01 3.860955095971156e-01 4.022339739736142e-01 4.623950119488681e-01 3.396989410681741e-01 3.541533372870996e-01 6.623795063132161e-02 7.638584208045433e-02 7.285212581023191e-02 6.249245035499696e-02 7.276584937481630e-02 7.020835097185800e-02 7.356473799644266e-02 8.489925086167045e-02 8.196414095775310e-02 6.777932598602938e-01 5.238015905502230e-01 5.290481038269479e-01 2.419406553187460e-01 1.641275838468888e-01 1.807818286089403e-01 2.104957595026478e-01 1.417990332000915e-01 1.551992373031086e-01 6.056527438395954e-01 4.557223917921933e-01 4.628305988631128e-01 5.403274043380492e-01 4.013428866613419e-01 4.071333227795098e-01 3.264331217543391e-01 3.711994730475424e-01 3.235898362339685e-01 4.804315616439365e-01 3.532045843314410e-01 3.582719422055642e-01 5.389409761437290e-01 6.037369728603190e-01 5.085640890219754e-01 1.258645592505914e-01 2.021051478902370e-01 1.605988431724490e-01 1.774093198864285e-01 1.247593379186440e-01 1.563613811507673e-01 2.024491919352863e-01 1.441708710319061e-01 1.809479292649394e-01 2.348016527769850e-01 1.696074077290851e-01 2.114148446343166e-01 2.754367520142816e-01 2.038167202910871e-01 2.519330677829383e-01 7.351391872256077e-02 6.032948625982083e-02 5.040393184626705e-02 8.592258971327570e-02 7.070577919156772e-02 5.928998922027862e-02 4.603328775913973e-01 5.627676631978354e-01 5.966050416138780e-01 7.789865537418007e-02 8.923357128901645e-02 8.505020101329151e-02 3.486155493022838e-02 3.552665832477531e-02 4.230620684156155e-02 1.263325362741258e-01 9.429240326936586e-02 1.012290534271468e-01 2.735423496804466e-01 3.784569640426684e-01 3.569803708817562e-01 2.327476046419100e-01 3.276616907006520e-01 3.104636773085098e-01 2.003724839222202e-01 2.856079204855847e-01 2.708522293844356e-01 7.280823640919039e-02 1.082709286278549e-01 1.049557080137924e-01 4.592775371370464e-01 3.797101419152418e-01 4.307977071048429e-01 8.520468715140331e-02 1.259129466201825e-01 1.216792710247313e-01 3.892755470146749e-01 2.840486706908582e-01 2.642570858215504e-01 9.513508816347614e-02 1.109163021911518e-01 1.045025513762742e-01 8.016266441223224e-02 1.007238656834189e-01 9.545232442728141e-02 4.585045903061498e-01 3.559535496833378e-01 3.805394890040767e-01 4.027791982707256e-01 3.091253233340102e-01 3.299582874845327e-01 3.541221670924841e-01 2.694650460909587e-01 2.878432076657084e-01 1.406438342489177e-01 1.045671390320989e-01 1.089557823454165e-01 3.703097564150959e-01 4.333276311335612e-01 3.787539010417398e-01 1.628106860859204e-01 1.211843544508257e-01 1.267221097295409e-01 1.437148802565776e-01 8.418205154271938e-02 1.108476052808052e-01 9.789474557271222e-01 9.309469776764144e-01 9.138491946359942e-01 2.861672140979751e-02 2.953446057718111e-02 3.041120672429630e-02 1.427859602309024e-01 1.046315965181935e-01 8.481482682666350e-02 4.340481295469145e-02 4.372255154617065e-02 3.432680073737573e-02 4.330737701427504e-02 4.981853673815880e-02 3.956570759636088e-02 2.898640026727560e-01 2.049545683059413e-01 2.150834670375887e-01 1.184307707409959e-01 1.361255569778025e-01 1.299560830949276e-01 1.393013711237509e-01 1.596198529994644e-01 1.519495208353079e-01 1.662340832555290e-01 1.897542608396116e-01 1.793374732238843e-01 2.069965880266751e-01 2.354817486339148e-01 2.180594534862378e-01 4.045487794595660e-02 4.729676244899031e-02 4.489591122350912e-02 8.233942240094322e-01 6.789792051068811e-01 7.230202022317054e-01 4.767747023706816e-02 5.569107294843039e-02 5.300007950822230e-02 7.313459515072721e-01 5.716732591133842e-01 5.996690834144337e-01 5.629875842972849e-02 6.535028449864941e-02 6.227132103793456e-02 9.967874973926714e-01 1.010098510543409e+00 9.083264032151780e-01 4.808275378874371e-02 3.070467191668413e-02 4.446456783085108e-02 3.309339674339750e-01 2.355393923231873e-01 2.483791230713378e-01 3.159809553759778e-01 3.189257239088510e-01 2.269142025746512e-01 1.102120869076635e-01 8.245425580973133e-02 8.730023205325804e-02 3.298301260573994e-01 4.394305638116807e-01 4.143533303745019e-01 3.919543977214410e-01 2.629194869297856e-01 3.044392719579599e-01 9.538817142458433e-02 1.119879069314538e-01 1.110869585447790e-01 6.463763581240841e-01 7.656717354035415e-01 7.146698589886690e-01 2.249195205619196e-01 1.693927978919103e-01 1.687651386010902e-01 2.309663317642910e-01 1.629052395992567e-01 2.332924091041800e-01 6.534514647531615e-01 5.771711144695844e-01 6.776202004134956e-01 6.843254699654752e-02 8.702884612322039e-02 8.323509368188828e-02 5.249452776151877e-01 4.148753184130745e-01 4.396602787332068e-01 1.322291465528956e-01 1.879830505616717e-01 1.810214551966970e-01 3.345811789105768e-01 2.869804795679073e-01 3.231098278180442e-01 1.136646585445292e-01 1.634823522474149e-01 1.556638549213575e-01 4.948001246904590e-01 4.304104400357450e-01 5.077421508146805e-01 3.971769540285794e-01 5.229629728678821e-01 5.006017079950071e-01 3.418573818241384e-01 4.555653370873379e-01 4.404439729425569e-01 2.973714922748179e-01 4.012803122149066e-01 3.884241269875810e-01 2.590647742825860e-01 3.531932074280131e-01 3.420075234168574e-01 8.719179834830627e-02 7.279927806814984e-02 7.679046683949023e-02 1.015145624170110e-01 8.483613979211577e-02 8.976443037314598e-02 6.041717014470365e-01 6.821343958362392e-01 5.733618421644081e-01 7.690354268818205e-01 7.414494403127407e-01 8.529455415638465e-01 8.275374490097845e-01 9.260661787482282e-01 8.403557327311696e-01 3.775659457820761e-02 3.203490539824917e-02 3.234519219120139e-02 3.494151114315708e-02 4.043994085164093e-02 3.228471479562046e-02 4.725590833827976e-02 3.835665537209650e-02 5.113584512243095e-02 1.770235975565684e-01 2.490873136629858e-01 2.345955274874558e-01 4.572763490324868e-02 6.555256978136087e-02 5.262366563764360e-02 7.032443452487933e-02 5.012256916698875e-02 6.837773983389768e-02 2.303755838682350e-01 2.338016689769755e-01 3.119248646120831e-01 6.649925345011717e-02 5.137347418344779e-02 5.396352094362731e-02 1.708550702451899e-01 1.636366673881767e-01 1.177168136809915e-01 1.504057879155488e-01 2.144619475509564e-01 2.068084268542457e-01 1.552467286957992e-01 1.299338386862021e-01 1.368178852044259e-01 1.808741728767782e-01 1.518439238423537e-01 1.604500299088219e-01 2.125599326314190e-01 1.793202337303210e-01 1.905381350517125e-01 2.572844133298452e-01 2.182051893493985e-01 2.361296428541720e-01 6.032538176509740e-01 7.294774444284369e-01 6.737823958707232e-01 5.495691709783582e-02 4.467927991848594e-02 4.769123285383976e-02 4.686386029726033e-01 6.017720619850596e-01 5.707137363021457e-01 6.461099184077451e-02 5.288408184733876e-02 5.606530538008642e-02 7.559568293092095e-02 6.221350578053209e-02 6.562447835985843e-02 3.309180549117260e-02 2.946348223772640e-02 3.212710392188555e-02 9.921732919211492e-01 9.755229115353927e-01 9.269952964733332e-01 1.736757748196492e-01 2.473162661791350e-01 2.376877182108630e-01 6.534409336439539e-01 7.477690906627860e-01 6.630604244644931e-01 1.158387102324598e-01 1.524903700839006e-01 1.238912634847768e-01 2.134962722133864e-01 1.869400104583076e-01 1.531636054407684e-01 1.407966122086489e-01 1.097174774790804e-01 1.230255551876500e-01 8.286767477477293e-01 8.858064360084639e-01 9.221545765377964e-01 3.935257467828884e-02 4.312292917646315e-02 3.012360625764281e-02 4.747871051016613e-02 5.095434952810619e-02 3.670358946881336e-02 4.375798391184565e-02 3.689244258916960e-02 5.060057916394987e-02 1.835363263130251e-01 1.155911381561999e-01 1.450041723603348e-01 3.114202942912502e-01 2.322214190829371e-01 2.518768665989113e-01 4.177228286985197e-02 5.383243917837979e-02 5.156813461685231e-02 1.332921665695345e-01 1.338996749084929e-01 1.075630361114029e-01 2.313852967306631e-01 2.963961384711312e-01 2.117546743457158e-01 7.696005538629361e-01 6.706703702061755e-01 7.394591884616607e-01 1.819247363668522e-01 1.329644238243004e-01 1.165079460369481e-01 3.883727829161648e-02 3.124767159631872e-02 4.148609717471231e-02 2.708399217895713e-01 2.605306436086880e-01 1.817242385768547e-01 2.576725027596274e-01 2.897601082698923e-01 2.814777728332259e-01 2.367031897062793e-01 2.272867778206117e-01 1.582084740961696e-01 3.847158716239945e-01 4.535448067614330e-01 4.271620291768830e-01 2.059192828106921e-01 1.978631665463828e-01 1.378118863589611e-01 6.911347817915964e-02 7.282623881279300e-02 7.382264696177003e-02 6.613488779703557e-01 6.384681904658324e-01 4.918318155089560e-01 5.918798966616743e-01 5.716084641159341e-01 4.309925406793193e-01 5.283497028234834e-01 5.099532471040741e-01 3.788607860971336e-01 4.699076416807982e-01 4.532080457056311e-01 3.326927966222627e-01 8.105148625595941e-02 8.540190739734647e-02 8.639110910353288e-02 1.169370328656819e-01 1.235082517464106e-01 1.251412554928665e-01 1.371110121623286e-01 1.448408092752717e-01 1.465753153661669e-01 3.091493997160390e-01 2.977236363082461e-01 2.076727159021772e-01 1.620734159408355e-01 1.722511098369465e-01 1.734981139166384e-01 1.969756879384492e-01 2.131225622358629e-01 2.121101448158803e-01 4.008680813367640e-02 4.232036014586025e-02 4.304536921314284e-02 4.237748689851543e-02 4.456496204575711e-02 4.555466057882858e-02 4.723597249914548e-02 4.993572570800362e-02 5.081122044990959e-02 4.995864132963398e-02 5.252449591036774e-02 5.364982851575598e-02 5.563183510366548e-02 5.883261641529472e-02 5.978672763175937e-02 5.881766196401111e-02 6.197617985496611e-02 6.304597083915822e-02 8.318760123818059e-01 7.953626797945761e-01 6.702747901602976e-01 8.667351578814015e-01 8.270050158562170e-01 7.220440621045822e-01 7.676725499201030e-01 7.385717131587225e-01 5.938631841841301e-01 7.392528161730288e-01 7.118826579662404e-01 5.638934539921422e-01 2.131985015846408e-01 2.322396271933655e-01 2.299893814049764e-01 1.723419160178748e-01 1.831426081537285e-01 1.843232799731572e-01 2.963181653129296e-01 2.847245881980353e-01 1.989704235325884e-01 1.449153031474031e-01 1.526013306443558e-01 1.546274406241561e-01 3.376693379473337e-01 3.246682817194874e-01 2.292278495919382e-01 1.234544041901841e-01 1.296382608466996e-01 1.317034824111838e-01 3.521810951368609e-01 3.390284175776753e-01 2.406099693381641e-01 6.975695457007861e-02 6.175570970439115e-02 5.047032246676858e-02 4.189140393593491e-02 5.250539384970322e-02 5.968374860925937e-02 4.000418903974607e-01 3.844027938243360e-01 2.748387561813522e-01 9.478000743276163e-02 1.003318407026864e-01 9.993600762448342e-02 6.032944446770496e-01 5.107069956746019e-01 5.733763580495307e-01 4.938699012459317e-01 5.768746503194696e-01 5.077480128705235e-01 4.688474341237523e-01 3.740662376338860e-01 4.134994773573994e-01 3.968265831528888e-01 3.114294245819195e-01 3.258347680523848e-01 3.414686995416040e-01 2.645336921973788e-01 2.743851772558035e-01 2.971551782118539e-01 2.281737969935168e-01 2.359409698859454e-01 2.590672920985383e-01 1.978493042786443e-01 2.041426842122197e-01 3.336427575262482e-01 4.131985018091228e-01 3.747054228391444e-01 2.570762614380759e-01 3.262443208840444e-01 3.115682683338408e-01 2.122219286372863e-01 2.74330956135169