<?xml version="1.0"?>
<VTKFile type="UnstructuredGrid" version="0.1" byte_order="LittleEndian">
<UnstructuredGrid>
<Piece NumberOfPoints="714" NumberOfCells="1306">
<Points>
<DataArray type="Float64" NumberOfComponents="3" format="ascii">
0.000000000000000e+00 0.000000000000000e+00 0.000000000000000e+00 5.000000000000000e+00 0.000000000000000e+00 0.000000000000000e+00 5.000000000000000e+00 1.000000000000000e+00 0.000000000000000e+00 0.000000000000000e+00 1.000000000000000e+00 0.000000000000000e+00 9.999999999992801e-02 0.000000000000000e+00 0.000000000000000e+00 1.999999999998339e-01 0.000000000000000e+00 0.000000000000000e+00 2.999999999997341e-01 0.000000000000000e+00 0.000000000000000e+00 3.999999999996643e-01 0.000000000000000e+00 0.000000000000000e+00 4.999999999995944e-01 0.000000000000000e+00 0.000000000000000e+00 5.999999999995166e-01 0.000000000000000e+00 0.000000000000000e+00 6.999999999992880e-01 0.000000000000000e+00 0.000000000000000e+00 7.999999999989961e-01 0.000000000000000e+00 0.000000000000000e+00 8.999999999987042e-01 0.000000000000000e+00 0.000000000000000e+00 9.999999999984124e-01 0.000000000000000e+00 0.000000000000000e+00 1.099999999998120e+00 0.000000000000000e+00 0.000000000000000e+00 1.199999999997829e+00 0.000000000000000e+00 0.000000000000000e+00 1.299999999997537e+00 0.000000000000000e+00 0.000000000000000e+00 1.399999999997245e+00 0.000000000000000e+00 0.000000000000000e+00 1.499999999996953e+00 0.000000000000000e+00 0.000000000000000e+00 1.599999999996661e+00 0.000000000000000e+00 0.000000000000000e+00 1.699999999996369e+00 0.000000000000000e+00 0.000000000000000e+00 1.799999999996077e+00 0.000000000000000e+00 0.000000000000000e+00 1.899999999995785e+00 0.000000000000000e+00 0.000000000000000e+00 1.999999999995511e+00 0.000000000000000e+00 0.000000000000000e+00 2.099999999995593e+00 0.000000000000000e+00 0.000000000000000e+00 2.199999999995745e+00 0.000000000000000e+00 0.000000000000000e+00 2.299999999995897e+00 0.000000000000000e+00 0.000000000000000e+00 2.399999999996049e+00 0.000000000000000e+00 0.000000000000000e+00 2.499999999996201e+00 0.000000000000000e+00 0.000000000000000e+00 2.599999999996353e+00 0.000000000000000e+00 0.000000000000000e+00 2.699999999996505e+00 0.000000000000000e+00 0.000000000000000e+00 2.799999999996657e+00 0.000000000000000e+00 0.000000000000000e+00 2.899999999996809e+00 0.000000000000000e+00 0.000000000000000e+00 2.999999999996961e+00 0.000000000000000e+00 0.000000000000000e+00 3.099999999997114e+00 0.000000000000000e+00 0.000000000000000e+00 3.199999999997265e+00 0.000000000000000e+00 0.000000000000000e+00 3.299999999997417e+00 0.000000000000000e+00 0.000000000000000e+00 3.399999999997569e+00 0.000000000000000e+00 0.000000000000000e+00 3.499999999997721e+00 0.000000000000000e+00 0.000000000000000e+00 3.599999999997873e+00 0.000000000000000e+00 0.000000000000000e+00 3.699999999998025e+00 0.000000000000000e+00 0.000000000000000e+00 3.799999999998176e+00 0.000000000000000e+00 0.000000000000000e+00 3.899999999998329e+00 0.000000000000000e+00 0.000000000000000e+00 3.999999999998481e+00 0.000000000000000e+00 0.000000000000000e+00 4.099999999998633e+00 0.000000000000000e+00 0.000000000000000e+00 4.199999999998784e+00 0.000000000000000e+00 0.000000000000000e+00 4.299999999998937e+00 0.000000000000000e+00 0.000000000000000e+00 4.399999999999088e+00 0.000000000000000e+00 0.000000000000000e+00 4.499999999999240e+00 0.000000000000000e+00 0.000000000000000e+00 4.599999999999393e+00 0.000000000000000e+00 0.000000000000000e+00 4.699999999999545e+00 0.000000000000000e+00 0.000000000000000e+00 4.799999999999696e+00 0.000000000000000e+00 0.000000000000000e+00 4.899999999999848e+00 0.000000000000000e+00 0.000000000000000e+00 5.000000000000000e+00 9.999999999981467e-02 0.000000000000000e+00 5.000000000000000e+00 1.999999999995579e-01 0.000000000000000e+00 5.000000000000000e+00 2.999999999992664e-01 0.000000000000000e+00 5.000000000000000e+00 3.999999999989749e-01 0.000000000000000e+00 5.000000000000000e+00 4.999999999986943e-01 0.000000000000000e+00 5.000000000000000e+00 5.999999999989468e-01 0.000000000000000e+00 5.000000000000000e+00 6.999999999992100e-01 0.000000000000000e+00 5.000000000000000e+00 7.999999999994734e-01 0.000000000000000e+00 5.000000000000000e+00 8.999999999997368e-01 0.000000000000000e+00 4.899999999999999e+00 1.000000000000000e+00 0.000000000000000e+00 4.800000000000000e+00 1.000000000000000e+00 0.000000000000000e+00 4.699999999999999e+00 1.000000000000000e+00 0.000000000000000e+00 4.600000000000000e+00 1.000000000000000e+00 0.000000000000000e+00 4.499999999999999e+00 1.000000000000000e+00 0.000000000000000e+00 4.399999999999999e+00 1.000000000000000e+00 0.000000000000000e+00 4.299999999999999e+00 1.000000000000000e+00 0.000000000000000e+00 4.199999999999998e+00 1.000000000000000e+00 0.000000000000000e+00 4.099999999999999e+00 1.000000000000000e+00 0.000000000000000e+00 3.999999999999999e+00 1.000000000000000e+00 0.000000000000000e+00 3.899999999999999e+00 1.000000000000000e+00 0.000000000000000e+00 3.799999999999999e+00 1.000000000000000e+00 0.000000000000000e+00 3.699999999999998e+00 1.000000000000000e+00 0.000000000000000e+00 3.599999999999999e+00 1.000000000000000e+00 0.000000000000000e+00 3.499999999999999e+00 1.000000000000000e+00 0.000000000000000e+00 3.399999999999999e+00 1.000000000000000e+00 0.000000000000000e+00 3.299999999999999e+00 1.000000000000000e+00 0.000000000000000e+00 3.199999999999998e+00 1.000000000000000e+00 0.000000000000000e+00 3.099999999999999e+00 1.000000000000000e+00 0.000000000000000e+00 2.999999999999999e+00 1.000000000000000e+00 0.000000000000000e+00 2.899999999999999e+00 1.000000000000000e+00 0.000000000000000e+00 2.799999999999999e+00 1.000000000000000e+00 0.000000000000000e+00 2.699999999999999e+00 1.000000000000000e+00 0.000000000000000e+00 2.599999999999999e+00 1.000000000000000e+00 0.000000000000000e+00 2.500000000000000e+00 1.000000000000000e+00 0.000000000000000e+00 2.399999999999999e+00 1.000000000000000e+00 0.000000000000000e+00 2.299999999999999e+00 1.000000000000000e+00 0.000000000000000e+00 2.199999999999999e+00 1.000000000000000e+00 0.000000000000000e+00 2.100000000000000e+00 1.000000000000000e+00 0.000000000000000e+00 2.000000000000000e+00 1.000000000000000e+00 0.000000000000000e+00 1.899999999999999e+00 1.000000000000000e+00 0.000000000000000e+00 1.799999999999999e+00 1.000000000000000e+00 0.000000000000000e+00 1.699999999999999e+00 1.000000000000000e+00 0.000000000000000e+00 1.599999999999999e+00 1.000000000000000e+00 0.000000000000000e+00 1.500000000000000e+00 1.000000000000000e+00 0.000000000000000e+00 1.399999999999999e+00 1.000000000000000e+00 0.000000000000000e+00 1.299999999999999e+00 1.000000000000000e+00 0.000000000000000e+00 1.199999999999999e+00 1.000000000000000e+00 0.000000000000000e+00 1.100000000000000e+00 1.000000000000000e+00 0.000000000000000e+00 9.999999999999991e-01 1.000000000000000e+00 0.000000000000000e+00 8.999999999999995e-01 1.000000000000000e+00 0.000000000000000e+00 7.999999999999998e-01 1.000000000000000e+00 0.000000000000000e+00 7.000000000000002e-01 1.000000000000000e+00 0.000000000000000e+00 5.999999999999996e-01 1.000000000000000e+00 0.000000000000000e+00 4.999999999999991e-01 1.000000000000000e+00 0.000000000000000e+00 3.999999999999995e-01 1.000000000000000e+00 0.000000000000000e+00 3.000000000000007e-01 1.000000000000000e+00 0.000000000000000e+00 1.999999999999993e-01 1.000000000000000e+00 0.000000000000000e+00 9.999999999999964e-02 1.000000000000000e+00 0.000000000000000e+00 0.000000000000000e+00 8.999999999995836e-01 0.000000000000000e+00 0.000000000000000e+00 7.999999999999998e-01 0.000000000000000e+00 0.000000000000000e+00 7.000000000006934e-01 0.000000000000000e+00 0.000000000000000e+00 6.000000000013869e-01 0.000000000000000e+00 0.000000000000000e+00 5.000000000020587e-01 0.000000000000000e+00 0.000000000000000e+00 4.000000000016644e-01 0.000000000000000e+00 0.000000000000000e+00 3.000000000012483e-01 0.000000000000000e+00 0.000000000000000e+00 2.000000000008322e-01 0.000000000000000e+00 0.000000000000000e+00 1.000000000004160e-01 0.000000000000000e+00 7.477570327540725e-01 4.905967956478702e-01 0.000000000000000e+00 1.346210646643281e+00 4.806066422083806e-01 0.000000000000000e+00 1.949496869330408e+00 5.032480558805372e-01 0.000000000000000e+00 4.449999999999997e+00 5.000000000000384e-01 0.000000000000000e+00 3.859142349610828e+00 5.103468031113156e-01 0.000000000000000e+00 3.246530027037640e+00 5.183101712757180e-01 0.000000000000000e+00 2.657531292711257e+00 5.037429884868682e-01 0.000000000000000e+00 3.824015840967434e-01 6.064457502813875e-01 0.000000000000000e+00 2.306343155343502e+00 6.315316747431162e-01 0.000000000000000e+00 1.049999999998266e+00 3.374999999994497e-01 0.000000000000000e+00 1.641930697057102e+00 3.436055112169133e-01 0.000000000000000e+00 4.150000000000006e+00 6.625000000000185e-01 0.000000000000000e+00 3.552784161359181e+00 6.642488388863971e-01 0.000000000000000e+00 2.940292465243163e+00 6.575992780735344e-01 0.000000000000000e+00 1.641237689750194e+00 6.703960699373966e-01 0.000000000000000e+00 1.050000000000000e+00 6.706367924525535e-01 0.000000000000000e+00 2.960517759676693e+00 3.261740577967960e-01 0.000000000000000e+00 3.551899302943298e+00 3.210887133285832e-01 0.000000000000000e+00 4.150779393876139e+00 3.209867287821391e-01 0.000000000000000e+00 2.213980362532827e+00 3.194901812685164e-01 0.000000000000000e+00 4.927283029162088e-01 3.252862896001115e-01 0.000000000000000e+00 4.696684455724628e+00 3.145438084075651e-01 0.000000000000000e+00 4.690990908683984e+00 6.962960281446974e-01 0.000000000000000e+00 2.487221901830106e+00 2.763334294511438e-01 0.000000000000000e+00 6.215262983536076e-01 7.328515730233995e-01 0.000000000000000e+00 2.065768881873406e+00 7.342557316219342e-01 0.000000000000000e+00 2.543072460766750e+00 7.257064952909391e-01 0.000000000000000e+00 8.105176211436336e-01 2.535517621144286e-01 0.0000000000000
[...]
<CellData Scalars="A_conc,As-lin_conc,B_conc,Bs-lang_conc,C_conc,Cs-freund_conc," Vectors="" Tensors="">
<DataArray type="Float64" Name="A_conc" format="ascii">
6.848381194927980e-07 1.778365463276122e-01 1.695796660673651e-04 6.909115284525290e-07 1.464238841581965e-01 2.594837296709448e-02 2.944456545610938e-02 1.111014372137260e-01 1.696907594422644e-01 7.080199814331590e-07 4.043201045168970e-04 7.979013363323105e-07 2.786687220524299e-07 6.771942196917879e-04 1.909422669471184e-06 1.196877291326535e-06 1.800165029747840e-06 1.844756098912900e-06 1.560305442072243e-02 1.194968365977771e-06 7.469856044807380e-09 2.738040550987326e-07 6.483581304774822e-08 6.243024654331483e-08 7.734139153385878e-07 3.488853810394970e-08 2.305058753910006e-06 1.372847184190566e-01 1.113463934246176e-06 1.865197033829782e-06 1.195490137434578e-07 1.123419225891383e-06 8.138104042470414e-09 1.723984291724610e-07 1.783221705191098e-02 1.611418356223707e-01 3.362838453845648e-07 3.109793664130646e-08 4.707749971451576e-08 1.497435185031591e-01 1.139909154062596e-03 2.922644152529056e-07 6.060980641867867e-08 7.580814544699675e-11 3.825990866772931e-09 2.690118040275444e-02 1.961822565496849e-06 7.154229627335865e-02 1.547467012720680e-02 2.309219719385739e-02 1.689176495108255e-01 5.759695002569337e-07 9.608563194270804e-04 1.566154395542801e-01 1.666068814307750e-01 1.844554390804608e-01 1.196683620583837e-08 1.079242809023094e-01 1.323481052887288e-01 1.972986343490572e-06 4.048824145906689e-03 1.095618788199103e-01 4.981681869786287e-02 2.450543635132825e-10 1.684991748998471e-09 3.539496212083881e-02 7.043663916195406e-02 3.008134488811615e-09 1.747246895448854e-01 1.281022450843492e-01 7.680528717962113e-09 1.489751432271552e-05 6.338965834463639e-08 1.926340582245448e-06 7.654122549104946e-02 1.920680736774220e-02 1.968706874110443e-07 2.718656707554024e-02 8.577250711367705e-02 3.234019549962147e-09 5.981050676531863e-06 1.803613965224403e-02 7.147551558434688e-06 1.808726681724828e-03 5.858105309805808e-02 2.040735381160234e-07 2.308797682408645e-02 8.098632227667181e-02 2.149630562371772e-07 2.447138334245896e-09 8.740207540250792e-03 5.954339450936472e-02 1.204731102973779e-01 5.399661568948568e-02 2.134744732838899e-02 1.171154284690305e-06 5.318813782627890e-02 1.122850533874487e-01 9.041404883554481e-05 1.322847179593887e-01 1.227478435864999e-08 2.469839130846554e-07 2.538291228455919e-07 5.462625732398091e-02 1.487880330773954e-07 7.875470681128861e-02 1.601672797990030e-06 1.393249695691511e-01 1.429527498668063e-07 8.337348086492131e-02 3.662442804988489e-09 4.815346514043517e-07 4.593828534367526e-07 1.128776239541492e-08 1.061122381400355e-06 1.152636488812774e-01 1.899444924505520e-06 3.366847094944407e-08 8.750604060752589e-10 1.370210206457538e-01 9.225106834996979e-10 1.515763608588962e-07 2.537128797078238e-05 7.479837075408986e-07 1.337758683558040e-01 1.088322325950209e-08 3.095526873934289e-04 2.539668027523398e-07 1.192677216855764e-01 9.454418253449644e-02 2.038843108469291e-02 3.837673902410593e-09 8.679988698395433e-02 9.888514580649907e-02 3.889872658304842e-02 4.387957268263392e-09 1.990920416556420e-06 1.816038108558753e-01 6.720579469262872e-02 3.652948218963397e-02 3.140811138194847e-08 1.325884261246442e-01 5.094503540445175e-07 3.422709039385863e-11 6.149663444919341e-03 4.735060860055171e-03 7.877112550589828e-02 1.339540117350345e-08 2.678898747565828e-02 8.322540900619212e-02 1.301405666098687e-08 2.421545819359323e-02 4.036097400345793e-02 6.480143362042369e-02 6.742123570072549e-10 3.948987359127979e-03 6.750688340364893e-08 1.202483840664289e-01 4.502645532724844e-08 2.885693223146847e-03 2.082636098404108e-06 9.280965924167608e-02 1.388623980568644e-05 5.418889360912628e-05 4.431559586143222e-09 6.620516763152692e-07 5.684861029377161e-07 3.469226415997359e-10 2.413698534975978e-10 3.154495566505883e-03 7.283618123438716e-07 1.620155527468915e-07 4.904192387774469e-03 3.519239541710627e-03 8.208701645515605e-09 4.703608560878115e-02 1.068394392371543e-01 5.359874831224532e-05 2.651983014422084e-07 9.999923920687387e-10 5.177237243436032e-02 1.115837742444868e-01 1.528339319229353e-01 9.479475675274006e-10 1.017746030811546e-07 9.022781537071965e-08 3.072896599704378e-07 9.938222046244199e-10 2.018104620611492e-04 2.820617328177981e-08 1.178831812053766e-07 2.776398204280490e-07 1.634431166068526e-06 1.045244989640040e-06 5.566230004082643e-07 2.856829791854544e-08 7.392720506449178e-07 6.078544614620119e-07 1.294276643252777e-06 2.654817720775561e-06 5.492343128581447e-07 3.349466825551092e-11 1.946565289584747e-01 2.410850792941307e-09 4.463683238337871e-02 1.048177782893601e-01 1.771903901154600e-11 1.414303270568152e-08 1.097660854630714e-06 1.595287611193646e-01 7.016052816271845e-09 9.772844445326192e-05 3.529436957735235e-02 6.868179420828608e-07 2.279935357102658e-06 9.731889545895546e-11 7.186907676147989e-07 3.035538585185967e-11 1.389994636361399e-06 1.799248865709468e-02 1.527221813620286e-02 1.426050746455840e-01 2.702314400434853e-08 5.275050698667245e-09 1.447424992346568e-08 1.894139675824919e-01 7.364071961911364e-07 7.326687357165500e-08 1.402269953888485e-03 4.278877598594240e-08 4.584847338902377e-08 5.357756505785685e-07 8.951393139297019e-07 1.243820736424297e-07 4.260654512259245e-02 6.218667269628205e-02 7.263035179841106e-02 3.319062679843047e-02 6.890540090516622e-07 2.149041996758042e-03 7.785687168278221e-02 3.183971819829463e-08 2.851592710097509e-02 2.922775897525576e-11 6.295717395347135e-03 5.441760493965377e-02 1.149414158844724e-01 2.225211688706585e-03 2.341908830755993e-06 1.547249928895786e-03 2.320550884280223e-10 1.825794897443586e-09 5.701258026160639e-03 5.513422231677140e-02 1.145627208932849e-01 1.146389389819780e-01 1.180985518245249e-06 3.923564810018789e-07 1.679249022211480e-06 9.161688898830461e-04 2.558001356945248e-09 1.150838124023436e-07 6.231813585201318e-02 5.809846068847871e-02 1.565574602490372e-07 1.644865226529744e-06 2.918202715758678e-07 1.253198465549659e-06 4.307660978130436e-08 1.879344321769583e-03 3.068785040170469e-10 4.036269499349771e-09 8.366588778627322e-02 2.406483865952242e-02 5.869296242765542e-04 1.178820271971181e-06 1.778489473111339e-04 1.464517221982866e-06 2.602701604183622e-07 2.729680447313254e-07 1.288550615872646e-09 9.058117746231979e-02 9.312981471945319e-11 2.341932630830661e-06 1.385424936173569e-01 8.724038765012847e-08 2.081587414646103e-07 6.712906860723625e-08 4.031120172834154e-02 6.564506143737035e-02 6.468972488701459e-09 2.864721383598521e-10 9.594507614631580e-09 2.813637345261289e-08 1.305546799168247e-02 8.527903864671820e-09 7.617209232240132e-09 1.975499426727956e-06 1.511054917261125e-03 6.683606061375763e-07 8.480544848652120e-03 8.089401611886549e-10 5.928259651632976e-02 1.191824226064084e-01 3.141594181254556e-07 1.968530430347193e-06 1.938828125945902e-06 1.346571009692304e-01 6.314113671538625e-02 1.052010011773926e-02 6.764371372369843e-02 1.279671985652406e-02 2.804354926925471e-03 3.861875460567549e-08 4.125510238892190e-03 2.593145843686239e-07 2.928164398703617e-06 6.030424523499287e-06 1.698197422744056e-01 1.080840882175330e-01 1.043358995754421e-01 2.438519176269410e-08 2.541929925560682e-08 4.297806021482175e-07 1.327714100684509e-09 5.551122218693805e-02 5.060948367933019e-02 1.419236343818379e-07 8.966607066335548e-03 1.052174052015813e-06 1.822847371406102e-01 1.797227095486950e-01 1.802164872358470e-01 1.820099126226151e-01 1.300405358836028e-01 1.170308934496346e-06 1.204497700469128e-06 7.739362818349897e-09 4.290445683451590e-02 4.678728524338529e-09 1.723942099559862e-08 9.259599200448985e-07 2.193951387176817e-04 1.547004974401021e-01 5.078456292518268e-04 1.488643792754927e-06 1.479557950773969e-07 7.930217230834951e-04 5.123848584875573e-07 1.030702029788313e-05 1.911225997205154e-01 1.201717686311010e-04 2.801378813796004e-07 3.606918865998654e-09 2.432479134310100e-06 1.125687376889556e-01 9.756580794513718e-09 1.487202822660261e-08 6.153567527610976e-07 2.340548978613848e-08 2.118874527988939e-06 3.202388014589355e-11 2.021823381040522e-06 9.780963559090392e-02 1.003112114423499e-06 9.940973007703745e-02 6.788439694147539e-09 6.059061217112754e-02 4.508210786968536e-02 1.734750817157863e-01 1.950216895568211e-01 1.950216921444750e-01 1.446570996400119e-01 1.440032439633022e-01 7.319354450047421e-03 7.195222459278424e-09 1.186901451563352e-01 3.578383389994931e-09 1.067792007880273e-01 4.960930111671732e-10 1.727777590539134e-01 1.612448011248252e-06 4.190542907490478e-07 6.830604642820105e-02 1.365728929781846e-02 2.300784348203082e-05 1.880478083774158e-08 9.304168038195352e-07 9.576838308884416e-07 1.429717216730552e-01 1.717609742550506e-01 5.828795456526104e-11 1.377548489091122e-07 2.818235607905261e-04 1.120239235354251e-08 1.702226940951599e-06 1.013270846554076e-06 8.898116485734314e-02 8.322295334676144e-02 1.052238620507836e-07 5.223303377813927e-03 1.659228377860239e-01 1.664559590669801e-04 1.163509557260592e-06 7.660073796493415e-07 1.013249270966149e-06 1.128721337465802e-07 2.717564834571714e-02 1.571113388909014e-01 8.618102203566688e-02 2.681663874656028e-03 1.947574395885984e-01 2.862937500861898e-03 2.525720099107253e-07 1.018790263481314e-01 1.682165177015574e-01 1.674539644456307e-07 2.427599068197667e-07 4.652750111526611e-02 3.813842531251565e-08 2.638829403295652e-08 2.379715157450032e-02 8.209629264812944e-02 1.336919762417083e-01 3.609937232790045e-09 1.828087381211805e-06 3.479023283478199e-09 2.233608901201653e-09 1.417323179656000e-02 6.887163330949454e-02 1.302997710891662e-01 4.942708160145501e-07 2.355917957525828e-09 1.156753358034668e-02 6.539537212782957e-02 1.263916056591842e-01 5.383705004634542e-07 7.175036610750672e-10 5.990680176167493e-02 4.521415840277859e-02 4.417389136178067e-03 4.750355348482866e-02 5.826986245899782e-02 9.508450272837225e-02 3.501446410086352e-02 1.041788552839024e-01 4.383334454158378e-02 7.586767433476963e-05 2.177108402427634e-06 1.869631153260915e-01 1.448985482897023e-04 1.129961665358926e-07 3.147514743682490e-02 1.829490108092063e-01 9.008453521769973e-02 3.034634861706050e-02 2.494149730542931e-03 1.053692108062346e-07 6.935684897724052e-07 9.282002968294223e-10 1.533211145978007e-01 1.691359055995328e-01 2.018520623200658e-06 3.417059380039946e-05 1.537435691848986e-04 6.688140072468501e-07 1.835625846355151e-01 1.801586874478513e-01 2.439973800727960e-07 1.060574475848104e-01 1.041613164877419e-03 1.136162200818215e-03 3.659671403697278e-03 1.670117694155640e-01 1.613743342755728e-01 1.654459092500580e-01 4.125296616098790e-07 1.458043353710378e-07 2.485531845061962e-08 4.243472786039361e-05 1.299798364278808e-01 1.669902130227579e-07 1.447147834877920e-01 4.788708737941021e-02 3.795919987196100e-09 3.091112908861162e-11 1.175687358590533e-01 5.344087442791682e-02 4.846816623484824e-02 6.346984188347372e-07 8.724909372765408e-02 1.798070193244163e-01 1.489232326496675e-01 1.003244125691726e-01 1.101416891826783e-01 4.963427119027865e-02 3.429093238396195e-04 1.384406293635662e-01 1.095151148179616e-02 1.496070137875894e-01 1.083960071922982e-08 7.669763493814717e-07 7.551639488093704e-07 8.547618474900903e-02 2.721829208908430e-02 6.717871611566223e-02 3.824952436791662e-02 8.596395589149528e-08 1.114416249185368e-08 2.333943774520002e-07 1.396571013796004e-01 1.473044592825463e-06 5.095108718928070e-05 1.679953890697237e-06 2.725990455598777e-06 5.044321726485964e-07 9.592469557594754e-02 1.277889101431335e-01 1.505747345622799e-01 1.520498158009952e-01 1.168836818906333e-06 2.264611391354525e-06 3.210286255748048e-07 8.203556195825573e-10 1.582362632048670e-01 1.422089766745872e-01 2.339777821608985e-07 1.098048128385165e-01 4.432931389975394e-03 1.613522508407445e-01 6.228414522745787e-03 6.851263258786179e-07 1.460353734567857e-01 1.184958802487472e-01 5.724233548185348e-04 2.557321433522627e-02 1.679345215028018e-03 9.917519540883133e-07 4.603949564724979e-07 1.392892046706127e-01 2.173483279168258e-02 1.201116763212300e-01 1.260262791947466e-10 5.996317879815384e-02 8.432827006635741e-03 5.395968084169312e-09 3.597819330229055e-11 1.485222733464150e-01 1.264387338559766e-03 8.801056547466848e-07 2.575338801063733e-06 7.760084973990734e-08 2.197532648548627e-08 8.709985913300142e-02 2.818479246395180e-02 1.147511645944745e-06 1.333699906606955e-01 1.634240047312758e-01 1.810653456839607e-06 1.614976221833198e-06 2.748932476690449e-08 1.525003529970170e-07 4.613118351499221e-08 1.449667466229672e-02 7.057544283320764e-02 9.730120511227338e-08 9.722311743297213e-02 2.174703361600088e-06 1.750229391791270e-01 1.552192455553717e-06 1.767612691327244e-07 1.535638321615746e-01 1.508521598895002e-01 1.827347400244488e-08 1.349628407321248e-01 1.379155037224264e-01 4.587384462139856e-07 3.104523692094639e-03 5.915582010893101e-02 2.946612155721166e-07 5.968531575902328e-04 1.734976882302869e-01 1.694015889294402e-01 1.217518295390603e-05 7.201133055806558e-08 4.789687903316379e-02 2.431139138865937e-05 5.628107128866954e-04 3.146732789701420e-08 1.240112512123141e-01 1.270589261510082e-08 7.842759473486847e-09 9.110013958645292e-02 7.555135857572786e-09 9.424211343354578e-02 1.831279334364503e-01 1.789784074726752e-01 9.558458813861370e-06 2.341865284263340e-02 2.482070976391993e-06 4.464990394836569e-09 3.168580916128098e-08 8.090816471798078e-02 2.411737407567470e-06 2.278207053613061e-02 1.726746749639001e-01 4.517511573715193e-11 9.131562786662652e-09 1.180634255644865e-08 2.909497521734055e-04 1.679028049209535e-07 2.364405029405875e-06 9.739378128258240e-09 1.789302877893998e-07 1.381365652174839e-01 1.878158453082435e-07 8.523337412238692e-08 5.071312241907719e-06 9.569435062926009e-03 3.798197896936496e-09 1.041503174989834e-01 8.822491816424930e-04 1.091752319534352e-06 1.021661825225832e-06 1.237723829702558e-01 5.201388844806177e-10 2.919408550739185e-05 3.655373928644321e-08 2.090093081233891e-06 9.670866998284344e-07 1.083694558245877e-01 1.046830196741861e-01 2.464233799781382e-09 8.948983407007653e-08 8.177261887495055e-02 4.376311633935327e-07 6.938596332267721e-09 4.977180151752345e-02 4.484594677412453e-08 1.728366004798593e-02 7.398799674673129e-02 9.170222107370848e-08 1.033220772011117e-07 6.669147006338379e-08 7.700905922079838e-02 2.985382779648281e-02 1.628984758147487e-06 7.279573139318733e-04 3.906466358134431e-08 9.511536472964703e-08 1.024968386558193e-06 1.483729807927398e-01 3.211492291410819e-06 9.445096859663209e-08 8.590797425868570e-02 2.710631479855391e-02 7.177586739011734e-07 1.259636376335336e-01 1.230982899443231e-01 8.347505896226877e-08 7.459788132558484e-08 1.114346015136302e-01 1.029342976377139e-06 1.170108006992449e-08 2.394891947508443e-08 1.855211774780077e-08 6.441797179143907e-06 1.477750587368921e-03 1.261601002951603e-05 1.482046823905840e-08 6.904866997090427e-07 1.151631752007168e-01 1.119798710592794e-01 5.610984080110457e-03 1.284647347012534e-08 1.344756707552786e-08 1.395812820646399e-09 3.362008932772539e-04 1.047755378134001e-02 2.579606091688103e-10 1.301873453321088e-08 4.790454397903539e-09 6.389601809554597e-02 2.152190222550586e-06 1.843953681302541e-03 1.582303559134646e-01 1.149852502250548e-06 1.917705468484832e-01 1.911831597070474e-01 7.011620124923416e-05 2.490242656393021e-06 4.477613993623691e-02 4.114374619948458e-02 7.094207264414513e-03 7.583591179234262e-05 4.380078184553444e-05 2.042789637654957e-02 2.752536817147987e-08 7.828148047818385e-02 4.023848306530741e-04 1.281185906792021e-01 6.236646434840982e-09 1.872199050055200e-01 1.914877599704365e-01 1.916071846087344e-01 1.873437046911604e-01 1.858052973611490e-01 1.864084300288171e-01 1.031716401528989e-07 7.679722869078615e-02 8.020264826947534e-03 7.250523179976831e-03 6.238193102566159e-08 2.633210489888890e-05 1.455210417587840e-06 3.479986255501898e-08 1.534077721695556e-01 4.772347446942088e-05 9.458920148502300e-05 4.534763830991293e-07 4.660162500588020e-07 7.322424979705051e-02 3.352118583041372e-02 2.772666418760114e-06 9.328344782341351e-05 1.214900494179151e-07 6.200289783801807e-04 8.967257236204983e-09 9.636427222101503e-07 1.996733140482169e-08 4.224035604265470e-09 1.297016837142941e-02 9.508659551462766e-02 2.056699871142362e-08 3.538325564274937e-02 7.172480176563368e-07 7.248958050039661e-08 1.004244521837839e-08 2.172763160924637e-07 2.461417163882290e-06 6.651904386939302e-02 2.405302681037969e-07 3.796070005698565e-08 1.354739132104137e-02 1.184283845597761e-02 1.383619888324781e-09 9.536838423421859e-02 2.863802322428330e-08 9.475442635723937e-07 7.411380185950290e-03 1.961925919935265e-01 1.961925929360563e-01 1.165477436636300e-08 1.289580636512198e-01 1.502324410436489e-02 5.236242350771969e-06 7.851968389141214e-07 8.401281545997666e-02 3.664650661767813e-08 2.370616653007142e-02 2.761417801420737e-06 4.084722042323271e-02 1.912142813779219e-01 1.912142842073580e-01 7.317802184105979e-02 1.532953433267637e-01 1.487667154263656e-01 1.367590106824517e-01 1.218325614515955e-06 8.276630861384382e-09 1.618940302126241e-01 1.575277667128653e-01 2.230326158943506e-05 6.209213773313098e-09 5.260647383412745e-07 6.095664968142440e-09 4.965529320950207e-09 1.518118028469732e-01 9.574048209210376e-03 1.865386262844025e-01 1.866184439884098e-01 1.062623323288009e-08 5.718527830742299e-08 9.913677818203788e-02 1.113147235604048e-07 3.958344041699725e-02 3.251805596790151e-08 7.005265319428196e-07 1.138830451406325e-01 1.231022464618956e-01 2.002114202880028e-06 1.637818913270699e-06 6.969359687392329e-06 1.320690494342763e-05 2.213051731516144e-03 7.890618057640916e-09 1.290704432517346e-01 3.499585000677018e-02 3.145690985720713e-02 9.405941651938385e-02 8.989803022250188e-02 1.008172084887466e-02 1.517960014611274e-06 4.016085413247073e-02 8.143391998467556e-08 6.798023192310206e-02 2.964722768207970e-08 6.769041855860769e-03 5.602571368210033e-02 1.159127269892438e-01 1.022384196354221e-01 4.260941912981595e-02 7.765922666470721e-03 3.650998482506349e-02 2.081028322913387e-08 7.056185084022906e-02 2.353113337297193e-06 5.610067998263730e-09 1.758881820913691e-06 7.296611305212662e-07 1.097978479819215e-01 8.283142278831415e-03 1.658287508925922e-01 5.298251009537422e-02 1.227696398388691e-01 1.885694946595425e-02 3.302117718635823e-08 7.443461023308315e-02 3.222830661752213e-02 1.202562532617451e-01 2.103987317598780e-03 1.361610005351466e-03 7.567581975538299e-07 2.395421202955456e-06 2.045928185285376e-08 3.315390699077407e-03 1.717012694693009e-01 1.748413222456724e-01 1.335915413303316e-06 6.264864734854625e-02 9.822365329689853e-03 1.666449663501852e-01 7.618309484488067e-09 1.515625581075582e-06 1.743591130087889e-06 1.561117282555123e-01 1.606214858790485e-01 1.030936985815763e-08 2.128935949302022e-09 1.750501129773180e-02 7.352562100055730e-02 4.546211085667321e-07 4.327506642604468e-07 5.352961470028687e-02 9.197358015344861e-10 5.867275794131622e-07 5.253263774687958e-05 1.139690699962328e-08 1.616068828353201e-01 2.620318499881594e-10 1.345911164395164e-05 2.550368898797559e-06 1.748295090690025e-01 1.868147211824450e-01 1.913429338505320e-01 7.822308893333854e-02 7.566068358372041e-11 1.167786621632563e-04 1.913894141569947e-04 7.205804621527803e-09 1.080319157137610e-01 4.899335198149764e-02 1.404092579832568e-06 3.383846002678847e-06 1.652142150507317e-02 1.348144352252946e-02 1.710487365203735e-06 4.192804394507276e-07 6.336162303469759e-07 3.664587358141331e-09 1.071374775542304e-10 6.297069385389266e-09 1.238615850122261e-05 1.331177604750237e-07 3.586728842545698e-02 9.528771393221205e-02 1.319599900228064e-06 3.078685660463717e-06 7.169896104005086e-08 1.163563592777914e-01 3.485127810103617e-08 7.880308935696069e-02 8.840688154909247e-04 1.549125800238562e-07 3.989648702345621e-07 6.290489205169361e-02 1.716764657638823e-01 3.496741693866697e-06 6.838566997404204e-06 3.399751267128142e-06 1.504294066670885e-01 1.704766989059786