<?xml version="1.0"?>
<VTKFile type="UnstructuredGrid" version="0.1" byte_order="LittleEndian">
<UnstructuredGrid>
<Piece NumberOfPoints="714" NumberOfCells="1306">
<Points>
<DataArray type="Float64" NumberOfComponents="3" format="ascii">
0.000000000000000e+00 0.000000000000000e+00 0.000000000000000e+00 5.000000000000000e+00 0.000000000000000e+00 0.000000000000000e+00 5.000000000000000e+00 1.000000000000000e+00 0.000000000000000e+00 0.000000000000000e+00 1.000000000000000e+00 0.000000000000000e+00 9.999999999992801e-02 0.000000000000000e+00 0.000000000000000e+00 1.999999999998339e-01 0.000000000000000e+00 0.000000000000000e+00 2.999999999997341e-01 0.000000000000000e+00 0.000000000000000e+00 3.999999999996643e-01 0.000000000000000e+00 0.000000000000000e+00 4.999999999995944e-01 0.000000000000000e+00 0.000000000000000e+00 5.999999999995166e-01 0.000000000000000e+00 0.000000000000000e+00 6.999999999992880e-01 0.000000000000000e+00 0.000000000000000e+00 7.999999999989961e-01 0.000000000000000e+00 0.000000000000000e+00 8.999999999987042e-01 0.000000000000000e+00 0.000000000000000e+00 9.999999999984124e-01 0.000000000000000e+00 0.000000000000000e+00 1.099999999998120e+00 0.000000000000000e+00 0.000000000000000e+00 1.199999999997829e+00 0.000000000000000e+00 0.000000000000000e+00 1.299999999997537e+00 0.000000000000000e+00 0.000000000000000e+00 1.399999999997245e+00 0.000000000000000e+00 0.000000000000000e+00 1.499999999996953e+00 0.000000000000000e+00 0.000000000000000e+00 1.599999999996661e+00 0.000000000000000e+00 0.000000000000000e+00 1.699999999996369e+00 0.000000000000000e+00 0.000000000000000e+00 1.799999999996077e+00 0.000000000000000e+00 0.000000000000000e+00 1.899999999995785e+00 0.000000000000000e+00 0.000000000000000e+00 1.999999999995511e+00 0.000000000000000e+00 0.000000000000000e+00 2.099999999995593e+00 0.000000000000000e+00 0.000000000000000e+00 2.199999999995745e+00 0.000000000000000e+00 0.000000000000000e+00 2.299999999995897e+00 0.000000000000000e+00 0.000000000000000e+00 2.399999999996049e+00 0.000000000000000e+00 0.000000000000000e+00 2.499999999996201e+00 0.000000000000000e+00 0.000000000000000e+00 2.599999999996353e+00 0.000000000000000e+00 0.000000000000000e+00 2.699999999996505e+00 0.000000000000000e+00 0.000000000000000e+00 2.799999999996657e+00 0.000000000000000e+00 0.000000000000000e+00 2.899999999996809e+00 0.000000000000000e+00 0.000000000000000e+00 2.999999999996961e+00 0.000000000000000e+00 0.000000000000000e+00 3.099999999997114e+00 0.000000000000000e+00 0.000000000000000e+00 3.199999999997265e+00 0.000000000000000e+00 0.000000000000000e+00 3.299999999997417e+00 0.000000000000000e+00 0.000000000000000e+00 3.399999999997569e+00 0.000000000000000e+00 0.000000000000000e+00 3.499999999997721e+00 0.000000000000000e+00 0.000000000000000e+00 3.599999999997873e+00 0.000000000000000e+00 0.000000000000000e+00 3.699999999998025e+00 0.000000000000000e+00 0.000000000000000e+00 3.799999999998176e+00 0.000000000000000e+00 0.000000000000000e+00 3.899999999998329e+00 0.000000000000000e+00 0.000000000000000e+00 3.999999999998481e+00 0.000000000000000e+00 0.000000000000000e+00 4.099999999998633e+00 0.000000000000000e+00 0.000000000000000e+00 4.199999999998784e+00 0.000000000000000e+00 0.000000000000000e+00 4.299999999998937e+00 0.000000000000000e+00 0.000000000000000e+00 4.399999999999088e+00 0.000000000000000e+00 0.000000000000000e+00 4.499999999999240e+00 0.000000000000000e+00 0.000000000000000e+00 4.599999999999393e+00 0.000000000000000e+00 0.000000000000000e+00 4.699999999999545e+00 0.000000000000000e+00 0.000000000000000e+00 4.799999999999696e+00 0.000000000000000e+00 0.000000000000000e+00 4.899999999999848e+00 0.000000000000000e+00 0.000000000000000e+00 5.000000000000000e+00 9.999999999981467e-02 0.000000000000000e+00 5.000000000000000e+00 1.999999999995579e-01 0.000000000000000e+00 5.000000000000000e+00 2.999999999992664e-01 0.000000000000000e+00 5.000000000000000e+00 3.999999999989749e-01 0.000000000000000e+00 5.000000000000000e+00 4.999999999986943e-01 0.000000000000000e+00 5.000000000000000e+00 5.999999999989468e-01 0.000000000000000e+00 5.000000000000000e+00 6.999999999992100e-01 0.000000000000000e+00 5.000000000000000e+00 7.999999999994734e-01 0.000000000000000e+00 5.000000000000000e+00 8.999999999997368e-01 0.000000000000000e+00 4.899999999999999e+00 1.000000000000000e+00 0.000000000000000e+00 4.800000000000000e+00 1.000000000000000e+00 0.000000000000000e+00 4.699999999999999e+00 1.000000000000000e+00 0.000000000000000e+00 4.600000000000000e+00 1.000000000000000e+00 0.000000000000000e+00 4.499999999999999e+00 1.000000000000000e+00 0.000000000000000e+00 4.399999999999999e+00 1.000000000000000e+00 0.000000000000000e+00 4.299999999999999e+00 1.000000000000000e+00 0.000000000000000e+00 4.199999999999998e+00 1.000000000000000e+00 0.000000000000000e+00 4.099999999999999e+00 1.000000000000000e+00 0.000000000000000e+00 3.999999999999999e+00 1.000000000000000e+00 0.000000000000000e+00 3.899999999999999e+00 1.000000000000000e+00 0.000000000000000e+00 3.799999999999999e+00 1.000000000000000e+00 0.000000000000000e+00 3.699999999999998e+00 1.000000000000000e+00 0.000000000000000e+00 3.599999999999999e+00 1.000000000000000e+00 0.000000000000000e+00 3.499999999999999e+00 1.000000000000000e+00 0.000000000000000e+00 3.399999999999999e+00 1.000000000000000e+00 0.000000000000000e+00 3.299999999999999e+00 1.000000000000000e+00 0.000000000000000e+00 3.199999999999998e+00 1.000000000000000e+00 0.000000000000000e+00 3.099999999999999e+00 1.000000000000000e+00 0.000000000000000e+00 2.999999999999999e+00 1.000000000000000e+00 0.000000000000000e+00 2.899999999999999e+00 1.000000000000000e+00 0.000000000000000e+00 2.799999999999999e+00 1.000000000000000e+00 0.000000000000000e+00 2.699999999999999e+00 1.000000000000000e+00 0.000000000000000e+00 2.599999999999999e+00 1.000000000000000e+00 0.000000000000000e+00 2.500000000000000e+00 1.000000000000000e+00 0.000000000000000e+00 2.399999999999999e+00 1.000000000000000e+00 0.000000000000000e+00 2.299999999999999e+00 1.000000000000000e+00 0.000000000000000e+00 2.199999999999999e+00 1.000000000000000e+00 0.000000000000000e+00 2.100000000000000e+00 1.000000000000000e+00 0.000000000000000e+00 2.000000000000000e+00 1.000000000000000e+00 0.000000000000000e+00 1.899999999999999e+00 1.000000000000000e+00 0.000000000000000e+00 1.799999999999999e+00 1.000000000000000e+00 0.000000000000000e+00 1.699999999999999e+00 1.000000000000000e+00 0.000000000000000e+00 1.599999999999999e+00 1.000000000000000e+00 0.000000000000000e+00 1.500000000000000e+00 1.000000000000000e+00 0.000000000000000e+00 1.399999999999999e+00 1.000000000000000e+00 0.000000000000000e+00 1.299999999999999e+00 1.000000000000000e+00 0.000000000000000e+00 1.199999999999999e+00 1.000000000000000e+00 0.000000000000000e+00 1.100000000000000e+00 1.000000000000000e+00 0.000000000000000e+00 9.999999999999991e-01 1.000000000000000e+00 0.000000000000000e+00 8.999999999999995e-01 1.000000000000000e+00 0.000000000000000e+00 7.999999999999998e-01 1.000000000000000e+00 0.000000000000000e+00 7.000000000000002e-01 1.000000000000000e+00 0.000000000000000e+00 5.999999999999996e-01 1.000000000000000e+00 0.000000000000000e+00 4.999999999999991e-01 1.000000000000000e+00 0.000000000000000e+00 3.999999999999995e-01 1.000000000000000e+00 0.000000000000000e+00 3.000000000000007e-01 1.000000000000000e+00 0.000000000000000e+00 1.999999999999993e-01 1.000000000000000e+00 0.000000000000000e+00 9.999999999999964e-02 1.000000000000000e+00 0.000000000000000e+00 0.000000000000000e+00 8.999999999995836e-01 0.000000000000000e+00 0.000000000000000e+00 7.999999999999998e-01 0.000000000000000e+00 0.000000000000000e+00 7.000000000006934e-01 0.000000000000000e+00 0.000000000000000e+00 6.000000000013869e-01 0.000000000000000e+00 0.000000000000000e+00 5.000000000020587e-01 0.000000000000000e+00 0.000000000000000e+00 4.000000000016644e-01 0.000000000000000e+00 0.000000000000000e+00 3.000000000012483e-01 0.000000000000000e+00 0.000000000000000e+00 2.000000000008322e-01 0.000000000000000e+00 0.000000000000000e+00 1.000000000004160e-01 0.000000000000000e+00 7.477570327540725e-01 4.905967956478702e-01 0.000000000000000e+00 1.346210646643281e+00 4.806066422083806e-01 0.000000000000000e+00 1.949496869330408e+00 5.032480558805372e-01 0.000000000000000e+00 4.449999999999997e+00 5.000000000000384e-01 0.000000000000000e+00 3.859142349610828e+00 5.103468031113156e-01 0.000000000000000e+00 3.246530027037640e+00 5.183101712757180e-01 0.000000000000000e+00 2.657531292711257e+00 5.037429884868682e-01 0.000000000000000e+00 3.824015840967434e-01 6.064457502813875e-01 0.000000000000000e+00 2.306343155343502e+00 6.315316747431162e-01 0.000000000000000e+00 1.049999999998266e+00 3.374999999994497e-01 0.000000000000000e+00 1.641930697057102e+00 3.436055112169133e-01 0.000000000000000e+00 4.150000000000006e+00 6.625000000000185e-01 0.000000000000000e+00 3.552784161359181e+00 6.642488388863971e-01 0.000000000000000e+00 2.940292465243163e+00 6.575992780735344e-01 0.000000000000000e+00 1.641237689750194e+00 6.703960699373966e-01 0.000000000000000e+00 1.050000000000000e+00 6.706367924525535e-01 0.000000000000000e+00 2.960517759676693e+00 3.261740577967960e-01 0.000000000000000e+00 3.551899302943298e+00 3.210887133285832e-01 0.000000000000000e+00 4.150779393876139e+00 3.209867287821391e-01 0.000000000000000e+00 2.213980362532827e+00 3.194901812685164e-01 0.000000000000000e+00 4.927283029162088e-01 3.252862896001115e-01 0.000000000000000e+00 4.696684455724628e+00 3.145438084075651e-01 0.000000000000000e+00 4.690990908683984e+00 6.962960281446974e-01 0.000000000000000e+00 2.487221901830106e+00 2.763334294511438e-01 0.000000000000000e+00 6.215262983536076e-01 7.328515730233995e-01 0.000000000000000e+00 2.065768881873406e+00 7.342557316219342e-01 0.000000000000000e+00 2.543072460766750e+00 7.257064952909391e-01 0.000000000000000e+00 8.105176211436336e-01 2.535517621144286e-01 0.0000000000000
[...]
<CellData Scalars="A_conc,As-lin_conc,B_conc,Bs-lang_conc,C_conc,Cs-freund_conc," Vectors="" Tensors="">
<DataArray type="Float64" Name="A_conc" format="ascii">
3.110034328066855e-07 1.528365463276032e-01 1.247222394320186e-06 5.871220303445681e-07 1.214238841603555e-01 7.866815583618826e-03 9.969120230830049e-03 8.610146419765329e-02 1.446907594422583e-01 6.025947675808457e-07 4.706175303711605e-06 4.961866975277914e-08 1.917676097916102e-07 1.108375015558414e-05 1.475021587780849e-06 3.204932438923443e-07 1.505468223741129e-06 1.550056157489091e-06 3.040851920831648e-03 1.006542573938587e-06 5.219478006390457e-09 1.905763865144155e-07 5.184256780215915e-08 4.827311167517223e-08 6.081797971654196e-07 2.795012753949300e-08 1.809850911570504e-07 1.122847184439504e-01 8.655054681146765e-07 1.436533634994700e-06 7.748808275558811e-08 9.004534170318986e-07 6.499384353600410e-09 1.968654484153847e-11 3.945341743907569e-03 1.361418356223863e-01 1.853093364482139e-08 1.712169729110376e-08 3.828036190496123e-08 1.247435185037545e-01 2.752543265832347e-05 2.227708411036382e-07 3.882256870703640e-12 1.368614328126887e-12 2.469962382193067e-09 8.191924915987832e-03 1.661227827909283e-06 4.659721676990029e-02 2.884571459465793e-03 6.118135948537784e-03 1.439176495108379e-01 4.299569598577054e-07 2.272441415529019e-05 1.316154395543457e-01 1.416068814307688e-01 1.594554390804561e-01 8.611886931736955e-09 8.292433140817798e-02 1.073481053600773e-01 1.535702535859563e-06 2.539552154859003e-04 8.456190682247340e-02 2.572126527710395e-02 1.768729359686131e-10 1.029971496699750e-09 1.379471618271770e-02 4.548578014195041e-02 2.187877232388418e-09 1.497246895448887e-01 1.031022453014845e-01 4.032173201871028e-09 2.612255601560427e-08 3.010078798680738e-08 1.625746188311065e-06 5.156516965336121e-02 4.320416282976827e-03 1.567553277355917e-07 8.370129685601847e-03 6.077767488490913e-02 1.533712877437187e-09 2.046708762467252e-07 3.968038345477103e-03 1.073536960126520e-08 6.064390414576343e-05 3.388210965969889e-02 1.639560002068351e-07 6.137576002101913e-03 5.599877032478486e-02 1.768874424677811e-07 1.894676938087159e-09 1.041287946489260e-03 3.487045920898574e-02 9.547311409585478e-02 2.957420499918174e-02 5.442510877642907e-03 9.827299136848413e-07 2.884081922603834e-02 8.728507900539999e-02 4.578879251767723e-07 1.072847180838366e-01 1.304312660600663e-12 2.040463776734319e-07 2.108915645155182e-07 3.010947736387946e-02 1.175637049274351e-07 5.377391058147676e-02 1.298495846724694e-06 1.143249695869953e-01 1.117582606155391e-07 5.838215874253061e-02 1.841235159785969e-09 3.447493527138596e-07 3.256169211973716e-07 9.117823384322900e-09 8.082620505991964e-07 9.026365891363355e-02 1.481039506868737e-06 1.908186142479868e-08 6.054051507252378e-10 1.120210206921167e-01 6.522994748423709e-10 1.261849205952571e-07 6.556499022643739e-08 5.411178551929168e-07 1.087758684509836e-01 6.962350578645465e-09 3.275110611152579e-06 1.899153230791420e-07 9.426772654312501e-02 6.954559909438143e-02 4.826007746850295e-03 2.704782174198434e-09 6.180287331928497e-02 7.388581552192675e-02 1.659587624057629e-02 2.319390731239467e-09 1.551453022642952e-06 1.566038108558612e-01 4.233133696602370e-02 1.468954256835306e-02 2.100504462987047e-08 1.075884261935701e-01 4.240075749808291e-07 2.617088702319266e-11 5.192598555238627e-04 3.216465819425286e-04 5.378247166471105e-02 1.011620066120435e-08 8.111642577287029e-03 5.823038638301001e-02 9.739527982008615e-09 6.655157004851865e-03 1.760174718033634e-02 3.993157063851092e-02 4.619743513425775e-10 2.296220487152163e-04 4.816572897616725e-08 9.524838842757023e-02 3.660795953129951e-08 1.469612553031777e-04 1.743167714918140e-06 6.781147982032458e-02 2.486082892915163e-08 1.953748023819736e-07 3.557532070554335e-12 4.884593450552160e-07 4.137305761949553e-07 2.095355049738918e-10 1.098952529586846e-10 1.707009563796800e-04 5.609669090157437e-07 1.082098997258730e-07 3.553368871593211e-04 1.923638760265478e-04 5.057561448274609e-09 2.328410198462135e-02 8.183952575681533e-02 2.171247800444629e-07 5.889365957300136e-11 6.398038503475432e-10 2.753655180938154e-02 8.658380235489722e-02 1.278339319229808e-01 7.253916834034782e-10 2.511176807332274e-11 6.707791338233929e-08 2.376657113172538e-07 7.563074957229435e-10 1.560778839427795e-06 1.500158466806315e-08 3.127966646615624e-08 1.810884673422469e-07 1.366952975730175e-06 8.020638106857927e-07 4.258423306928875e-07 1.669450607121663e-08 5.988262659014924e-07 4.603128222444086e-07 5.458165606347266e-10 1.762386969341252e-09 3.966725903802935e-07 2.466873021841494e-11 1.696565289584741e-01 1.787348071122860e-09 2.121217311161182e-02 7.981789758635735e-02 1.142258645339789e-11 1.098310516215545e-08 9.396291783640093e-07 1.345287611193940e-01 4.779062153817886e-09 5.028083654419423e-07 1.384309323328235e-02 3.699573748334014e-07 1.823317078184579e-06 3.636798390456663e-11 5.150324266756400e-07 1.209836725073685e-11 1.069125955293787e-06 3.759489221060025e-03 2.737228109882856e-03 1.176050746513177e-01 1.543277308484274e-08 2.439277347333613e-09 8.550287120157726e-09 1.644139675824871e-01 5.716244249652210e-07 5.408042196420147e-08 3.927320240245269e-05 2.606141522229180e-08 2.868536518976068e-08 4.054458617919416e-07 6.576735594742556e-07 1.042861910539734e-07 1.964406405066429e-02 3.745164900531216e-02 4.768511066273060e-02 1.225906448892965e-02 5.098756346809227e-07 8.149732623365975e-05 5.287341753853127e-02 2.458145369739851e-08 9.063695310113948e-03 2.127485974711107e-11 5.774348028074836e-04 3.000538100668214e-02 8.994142949699560e-02 9.311349553346383e-05 1.954732123105081e-06 4.998864499292271e-05 1.639207437059866e-10 1.151039447615168e-09 4.634506795449125e-04 3.062250318905500e-02 8.956272787771809e-02 8.963895204806795e-02 9.168245241443592e-07 7.407368839132342e-11 1.411747153266961e-06 2.172797588400976e-05 1.935322478829307e-09 3.409410426466895e-09 3.754422373956530e-02 3.347624795096325e-02 9.926731029498753e-08 1.395517597582695e-06 2.464955062470589e-07 9.499783243767327e-07 3.278000090777738e-09 6.099145858828846e-05 1.984544019227213e-10 2.897882079117015e-09 5.867092082131491e-02 6.623914911590064e-03 1.011021200180148e-05 1.011340739642328e-06 1.605606371886643e-06 1.143432727056790e-06 1.747894058124209e-07 1.857161035417443e-07 8.463697122680187e-10 6.558321124256797e-02 5.673078361809213e-11 1.882943461749636e-06 1.135424936235402e-01 6.412676823952888e-08 1.454896356735793e-07 4.349033672271338e-08 1.752618397524250e-02 4.075196352520032e-02 4.845695401846606e-09 1.786398702627016e-10 9.008242441583911e-10 9.420263505889923e-10 2.180144244557835e-03 3.661915497542033e-09 5.978512324705777e-09 1.552118578593873e-06 4.799453783733039e-05 1.894259994275664e-10 9.637128722725265e-04 2.854781139723393e-10 3.462900547591433e-02 9.418242863949002e-02 4.747575444183565e-08 1.536489187797389e-06 1.495518779598252e-06 1.096571009905367e-01 3.832656475767799e-02 1.389827172721017e-03 4.273915371685352e-02 2.013453861409636e-03 1.223335228089849e-04 2.064188640890553e-08 2.378435859441832e-04 7.787826333984757e-08 2.078830772396687e-09 6.527479969415102e-09 1.448197422744006e-01 8.308412902378673e-02 7.933598826601818e-02 1.736544425351582e-08 1.835419028403102e-08 3.050395057489109e-07 9.584732991632281e-10 3.094940335833814e-02 2.638952560716730e-02 1.098957004057696e-07 9.927596220409591e-04 8.688666673655822e-07 1.572847371406041e-01 1.547227095486989e-01 1.552164872358468e-01 1.570099126226196e-01 1.050405360015380e-01 9.971149945913426e-07 9.165701599488459e-07 4.658258881492854e-09 1.961580319308134e-02 3.100234427222754e-10 7.384591877910514e-12 6.870240623746257e-07 1.971289233259386e-06 1.297004974402195e-01 7.725093732391299e-06 1.152877969440142e-06 4.367154959900253e-10 1.624988300546322e-05 3.827157418244184e-07 1.455381535493360e-08 1.661225997205142e-01 7.501668610677139e-07 1.891016366156599e-07 5.715375125546947e-13 2.022150085350461e-06 8.756875903208393e-02 5.441424640458895e-09 8.746123399290250e-09 5.127708923714824e-07 1.465618533386924e-08 1.728655077686745e-06 2.442096124938575e-11 1.682533046078734e-06 7.281027487424653e-02 8.148054954896932e-07 7.441018649428832e-02 5.164221409314065e-09 3.581346005107483e-02 2.149360781096601e-02 1.484750817157744e-01 1.700216895568157e-01 1.700216921444747e-01 1.196570996406335e-01 1.190032439667448e-01 6.871507274620337e-04 4.777791242561147e-09 9.369014699103878e-02 2.364531577243764e-09 8.177924491830318e-02 3.657733921872732e-10 1.477777590539104e-01 1.363039498852554e-06 3.457449843362418e-07 4.339583074624895e-02 2.248418676791841e-03 4.314942511329908e-08 1.077796414473194e-08 2.902810724331578e-10 3.986553644181112e-10 1.179717216746120e-01 1.467609742550568e-01 3.504892847833357e-11 1.057397273416197e-07 2.585648770037583e-06 8.171666447052073e-09 1.418665857384975e-06 8.300394855537292e-07 6.398470827293032e-02 5.823331946418815e-02 6.613908719324084e-08 3.998820475414837e-04 1.409228377860200e-01 1.075175288397360e-06 8.715840590329711e-07 6.255463401662725e-07 7.717473962709102e-07 7.347901016929308e-08 8.443192519151686e-03 1.321113388909153e-01 6.118623025936041e-02 1.168008591398278e-04 1.697574395885932e-01 1.318427799860833e-04 1.957005532606575e-07 7.687925493947724e-02 1.432165177015661e-01 1.067821680376037e-07 1.732893739481211e-07 2.274097151791692e-02 3.748752403713949e-12 2.047117841335272e-08 6.578131138711628e-03 5.710889106156405e-02 1.086919762770243e-01 2.341768255119225e-09 5.188068272891932e-08 2.663195602166224e-09 1.685958510073849e-09 2.530539040609704e-03 4.396402606189255e-02 1.052997712520510e-01 3.898963012363486e-07 1.803470931647848e-09 1.723254284415799e-03 4.053950603520872e-02 1.013916060860343e-01 4.529250873529610e-07 5.050062938289238e-10 3.516339319092453e-02 2.163527019849830e-02 3.121156723000353e-04 2.380143487616860e-02 3.368434326562942e-02 7.008526600401840e-02 1.354526801912684e-02 7.917905445879526e-02 2.058304271889710e-02 3.003536036271762e-07 1.786031420499764e-06 1.619631153260935e-01 8.512342780306817e-07 7.223768508363238e-08 1.112912421819877e-02 1.579490108092082e-01 6.508677128150012e-02 1.036581744827254e-02 1.047703154239727e-04 8.792808231036994e-08 1.942981312154321e-10 5.749882888685943e-10 1.283211145978901e-01 1.441359055995297e-01 1.681412687838521e-06 9.382512901165196e-08 1.065269749552685e-06 5.656562050296686e-07 1.585625846355158e-01 1.551586874478532e-01 1.872606356727684e-07 8.105754246906960e-02 2.384106284606027e-05 2.623681113698006e-05 2.148215883053379e-04 1.420117694155556e-01 1.363743342755761e-01 1.404459092500585e-01 2.770712732278081e-07 1.204370927688342e-07 1.592935235215123e-08 1.156734558467329e-07 1.049798366134201e-01 1.091502828759026e-07 1.197147834900470e-01 2.402396702283657e-02 2.007970836621820e-09 2.293974190666031e-11 9.256874157888853e-02 2.911494949019529e-02 2.460768020124775e-02 5.119186468975832e-07 6.225374403535908e-02 1.548070193244130e-01 1.239232326498105e-01 7.532473059882688e-02 8.514173318368914e-02 2.561875232617527e-02 3.739406266321510e-06 1.134406293936635e-01 1.463718835727136e-03 1.246070137879047e-01 5.010276090840540e-09 5.983230599149235e-07 6.207207023389020e-07 6.048091263377517e-02 8.332965497822425e-03 4.231670118131965e-02 1.617108315139168e-02 6.958753060336046e-08 5.187273840073932e-09 3.757285081869032e-11 1.146571013833773e-01 1.262987492054565e-06 1.778144521632549e-07 1.350495403304640e-06 4.182059351163734e-09 3.988864774500363e-07 7.092561117005010e-02 1.027889105160016e-01 1.255747345633083e-01 1.270498158013620e-01 9.456986544650434e-07 1.877499832706168e-06 7.367077975978358e-10 5.517063442047326e-10 1.332362632048964e-01 1.172089766771585e-01 1.774462650187072e-07 8.480485871120047e-02 3.157287384015231e-04 1.363522508407580e-01 5.702761401904486e-04 4.854720878340678e-07 1.210353734574762e-01 9.349588514046141e-02 1.000826845844109e-05 7.478327939885096e-03 5.384434195197390e-05 7.869216761815073e-07 3.809172440673031e-07 1.142892046826705e-01 5.672102906834229e-03 9.511167782037103e-02 8.705505312663322e-11 3.524354168655749e-02 9.573274402856567e-04 2.450486797939513e-09 2.644231090079711e-11 1.235222733471008e-01 3.234226747897283e-05 7.540619812621565e-07 2.117936501954586e-06 5.018587162111489e-08 1.682323897314520e-08 6.210495876841830e-02 9.038075955081470e-03 9.743407884106438e-07 1.083699907462374e-01 1.384240047312854e-01 1.385156795964342e-06 1.220278398885061e-06 1.485264043734171e-08 7.568161711845507e-08 3.688121900145499e-08 2.541964674940493e-03 4.564060444980254e-02 7.340499157542946e-08 7.222367803733314e-02 1.861579624564238e-06 1.500229391791331e-01 1.320671606797623e-06 1.169677599557008e-07 1.285638321616839e-01 1.258521598896987e-01 9.129089511482662e-09 1.099628407740075e-01 1.129155037640009e-01 5.738992792474981e-10 1.557847184145237e-04 3.446079803526581e-02 2.481206579419360e-07 1.007013807499779e-05 1.484976882302783e-01 1.444015889294337e-01 8.945285727814187e-08 4.785356739980945e-08 2.405662125575152e-02 4.584930297321485e-08 8.496655211976685e-06 2.178789508546260e-08 9.901125225509724e-02 9.344932442620407e-09 5.660292270829470e-09 6.610113734751377e-02 5.382198603718008e-09 6.924267613170504e-02 1.581279334364507e-01 1.539784074726761e-01 4.503229412038919e-08 6.367096286982893e-03 1.977037283321431e-06 2.771436540971136e-09 1.768680777311140e-08 5.592049944562819e-02 2.041206729357670e-06 6.012518343031197e-03 1.476746749638859e-01 3.328131247308690e-11 7.459600903382914e-09 5.433851506132803e-09 3.140461506289577e-06 1.090553357596621e-07 1.954634779974166e-06 4.227100244124329e-09 1.159290266411030e-07 1.131365652401078e-01 1.270846239991214e-07 5.321650034314246e-08 4.083639974864659e-09 1.128453897866517e-03 2.565486076330345e-09 7.915038977499131e-02 1.796676430772042e-05 6.539930575811411e-10 8.685641837127946e-07 9.877238396246227e-02 3.896095845463960e-10 7.165034946020240e-08 2.452565050176180e-08 1.732308505709878e-06 7.791017187468338e-07 8.336950983398519e-02 7.968314811922102e-02 1.841653317607091e-09 8.026213279963358e-12 5.678625447415372e-02 3.519096873014302e-07 4.547550199686812e-09 2.562168930900200e-02 3.559608042230257e-08 3.553639975375157e-03 4.902845917792881e-02 5.882924877732499e-08 6.780899736232042e-08 4.097096498711126e-08 5.203763259872698e-02 1.001659737710697e-02 6.762343829725041e-10 1.295210521050573e-05 2.209747481884241e-08 5.753580022843781e-08 7.418863666512256e-07 1.233729807929688e-01 2.640620239866844e-06 7.126252168269191e-08 6.091275859829942e-02 8.343045991949440e-03 5.773325586461517e-07 1.009636381391709e-01 9.809829049098415e-02 6.710039069283622e-08 5.492240315363302e-08 8.643463079650140e-02 8.237833109330086e-07 9.530606841534442e-09 1.581216614734497e-08 9.208490437534710e-09 6.880878707911523e-09 4.775201294314599e-05 1.975991836221096e-08 1.186324241152333e-08 5.501058635986837e-07 9.016317934487451e-02 8.697987931486111e-02 4.160406428765274e-04 8.803293772064368e-09 9.362326529737114e-09 1.026485424279997e-09 4.202958785797447e-06 1.422933046526661e-03 3.802700122843086e-11 6.207040989255864e-09 1.953881130187316e-09 3.904423876033321e-02 1.804814723378574e-06 6.081677291986836e-05 1.332303559134894e-01 9.823969256344502e-07 1.667705468484867e-01 1.661831597070417e-01 2.836682308432408e-07 1.998892997240421e-06 2.135006143959028e-02 1.826744697035132e-02 6.390325385749941e-04 3.485233482468444e-07 1.459862430068339e-07 4.920161389829740e-03 2.160780177316698e-08 5.330416443444757e-02 5.155977042167744e-06 1.031185910330199e-01 3.583451306599078e-10 1.622199050055190e-01 1.664877599704369e-01 1.666071846087336e-01 1.623437046911554e-01 1.608052973611457e-01 1.614084300288114e-01 8.575002394632482e-08 5.182108228547773e-02 8.459391424793332e-04 7.150308595568707e-04 3.745018945784373e-08 5.136582486948554e-08 1.129987661204681e-06 2.291185539303676e-08 1.284077721696661e-01 1.375958122769919e-07 5.872034481067519e-07 3.677276397256527e-07 3.802548357596097e-07 4.827871861540459e-02 1.271968620409019e-02 2.300882592663474e-06 7.017399126810647e-07 1.001169172335918e-07 1.013502570935199e-05 4.815739061408936e-09 7.222541641950235e-07 1.016626711955115e-08 2.562471617060943e-09 2.113161648707841e-03 7.008783770463918e-02 1.541735491583635e-08 1.389704840588813e-02 5.201296054523373e-07 4.276370729846266e-08 4.522860328599682e-09 1.549490753607345e-07 2.012134766530505e-06 4.163409000447876e-02 1.770154474057357e-07 3.076468865457313e-08 2.256517605896123e-03 1.735967285471710e-03 9.351475825064263e-10 7.036913399776093e-02 2.280581277769299e-08 7.800047486687445e-07 7.318429766422201e-04 1.711925919935221e-01 1.711925929360591e-01 7.642981802047535e-09 1.039580639748137e-01 2.730142466443508e-03 3.261151195042955e-07 5.559869845851863e-07 5.901883074040418e-02 2.801861188786688e-08 6.401001935894876e-03 2.239369665630826e-06 1.804782425870561e-02 1.662142813779143e-01 1.662142842073560e-01 4.821891084802528e-02 1.282953433268451e-01 1.237667154267476e-01 1.117590107224513e-01 9.174580010782491e-07 4.028929578234700e-09 1.368940302126219e-01 1.325277667128695e-01 5.485756338309902e-08 3.115823613422245e-09 4.406209245070782e-07 2.914550497529709e-09 2.242622597887611e-09 1.268118028470697e-01 1.170854230279774e-03 1.615386262844073e-01 1.616184439884030e-01 8.754741035047257e-09 4.608183439881637e-08 7.413719704299578e-02 8.604662845283685e-08 1.701745328670473e-02 2.085573319417109e-08 5.519314313280420e-07 8.888306059726805e-02 9.810224743287774e-02 1.702586093485394e-06 1.403515562049100e-06 5.847574296040895e-09 1.680552511123008e-08 9.490104354560602e-05 6.251913406922449e-09 1.040704435065527e-01 1.346467391362823e-02 1.098227853665265e-02 6.906032422200568e-02 6.490006381629382e-02 1.367842776322861e-03 1.286439192374677e-06 1.733413289059387e-02 6.506134788036989e-08 4.306411928145735e-02 2.381466890302112e-08 6.305962293218579e-04 3.150539891239554e-02 9.091273736547177e-02 7.723865962820356e-02 1.949946269538243e-02 8.526358752012542e-04 1.452998774098102e-02 1.622912906267276e-08 4.561256181922573e-02 1.873270832731549e-06 2.684004308656297e-09 1.403941739316005e-06 5.805947151346526e-07 8.479788629155849e-02 9.246784703093349e-04 1.408287508925950e-01 2.863720765026105e-02 9.776964120656374e-02 4.181248948949981e-03 2.575654108941643e-08 4.946259931805438e-02 1.147235478588108e-02 9.525625574858765e-02 8.455600282246499e-05 4.064691291870270e-05 5.728845147829175e-07 1.946771280385372e-06 1.450039844359901e-08 1.707196048419307e-04 1.467012694692939e-01 1.498413222456657e-01 4.505655914943938e-07 3.784415931704616e-02 1.240593952989732e-03 1.416449663501790e-01 3.588235931554644e-09 1.127939411989648e-06 1.316016392923319e-06 1.311117282555320e-01 1.356214858790488e-01 8.475456030378074e-09 1.581357270445567e-09 3.737735019583647e-03 4.857196581090927e-02 3.200073316162196e-07 3.013659290222455e-07 2.913176179385416e-02 7.011516151315466e-10 1.752774186282184e-10 2.413105204585637e-07 3.178326183175936e-13 1.366068828353164e-01 1.554314022622038e-10 2.181878917579175e-08 2.022024781531924e-06 1.498295090690039e-01 1.618147211824361e-01 1.663429338505250e-01 5.324763266920322e-02 5.374958396812076e-11 6.432599078587107e-07 1.461199355552889e-06 4.212044932937607e-09 8.303198137975296e-02 2.500515106194526e-02 1.117704432972858e-06 2.769329745172298e-06 3.213601826658764e-03 2.170684514152814e-03 1.367534983236758e-06 2.979403349040220e-07 5.310302998269336e-07 2.322509217637953e-09 6.843437542812409e-11 4.066835044880595e-09 1.537568470264242e-08 1.038649160823672e-07 1.415561964130659e-02 7.028858649428811e-02 6.109909066497353e-10 2.281349547944593e-09 5.214260309541035e-08 9.135636765675201e-02 1.798408593892916e-12 5.382452313869576e-02 1.969967699401378e-05 2.485950775385301e-11 1.023388701234521e-10 3.809749628414378e-02 1.466764657638764e-01 2.430772111268302e-09 7.158366606480656e-09 2.821730174470812e-06 1.254294066672599e-01 1.454766989059778