<?xml version="1.0"?>
<VTKFile type="UnstructuredGrid" version="0.1" byte_order="LittleEndian">
<UnstructuredGrid>
<Piece NumberOfPoints="8" NumberOfCells="9">
<Points>
<DataArray type="Float64" NumberOfComponents="3" format="ascii">
1.0000000000 1.0000000000 1.0000000000 -1.0000000000 1.0000000000 1.0000000000 -1.0000000000 -1.0000000000 1.0000000000 1.0000000000 -1.0000000000 1.0000000000 1.0000000000 -1.0000000000 -1.0000000000 -1.0000000000 -1.0000000000 -1.0000000000 1.0000000000 1.0000000000 -1.0000000000 -1.0000000000 1.0000000000 -1.0000000000 
</DataArray>
</Points>
<Cells>
<DataArray type="UInt32" Name="connectivity" format="ascii">
6 2 5 2 6 2 0 6 2 6 0 1 2 6 1 7 2 6 7 5 2 6 5 4 2 6 4 3 2 6 3 0 
</DataArray>
<DataArray type="UInt32" Name="offsets" format="ascii">
2 5 8 12 16 20 24 28 32 
</DataArray>
<DataArray type="UInt32" Name="types" format="ascii">
3 5 5 10 10 10 10 10 10 
</DataArray>
</Cells>
<CellData Scalars="scalar_field," Vectors="vector_field," Tensors="tensor_field,">
<DataArray type="Float64" Name="scalar_field" format="ascii">
0.1000000000 0.2000000000 0.3000000000 0.4000000000 0.5000000000 0.6000000000 0.7000000000 0.8000000000 0.9000000000 
</DataArray>
<DataArray type="Float64" Name="vector_field" NumberOfComponents="3" format="ascii">
0.5000000000 1.0000000000 1.5000000000 0.5000000000 1.0000000000 1.5000000000 0.5000000000 1.0000000000 1.5000000000 0.5000000000 1.0000000000 1.5000000000 0.5000000000 1.0000000000 1.5000000000 0.5000000000 1.0000000000 1.5000000000 0.5000000000 1.0000000000 1.5000000000 0.5000000000 1.0000000000 1.5000000000 0.5000000000 1.0000000000 1.5000000000 
</DataArray>
<DataArray type="Float64" Name="tensor_field" NumberOfComponents="9" format="ascii">
1.0000000000 2.0000000000 3.0000000000 4.0000000000 5.0000000000 6.0000000000 7.0000000000 8.0000000000 9.0000000000 1.0000000000 2.0000000000 3.0000000000 4.0000000000 5.0000000000 6.0000000000 7.0000000000 8.0000000000 9.0000000000 1.0000000000 2.0000000000 3.0000000000 4.0000000000 5.0000000000 6.0000000000 7.0000000000 8.0000000000 9.0000000000 1.0000000000 2.0000000000 3.0000000000 4.0000000000 5.0000000000 6.0000000000 7.0000000000 8.0000000000 9.0000000000 1.0000000000 2.0000000000 3.0000000000 4.0000000000 5.0000000000 6.0000000000 7.0000000000 8.0000000000 9.0000000000 1.0000000000 2.0000000000 3.0000000000 4.0000000000 5.0000000000 6.0000000000 7.0000000000 8.0000000000 9.0000000000 1.0000000000 2.0000000000 3.0000000000 4.0000000000 5.0000000000 6.0000000000 7.0000000000 8.0000000000 9.0000000000 1.0000000000 2.0000000000 3.0000000000 4.0000000000 5.0000000000 6.0000000000 7.0000000000 8.0000000000 9.0000000000 1.0000000000 2.0000000000 3.0000000000 4.0000000000 5.0000000000 6.0000000000 7.0000000000 8.0000000000 9.0000000000 
</DataArray>
</CellData>
</Piece>
</UnstructuredGrid>
</VTKFile>
