<?xml version="1.0"?>
<VTKFile type="UnstructuredGrid" version="0.1" byte_order="LittleEndian">
<UnstructuredGrid>
<Piece NumberOfPoints="3936" NumberOfCells="1312">
<Points>
<DataArray type="Float64" NumberOfComponents="3" format="ascii">
1.596960722321268e-01 1.512891596559610e-01 0.000000000000000e+00 1.538772702503874e-01 1.730357200295832e-01 0.000000000000000e+00 1.732635734975248e-01 1.609679682023882e-01 0.000000000000000e+00 1.064380311718004e-01 5.164912629334695e-02 0.000000000000000e+00 1.242922651370205e-01 3.680544083986002e-02 0.000000000000000e+00 1.036257253633239e-01 3.516477621236788e-02 0.000000000000000e+00 8.935857358878072e-01 1.481712934406572e-01 0.000000000000000e+00 8.758423293539414e-01 1.630244973849654e-01 0.000000000000000e+00 8.978465427176300e-01 1.633837267263896e-01 0.000000000000000e+00 9.399999999998420e-01 2.000000000000000e-01 0.000000000000000e+00 9.553115045396666e-01 1.780569309881899e-01 0.000000000000000e+00 9.369227898394545e-01 1.762147656803271e-01 0.000000000000000e+00 6.307721016047593e-02 2.378523431966317e-02 0.000000000000000e+00 6.000000000024963e-02 0.000000000000000e+00 0.000000000000000e+00 4.468849546026737e-02 2.194306901177765e-02 0.000000000000000e+00 2.600000000010819e-01 0.000000000000000e+00 0.000000000000000e+00 2.489875950281580e-01 1.947888925260758e-02 0.000000000000000e+00 2.653594998152289e-01 2.324115434267355e-02 0.000000000000000e+00 7.399999999993154e-01 2.000000000000000e-01 0.000000000000000e+00 7.510697634087888e-01 1.805123081223598e-01 0.000000000000000e+00 7.350857973745278e-01 1.766910687608624e-01 0.000000000000000e+00 5.201250876905861e-01 7.408886901758996e-02 0.000000000000000e+00 5.122698858694432e-01 5.899153183853550e-02 0.000000000000000e+00 4.970337764350943e-01 7.759514651121029e-02 0.000000000000000e+00 2.600000000010819e-01 0.000000000000000e+00 0.000000000000000e+00 2.653594998152289e-01 2.324115434267355e-02 0.000000000000000e+00 2.773236146781471e-01 1.559213644225829e-02 0.000000000000000e+00 7.399999999993154e-01 2.000000000000000e-01 0.000000000000000e+00 7.350857973745278e-01 1.766910687608624e-01 0.000000000000000e+00 7.227042624772649e-01 1.844175020658887e-01 0.000000000000000e+00 5.308382628725162e-01 1.646932875936359e-01 0.000000000000000e+00 5.491188819172320e-01 1.546922384089127e-01 0.000000000000000e+00 5.346881068224020e-01 1.403044804779868e-01 0.000000000000000e+00 6.328118183038082e-01 2.197120878540176e-02 0.000000000000000e+00 6.400000000011098e-01 0.000000000000000e+00 0.000000000000000e+00 6.176702438179666e-01 1.592985568903049e-02 0.000000000000000e+00 5.600000000016645e-01 0.000000000000000e+00 0.000000000000000e+00 5.438859538641236e-01 1.597969195755447e-02 0.000000000000000e+00 5.595968719586591e-01 2.665383248695479e-02 0.000000000000000e+00 7.899999999994464e-01 1.341273584904376e-01 0.000000000000000e+00 7.877985976960419e-01 1.123754574808374e-01 0.000000000000000e+00 7.678854030153370e-01 1.203106094940291e-01 0.000000000000000e+00 2.100000000008737e-01 6.587264150949594e-02 0.000000000000000e+00 2.122014023040819e-01 8.762454251905025e-02 0.000000000000000e+00 2.321153073294872e-01 7.968968478583290e-02 0.000000000000000e+00 5.308382628725162e-01 1.646932875936359e-01 0.000000000000000e+00 5.346881068224020e-01 1.403044804779868e-01 0.000000000000000e+00 5.191237796518081e-01 1.475314601579543e-01 0.000000000000000e+00 4.970337764350943e-01 7.759514651121029e-02 0.000000000000000e+00 5.122698858694432e-01 5.899153183853550e-02 0.000000000000000e+00 4.929248511468742e-01 6.155890541929385e-02 0.000000000000000e+00 1.247279018671028e-01 5.340627577157196e-02 0.000000000000000e+00 1.242922651370205e-01 3.680544083986002e-02 0.000000000000000e+00 1.064380311718004e-01 5.164912629334695e-02 0.000000000000000e+00 8.750736030053087e-01 1.464845814575912e-01 0.000000000000000e+00 8.758423293539414e-01 1.630244973849654e-01 0.000000000000000e+00 8.935857358878072e-01 1.481712934406572e-01 0.000000000000000e+00 2.075138313871749e-01 3.304285995691199e-02 0.000000000000000e+00 1.852818606817883e-01 2.483167158647553e-02 0.000000000000000e+00 1.834683062183944e-01 3.946301020057701e-02 0.000000000000000e+00 3.199999999992081e-01 2.000000000000000e-01 0.000000000000000e+00 3.361310829165058e-01 1.838519842353861e-01 0.000000000000000e+00 3.202789752819423e-01 1.733828773109812e-01 0.000000000000000e+00 7.924922524729557e-01 1.669560722879598e-01 0.000000000000000e+00 8.147242494954154e-01 1.751697647983277e-01 0.000000000000000e+00 8.165344373603314e-01 1.605361594428466e-01 0.000000000000000e+00 8.491317297292617e-01 2.577759926319681e-02 0.000000000000000e+00 8.706617960179120e-01 3.598109500345366e-02 0.000000000000000e+00 8.674655551301333e-01 1.569943191561014e-02 0.000000000000000e+00 1.999999999996237e-02 2.000000000000000e-01 0.000000000000000e+00 3.919144990011840e-02 1.837775715889044e-01 0.000000000000000e+00 1.695658552051076e-02 1.832529916386367e-01 0.000000000000000e+00 9.799999999999167e-01 0.000000000000000e+00 0.000000000000000e+00 9.608114788003509e-01 1.622382743492915e-02 0.000000000000000e+00 9.830434144794020e-01 1.674700836143454e-02 0.000000000000000e+00 9.504338531104360e-01 4.956614688957704e-02 0.000000000000000e+00 9.313618275027551e-01 6.630507531493547e-02 0.000000000000000e+00 9.525628463976407e-01 7.173109688242857e-02 0.000000000000000e+00 4.956614688927328e-02 1.504338531107706e-01 0.000000000000000e+00 6.818317911623395e-02 1.371704483853683e-01 0.000000000000000e+00 4.795490460694048e-02 1.290464293960529e-01 0.000000000000000e+00 7.924922524729557e-01 1.669560722879598e-01 0.000000000000000e+00 7.931781631469502e-01 1.852225626023830e-01 0.000000000000000e+00 8.147242494954154e-01 1.751697647983277e-01 0.000000000000000e+00 2.075138313871749e-01 3.304285995691199e-02 0.000000000000000e+00 2.068240762322002e-01 1.477700143641956e-02 0.000000000000000e+00 1.852818606817883e-01 2.483167158647553e-02 0.000000000000000e+00 6.400000000011098e-01 0.000000000000000e+00 0.000000000000000e+00 6.200000000012484e-01 0.000000000000000e+00 0.000000000000000e+00 6.176702438179666e-01 1.592985568903049e-02 0.000000000000000e+00 4.912915610877008e-01 1.019850899693713e-01 0.000000000000000e+00 4.970337764350943e-01 7.759514651121029e-02 0.000000000000000e+00 4.738829655037962e-01 8.962752959610044e-02 0.000000000000000e+00 4.754013322970686e-01 6.975109909914991e-02 0.000000000000000e+00 4.738829655037962e-01 8.962752959610044e-02 0.000000000000000e+00 4.970337764350943e-01 7.759514651121029e-02 0.000000000000000e+00 9.228120608284744e-01 8.968664988357691e-02 0.000000000000000e+00 9.400245053567979e-01 8.686176018816888e-02 0.000000000000000e+00 9.313618275027551e-01 6.630507531493547e-02 0.000000000000000e+00 4.058375298499021e-01 1.295371289970821e-01 0.000000000000000e+00 4.041510195901002e-01 1.092402425577097e-01 0.000000000000000e+00 3.827272454506419e-01 1.235894631856349e-01 0.000000000000000e+00 3.867661453556990e-01 1.007375542129943e-01 0.000000000000000e+00 3.827272454506419e-01 1.235894631856349e-01 0.000000000000000e+00 4.041510195901002e-01 1.092402425577097e-01 0.000000000000000e+00 2.075138313871749e-01 3.304285995691199e-02 0.000000000000000e+00 1.834683062183944e-01 3.946301020057701e-02 0.000000000000000e+00 1.967586784451865e-01 5.094602820579856e-02 0.000000000000000e+00 3.883389420408152e-01 2.562254248758696e-02 0.000000000000000e+00 4.107349929607122e-01 3.752060413771897e-02 0.000000000000000e+00 4.092821091665424e-01 1.714061660386793e-02 0.000000000000000e+00 7.924922524729557e-01 1.669560722879598e-01 0.000000000000000e+00 8.165344373603314e-01 1.605361594428466e-01 0.000000000000000e+00 8.032433373038048e-01 1.490517863803608e-01 0.000000000000000e+00 2.800000000011651e-01 0.000000000000000e+00 0.000000000000000e+00 2.929319416092186e-01 2.111034427269458e-02 0.000000000000000e+00 3.000000000012484e-01 0.000000000000000e+00 0.000000000000000e+00 1.910349829338403e-01 1.000375081168673e-01 0.000000000000000e+00 2.122014023040819e-01 8.762454251905025e-02 0.000000000000000e+00 1.911093349641790e-01 7.722575337225052e-02 0.000000000000000e+00 8.089650170657753e-01 9.996249188285185e-02 0.000000000000000e+00 7.877985976960419e-01 1.123754574808374e-01 0.000000000000000e+00 8.088906650354263e-01 1.227742466271124e-01 0.000000000000000e+00 6.001378914767679e-01 5.390657848114158e-02 0.000000000000000e+00 6.176672414267335e-01 3.498739868758544e-02 0.000000000000000e+00 5.963575009380145e-01 3.905976212920727e-02 0.000000000000000e+00 6.999999999992101e-01 2.000000000000000e-01 0.000000000000000e+00 7.199999999992628e-01 2.000000000000000e-01 0.000000000000000e+00 7.072045967403290e-01 1.789238805117574e-01 0.000000000000000e+00 5.799999999988942e-01 2.000000000000000e-01 0.000000000000000e+00 5.999999999989468e-01 2.000000000000000e-01 0.000000000000000e+00 5.873836241797969e-01 1.788641308138799e-01 0.000000000000000e+00 6.231506945034283e-01 5.078974123599266e-02 0.000000000000000e+00 6.176672414267335e-01 3.498739868758544e-02 0.000000000000000e+00 6.001378914767679e-01 5.390657848114158e-02 0.000000000000000e+00 3.799105882942565e-01 1.514540354036974e-01 0.000000000000000e+00 3.665397308121169e-01 1.611509147946766e-01 0.000000000000000e+00 3.853772735918240e-01 1.732545227402267e-01 0.000000000000000e+00 8.491317297292617e-01 2.577759926319681e-02 0.000000000000000e+00 8.485524554537734e-01 4.324230448608254e-02 0.000000000000000e+00 8.706617960179120e-01 3.598109500345366e-02 0.000000000000000e+00 1.596960722321268e-01 1.512891596559610e-01 0.000000000000000e+00 1.413709604168954e-01 1.624374184489273e-01 0.000000000000000e+00 1.538772702503874e-01 1.730357200295832e-01 0.000000000000000e+00 4.400125047868606e-01 6.229207155638634e-02 0.000000000000000e+00 4.563509344634706e-01 7.844437101393378e-02 0.000000000000000e+00 4.607576304020019e-01 5.657734982694806e-02 0.000000000000000e+00 7.899999999994464e-01 1.341273584904376e-01 0.000000000000
[...]
<PointData Scalars="A_conc," Vectors="" Tensors="">
<DataArray type="Float64" Name="A_conc" format="ascii">
8.123721783513643e-01 7.662988469699994e-01 9.259104558003676e-01 4.671539721081009e-01 5.595195599230919e-01 4.533266188192221e-01 1.314550983149828e+01 1.155149201168969e+01 1.353899803222893e+01 1.761144203259728e+01 1.885464965049242e+01 1.734292191929359e+01 2.903935984681266e-01 2.803045672968866e-01 2.364654545742791e-01 2.090353452236570e+00 1.898831966101351e+00 2.189389787036536e+00 8.316906822658250e+00 8.068401614857247e+00 8.434890487337876e+00 1.019267166915810e+01 9.956620201925670e+00 9.480895120052486e+00 2.091227557213963e+00 2.192893051698477e+00 2.421341094771967e+00 8.310002655735495e+00 8.432893044156877e+00 8.755641449917302e+00 1.045760502954878e+01 1.087822826376241e+01 1.055140228107483e+01 1.105824624049693e+01 1.096021485692732e+01 1.124447460823259e+01 1.105100050425931e+01 1.076080144019578e+01 1.104070958576394e+01 7.754702487516995e+00 7.751379564043074e+00 7.815685777110285e+00 1.328751853074304e+00 1.356591086169327e+00 1.619892764568547e+00 1.046015412126534e+01 1.055786874636340e+01 1.015282963407829e+01 9.477777498025466e+00 9.965852645326123e+00 9.341624565034722e+00 5.657956122376536e-01 5.629084895837539e-01 4.659459915898632e-01 1.150284575294058e+01 1.156985866445321e+01 1.310327189885268e+01 1.284993165379253e+00 1.047889567217176e+00 1.030105040475862e+00 3.424637631207335e+00 3.860160429611296e+00 3.432964294208653e+00 7.761038247333880e+00 8.130945242227796e+00 8.174337935336954e+00 9.612228198048124e+00 1.110837410952054e+01 1.087195341647542e+01 1.784255241980973e-01 2.199854550805283e-01 1.725002917889236e-01 1.989307368364881e+01 1.915548424451073e+01 1.997969915445314e+01 1.845948699830595e+01 1.687717472988495e+01 1.862973781856465e+01 2.502732295285841e-01 3.050420070579452e-01 2.456731934188212e-01 7.796005433119905e+00 7.805788117069275e+00 8.063210628343032e+00 1.294147923855472e+00 1.286877477747985e+00 1.044689022462081e+00 1.098841520139061e+01 1.121685699142088e+01 1.122798018682467e+01 9.289026651454114e+00 9.484626181507695e+00 8.684796331562627e+00 8.734982821274608e+00 8.679993309131495e+00 9.494242286283718e+00 1.603335049983569e+01 1.764602209201101e+01 1.684544505873158e+01 6.153453139907681e+00 6.093060913773795e+00 5.335989411937285e+00 5.478956565593742e+00 5.339364353483123e+00 6.087796123327387e+00 1.291449068081208e+00 1.027630310725089e+00 1.170203490933188e+00 5.530665002491047e+00 6.332659515688621e+00 6.280614923820028e+00 7.793208174590777e+00 8.137473069085329e+00 7.911082256292334e+00 2.479934746139074e+00 2.762257909711515e+00 2.918662255812505e+00 1.108421806698958e+00 1.345843345712940e+00 1.109079262105589e+00 7.996757386034695e+00 7.741889116301664e+00 7.997945845190224e+00 1.132325557894256e+01 1.126861035578281e+01 1.132259252459101e+01 9.421191909777365e+00 8.832167714648703e+00 9.205773102398702e+00 1.126616831647748e+01 1.135110518652307e+01 1.130521783122711e+01 1.120560062026067e+01 1.124469185701395e+01 1.133168008210661e+01 5.241857981081284e+00 4.795739066680881e+00 5.426796265544431e+00 9.642682132682515e+00 9.611556496253961e+00 1.102731876660292e+01 8.102705913310005e-01 6.729886743709911e-01 7.657366964936140e-01 7.428374405785281e+00 8.039466738529873e+00 8.203800538333493e+00 7.701662104065370e+00 7.841333460434389e+00 7.842305828059913e+00 1.324648300391888e+00 1.627186935871870e+00 1.624710280461190e+00 2.235099859227559e-01 2.217787723646389e-01 1.777135828248311e-01 1.904438623457843e+01 1.910386405865659e+01 2.000648305624474e+01 1.105319005493596e+00 1.326860394734164e+00 1.352603143985157e+00 1.046561752224280e+01 1.092846886285973e+01 1.089948280448130e+01 1.077441288038674e+01 1.025447092187305e+01 1.026113962830635e+01 7.948689322343019e+00 7.790112405253900e+00 7.769327918044298e+00 9.128085145178813e+00 9.723728045255751e+00 9.122315605150035e+00 1.132928076283510e+01 1.118170376453955e+01 1.132697401463641e+01 2.481354622051335e+00 2.428172947057283e+00 2.758341640894490e+00 1.468552586062519e+01 1.251972544500460e+01 1.444872556672518e+01 3.960484474406993e-01 4.961195105219849e-01 4.050498112943646e-01 9.367364502986982e+00 9.966782581546482e+00 9.561978154911957e+00 8.835250226091548e+00 8.757814170125339e+00 9.204677065906314e+00 1.132844726301527e+01 1.132332527421388e+01 1.130882426733171e+01 1.132689916993107e+01 1.120623337884849e+01 1.122178472184298e+01 8.750613551399445e+00 8.266211349935254e+00 8.320849939011502e+00 2.106792243512440e+00 2.416322958409913e+00 2.060444462483026e+00 1.263059205817283e+01 1.253556105918075e+01 1.464604140633073e+01 4.946566153334842e-01 4.994868076142607e-01 3.943893294125677e-01 1.132045135220314e+01 1.131740877980120e+01 1.124607357540408e+01 8.844676137028804e+00 8.755459726161925e+00 8.308396791481883e+00 2.484987261538976e+00 2.423230300625126e+00 2.104075766836704e+00 1.006440317221071e+01 1.060248305029127e+01 1.019010134208997e+01 1.056847670733091e+01 1.092587528847384e+01 1.105707358954920e+01 1.123360197387259e+01 1.120878259182181e+01 1.093712443843350e+01 1.027097815514767e+01 9.593138329463168e+00 9.657008024131214e+00 1.046862405052909e+01 1.019215673403194e+01 9.867033563002291e+00 4.231080606256378e+00 3.654794849800396e+00 3.658869974420214e+00 1.104333371046601e+01 1.103353044005898e+01 1.120040022946428e+01 9.368371568677606e+00 9.566465323509069e+00 8.959733438224617e+00 4.129941514278371e+00 3.602477125243271e+00 3.433164282891861e+00 2.699469234762141e+00 3.155894990240094e+00 2.694442829261247e+00 3.668802226152244e+00 3.060100139547436e+00 3.115699925799141e+00 9.287597067236931e+00 9.483384355798028e+00 9.992381121734836e+00 5.243054417634183e+00 5.430345116199756e+00 5.861071487115893e+00 1.046804589317299e+01 9.873236212853786e+00 1.026375247004813e+01 6.703996993515006e+00 6.745981488669585e+00 6.095327551490579e+00 5.521235852827735e+00 4.842185744590838e+00 4.800844497600760e+00 5.533752917191172e+00 5.543195097526783e+00 6.325039209338271e+00 5.529417618601691e+00 4.796485700454861e+00 5.538775926201390e+00 3.423075827143577e+00 3.431285296877518e+00 3.126144206596581e+00 4.910880958356447e+00 4.410204957328611e+00 4.233160202227825e+00 8.831024540841291e+00 8.383772108180224e+00 8.926360912003396e+00 8.128108071012374e+00 7.775302140243827e+00 8.041827819777884e+00 1.048331415169746e+00 1.281323754966681e+00 1.094571593478902e+00 4.919707759391744e+00 4.920376270186474e+00 4.408011446037852e+00 8.257029536240267e+00 8.394440772775910e+00 8.826681932219666e+00 1.260330547084101e+01 1.083878797718936e+01 1.251109695556218e+01 4.963156198445796e-01 6.119101158551848e-01 5.013970564827395e-01 2.476258229876191e+00 2.152114161147418e+00 2.540803566043198e+00 1.965114126854216e-01 2.325233003508701e-01 2.111742167217142e-01 1.965299048632006e+01 1.885835752255929e+01 1.934202034710153e+01 1.007048947606231e+01 1.035650660095653e+01 1.059750127100830e+01 1.963914842595280e-01 2.104667254226088e-01 1.738003458852856e-01 1.960819697704512e+01 1.933703761814981e+01 1.997515947554636e+01 2.056002852620144e+00 2.154480223187435e+00 2.468157964908834e+00 1.259527314764920e+01 1.352764275068352e+01 1.155939157864011e+01 4.974935761647097e-01 4.532639050639051e-01 5.615584634491049e-01 1.760982476822440e+01 1.777024261035740e+01 1.923343984975148e+01 2.799071884657663e-01 2.746744848037909e-01 2.215285789309024e-01 1.603134051559319e+01 1.685612752548002e+01 1.528373121092638e+01 8.111013883915234e+00 8.177753146923187e+00 8.582119020135007e+00 1.109811366927527e+01 1.119000377172629e+01 1.129764851498789e+01 8.587769021613006e+00 8.158573347540484e+00 8.753620829036890e+00 1.129282053969624e+01 1.121347446512836e+01 1.131867072629534e+01 1.932751653941231e+00 1.986776677650086e+00 2.288881846843727e+00 2.295587940326077e+00 1.984272463262745e+00 2.415132942753058e+00 1.877623081342223e+01 1.766740583069777e+01 1.879176673491628e+01 2.371630908670811e-01 2.781651421910575e-01 2.370040318701715e-01 8.327691992509438e+00 8.671623520316098e+00 9.226388988976520e+00 9.872930858226601e-01 8.984459300686126e-01 8.056598767226367e-01 7.968363924751809e+00 7.803177025765840e+00 8.173577793105979e+00 1.138055345409316e+00 1.264958082069377e+00 1.016260342966429e+00 6.401770920692951e+00 6.992610255688533e+00 7.046211332972280e+00 8.440101594891825e+00 7.862746953268103e+00 7.788677370612850e+00 8.543234878036856e+00 8.086770147126595e+00 8.409059076558091e+00 1.128071203313893e+01 1.112603563077146e+01 1.124852844888564e+01 2.259105021074973e+00 1.917557397545467e+00 2.162805950883302e+00 1.108024535771363e+01 1.079424724449953e+01 1.070908034720309e+01 1.255306427726353e+01 1.102994040123078e+01 1.086524112915653e+01 4.945949220881176e-01 6.020919259293221e-01 6.153638710934671e-01 1.762604926769018e+01 1.734883475014839e+01 1.628208989994228e+01 2.913964136797618e-01 3.296376145292113e-01 2.808389854007128e-01 1.019126874852116e+01 9.480153718132673e+00 9.880361504004988e+00 5.244011184499031e+00 4.841908317602946e+00 5.584601139358935e+00 9.856976050298425e-01 8.066046764164936e-01 8.737769605257572e-01 8.316331670069284e+00 9.255419077302042e+00 8.778688878025813e+00 1.055813787689013e+01 1.107046705577266e+01 1.075563320843435e+01 1.132067067598163e+01 1.132328184423762e+01 1.130645484188128e+01 9.126136115732951e+00 8.780984926800192e+00 8.544010372894876e+00 1.125922773610371e+01 1.128782107901550e+01 1.132117833713762e+01 8.403336680961170e+00 8.550964384152804e+00 8.781064998172853e+00 9.574663598326897e+00 9.950737899507089e+00 9.276693342497948e+00 4.538716307635408e+00 5.328707288420875e+00 4.904839046979809e+00 4.138993023174143e+00 3.428891033206496e+00 3.866362110633220e+00 9.694284023881298e+00 9.125025225154356e+00 9.723336778772513e+00 1.117769965758631e+01 1.135345345943721e+01 1.116766455542390e+01 2.689732296338754e+00 2.441909934727976e+00 2.271812476366523e+00 8.167430743643333e+00 7.808040374863035e+00 7.949031827735480e+00 1.266346219564585e+00 1.145360935113932e+00 1.015837953038861e+00 7.911410472434231e+00 8.315034214655910e+00 8.116206778224873e+00 3.235143605746171e+00 3.707508619701210e+00 3.697990469719803e+00 4.201394257377632e+00 3.701494282170910e+00 3.711211958015603e+00 2.164237951273611e+00 2.272189349385109e+00 2.439024818422419e+00 2.084895694776576e+00 1.927087480120361e+00 1.750753326416030e+00 3.501173595362352e-01 3.059065745148524e-01 2.752523077640638e-01 2.499581991136203e-01 2.752191565653938e-01 3.046648624731350e-01 1.847804695497384e+01 1.778207724459115e+01 1.693598743743570e+01 1.573993765647439e+01 1.693524391368209e+01 1.781549149562844e+01 1.046673405065288e+01 1.087909358091688e+01 1.086561598095256e+01 1.117055003196034e+01 1.085689562975875e+01 1.086946100709741e+01 7.640741400387348e-01 9.468443253411566e-01 9.287728502839719e-01 9.522687517302717e+00 8.512518813362224e+00 8.648406966621790e+00 2.494067608416759e-01 3.057037742332191e-01 3.071126298508978e-01 1.851374967893559e+01 1.691953031752484e+01 1.684776267339777e+01 7.362518721966058e-01 8.056487994779609e-01 8.948292552003579e-01 9.655013530920733e+00 9.296481139183751e+00 8.669240272506086e+00 1.028788113613208e+01 1.078818995791250e+01 1.064148573513012e+01 5.474389712197390e+00 5.429644095838277e+00 4.722584804974087e+00 3.145845038389838e+00 2.690103069853987e+00 3.165014886372952e+00 9.575744678740900e+00 1.018516728424858e+01 9.942096894101951e+00 4.586610619870979e+00 4.842703719076678e+00 5.237662819518540e+00 1.611913368792620e+00 1.971734582585336e+00 1.631468897937528e+00 7.804427606398124e+00 8.165751086398304e+00 7.820300240569121e+00 3.684277752533518e+00 4.229671438983289e+00 4.402181138681899e+00 4.240761149814682e+00 4.229114673255972e+00 3.650568894990200e+00 1.027022848291761e+01 1.064493506957933e+01 1.026813186288459e+01 2.455344425622732e-01 2.934916032344759e-01 2.388405062507481e-01 1.107129959686942e+01 1.072353568785718e+01 1.096990404393834e+01 7.781075229974995e+00 7.763675223821783e+00 7.870696015249266e+00 7.796518707319508e+00 7.876538808580240e+00 7.758216850962558e+00 1.327214139370273e+00 1.397606087190025e+00 1.170147808442726e+00 1.296809996198404e+00 1.170525463525664e+00 1.396253872560765e+00 1.866103473965230e+01 1.684648921707307e+01 1.762109493843423e+01 5.467826776634809e+00 4.726739542020875e+00 4.906457371886919e+00 9.570951975393600e+00 9.341571510554662e+00 9.964566899081131e+00 2.002689695001371e+01 2.002689695001369e+01 1.990956384810370e+01 1.415690712220387e-01 1.416336558721791e-01 1.728043452954386e-01 8.834600852854861e+00 9.166232489513449e+00 8.553765614737154e+00 5.729509376437665e-01 4.920533076794155e-01 5.122422578596852e-01 1.113406631568208e+01 1.263343875910862e+01 1.235092534670645e+01 8.716721440189344e+00 8.189371385439811e+00 8.897853127765009e+00 8.897721489375765e-01 1.024017629300045e+00 8.512766635485119e-01 2.379795376705627e-01 2.948957209931996e-01 2.893747322189527e-01 4.278843588426612e-01 4.998274913667550e-01 4.180036410822802e-01 1.393919858710063e+01 1.246945591642860e+01 1.416011842398046e+01 1.784162617538022e+00 1.894511125439559e+00 1.579280901742862e+00 9.692681238780086e+00 1.010797142361190e+01 9.305898960789470e+00 7.968996728659988e+00 8.082361414967702e+00 7.769745448233315e+00 9.609884391128158e+00 8.618004749715315e+00 9.581667935161517e+00 1.843871712587628e+01 1.888422903561139e+01 1.778310797040831e+01 2.500376408737755e-01 2.334130066212262e-01 2.745492735425804e-01 2.480986722102554e+00 2.714929337272272e+00 2.279371254061048e+00 1.027273425501165e+01 1.076420257521494e+01 1.069500891587049e+01 1.022417850096112e+01 9.697893236666644e+00 1.018454556642718e+01 1.087391452008762e+01 1.121802316713060e+01 1.091850841202902e+01 8.740123788014184e+00 8.202581715588400e+00 8.039028445975433e+00 1.326111980382382e+00 1.105928579268148e+00 1.352871177811667e+00 7.783660307592740e+00 7.945745560306557e+00 7.771982835526749e+00 3.632373923613534e+00 3.136560502617682e+00 3.599501991354431e+00 1.377919858091184e+01 1.374197669235126e+01 1.509965920986330e+01 4.349709816195582e-01 4.378154984212348e-01 3.776834723102820e-01 9.286589269213472e+00 9.888168376286082e+00 9.477870030042473e+00 1.875263290779126e+01 1.876723789958777e+01 1.958599784182384e+01 2.367284283624115e-01 2.365761839174232e-01 2.017325884989996e-01 1.572991889000525e+01 1.782879547224481e+01 1.652503054106599e+01 3.512261684095113e-01 2.746859775965402e-01 3.216864284327964e-01 1.125222584245659e+01 1.110450201026243e+01 1.113313934620582e+01 1.091190796000028e+01 1.112930375734705e+01 1.109773128238316e+01 4.269641838567724e-01 4.174294621598589e-01 3.607417643391715e-01 1.394759799919624e+01 1.417248390234523e+01 1.527715268443196e+01 8.164859570138152e+00 8.831930012317471e+00 8.217883826926808e+00 1.044658013695175e+00 8.487191244220424e-01 1.027645039984132e+00 1.072691753610451e+01 1.244732505596327e+01 1.212461220749636e+01 1.390833509031406e+01 1.214185288477878e+01 1.247811219343514e+01 4.269177026907848e-01 5.211530863049773e-01 5.021208538273541e-01 6.084533992592683e-01 5.029066689993307e-01 5.227302919180272e-01 8.729763493772312e+00 8.928305484358516e+00 9.478777077921190e+00 8.878375010211996e-01 8.506241572239032e-01 7.573114509776667e-01 9.292840442536269e+00 9.983771046161124e+00 9.880615921281958e+00 1.734233045983949e+01 1.884562973785079e+01 1.764755447860991e+01 2.902003737619456e-01 2.364988447103668e-01 2.792886053589574e-01 5.475984135692872e+00 4.904831545683161e+00 5.338045292363799e+00 7.840848638549920e+00 8.559139817906770e+00 8.684231951427064e+00 3.519557664305327e-01 4.365327660802867e-01 4.262015785263616e-01 1.374330017464744e+01 1.396006912656889e+01 1.571960277885716e+01 5.529944676364110e+00 5.587984621308697e+00 4.838597473366891e+00 1.131583217134389e+01 1.131356885223130e+01 1.132647357018498e+01 9.127666730571965e+00 8.540823132705938e+00 8.830548363921102e+00 1.092388861704332e+01 1.123512500751949e+01 1.091398288371247e+01 1.024286012815225e+01 1.026430252904199e+01 9.670568423698070e+00 9.368235625564928e+00 9.273333009379662e+00 9.959139931998955e+00 4.746866593571914e+00 5.419096699534400e+00 4.798145728734517e+00 7.930927205704712e+00 7.734311646501573e+00 7.805309707072317e+00 1.744824693505516e+00 1.457845326636556e+00 1.580415980939237e+00 2.692446704465289e+00 2.270445745904867e+00 2.477993533714664e+00 1.105369391814490e+01 1.077308895454456e+01 1.094380942932046e+01 6.187809113362083e+00 6.988889672220282e+00 6.402535603405052e+00 1.121345246645453e+01 1.088885430968848e+01 1.091581543428224e+01 9.710133295858009e+00 1.025085303983674e+01 1.024331717139480e+01 7.808879449408741e+00 7.751217713793360e+00 7.763797634316821e+00 1.601221894351645e+00 1.356298028631520e+00 1.329506891724109e+00 3.145263973617977e+00 3.654491019716313e+00 3.650455974457855e+00 1.045495368723932e+01 1.056558539784995e+01 1.094471038017921e+01 5.745906342668694e-01 5.117729964032036e-01 6.177300634272782e-01 1.114613973017396e+01 1.231526100980297e+01 1.089537810714356e+01 7.427855037920933e+00 7.331527544081756e+00 8.040114283362351e+00 3.682711754098320e+00 3.110737698808998e+00 3.650514405933908e+00 3.686118122666467e+00 4.399517945714012e+00 4.125148621676479e+00 8.831600647744652e+00 9.420591962688711e+00 9.166888684173738e+00 8.651214022638037e+00 7.863882341536235e+00 8.437778973306406e+00 6.705261263384400e+00 7.329920430451982e+00 6.747469821510077e+00 1.089876631248654e+01 1.061022309084888e+01 1.058349212332566e+01 1.064641192840740e+01 9.558779402939905e+00 9.316517438014474e+00 2.480750852878934e+00 2.918228304621761e+00 2.720873539284243e+00 1.501469527555681e+01 1.676583052819925e+01 1.516378948922729e+01 3.798013541118766e-01 3.122372665635186e-01 3.739680844532197e-01 1.107130672010375e+01 1.067278280946992e+01 1.075386706000931e+01 7.426640440340618e+00 7.047970066695846e+00 7.863169295678889e+00 3.961816333259495e-01 3.312257390919271e-01 3.289164971638031e-01 1.460177408035447e+01 1.627564387111077e+01 1.633622352707479e+01 7.426673046659804e+00 7.888816501450640e+00 6.993161763839612e+00 7.838813106268057e+00 8.686689435562849e+00 8.038858389521602e+00 2.692895730332154e+00 2.806441380792974e+00 2.421282463691209e+00 4.530533422350192e+00 4.052864027716873e+00 4.013335413338017e+00 9.122202314066547e+00 9.273646886039488e+00 8.749240906110082e+00 1.131273801039000e+01 1.129528174589687e+01 1.134153504129333e+01 8.542388589573882e+00 8.404220214745820e+00 8.780587020441377e+00 1.128239701549878e+01 1.125704250840591e+01 1.132193196164775e+01 2.263494004349314e+00 2.164329244299725e+00 2.437912554277372e+00 3.530824438820548e-01 3.783888613516641e-01 4.352703498021042e-01 1.374108676366134e+01 1.572670337368993e+01 1.510561701466556e+01 3.421020436464068e+00 3.972925297854551e+00 3.865874331286775e+00 2.370945421846235e-01 2.545284811497314e-01 2.788915301730724e-01 2.544499040152779e-01 3.114013213152605e-01 2.796482035767994e-01 1.879562893784852e+01 1.832749930272010e+01 1.765326577548230e+01 1.836061252004744e+01 1.675977103891769e+01 1.765289483381385e+01 1.607383053791056e+00 1.916987828356839e+00 1.981327781492716e+00 7.774535980040389e+00 8.113806295005363e+00 8.185754192532340e+00 7.368753557592136e+00 8.142711361916128e+00 7.963498840347986e+00 4.355740551377921e-01 5.094364982556768e-01 4.385073561137664e-01 1.377001974663625e+01 1.235476779127730e+01 1.373325220603003e+01 1.324350482966457e+00 1.171312549764906e+00 1.151233133856476e+00 7.770695513515791e+00 7.912493942814717e+00 7.937664859673201e+00 2.263226405786541e+00 2.685906532132809e+00 2.422295558563729e+00 5.749246319943349e-01 6.544638793499886e-01 5.226191565464845e-01 6.114297004016173e-01 5.216005158308923e-01 6.557759765260206e-01 1.113915954683270e+01 1.045584217316864e+01 1.208688777988232e+01 1.074549714988925e+01 1.206522548187776e+01 1.046307778971557e+01 9.130791242138724e+00 9.683940071708951e+00 9.723220648716675e+00 1.135327984542389e+01 1.11