<?xml version="1.0"?>
<VTKFile type="UnstructuredGrid" version="0.1" byte_order="LittleEndian">
<UnstructuredGrid>
<Piece NumberOfPoints="21" NumberOfCells="28">
<Points>
<DataArray type="Float64" NumberOfComponents="3" format="ascii">
0 0 0 0.49999999999981742 0.1726190476194705 0 0.33333333333250248 0 0 0.29166666666652658 0.2916666666668038 0 0 0.33333333333472032 0 0.17261904761971569 0.50000000000021494 0 0 0.66666666666759111 0 0 1 0 0.33333333333472032 1 0 0.29166666666684449 0.7083333333334445 0 0.70833333333346027 0.70833333333323512 0 0.66666666666759111 1 0 0.50000000000021227 0.82738095238030207 0 1 1 0 1 0.66666666666578889 0 1 0.33333333333250248 0 0.82738095238054699 0.49999999999982031 0 1 0 0 0.66666666666578889 0 0 0.50000000000004996 0.49999999999997519 0 0.70833333333327586 0.2916666666665107 0 
</DataArray>
</Points>
<Cells>
<DataArray type="UInt32" Name="connectivity" format="ascii">
0 3 4 0 2 3 2 18 1 2 1 3 19 5 3 19 3 1 4 3 5 6 4 5 6 5 9 7 9 8 7 6 9 8 9 12 19 9 5 19 12 9 19 16 10 19 10 12 11 12 10 11 8 12 13 10 14 13 11 10 14 10 16 15 14 16 15 16 20 17 20 18 17 15 20 18 20 1 19 20 16 19 1 20 
</DataArray>
<DataArray type="UInt32" Name="offsets" format="ascii">
3 6 9 12 15 18 21 24 27 30 33 36 39 42 45 48 51 54 57 60 63 66 69 72 75 78 81 84 
</DataArray>
<DataArray type="UInt32" Name="types" format="ascii">
5 5 5 5 5 5 5 5 5 5 5 5 5 5 5 5 5 5 5 5 5 5 5 5 5 5 5 5 
</DataArray>
</Cells>
<CellData Scalars="pressure_p0," Vectors="velocity_p0," Tensors="">
<DataArray type="Float64" Name="pressure_p0" format="ascii">
0.20833333315047262 0.097222222105829717 0.057539682404513709 0.15476190449815908 0.43055555441545773 0.32142857072708647 0.37499999945707208 0.49999999980979082 0.62499999952052465 0.90277777770951528 0.79166666657924889 0.84523809480101431 0.56944444296841068 0.67857142771202339 0.56944444467148359 0.67857142867559217 0.84523809530026939 0.9424603173095103 0.79166666667542795 0.90277777776174917 0.62500000016802826 0.50000000021776114 0.37500000063197303 0.097222222129979219 0.20833333350666272 0.15476190435907183 0.43055555615421204 0.32142857118443369 
</DataArray>
<DataArray type="Float64" Name="velocity_p0" NumberOfComponents="3" format="ascii">
1.1325997362199303e-09 -0.99999999824188368 0 5.5336686621831888e-10 -0.9999999990395072 0 7.2466022071893121e-10 -0.9999999976484093 0 4.0232939202411444e-10 -0.99999999798225114 0 2.3627729217601257e-09 -0.99999999702273223 0 -4.4502227458664834e-09 -0.99999999520936367 0 3.2486069945214524e-09 -0.99999999851297194 0 3.3203414184779234e-09 -1.0000000011581811 0 5.0899868209164367e-09 -1.0000000014061921 0 2.2286261724957512e-09 -0.99999999974738429 0 -2.0256823995978834e-10 -1.0000000025789704 0 2.3779825331082804e-09 -1.0000000000122196 0 7.5763035289888592e-09 -0.99999999702273068 0 -1.5303014688772265e-08 -1.0000000101156528 0 5.2198700917216456e-10 -0.99999999783639293 0 -8.9995197405379201e-10 -0.99999999925833583 0 4.5206360876903773e-10 -1.0000000000309146 0 -3.7111423933922083e-09 -1.0000000026171572 0 -4.0057673844628994e-10 -0.99999999884724378 0 7.0127487150628554e-10 -1.0000000004650733 0 -1.1098512664453608e-09 -0.9999999989019186 0 3.7954785425675652e-09 -0.9999999995506379 0 4.976478173990273e-09 -1.0000000017597468 0 -2.175797375603139e-09 -0.99999999998423439 0 6.67846999924393e-10 -1.0000000026094891 0 -9.5848171066670318e-10 -0.99999999737765666 0 -4.2583068182722172e-09 -0.99999999783638849 0 -4.4502208307317659e-09 -1.0000000060044634 0 
</DataArray>
</CellData>
</Piece>
</UnstructuredGrid>
</VTKFile>
