<?xml version="1.0"?>
<VTKFile type="UnstructuredGrid" version="0.1" byte_order="LittleEndian">
<UnstructuredGrid>
<Piece NumberOfPoints="3764" NumberOfCells="1271">
<Points>
<DataArray type="Float64" NumberOfComponents="3" format="ascii">
0.024999999999941638 0 0 0.01142230349469592 0.01018508895725519 0 0 0 0 0 0 0 0.01142230349469592 0.01018508895725519 0 0 0.02040816326539097 0 0 0.02040816326539097 0 0.01142230349469592 0.01018508895725519 0 0.0211689540835866 0.020294207212749191 0 0 0.02040816326539097 0 0.0211689540835866 0.020294207212749191 0 0.01479277905737322 0.034115505761851322 0 0.035194166143748373 0.036267990104473 0 0.01479277905737322 0.034115505761851322 0 0.0211689540835866 0.020294207212749191 0 0.024999999999941638 0 0 0.0211689540835866 0.020294207212749191 0 0.01142230349469592 0.01018508895725519 0 0.024999999999941638 0 0 0.038487747360091522 0.016387646381637401 0 0.0211689540835866 0.020294207212749191 0 0.024999999999941638 0 0 0.049999999999868497 0 0 0.038487747360091522 0.016387646381637401 0 0.035194166143748373 0.036267990104473 0 0.0211689540835866 0.020294207212749191 0 0.038487747360091522 0.016387646381637401 0 0.035194166143748373 0.036267990104473 0 0.038487747360091522 0.016387646381637401 0 0.057137757658075793 0.024268715362519691 0 0.049999999999868497 0 0 0.057137757658075793 0.024268715362519691 0 0.038487747360091522 0.016387646381637401 0 0.049999999999868497 0 0 0.07499999999993355 0 0 0.057137757658075793 0.024268715362519691 0 0.06741623899727188 0.043431041269210921 0 0.06509133171351128 0.061536721924481862 0 0.050584644170265841 0.049990004250751632 0 0.049796226955297958 0.071615432852654121 0 0.050584644170265841 0.049990004250751632 0 0.06509133171351128 0.061536721924481862 0 0.035194166143748373 0.036267990104473 0 0.057137757658075793 0.024268715362519691 0 0.050584644170265841 0.049990004250751632 0 0.06741623899727188 0.043431041269210921 0 0.050584644170265841 0.049990004250751632 0 0.057137757658075793 0.024268715362519691 0 0.049796226955297958 0.071615432852654121 0 0.034597865044751562 0.059538283100065183 0 0.050584644170265841 0.049990004250751632 0 0.035194166143748373 0.036267990104473 0 0.050584644170265841 0.049990004250751632 0 0.034597865044751562 0.059538283100065183 0 0.019904986126699369 0.070829013869890683 0 0.01831348993664601 0.050179875844019929 0 0.034597865044751562 0.059538283100065183 0 0.035194166143748373 0.036267990104473 0 0.034597865044751562 0.059538283100065183 0 0.01831348993664601 0.050179875844019929 0 0.035194166143748373 0.036267990104473 0 0.01831348993664601 0.050179875844019929 0 0.01479277905737322 0.034115505761851322 0 0 0.040816326530782043 0 0 0.02040816326539097 0 0.01479277905737322 0.034115505761851322 0 0 0.040816326530782043 0 0.01479277905737322 0.034115505761851322 0 0.01831348993664601 0.050179875844019929 0 0 0.061224489796173009 0 0 0.040816326530782043 0 0.01831348993664601 0.050179875844019929 0 0 0.061224489796173009 0 0.01831348993664601 0.050179875844019929 0 0.019904986126699369 0.070829013869890683 0 0 0.081632653061564198 0 0 0.061224489796173009 0 0.019904986126699369 0.070829013869890683 0 0 0.081632653061564198 0 0.019904986126699369 0.070829013869890683 0 0.017559835652970961 0.090791477478020521 0 0 0.1020408163269553 0 0 0.081632653061564198 0 0.017559835652970961 0.090791477478020521 0 0.019904986126699369 0.070829013869890683 0 0.034559277816410987 0.081557337373673669 0 0.017559835652970961 0.090791477478020521 0 0.033420380235769848 0.1007185673550383 0 0.017559835652970961 0.090791477478020521 0 0.034559277816410987 0.081557337373673669 0 0.019904986126699369 0.070829013869890683 0 0.034597865044751562 0.059538283100065183 0 0.034559277816410987 0.081557337373673669 0 0 0.1224489795923462 0 0.01752448428357762 0.1117329240166892 0 0.019544808628996119 0.13227401154704449 0 0 0.1224489795923462 0 0 0.1020408163269553 0 0.01752448428357762 0.1117329240166892 0 0 0.1020408163269553 0 0.017559835652970961 0.090791477478020521 0 0.01752448428357762 0.1117329240166892 0 0.033420380235769848 0.1007185673550383 0 0.01752448428357762 0.1117329240166892 0 0.017559835652970961 0.090791477478020521 0 0.033420380235769848 0.1007185673550383 0 0.034087126905203192 0.1209861277781773 0 0.01752448428357762 0.1117329240166892 0 0.019544808628996119 0.13227401154704449 0 0.01752448428357762 0.1117329240166892 0 0.034087126905203192 0.1209861277781773 0 0.033420380235769848 0.1007185673550383 0 0.049315670342561173 0.11135059134879691 0 0.034087126905203192 0.1209861277781773 0 0.052231975381521037 0.1324697710711607 0 0.034087126905203192 0.1209861277781773 0 0.049315670342561173 0.11135059134879691 0 0.033420380235769848 0.1007185673550383 0 0.049933671108161173 0.09180167525965921 0 0.049315670342561173 0.11135059134879691 0 0.065519376542323787 0.1020060103813805 0 0.049315670342561173 0.11135059134879691 0 0.049933671108161173 0.09180167525965921 0 0.052231975381521037 0.1324697710711607 0 0.049315670342561173 0.11135059134879691 0 0.064954619147309406 0.1186102718044463 0 0.065519376542323787 0.1020060103813805 0 0.064954619147309406 0.1186102718044463 0 0.049315670342561173 0.11135059134879691 0 0.049796226955297958 0.071615432852654121 0 0.034559277816410987 0.081557337373673669 0 0.034597865044751562 0.059538283100065183 0 0.033420380235769848 0.1007185673550383 0 0.034559277816410987 0.081557337373673669 0 0.049933671108161173 0.09180167525965921 0 0.049796226955297958 0.071615432852654121 0 0.049933671108161173 0.09180167525965921 0 0.034559277816410987 0.081557337373673669 0 0.065519376542323787 0.1020060103813805 0 0.049933671108161173 0.09180167525965921 0 0.065437769419401298 0.08280988356141343 0 0.049796226955297958 0.071615432852654121 0 0.065437769419401298 0.08280988356141343 0 0.049933671108161173 0.09180167525965921 0 0.049796226955297958 0.071615432852654121 0 0.06509133171351128 0.061536721924481862 0 0.065437769419401298 0.08280988356141343 0 0.08048382778577895 0.07165939129726534 0 0.065437769419401298 0.08280988356141343 0 0.06509133171351128 0.061536721924481862 0 0.065519376542323787 0.1020060103813805 0 0.065437769419401298 0.08280988356141343 0 0.082207783798225631 0.091809159878798771 0 0.08048382778577895 0.07165939129726534 0 0.082207783798225631 0.091809159878798771 0 0.065437769419401298 0.08280988356141343 0 0.10000000000000001 0.081632653061067179 0 0.082207783798225631 0.091809159878798771 0 0.08048382778577895 0.07165939129726534 0 0.10000000000000001 0.061224489795794243 0 0.10000000000000001 0.081632653061067179 0 0.08048382778577895 0.07165939129726534 0 0.065519376542323787 0.1020060103813805 0 0.081723953713685502 0.11220798238239139 0 0.064954619147309406 0.1186102718044463 0 0.077414369161380808 0.1326877944589693 0 0.064954619147309406 0.1186102718044463 0 0.081723953713685502 0.11220798238239139 0 0.065519376542323787 0.1020060103813805 0 0.082207783798225631 0.091809159878798771 0 0.081723953713685502 0.11220798238239139 0 0.10000000000000001 0.1020408163263421 0 0.081723953713685502 0.11220798238239139 0 0.082207783798225631 0.091809159878798771 0 0.10000000000000001 0.1224489795916153 0 0.077414369161380808 0.1326877944589693 0 0.081723953713685502 0.11220798238239139 0 0.10000000000000001 0.1020408163263421 0 0.10000000000000001 0.1224489795916153 0 0.081723953713685502 0.11220798238239139 0 0.10000000000000001 0.1020408163263421 0 0.10000000000000001 0.1224489795916153 0 0.10000000000000001 0.1020408163263421 0 0.1193707164044376 0.1125679358902586 0 0.10000000000000001 0.1224489795916153 0 0.1193707164044376 0.1125679358902586 0 0.11606503917892 0.092831191981644676 0 0.13729388873166179 0.1023778823952045 0 0.10000000000000001 0.1020408163263421 0 0.11606503917892 0.092831191981644676 0 0.1193707164044376 0.1125679358902586 0 0.10000000000000001 0.1224489795916153 0 0.1193707164044376 0.1125679358902586 0 0.1174898008840846 0.1331867759582076 0 0.1193707164044376 0.1125679358902586 0 0.1339798845637783 0.12436412822187751 0 0.1174898008840846 0.1331867759582076 0 0.10000000000000001 0.061224489795794243 0 0.11690923237079839 0.075771674886482066 0 0.10000000000000001 0.081632653061067179 0 0.10000000000000001 0.061224489795794243 0 0.10000000000000001 0.081632653061067179 0 0.10000000000000001 0.081632653061067179 0 0.10000000000000001 0.1020408163263421 0 0.082207783798225631 0.091809159878798771 0 0.10000000000000001 0.081632653061067179 0 0.10000000000000001 0.1020408163263421 0 0.10000000000000001 0.081632653061067179 0 0.11606503917892 0.092831191981644676 0 0.10000000000000001 0.1020408163263421 0 0.13083011011621179 0.085621994819866154 0 0.11606503917892 0.092831191981644676 0 0.11690923237079839 0.075771674886482066 0 0.10000000000000001 0.081632653061067179 0 0.11690923237079839 0.075771674886482066 0 0.11606503917892 0.092831191981644676 0 0.1224113123827702 0.061448209743527132 0 0.1353873695908793 0.070572908111639798 0 0.11690923237079839 0.075771674886482066 0 0.10000000000000001 0.061224489795794243 0 0.1224113123827702 0.061448209743527132 0 0.11690923237079839 0.075771674886482066 0 0.10000000000000001 0.061224489795794243 0 0.1184025638397351 0.044620515969080433 0 0.1224113123827702 0.061448209743527132 0 0.10000000000000001 0.040816326530532299 0 0.10000000000000001 0.061224489795794243 0 0.083041428864014916 0.050921892867974709 0 0.10000000000000001 0.040816326530532299 0 0.1184025638397351 0.044620515969080433 0 0.10000000000000001 0.061224489795794243 0 0.10000000000000001 0.040816326530532299 0 0.10000000000000001 0.061224489795794243 0 0.10000000000000001 0.040816326530532299 0 0.1186263405973806 0.02146853907924717 0 0.1184025638397351 0.044620515969080433 0 0.133965734735811 0.0345517845108698 0 0.1184025638397351 0.044620515969080433 0 0.1186263405973806 0.02146853907924717 0 0.10000000000000001 0 0 0.1249999999999323 0 0 0.1186263405973806 0.02146853907924717 0 0.10000000000000001 0 0 0.10000000000000001 0
[...]
<PointData Scalars="temperature," Vectors="" Tensors="">
<DataArray type="Float64" Name="temperature" format="ascii">
1.0016095728114756 0.95254003334325799 1.0001820138051987 1.0040152308192691 0.94880377947381211 0.89348085895633356 0.89025004432104593 0.95067809069651832 0.89356070459188996 0.88933573494703655 0.89461165327700931 0.81151212441004339 0.80726758691581291 0.81073204165473167 0.89495517926750612 1.0056080850874216 0.89660730849243664 0.94883124484498593 1.0054976371445017 0.92134689107937529 0.89647968636046949 0.99915567411376582 1.0051840259212432 0.92900961705940333 0.81051754730784387 0.89227703959709037 0.92467057234824246 0.81426781388066416 0.92100259744509383 0.89396187558870199 1.0090830928044396 0.89290615503395909 0.92236813476524604 0.9974345055579944 1.0098989367261983 0.9078558155207912 0.82971200696220371 0.74255817906695754 0.75561214942994426 0.65836712950896303 0.75440455768367398 0.74257942333060301 0.80696750457546529 0.90094153429910728 0.75615122284319525 0.82231703665191269 0.76291039790071402 0.89374021110915103 0.65285568029176966 0.67963945239702295 0.7604158398261559 0.80599239497243702 0.75610385453302997 0.68365523091968539 0.60563534945854514 0.71357858121243001 0.68075102999365755 0.81101812005638252 0.67916856495215339 0.7154016665930335 0.80921933094473686 0.71753341443371887 0.80887978036912644 0.76761766613331706 0.89140595878082285 0.80951915600953084 0.76581516384816684 0.81087985066744839 0.71546488519822971 0.64641927584525238 0.76575282061170769 0.71477234262169476 0.6448048847471608 0.71583939448808309 0.60259561602733125 0.54054308603080903 0.64477746164997396 0.60220213707913839 0.53903100795453163 0.60375571801256045 0.50857968808376119 0.45379324888433414 0.54014514593758156 0.5072728343295696 0.60310198105402357 0.57404372746379495 0.50982427287148024 0.49559927347973037 0.50750113581288969 0.57636112605747891 0.60417957715957871 0.68205293929754462 0.57351844662658513 0.38108366509779112 0.43014999370437063 0.37038199247748776 0.38468863717314439 0.45354263448629351 0.42720003880356294 0.45179245309515026 0.50877020961617359 0.42892520283561575 0.4948157084884236 0.4303504930888386 0.50776554574584809 0.49714470869836791 0.43157986222504657 0.42778920091350903 0.37276744409886853 0.4286745964754784 0.4306314001005096 0.49496105961223663 0.5063389865491561 0.43362414610274208 0.46280398427348113 0.42872623840987234 0.51067495081107828 0.49385956962585181 0.57678643154049336 0.5077026556486115 0.60332475095434301 0.51057729730251733 0.5734261734729259 0.46661163200018724 0.50728773110287295 0.55796825556451712 0.60863427215844712 0.55959601224431887 0.50609080804244322 0.65357776263773504 0.57701422636915289 0.67794186602824913 0.4977613271551557 0.57392631624806356 0.57287671432289022 0.65713507458823139 0.57350356066916741 0.57414212044088808 0.60501981223262535 0.57295293389089641 0.66921085759961452 0.65218611518964564 0.66359506623328501 0.57774884494496925 0.65346924927372863 0.74748602270570375 0.66327588858181841 0.76981755460798973 0.67041726290164583 0.73981675826228777 0.60967690430542365 0.66364615250085879 0.72226123928933439 0.77601934853876409 0.72254766769001111 0.66488740973627836 0.85855698995578456 0.73066759049987895 0.7661641710642797 0.90441621980919862 0.85964803815453728 0.76807622763112671 0.60541858286481742 0.67096234585286818 0.56190832313315575 0.60505160747800313 0.55668292851973278 0.67719900736726879 0.60323564830195842 0.72939433604612325 0.67373801649969212 0.82355679341217181 0.67892896491885901 0.72311280130344868 0.78904783041770055 0.60526134127162623 0.67486749039945815 0.83178461745149901 0.79539719787078411 0.67047869391705306 0.94698348578079894 0.92554063218507854 0.83222675707378346 0.66179158641252744 0.79506403526458824 0.6658664860933261 0.73731155799219406 0.58529695819840033 0.82452375386704768 0.73337484124905561 0.67074605464523152 0.79088555497919433 0.66400824055622176 0.64150888112334814 0.66988063003662424 0.54835376770997091 0.63729108810673851 0.90368046487230291 0.77346759187310166 0.86061867444520557 0.98133270691174701 0.96513468773870792 0.86679160247569664 0.82703618587494587 0.7222142406089388 0.96571093796833718 0.94654164135002539 0.8665135096404929 0.73213454869242178 0.82732614082697153 0.67269408030222533 0.73233183193140827 0.77719738072337707 0.86115029273477361 0.77073534850606085 0.73841145871288483 0.79369863592007051 0.70632117754229717 0.76946538292656841 0.89945240181388197 0.7861866764492389 0.77815917655390487 0.8885240269345821 0.85805781217972921 0.79450275820718941 0.94142373773023436 0.89605671466488379 0.84481804538488525 0.94118861253910646 0.85505138189206487 0.89517325394616876 0.99296135382837381 0.98055803651949935 0.92820148365041566 0.93120228346329925 0.86861744130568519 0.86181507955524583 0.85772099260912849 0.94632451523681893 1.0109302008859744 0.99451466253526777 0.94800246929111387 1.0056038406117567 0.96982745971310502 0.97600297230306476 1.0019580247987074 0.99895655090700841 1.0101822233687907 0.94632812948093137 0.96716273649867368 1.0000072218510474 0.99204012845733602 0.97711607719987315 0.92949386531141931 0.93177612023141487 0.97841191074584721 0.93105650567890019 0.91410760967041504 0.96910481458937547 0.9276239190275839 0.9759083052807338 0.99365460764347946 1.0072598048960857 0.97640012823189726 0.99431227967420277 0.97573503691637486 0.92558674793835027 1.0122374688174443 0.90912454050141045 0.90199871906749396 0.82834737568641748 0.88695972254662336 0.92184481760670367 0.82729872924697978 0.92489654431320256 0.84115397321740215 0.76926354943787945 0.74163299744590039 0.85255272165832474 0.82303173683357056 0.84435635867559311 0.74947862833489576 0.89515376098659039 0.77851517489389588 0.84240012437073231 0.93241118028350845 0.8539362146034214 0.90963858410633092 0.28011616565672909 0.31241959611360481 0.37293922341641728 0.39694486518896122 0.31131335139423799 0.32578351645250275 0.40278192159692505 0.38024079585509302 0.30604464784589624 0.25707511594452132 0.32616958782679328 0.31143172422028742 0.26196128965119908 0.30653219115562735 0.24938168752274151 0.28299248751200118 0.24591911690752905 0.31035378879879555 0.21122838014282558 0.21748655238548623 0.24607673142447548 0.18974084373082825 0.21874082692513397 0.20830244525241126 0.19693399179109478 0.21308888205102272 0.21228123171683747 0.20714558360185162 0.23550563653423404 0.2180095566119612 0.25727796980472606 0.2180917654789927 0.23604780857347601 0.26178589567693311 0.24947496232399344 0.21354833781908425 0.2620185631483592 0.23161403012238543 0.27768726151386097 0.26658005516632111 0.27505428474000204 0.23525754714914113 0.21318117726647057 0.23232528579780443 0.23020004667804847 0.2256309555837 0.26304839427298354 0.23663035756339015 0.23206833748883621 0.25698381987383995 0.25688799939867457 0.26048256376562406 0.33124465969526068 0.27922647893969316 0.26075769742719485 0.31325860694498847 0.33135306996114577 0.33808108317079821 0.32588364887056459 0.27414037088227372 0.2620485235815313 0.27773603537118324 0.32165620179737631 0.3363663609907257 0.40818605523236234 0.3266784173949861 0.40330838643257644 0.32035149020684145 0.41485557362229575 0.33006222561205495 0.4394154948959989 0.41433289657512784 0.4742836970119409 0.43998673188459403 0.36887484035376084 0.33683524595771075 0.37470963012270248 0.43331071904507457 0.46893556911386719 0.37401148686312874 0.41343967684757471 0.33365855512888587 0.41319987153182092 0.37458212509443145 0.33804397199460495 0.37045439371456002 0.31157194576191433 0.33828759310124179 0.3081146912430382 0.37414838381580534 0.26690843297479244 0.28593647625268126 0.30919494531598229 0.25762539558327657 0.28969089529038378 0.2816214241241744 0.25082564393035145 0.28741042758051633 0.26333581790609834 0.28498745599804187 0.32325470470980344 0.28603220181923328 0.33458856837892964 0.28684531181589895 0.32308120248835076 0.3383346957329586 0.31129969044877576 0.28312329966356919 0.33808196774638521 0.31979199528416175 0.37964770267505937 0.37217069750118448 0.37627211620678019 0.32334214773880332 0.32657255032452026 0.37115669032970267 0.32354352414047816 0.28964617552775385 0.33074935961371416 0.31925395131225892 0.3305885217093692 0.38402339340976793 0.36705300973682387 0.37032272203322508 0.43322604798653042 0.37873275986481625 0.45950178291991062 0.37967642642439675 0.4307956788732501 0.46497280735544577 0.41360181273470326 0.3751401276461066 0.33811390189958951 0.37941378381079588 0.40895940075884207 0.47435090426481602 0.40919365645751082 0.50434761870990696 0.4644144028149878 0.4997053830803076 0.41399707723552409 0.45731834347701661 0.59968496373731905 0.50550331703547269 0.46033747682001541 0.56235811977274874 0.59703382196131016 0.47483995265516882 0.50347021890042976 0.59567989358518769 0.60632485914955969 0.5991442430116688 0.50144042793224997 0.75891046809931229 0.60264340579894327 0.59981859715410124 0.79898172995724304 0.76541178980830282 0.59484691448024551 0.7987884951810027 0.63383192349453021 0.76623170649140215 0.92583905055672677 0.90281417830804822 0.76074817499380909 0.63760891034312761 0.60447284740824336 0.50880785281422536 0.60243730803334217 0.6406122033834537 0.90299099734152544 0.87895428745245652 0.76816478885327377 0.59720791482451119 0.73821474846257806 0.7678467449186378 0.73859604653200883 0.59427017701948481 0.73127269509159654 0.60300895877039551 0.55638849825531633 0.55739494156901448 0.60308234896010815 0.46511818132986077 0.55765548891552097 0.43131556181887032 0.54291207092016835 0.70374908355510857 0.55510733960977399 0.54404064916483585 0.73922847751748988 0.54800560407626664 0.71156336095246708 0.73932031695500822 0.71189215852902532 0.56407785120105203 0.87905606237498468 0.85436104955710601 0.7038092336192423 0.529398423031743 0.57118109963357422 0.73157746553358616 0.57167967304722578 0.5998285835486471 0.46870601263627287 0.60174306895484997 0.57073210987013756 0.47413216078534665 0.5644475930438102 0.4395978636535316 0.53119576049988948 0.43373817745921567 0.57056026209269328 0.52516263030446375 0.41484635468499498 0.4396362251788502 0.53111357262696712 0.52305050796889463 0.40863859350456844 0.51668622832619249 0.40338368563620597 0.41426495773745936 0.67819041450143036 0.52379348730286501 0.52904450897892186 0.71183203813907592 0.686410065906505 0.52111520175181969 0.71194046013398138 0.53603643369844112 0.68651220670951829 0.85439493542486733 0.82936728507215463 0.67832690696909581 0.54333913240149279 0.51623144536789101 0.41194358346310644 0.51734451968323525 0.54320234468446182 0.68610808503650855 0.50861599330860474 0.66196412054726861 0.68594156645679061 0.66228745084082929 0.51615807755211252 0.82935567887674588 0.80423119549795619 0.51590924004184635 0.39204375569436378 0.48576570549392467 0.65289174569644681 0.51705346344224346 0.48292383446210718 0.48490650707410504 0.36961180779108416 0.47939914220580099 0.62937075079789473 0.48364193380973702 0.4791526619196167 0.80418710464396548 0.77911170481954473 0.66093798168179996 0.4747533550001995 0.63840847517967581 0.66139169004658593 0.63848341968462186 0.49202301555804279 0.62928102150555143 0.46141632974404456 0.50046586381752367 0.65405017019888956 0.49904689457905854 0.52359436746613031 0.397307516498762 0.52296948232685547 0.50052394793673927 0.40381645596812543 0.49332113965613594 0.3787582309481094 0.46502657624816085 0.37415861124574534 0.49823002521063109 0.22066322931395502 0.20184232480777853 0.23942048528522003 0.22042432382028801 0.25751371145194957 0.23354003932854264 0.30262487426052509 0.26215287841725449 0.24323175953537671 0.21619062600781172 0.24404301614570598 0.26170170219921535 0.30795231763675857 0.29063138093517588 0.37023818097180072 0.30736908924474388 0.23848067874776702 0.29129845396085774 0.30210381210404452 0.37613841055037772 0.39684983454219319 0.47945647862008117 0.39784292192576443 0.37520573290767939 0.30806392855545806 0.32666199015880709 0.25727307628347423 0.30745173120872998 0.39169800865942106 0.32694289398760978 0.41235129956149597 0.34449538514448552 0.32693457936893622 0.34506762244755157 0.27243917420833891 0.32667938279358805 0.41810298721010758 0.32146426628141872 0.39774837610469088 0.41828028288297708 0.39707452561602419 0.51043247396352953 0.41827185665795974 0.53660093783879148 0.43675051747720112 0.41830967077003156 0.43729889192662186 0.33923730645919237 0.34041103239811332 0.29964437066574917 0.27752943437225991 0.25270954661775752 0.27769084185181442 0.2995214323988033 0.27723840812142708 0.26227245429442037 0.32171263797265742 0.27755878533442208 0.22916279712462947 0.26195187971207345 0.25695906001447344 0.2337335389006252 0.27327443293735931 0.25053263505068613 0.25732190998709903 0.29072146198813953 0.2942086228348022 0.25605691965930438 0.29729844782627091 0.2828587286850533 0.29102893212491954 0.32284183984152653 0.29451305107972586 0.34285038161990361 0.32131786815943519 0.28866864585510688 0.35879322275957459 0.3467429782166403 0.36544136283009815 0.41104574635986629 0.34184098075542207 0.34459839274868953 0.36521827938788876 0.29619320405345911 0.28847274345757179 0.30110825676262204 0.35860983931452239 0.35767541438089051 0.43672584781132062 0.47047509231905738 0.34530277402032433 0.43081819518669606 0.36360091702824604 0.55177611257842463 0.47043363645739461 0.43746572018352275 0.36413182520070125 0.46476251441205962 0.41157599325089833 0.37442097042267247 0.41103582587039122 0.45713600516884018 0.50822033575426329 0.45638418807867093 0.4113288350675281 0.51327781264600936 0.47088012695478593 0.59707993616271671 0.51379859792688387 0.40634526891008121 0.47094364686443585 0.51471082165859616 0.63414237059702594 0.55014427434335855 0.51250778305442035 0.55306524631175114 0.4531196010252096 0.37860878220471272 0.4529793821695387 0.42636348539606195 0.37779651821724403 0.42723335470682694 0.36486976310464475 0.37820699948820108 0.34530169596627019 0.40747505067597201 0.37846964199904409 0.31873639875765775 0.34500213901325782 0.37459745870269445 0.36765911025518494 0.322285515743372 0.38391782005047964 0.33053507375366992 0.36459183061813299 0.33057975281466656 0.28907280655590983 0.31750050756816123 0.32652556334947891 0.32144242897603159 0.36816230159964625 0.28850381857820956 0.2565969186228656 0.28502310507023554 0.25701153476724131 0.23275805624532048 0.25135590953397313 0.23270568016985904 0.21290849251173641 0.22854707180292105 0.22716849432956082 0.2338641584412785 0.25614577331992711 0.20700979208627129 0.21913014269324543 0.23402757680773636 0.19080178973320558 0.20280760467073525 0.2186259515451357 0.21280579307946526 0.19672753970041804 0.21293684275081889 0.81626539559012401 0.7261001677358041 0.79624266053880943 0.81963248335698624 0.74768755264346942 0.72266401399392977 0.69955324082669346 0.72140760903225298 0.62913199487784188 0.65600092217039097 0.62599578007861556 0.725068011356793 0.65702294264239647 0.72395882099470932 0.74627860402869517 0.64428606825098755 0.65462874270874383 0.74784425261442389 0.81717583024074447 0.88559184367240451 0.7503413252116431 0.81988473544317741 0.91489524261178412 0.88336231236588703 1.0065030464773264 0.89113891580308346 0.90831484159619857 1.0022887347862324 0.89642559400141153 1.0043718555666818 1.0054208738480619 0.99799231092442076 0.91837847685757046 1.0115819697625668 0.91743823701146998 0.92942741249600114 0.86319405099219437 0.94161693356567111 0.90367261868419568 1.0064783187513047 0.99968359222325254 0.9265938964293654 0.85787823006901298 0.78881128719144133 0.85927034900159061 0.86460420721831788 0.79504944174250358 0.78260208480577986 0.81890824356323921 0.7946866711056576 0.9175998697048352 0.85773617249332734 0.90825387037238059 0.80151824505584535 0.70398193423571565 0.78319740245170155 0.79332154096408003 0.69851348394952373 0.79940653227716951 0.72296034458109781 0.79025841680962849 0.78215465142719864 0.71065440846864636 0.69936371037547607 0.7048207910161145 0.7881045941102266 0.79052875861151484 0.86652730724512783 0.78331125912671662 0.67672338632644657 0.77192720795093706 0.70312187384917624 0.67096344358718529 0.70935300133609713 0.60828041335910443 0.674554647210031 0.593686395561008 0.72999161430965942 0.6755663810456296 0.60272639705199249 0.59212717387319258 0.70270333770740634 0.62581118434328542 0.60694687500465838 0.69766044816123085 0.61197367671642755 0.70582543030082034 0.49806591434994063 0.54933884273506584 0.59324963536012965 0.66321348682731718 0.58725213045531977 0.55395086024405737 0.50151119088665452 0.58857498220073801 0.49374669576863478 0.60928748762973295 0.49785829187217612 0.58335320999369267 0.45625089929152274 0.50076927250540182 0.42388189237247798 0.45823024654505679 0.54789611531978233 0.49866484460262939 0.42697777050127789 0.42606813501418861 0.50016950142143524 0.49713189671539271 0.49850058245865247 0.42767923819205339 0.43020422070841485 0.4964110619629834 0.49627237344971575 0.3806369165653265 0.36803462556588745 0.42907217809323345 0.42911249225918036 0.36853080789780535 0.42369082621340798 0.55247002405784318 0.49628095495697699 0.49738272510806353 0.5517068101304482 0.60575404065718474 0.62640506878414492 0.54938760668942632 0.50118182804831934 0.6088796894225551 0.54994872676925377 0.57637246319536295 0.49984211594787598 0.65586249167068111 0.57767721175285092 0.62590915388163337 0.55075070913996715 0.62790535061466979 0.57545676504481391 0.64293456708415408 0.5767735229438703 0.65596977964465331 0.64370284654747778 0.54090198785399335 0.57563354944802092 0.53950025000347346 0.49876204634882926 0.57730364395642375 0.53988067423533836 0.45363336097708473 0.49771708045172808 0.45275377786108506 0.38374018991539466 0.42584277399811005 0.45161456741996592 0.42802824533002592 0.49936722384135251 0.76581720812010334 0.74764603933673868 0.88861217304246853 0.76583059910590989 0.64555263889547077 0.74710346790483373 1.0096933390943761 0.89178476861584555 0.88697120018615028 0.8914422220403081 0.76792120326909319 0.88658550762760924 0.10519748405780538 0.10023950539610509 0.10742363849651235 0.11677537236663088 0.11074809287091879 0.11950488015461483 0.10666783537596568 0.11674471310981706 0.1236659753788853 0.11050074050302811 0.10540009197039235 0.11269494733047325 0.10225794676069182 0.11021921327214348 0.11601478608985792 0.12992207314318002 0.12322474736389351 0.13202791728620544 0.13709467772473821 0.13024104954615107 0.13835717114724028 0.12553236992716094 0.13665403365024359 0.14249899976301628 0.12328067777946716 0.11704374454346834 0.12424434991734419 0.118853189933985 0.12841337360441279 0.13619071424273924 0.11271379766296549 0.1239545594006935 0.12824122187250178 0.12462071281851453 0.14790694026291162 0.12763161444586454 0.15234782679571796 0.12438833604855777 0.15165065143453971 0.14965285992899841 0.13766363236410512 0.12756051766850232 0.1487428159251932 0.20102911481979743 0.17924070119118221 0.15122436924104601 0.15192418235555133 0.197579505607266 0.16392440869171049 0.17608611950730158 0.13818037765475319 0.137678315452919 0.16048903334752812 0.14188712596769926 0.13242920296089788 0.17503358623808371 0.16450775022540459 0.15334087873572202 0.17450678112015455 0.13271107489912737 0.21646183268630509 0.17787417847924425 0.16154102826215838 0.21780286102563759 0.16027253731055124 0.17938021755198386 0.23093080062503535 0.22388468247514273 0.17397117416766536 0.23005110778598892 0.17459126821696511 0.20596519268108487 0.22938754660047675 0.28371986533108634 0.29420228035576923 0.2152431357587736 0.29517186125766398 0.31246921383411452 0.23316121234611339 0.28981045224862595 0.22130449621191084 0.20219587530329636 0.14790959725252684 0.18300717315311418 0.20556667919277863 0.18019868052239599 0.23543116607227427 0.19701313484799984 0.28183914923986431 0.28263569297323288 0.23359534985989458 0.20199962731339643 0.27840132449967869 0.20042782731863451 0.24008335933982058 0.27890145370457392 0.28368878827616412 0.23502248364989678 0.33390427686177709 0.2817446540703607 0.3342363