<?xml version="1.0"?>
<VTKFile type="UnstructuredGrid" version="0.1" byte_order="LittleEndian">
<UnstructuredGrid>
<Piece NumberOfPoints="3764" NumberOfCells="1271">
<Points>
<DataArray type="Float64" NumberOfComponents="3" format="ascii">
0 0 0 0.01142230349469592 0.01018508895725519 0 0 0.02040816326539097 0 0.024999999999941638 0 0 0.01142230349469592 0.01018508895725519 0 0 0 0 0.024999999999941638 0 0 0.038487747360091522 0.016387646381637401 0 0.0211689540835866 0.020294207212749191 0 0.024999999999941638 0 0 0.0211689540835866 0.020294207212749191 0 0.01142230349469592 0.01018508895725519 0 0.035194166143748373 0.036267990104473 0 0.01479277905737322 0.034115505761851322 0 0.0211689540835866 0.020294207212749191 0 0 0.02040816326539097 0 0.0211689540835866 0.020294207212749191 0 0.01479277905737322 0.034115505761851322 0 0 0.02040816326539097 0 0.01142230349469592 0.01018508895725519 0 0.0211689540835866 0.020294207212749191 0 0 0.040816326530782043 0 0.01479277905737322 0.034115505761851322 0 0.01831348993664601 0.050179875844019929 0 0 0.040816326530782043 0 0 0.02040816326539097 0 0.01479277905737322 0.034115505761851322 0 0 0.061224489796173009 0 0.01831348993664601 0.050179875844019929 0 0.019904986126699369 0.070829013869890683 0 0 0.061224489796173009 0 0 0.040816326530782043 0 0.01831348993664601 0.050179875844019929 0 0.019904986126699369 0.070829013869890683 0 0.01831348993664601 0.050179875844019929 0 0.034597865044751562 0.059538283100065183 0 0.035194166143748373 0.036267990104473 0 0.034597865044751562 0.059538283100065183 0 0.01831348993664601 0.050179875844019929 0 0.035194166143748373 0.036267990104473 0 0.01831348993664601 0.050179875844019929 0 0.01479277905737322 0.034115505761851322 0 0.049796226955297958 0.071615432852654121 0 0.034597865044751562 0.059538283100065183 0 0.050584644170265841 0.049990004250751632 0 0.035194166143748373 0.036267990104473 0 0.050584644170265841 0.049990004250751632 0 0.034597865044751562 0.059538283100065183 0 0.06741623899727188 0.043431041269210921 0 0.06509133171351128 0.061536721924481862 0 0.050584644170265841 0.049990004250751632 0 0.049796226955297958 0.071615432852654121 0 0.050584644170265841 0.049990004250751632 0 0.06509133171351128 0.061536721924481862 0 0.035194166143748373 0.036267990104473 0 0.057137757658075793 0.024268715362519691 0 0.050584644170265841 0.049990004250751632 0 0.06741623899727188 0.043431041269210921 0 0.050584644170265841 0.049990004250751632 0 0.057137757658075793 0.024268715362519691 0 0.035194166143748373 0.036267990104473 0 0.038487747360091522 0.016387646381637401 0 0.057137757658075793 0.024268715362519691 0 0.035194166143748373 0.036267990104473 0 0.0211689540835866 0.020294207212749191 0 0.038487747360091522 0.016387646381637401 0 0.024999999999941638 0 0 0.049999999999868497 0 0 0.038487747360091522 0.016387646381637401 0 0.049999999999868497 0 0 0.057137757658075793 0.024268715362519691 0 0.038487747360091522 0.016387646381637401 0 0.049999999999868497 0 0 0.07499999999993355 0 0 0.057137757658075793 0.024268715362519691 0 0.07499999999993355 0 0 0.080950281899397181 0.026970278689124379 0 0.057137757658075793 0.024268715362519691 0 0.10000000000000001 0.020408163265267731 0 0.10000000000000001 0.040816326530532299 0 0.080950281899397181 0.026970278689124379 0 0.10000000000000001 0.020408163265267731 0 0.080950281899397181 0.026970278689124379 0 0.088491713649877388 0.01129776753660997 0 0.07499999999993355 0 0 0.10000000000000001 0 0 0.088491713649877388 0.01129776753660997 0 0.07499999999993355 0 0 0.088491713649877388 0.01129776753660997 0 0.080950281899397181 0.026970278689124379 0 0.10000000000000001 0 0 0.1186263405973806 0.02146853907924717 0 0.10000000000000001 0.020408163265267731 0 0.10000000000000001 0 0 0.10000000000000001 0.020408163265267731 0 0.088491713649877388 0.01129776753660997 0 0.10000000000000001 0 0 0.1249999999999323 0 0 0.1186263405973806 0.02146853907924717 0 0.10000000000000001 0.020408163265267731 0 0.1186263405973806 0.02146853907924717 0 0.10000000000000001 0.040816326530532299 0 0.133965734735811 0.0345517845108698 0 0.1184025638397351 0.044620515969080433 0 0.1186263405973806 0.02146853907924717 0 0.10000000000000001 0.040816326530532299 0 0.1186263405973806 0.02146853907924717 0 0.1184025638397351 0.044620515969080433 0 0.10000000000000001 0.061224489795794243 0 0.1184025638397351 0.044620515969080433 0 0.1224113123827702 0.061448209743527132 0 0.10000000000000001 0.040816326530532299 0 0.10000000000000001 0.061224489795794243 0 0.083041428864014916 0.050921892867974709 0 0.10000000000000001 0.040816326530532299 0 0.1184025638397351 0.044620515969080433 0 0.10000000000000001 0.061224489795794243 0 0.10000000000000001 0.061224489795794243 0 0.08048382778577895 0.07165939129726534 0 0.083041428864014916 0.050921892867974709 0 0.10000000000000001 0.040816326530532299 0 0.083041428864014916 0.050921892867974709 0 0.080950281899397181 0.026970278689124379 0 0.06741623899727188 0.043431041269210921 0 0.080950281899397181 0.026970278689124379 0 0.083041428864014916 0.050921892867974709 0 0.06741623899727188 0.043431041269210921 0 0.057137757658075793 0.024268715362519691 0 0.080950281899397181 0.026970278689124379 0 0.08048382778577895 0.07165939129726534 0 0.06509133171351128 0.061536721924481862 0 0.083041428864014916 0.050921892867974709 0 0.06741623899727188 0.043431041269210921 0 0.083041428864014916 0.050921892867974709 0 0.06509133171351128 0.061536721924481862 0 0.08048382778577895 0.07165939129726534 0 0.065437769419401298 0.08280988356141343 0 0.06509133171351128 0.061536721924481862 0 0.065519376542323787 0.1020060103813805 0 0.065437769419401298 0.08280988356141343 0 0.082207783798225631 0.091809159878798771 0 0.08048382778577895 0.07165939129726534 0 0.082207783798225631 0.091809159878798771 0 0.065437769419401298 0.08280988356141343 0 0.10000000000000001 0.081632653061067179 0 0.082207783798225631 0.091809159878798771 0 0.08048382778577895 0.07165939129726534 0 0.10000000000000001 0.061224489795794243 0 0.10000000000000001 0.081632653061067179 0 0.08048382778577895 0.07165939129726534 0 0.10000000000000001 0.061224489795794243 0 0.11690923237079839 0.075771674886482066 0 0.10000000000000001 0.081632653061067179 0 0.10000000000000001 0.061224489795794243 0 0.1224113123827702 0.061448209743527132 0 0.11690923237079839 0.075771674886482066 0 0.1224113123827702 0.061448209743527132 0 0.1353873695908793 0.070572908111639798 0 0.11690923237079839 0.075771674886482066 0 0.13083011011621179 0.085621994819866154 0 0.11606503917892 0.092831191981644676 0 0.11690923237079839 0.075771674886482066 0 0.10000000000000001 0.081632653061067179 0 0.11690923237079839 0.075771674886482066 0 0.11606503917892 0.092831191981644676 0 0.10000000000000001 0.081632653061067179 0 0.10000000000000001 0.1020408163263421 0 0.082207783798225631 0.091809159878798771 0 0.10000000000000001 0.081632653061067179 0 0.11606503917892 0.092831191981644676 0 0.10000000000000001 0.1020408163263421 0 0.10000000000000001 0.1020408163263421 0 0.11606503917892 0.092831191981644676 0 0.1193707164044376 0.1125679358902586 0 0.1193707164044376 0.1125679358902586 0 0.11606503917892 0.092831191981644676 0 0.13729388873166179 0.1023778823952045 0 0.1193707164044376 0.1125679358902586 0 0.1339798845637783 0.12436412822187751 0 0.1174898008840846 0.1331867759582076 0 0.10000000000000001 0.1224489795916153 0 0.1193707164044376 0.1125679358902586 0 0.1174898008840846 0.1331867759582076 0 0.10000000000000001 0.1020408163263421 0 0.10000000000000001 0.1224489795916153 0 0.081723953713685502 0.11220798238239139 0 0.10000000000000001 0.1020408163263421 0 0.1193707164044376 0.1125679358902586 0 0.10000000000000001 0.1224489795916153 0 0.10000000000000001 0.1224489795916153 0 0.077414369161380808 0.1326877944589693 0 0.081723953713685502 0.11220798238239139 0 0.10000000000000001 0.1020408163263421 0 0.081723953713685502 0.11220798238239139 0 0.082207783798225631 0.091809159878798771 0 0.065519376542323787 0.1020060103813805 0 0.082207783798225631 0.091809159878798771 0 0.081723953713685502 0.11220798238239139 0 0.065519376542323787 0.1020060103813805 0 0.081723953713685502 0.11220798238239139 0 0.064954619147309406 0.1186102718044463 0 0.077414369161380808 0.1326877944589693 0 0.064954619147309406 0.1186102718044463 0 0.081723953713685502 0.11220798238239139 0 0.052231975381521037 0.1324697710711607 0 0.049315670342561173 0.11135059134879691 0 0.064954619147309406 0.1186102718044463 0 0.065519376542323787 0.1020060103813805 0 0.064954619147309406 0.1186102718044463 0 0.049315670342561173 0.11135059134879691 0 0.033420380235769848 0.1007185673550383 0 0.049315670342561173 0.11135059134879691 0 0.034087126905203192 0.1209861277781773 0 0.052231975381521037 0.1324697710711607 0 0.034087126905203192 0.1209861277781773 0 0.049315670342561173 0.11135059134879691 0 0.033420380235769848 0.1007185673550383 0 0.049933671108161173 0.09180167525965921 0 0.049315670342561173 0.11135059134879691 0 0.065519376542323787 0.1020060103813805 0 0.049315670342561173 0.11135059134879691 0 0.049933671108161173 0.09180167525965921 0 0.065519376542323787 0.1020060103813805 0 0.049933671108161173 0.09180167525965921 0 0.065437769419401298 0.08280988356141343 0 0.049796226955297958 0.071615432852654121 0 0.065437769419401298 0.08280988356141343 0 0.049933671108161173 0.09180167525965921 0 0.049796226955297958 0.071615432852654121 0 0.06509133171351128 0.061536721924481862 0 0.065437769419401298 0.08280988356141343 0 0.049796226955297958 0.071615432852654121 0 0.034559277816410987 0.081557337373673669 0 0.034597865044751562 0.059538283100065183 0 0.049796226955297958 0.071615432852654121 0 0.049933671108161173 0.09180167525965921 0 0.034559277816410987 0.081557337373673669 0 0.033420380235769848 0.1007185673550383 0 0.034559277816410987 0.081557337373673669 0 0.049933671108161173 0.09180167525965921 0 0.019904986126699369 0.070829013869890683 0 0.0345592778
[...]
<PointData Scalars="temperature," Vectors="" Tensors="">
<DataArray type="Float64" Name="temperature" format="ascii">
1.0019062506345262 0.97910909719015959 0.95637542996498537 1.0007721876467017 0.98089689453805817 0.99997699452172872 1.002561939592518 0.96859697038827952 0.9580544882123706 1.0027620168816507 0.95803084781515824 0.97916387790825676 0.91877801852453833 0.919362067945804 0.95796763655247441 0.95397066515988527 0.95701563036313009 0.92050816666018864 0.95445629423536349 0.9802397785682837 0.95626565220080961 0.89692827497324945 0.92001944659420298 0.87301403857801296 0.89909375557789384 0.95642399409368872 0.91835089936020842 0.83226106521804755 0.87417433404561318 0.80894446233744066 0.8354733275590277 0.8986280896747989 0.87122719507221003 0.8111200676777065 0.87227060018598646 0.85393238749227385 0.92282813876560743 0.85458802829579106 0.87195315359715098 0.91979877367454932 0.87480878292568642 0.91848689225507407 0.83849853236133687 0.85349287044593836 0.89870101902533794 0.91970113794388686 0.89489659697259749 0.85731446269889622 0.93201894537769381 0.88773921083211949 0.89489259293032841 0.84215301781179197 0.89504203259654602 0.8873983250148102 0.91855467103365407 0.96374964453349909 0.8966288675103451 0.92763425497160368 0.89974473146863887 0.96054720413138706 0.92354475262795355 0.96902121908049277 0.95856717616180387 0.92169332545797134 0.95558793199192127 0.97091014471171744 0.99936504010897476 1.0024841825091979 0.97231830591692847 1.0044180904148534 0.95830615266688457 0.96923477965351101 0.99874263676448116 1.004377331065887 0.96553791183330673 1.005904606043075 0.96597638090066396 0.96266240731429542 0.99274588489370641 0.97375881622241145 0.96813466502338719 0.98897220438670885 0.9736297451237812 0.99170474181880186 0.99769970223782001 1.0025995128506513 0.99167092161624948 0.99813531696390789 0.99140080822294041 0.97296853635380631 1.0040120272906792 0.98072036833376686 0.98823092071571073 1.0020597298181668 0.98931837061008621 0.99153431501300771 1.004048011409834 0.99809389814611726 0.98156433661400333 0.99209800005372761 0.97421104136656489 0.9742173767972131 0.94569345350618261 0.94387668704745942 0.98192405216007661 0.97259250964012212 0.97535740873638455 0.94883311417799421 0.95388286933460864 0.94379581140758517 0.91333810003867322 0.97844524951629586 0.95685583063208413 0.93751817091015843 0.97823398739881817 0.94253944303002213 0.9565940940005947 0.95721701733800935 0.90388245307115378 0.9360023941411022 0.97445681022116293 0.94205071424338971 0.9665435886245809 0.9302061391430384 0.97368768923385984 0.93570741226645071 0.93145227695047395 0.95602514798968385 0.97155792893185322 0.89791496894380585 0.88717956942626863 0.94202413652218975 0.92829389196802004 0.93724364261401027 0.89190965389077859 0.89848613555564005 0.84522612487120519 0.88613633592557228 0.80299637233047116 0.83986532852188478 0.86833185873000662 0.9023492605740322 0.86730429738487425 0.84150472924565445 0.93789531050712127 0.87331924804978789 0.89587991311502846 0.9618045849880692 0.93696122490671718 0.89831710242249174 0.96146900427443771 0.89966828035880908 0.9374920873482756 0.96009921158208467 0.90849178880233861 0.90152085685092676 0.91251471273720253 0.86739416685262538 0.89640442922918928 0.84448244363380931 0.87200900287189775 0.90133767837722523 0.93908124771971602 0.89693065426489882 0.8765887050951453 0.94195502904550366 0.91683623678101767 0.86867967130115242 0.94160789331498451 0.87323698038903685 0.9171073294394454 0.91710258704568093 0.87246072728828838 0.83343558094254211 0.8282065580891288 0.87705045236008095 0.78843845682858438 0.83211691625810613 0.75421001571153135 0.80218289073645144 0.89540102923295528 0.82668798415323264 0.80696330503309399 0.92105379687237543 0.89554894814824626 0.83282646326513499 0.92144217492179636 0.82813443245332052 0.89541213658393903 0.89431635492261241 0.78643990661457985 0.83302730835521366 0.91672625606583003 0.83783403559392766 0.86734504109201138 0.79871382283872283 0.87289774488166683 0.83256491907711405 0.79873364195870689 0.83221237877615006 0.76547713995968092 0.7831404505156917 0.76141370858169211 0.83681871906162708 0.69587341472297648 0.73373584187262153 0.76276225663598218 0.80197611705093808 0.76267507979392934 0.73403891581354763 0.73165631303088563 0.73359423117712674 0.6800512059884396 0.69187026695874787 0.6759383101669677 0.73720104192695068 0.7308315612618268 0.78808046355399997 0.73448678213462415 0.79821004346902569 0.73754387940545774 0.78496694892387742 0.79870285436945454 0.78501218302891274 0.84434141354843295 0.83763785331223262 0.84028528845208383 0.78880060178843925 0.83817670736955063 0.89122447422176132 0.84020106621783508 0.837840507761618 0.792077420640659 0.85377673444703372 0.84127593789044164 0.7853334934865065 0.78880922744757809 0.73449512029838826 0.7891796200843002 0.78451889446179335 0.80915064710777052 0.78836870928920855 0.74621020900962953 0.73240521451322138 0.74317418423919035 0.79126258644501224 0.80840221840614368 0.85661093379749331 0.78945433425345812 0.76879878091951981 0.83417977941202337 0.80677550369661311 0.76567392794823497 0.80982166558580959 0.74511069735026303 0.70403033654609237 0.76784548433531707 0.74272709602704357 0.70091924033832753 0.74546332411050942 0.68152480725221243 0.73109945844187951 0.68306218956365328 0.74427340709003009 0.62860777056998773 0.68081270986389464 0.67680462781919837 0.73394671728623828 0.67771866020426075 0.67994175621906761 0.64352206251854216 0.7032497706746087 0.67912361314629832 0.63969466365640348 0.68244709268384562 0.62628077745431587 0.58885190413708566 0.64255504081373205 0.62310299351461718 0.5413003750057046 0.58846427121093359 0.57277430068369994 0.58490312645333287 0.62703282559648033 0.57648752762974598 0.58104524580927952 0.5735428498794497 0.62667523244289025 0.62732088212945591 0.62350495385277083 0.57691618267250688 0.6259071714158283 0.67951743626956063 0.62536581515829082 0.69024689471502021 0.6272514295239775 0.67683449990938693 0.69284810327733781 0.70897703996816397 0.64575323050863331 0.68155480373696953 0.64202646818244191 0.71255060033846895 0.69470873189572224 0.64408496330709797 0.62338506574387798 0.58207218789066772 0.62563831539612003 0.64146085067701908 0.58087626786761104 0.60017935930889132 0.54880863174670136 0.57831523010452479 0.64504380622577162 0.60258803091962931 0.67907237924377695 0.60372969646356012 0.64384659461851101 0.68309231622083855 0.6463776011637723 0.59977080986726039 0.56175816905060072 0.60253297364146763 0.64313016646820331 0.56126585122289629 0.545729324289012 0.60341219557616232 0.50143759671716348 0.5308927441788216 0.54666648934204598 0.57858497608173598 0.53244874807262588 0.575846022030855 0.58180839676476881 0.54784397725463274 0.52917006851857351 0.53701485223258971 0.57647393925592061 0.53119979676084306 0.49982178374290959 0.54098619591733166 0.52744729329490192 0.49375293785246216 0.53257459438014465 0.49782146259610832 0.46377650172911367 0.49892450748882367 0.492385438974839 0.50067931567955648 0.5001943747296751 0.46092734405812896 0.47940040098825404 0.45754128239277814 0.50268044693877034 0.4341396308206395 0.46375073597296029 0.45594930015412577 0.45787036942089632 0.498049204830671 0.46165426269796001 0.42848364830454894 0.46089923355217682 0.43322996228262994 0.40094242454347845 0.43420565289899499 0.41426923801566123 0.40791521200852759 0.43391061373831386 0.42800852024771296 0.41752958085704756 0.43273468591774583 0.45752951692730948 0.4796948534592983 0.46006984827811309 0.42971413077919707 0.47566965643649356 0.43382107581706009 0.46101513261992749 0.47935635776017871 0.51584262842063688 0.46060432218791914 0.47605630786036884 0.54148051588317192 0.51907534509979836 0.48522402505074752 0.45742765826273057 0.51927145863269131 0.48413963763206663 0.51996100870752238 0.57002128591880541 0.60129032991516673 0.57439166127355401 0.51617993111669858 0.59703183841518215 0.52010611642472504 0.54031056866794847 0.60037024550907003 0.5375701167886292 0.61844389872419336 0.55975019905844114 0.6137140455689688 0.54201493653786692 0.48013044818331635 0.5022414746250039 0.53786130764581197 0.56192850313100307 0.54039718823833127 0.50010438253714706 0.49687886259547304 0.5495415566745111 0.55608382426318437 0.49574246565937985 0.55698757713335967 0.50372650267075703 0.55677560128661074 0.6476466031224184 0.61666593208013964 0.7058491407009716 0.61883919142830279 0.64608111187339656 0.83495706175984297 0.81276126566832496 0.70469995229320392 0.8100873222869861 0.69813804477471475 0.70680109697972571 0.69357277145535234 0.60183616538403262 0.61685908455365734 0.70956830966022921 0.6959008568027516 0.61495233506828262 0.60080014460774711 0.66985032376771192 0.5747751149588709 0.59791432669893152 0.69760326282729446 0.67312103828179237 0.64052324040913555 0.5714397590844712 0.67332192228425269 0.77003176405618556 0.64002249845780479 0.67330735565449695 0.7901842315413995 0.67408607995816594 0.69633646869110843 0.79411118347759857 0.77386496136111849 0.67011686674752868 0.79395749702703855 0.65734897733664732 0.77373411268160341 0.66243939610617664 0.56746889097859499 0.65233986788933629 0.77011741307434367 0.66059880112900227 0.65356239364264068 0.78958138044634985 0.69126544680534951 0.66198438225570611 0.69210510795147917 0.59326863488950865 0.66183300743944828 0.61747474649340328 0.69125066827978021 0.71851702783106142 0.81012782741404088 0.71674624354327687 0.69268082942815479 0.81424787010872834 0.68840129647536541 0.79307796115276374 0.81417018918798756 0.79329941487380029 0.69395554846557084 0.83490445491435916 0.71480082155323199 0.81291708555987052 0.83068074431186711 0.7324011902302815 0.71912268229760234 0.73574496564922565 0.64151061837373191 0.71631258955332877 0.85185835789526743 0.77210095565049885 0.73598435538746287 0.73388174373946047 0.77449035196902904 0.67697710322057225 0.85621645367267518 0.73111320642200217 0.83281450520788292 0.85612981817058709 0.83307989990532072 0.74170052417890264 0.8305230881336102 0.70954218505703082 0.74339268905258959 0.68121550596636782 0.74100537063156291 0.64813811718914593 0.70807719658377888 0.64398523157392007 0.74525706600406816 0.67968206546143428 0.77376038950859283 0.74299327993557218 0.85203154909390466 0.74607272731393981 0.77034073883196452 0.87311277700525403 0.77413020091176932 0.77961677976678689 0.68355556558983022 0.71068252100210239 0.76992443036943226 0.78510223280842484 0.77006074999055008 0.71114846163077849 0.69282872389739858 0.76470886163064189 0.77868887992399172 0.68892090181838062 0.78243641793936702 0.71250688146027075 0.89992158818967194 0.87390509976641573 0.78015423645990267 0.89941368921070852 0.80267856899000201 0.87467234487344225 0.87763058616860745 0.8538226889361803 0.76976285256381671 0.87764317471465714 0.77127483037939415 0.85363417977927636 0.87378815770491236 0.80227931372196815 0.77545084660275543 0.71766588256494035 0.77161682609208249 0.80642853592303265 0.72148995693490803 0.80229849692063304 0.75341690700490582 0.71812259423807412 0.75697109319581912 0.68565098261457458 0.71858424768919593 0.68115353095641229 0.77022022239999421 0.72075217346439568 0.64010319613232969 0.67912107403668331 0.6226261321209664 0.64219459947130353 0.68860509207751186 0.71654751584730347 0.68667810506052673 0.64400871369369761 0.62622715772944215 0.68510032954165656 0.67202213708168035 0.62461461042329247 0.67349484274903082 0.62174833370788773 0.62227463058164911 0.62382430580926085 0.57551751429598086 0.62562706819470004 0.57228339609253243 0.58820950995739285 0.62471192291801436 0.58919894478313162 0.64021915613613489 0.53426954488854517 0.58988147010247316 0.58971184072617799 0.59479808078093488 0.64341718705758044 0.58609547911803361 0.53534351422676074 0.53503421023532405 0.57555492243928696 0.53851717018385692 0.58700627810268757 0.57381818849805144 0.49352364173114049 0.49223014956662237 0.53523394543994851 0.53767596946703222 0.49165114844574581 0.53111006305465303 0.56586277567723819 0.59548472652433471 0.53089616588802702 0.53310621314868301 0.53432480177389696 0.59082150227517127 0.59066429692177369 0.64289063197931984 0.68060100386526146 0.5675815228371055 0.6402560424378706 0.5931990580818175 0.59549416139512745 0.67627421567716861 0.64243143350694976 0.73200835057066826 0.67862279737797326 0.64541815911773404 0.62156966209225128 0.71425035950425975 0.64305419195206315 0.61993085520005176 0.64486562045520779 0.56331807706407999 0.61703197642268781 0.56575404396687379 0.54229598033434656 0.56717290917813046 0.49991987091234563 0.54090187216595564 0.62000705126512357 0.59678865045600327 0.68837684020005785 0.62115557301869906 0.53832546738143794 0.59578919777605155 0.65893482356266131 0.59587866090765285 0.57110571758698703 0.51234621146314752 0.57039135741571911 0.59638547123812924 0.51566841610049441 0.49332633859912184 0.56702525438017826 0.51600721932149596 0.4487205970882942 0.4928614322752668 0.51634331278678369 0.59258829963707005 0.54117652455541598 0.51567872214151456 0.54189026252711547 0.4761715872982295 0.43186932203396389 0.45263435920483319 0.47968238426896942 0.51202270967774388 0.4794176798959584 0.45274926068340349 0.43551175417514454 0.40835823170163804 0.44889257517037312 0.43574059723918784 0.475934321798265 0.45808325010138251 0.49174003043936643 0.45884716468341424 0.49996430901504935 0.5037651997329553 0.45473785635993086 0.47927558573499746 0.50289121617628707 0.48034168748691553 0.53785002310202668 0.48851605713994317 0.50331523538841161 0.53325704858624934 0.56349306740689264 0.53277003380448795 0.50399914589177242 0.49903676498759375 0.46431324287230119 0.48708025125965093 0.46406740277893715 0.43387413759099308 0.45374303758400375 0.45919855902728507 0.45842731885606147 0.49145034237880059 0.4283163930606122 0.4340650641902109 0.45886945207706992 0.43358491347979672 0.4076858381771411 0.42841260636126272 0.40192686497122343 0.40879855286984851 0.43391741404422346 0.54000850226814068 0.49901906921095185 0.53006207460777466 0.58848480729096675 0.54087730467447925 0.57080928918987262 0.58494776299874252 0.57427109641960172 0.62468897943164914 0.64266326261985729 0.58886093730074951 0.62118307035972598 0.83448084778119369 0.76874471713062142 0.79031953463298421 0.76822026737454252 0.70397768588187404 0.73600702969861154 0.76637805968728168 0.73803475482530789 0.79246716122566552 0.70109653060909327 0.68060710891235399 0.73854126455050739 0.70309135500825393 0.64309803438889712 0.67796109842149321 0.68111358890554696 0.62531337903930229 0.67012210984054166 0.63955129320469573 0.62447491681932388 0.68147524271431248 0.68274039981021761 0.7317655980275376 0.73601419223509368 0.6792028049429627 0.67228886852354375 0.73555145479107109 0.7249902318167889 0.73367071965651054 0.674188345393126 0.68934665583620447 0.75329714273134041 0.72569912515459456 0.6867539479864917 0.72811579703535212 0.67078996080219278 0.72632034742639262 0.75316634418632089 0.79313284533557049 0.82813130194815354 0.78792380781357585 0.75761733170314272 0.72809776418150096 0.79054282154392952 0.73033611489632455 0.81106100663253189 0.73460639665811833 0.78594808187680676 0.84479371277260185 0.79415281550470929 0.87196187473524256 0.84631561152587242 0.80589902938785007 0.7919924479688768 0.84278900938130874 0.86929414994803755 0.81003388088577566 0.84680381813468864 0.89854321775417023 0.86510500349025476 0.86452841439780426 0.81292798843063774 0.86672884534195449 0.86808331296065955 0.82214043981564255 0.80918396627275602 0.7749483134478935 0.73533153002681251 0.73283483516006487 0.77218559490195837 0.73650709497732103 0.81062980973566823 0.77453145142983248 0.80757272502002386 0.8232519840646616 0.77245600299674178 0.79207208840822196 0.73869943440003227 0.77395365170565356 0.82412532798739491 0.79042073753093445 0.84073425559051396 0.79273201417296135 0.82197771255516205 0.83181392078992744 0.79281119787382726 0.84023079691788605 0.83286248593123546 0.83945607666512723 0.89132258748096116 0.84182309608220285 0.87771770193664633 0.8892228447019509 0.92342109811196627 0.95461485753902509 0.89212534030545332 0.92380521402065352 0.88013088749884916 0.91486961145936985 0.92606423421772588 0.88912881862189974 0.87781122014304447 0.83986907086015772 0.82315516480162221 0.87991909629513065 0.86489527899961283 0.87744739253474502 0.82538629087242843 0.86523746397001688 0.91783368397076115 0.87727539926253706 0.8686523823505341 0.90875372067693538 0.91425539870087524 0.86507479199566495 0.86628187148685543 0.91231357767524934 0.9106993263020926 0.94819247703411691 0.90886543696459499 0.91048719084417828 0.90857996063554802 0.87010304657011206 0.94432324744995511 0.91220944908112112 0.94426596069298663 0.94770474294446316 0.91442914614981041 0.90880868243936175 0.92444476798771957 0.91498192764244102 0.97001610111601266 0.94368632599309077 0.96528633807352726 0.91858442962530207 0.9467158962538571 0.97937440604290193 0.96239573010017221 1.0053211489178537 0.9685491894043653 0.97400292244342723 1.0027840919489162 0.99978926801575285 0.97264793930210725 1.0033240760702171 0.95633570914444288 0.96378354375073128 1.0024957051836754 0.99887962598024793 0.96874203980506068 0.92585633788380495 0.9674436787205003 0.95203210629642987 1.0008235273137343 0.95888209638250033 1.0022067097485148 1.0049638884346195 0.95566073165067489 0.95369525490831786 0.95577175363858757 0.90100431025935446 0.95354665510811965 0.89772202319919359 0.88990428668850408 0.95685500668235224 0.89855445822962599 0.83595040562173928 0.88862900359629526 1.000705331250799 0.99964787238427533 1.0000666058845764 0.99710064976408896 0.84033402260864076 0.82232240388014699 0.74997714168423901 0.73206002416376548 0.92550281825607361 0.9094321351081458 0.90955831579800051 0.89281960532706439 0.76802406765725018 0.75000927360511782 0.62739769940620826 0.61066398196360261 0.61060791443409967 0.59411494065891024 0.41533741590111128 0.40231979708720084 0.42872082588377469 0.41540625770322387 0.44238801339830924 0.42878746620224939 0.89291056023897819 0.87566385577927719 0.87572268275928322 0.85811965031098647 0.85815611684227278 0.84031464464271266 0.45632302838030758 0.44245438730995762 0.71419182133129377 0.69654445550700106 0.82231971719198205 0.80423319818773986 0.47054104031298905 0.45638952446427006 0.4850512310476669 0.47060655494449871 0.49982024533158209 0.48511475880383637 0.7861179066826488 0.76804607720296936 0.59405705736436354 0.57778725797040165 0.51487846427627348 0.49988419227807462 0.57771809554672815 0.56168511120946962 0.53021114944077963 0.51495106852834949 0.54578890679177561 0.53027159853548 0.80422175559846898 0.78613321627119637 0.56161355542211333 0.54584889483478272 0.64438144708696443 0.62744757686489039 0.31888524459360817 0.30891170837777715 0.34122968436126733 0.33004353940616682 0.35282037901171687 0.34130950598636056 0.67895637316932322 0.66162812294511664 0.99755228933131157 0.99253175119166548 0.32993537455104532 0.31913158704807354 0.66158077894393141 0.64442819457836087 0.99300390489578771 0.98586498144405377 0.36474465086669655 0.35289324881206624 0.98629454683427398 0.9771146953816171 0.97751985951134801 0.9664419511026151 0.73202356987194706 0.71423644363468786 0.96679347116506043 0.9540789466643167 0.94052224240094839 0.92532965165181391 0.6964973015257665 0.67900061685188517 0.40225654186295129 0.3895253599679796 0.38946274329026842 0.37701793979321685 0.95435528247242218 0.94029490697288987 0.37695530853857434 0.36481658475205503 0.25305788203423596 0.26443518016991441 0.27598357844377969 0.26886471570220982 0.25822393717124392 0.27074262191458526 0.25783875738055373 0.24841634993914249 0.25937972448017943 0.24437590909016207 0.25382185962725279 0.26363258936292933 0.24811756626982154 0.23891982766741196 0.25025806377063253 0.2597592656642202 0.23806221553543347 0.26990934910062697 0.23250262387182774 0.24117527785658421 0.25545517522747585 0.23299654765744224 0.2555444880754224 0.25502004435672798 0.28201387603637307 0.25187081402489986 0.26010951458