<?xml version="1.0"?>
<VTKFile type="UnstructuredGrid" version="0.1" byte_order="LittleEndian">
<UnstructuredGrid>
<Piece NumberOfPoints="3764" NumberOfCells="1271">
<Points>
<DataArray type="Float64" NumberOfComponents="3" format="ascii">
0 0 0 0.01142230349469592 0.01018508895725519 0 0 0.02040816326539097 0 0.024999999999941638 0 0 0.01142230349469592 0.01018508895725519 0 0 0 0 0.024999999999941638 0 0 0.038487747360091522 0.016387646381637401 0 0.0211689540835866 0.020294207212749191 0 0.024999999999941638 0 0 0.0211689540835866 0.020294207212749191 0 0.01142230349469592 0.01018508895725519 0 0.035194166143748373 0.036267990104473 0 0.01479277905737322 0.034115505761851322 0 0.0211689540835866 0.020294207212749191 0 0 0.02040816326539097 0 0.0211689540835866 0.020294207212749191 0 0.01479277905737322 0.034115505761851322 0 0 0.02040816326539097 0 0.01142230349469592 0.01018508895725519 0 0.0211689540835866 0.020294207212749191 0 0 0.040816326530782043 0 0.01479277905737322 0.034115505761851322 0 0.01831348993664601 0.050179875844019929 0 0 0.040816326530782043 0 0 0.02040816326539097 0 0.01479277905737322 0.034115505761851322 0 0 0.061224489796173009 0 0.01831348993664601 0.050179875844019929 0 0.019904986126699369 0.070829013869890683 0 0 0.061224489796173009 0 0 0.040816326530782043 0 0.01831348993664601 0.050179875844019929 0 0.019904986126699369 0.070829013869890683 0 0.01831348993664601 0.050179875844019929 0 0.034597865044751562 0.059538283100065183 0 0.035194166143748373 0.036267990104473 0 0.034597865044751562 0.059538283100065183 0 0.01831348993664601 0.050179875844019929 0 0.035194166143748373 0.036267990104473 0 0.01831348993664601 0.050179875844019929 0 0.01479277905737322 0.034115505761851322 0 0.049796226955297958 0.071615432852654121 0 0.034597865044751562 0.059538283100065183 0 0.050584644170265841 0.049990004250751632 0 0.035194166143748373 0.036267990104473 0 0.050584644170265841 0.049990004250751632 0 0.034597865044751562 0.059538283100065183 0 0.06741623899727188 0.043431041269210921 0 0.06509133171351128 0.061536721924481862 0 0.050584644170265841 0.049990004250751632 0 0.049796226955297958 0.071615432852654121 0 0.050584644170265841 0.049990004250751632 0 0.06509133171351128 0.061536721924481862 0 0.035194166143748373 0.036267990104473 0 0.057137757658075793 0.024268715362519691 0 0.050584644170265841 0.049990004250751632 0 0.06741623899727188 0.043431041269210921 0 0.050584644170265841 0.049990004250751632 0 0.057137757658075793 0.024268715362519691 0 0.035194166143748373 0.036267990104473 0 0.038487747360091522 0.016387646381637401 0 0.057137757658075793 0.024268715362519691 0 0.035194166143748373 0.036267990104473 0 0.0211689540835866 0.020294207212749191 0 0.038487747360091522 0.016387646381637401 0 0.024999999999941638 0 0 0.049999999999868497 0 0 0.038487747360091522 0.016387646381637401 0 0.049999999999868497 0 0 0.057137757658075793 0.024268715362519691 0 0.038487747360091522 0.016387646381637401 0 0.049999999999868497 0 0 0.07499999999993355 0 0 0.057137757658075793 0.024268715362519691 0 0.07499999999993355 0 0 0.080950281899397181 0.026970278689124379 0 0.057137757658075793 0.024268715362519691 0 0.10000000000000001 0.020408163265267731 0 0.10000000000000001 0.040816326530532299 0 0.080950281899397181 0.026970278689124379 0 0.10000000000000001 0.020408163265267731 0 0.080950281899397181 0.026970278689124379 0 0.088491713649877388 0.01129776753660997 0 0.07499999999993355 0 0 0.10000000000000001 0 0 0.088491713649877388 0.01129776753660997 0 0.07499999999993355 0 0 0.088491713649877388 0.01129776753660997 0 0.080950281899397181 0.026970278689124379 0 0.10000000000000001 0 0 0.1186263405973806 0.02146853907924717 0 0.10000000000000001 0.020408163265267731 0 0.10000000000000001 0 0 0.10000000000000001 0.020408163265267731 0 0.088491713649877388 0.01129776753660997 0 0.10000000000000001 0 0 0.1249999999999323 0 0 0.1186263405973806 0.02146853907924717 0 0.10000000000000001 0.020408163265267731 0 0.1186263405973806 0.02146853907924717 0 0.10000000000000001 0.040816326530532299 0 0.133965734735811 0.0345517845108698 0 0.1184025638397351 0.044620515969080433 0 0.1186263405973806 0.02146853907924717 0 0.10000000000000001 0.040816326530532299 0 0.1186263405973806 0.02146853907924717 0 0.1184025638397351 0.044620515969080433 0 0.10000000000000001 0.061224489795794243 0 0.1184025638397351 0.044620515969080433 0 0.1224113123827702 0.061448209743527132 0 0.10000000000000001 0.040816326530532299 0 0.10000000000000001 0.061224489795794243 0 0.083041428864014916 0.050921892867974709 0 0.10000000000000001 0.040816326530532299 0 0.1184025638397351 0.044620515969080433 0 0.10000000000000001 0.061224489795794243 0 0.10000000000000001 0.061224489795794243 0 0.08048382778577895 0.07165939129726534 0 0.083041428864014916 0.050921892867974709 0 0.10000000000000001 0.040816326530532299 0 0.083041428864014916 0.050921892867974709 0 0.080950281899397181 0.026970278689124379 0 0.06741623899727188 0.043431041269210921 0 0.080950281899397181 0.026970278689124379 0 0.083041428864014916 0.050921892867974709 0 0.06741623899727188 0.043431041269210921 0 0.057137757658075793 0.024268715362519691 0 0.080950281899397181 0.026970278689124379 0 0.08048382778577895 0.07165939129726534 0 0.06509133171351128 0.061536721924481862 0 0.083041428864014916 0.050921892867974709 0 0.06741623899727188 0.043431041269210921 0 0.083041428864014916 0.050921892867974709 0 0.06509133171351128 0.061536721924481862 0 0.08048382778577895 0.07165939129726534 0 0.065437769419401298 0.08280988356141343 0 0.06509133171351128 0.061536721924481862 0 0.065519376542323787 0.1020060103813805 0 0.065437769419401298 0.08280988356141343 0 0.082207783798225631 0.091809159878798771 0 0.08048382778577895 0.07165939129726534 0 0.082207783798225631 0.091809159878798771 0 0.065437769419401298 0.08280988356141343 0 0.10000000000000001 0.081632653061067179 0 0.082207783798225631 0.091809159878798771 0 0.08048382778577895 0.07165939129726534 0 0.10000000000000001 0.061224489795794243 0 0.10000000000000001 0.081632653061067179 0 0.08048382778577895 0.07165939129726534 0 0.10000000000000001 0.061224489795794243 0 0.11690923237079839 0.075771674886482066 0 0.10000000000000001 0.081632653061067179 0 0.10000000000000001 0.061224489795794243 0 0.1224113123827702 0.061448209743527132 0 0.11690923237079839 0.075771674886482066 0 0.1224113123827702 0.061448209743527132 0 0.1353873695908793 0.070572908111639798 0 0.11690923237079839 0.075771674886482066 0 0.13083011011621179 0.085621994819866154 0 0.11606503917892 0.092831191981644676 0 0.11690923237079839 0.075771674886482066 0 0.10000000000000001 0.081632653061067179 0 0.11690923237079839 0.075771674886482066 0 0.11606503917892 0.092831191981644676 0 0.10000000000000001 0.081632653061067179 0 0.10000000000000001 0.1020408163263421 0 0.082207783798225631 0.091809159878798771 0 0.10000000000000001 0.081632653061067179 0 0.11606503917892 0.092831191981644676 0 0.10000000000000001 0.1020408163263421 0 0.10000000000000001 0.1020408163263421 0 0.11606503917892 0.092831191981644676 0 0.1193707164044376 0.1125679358902586 0 0.1193707164044376 0.1125679358902586 0 0.11606503917892 0.092831191981644676 0 0.13729388873166179 0.1023778823952045 0 0.1193707164044376 0.1125679358902586 0 0.1339798845637783 0.12436412822187751 0 0.1174898008840846 0.1331867759582076 0 0.10000000000000001 0.1224489795916153 0 0.1193707164044376 0.1125679358902586 0 0.1174898008840846 0.1331867759582076 0 0.10000000000000001 0.1020408163263421 0 0.10000000000000001 0.1224489795916153 0 0.081723953713685502 0.11220798238239139 0 0.10000000000000001 0.1020408163263421 0 0.1193707164044376 0.1125679358902586 0 0.10000000000000001 0.1224489795916153 0 0.10000000000000001 0.1224489795916153 0 0.077414369161380808 0.1326877944589693 0 0.081723953713685502 0.11220798238239139 0 0.10000000000000001 0.1020408163263421 0 0.081723953713685502 0.11220798238239139 0 0.082207783798225631 0.091809159878798771 0 0.065519376542323787 0.1020060103813805 0 0.082207783798225631 0.091809159878798771 0 0.081723953713685502 0.11220798238239139 0 0.065519376542323787 0.1020060103813805 0 0.081723953713685502 0.11220798238239139 0 0.064954619147309406 0.1186102718044463 0 0.077414369161380808 0.1326877944589693 0 0.064954619147309406 0.1186102718044463 0 0.081723953713685502 0.11220798238239139 0 0.052231975381521037 0.1324697710711607 0 0.049315670342561173 0.11135059134879691 0 0.064954619147309406 0.1186102718044463 0 0.065519376542323787 0.1020060103813805 0 0.064954619147309406 0.1186102718044463 0 0.049315670342561173 0.11135059134879691 0 0.033420380235769848 0.1007185673550383 0 0.049315670342561173 0.11135059134879691 0 0.034087126905203192 0.1209861277781773 0 0.052231975381521037 0.1324697710711607 0 0.034087126905203192 0.1209861277781773 0 0.049315670342561173 0.11135059134879691 0 0.033420380235769848 0.1007185673550383 0 0.049933671108161173 0.09180167525965921 0 0.049315670342561173 0.11135059134879691 0 0.065519376542323787 0.1020060103813805 0 0.049315670342561173 0.11135059134879691 0 0.049933671108161173 0.09180167525965921 0 0.065519376542323787 0.1020060103813805 0 0.049933671108161173 0.09180167525965921 0 0.065437769419401298 0.08280988356141343 0 0.049796226955297958 0.071615432852654121 0 0.065437769419401298 0.08280988356141343 0 0.049933671108161173 0.09180167525965921 0 0.049796226955297958 0.071615432852654121 0 0.06509133171351128 0.061536721924481862 0 0.065437769419401298 0.08280988356141343 0 0.049796226955297958 0.071615432852654121 0 0.034559277816410987 0.081557337373673669 0 0.034597865044751562 0.059538283100065183 0 0.049796226955297958 0.071615432852654121 0 0.049933671108161173 0.09180167525965921 0 0.034559277816410987 0.081557337373673669 0 0.033420380235769848 0.1007185673550383 0 0.034559277816410987 0.081557337373673669 0 0.049933671108161173 0.09180167525965921 0 0.019904986126699369 0.070829013869890683 0 0.0345592778
[...]
<PointData Scalars="temperature," Vectors="" Tensors="">
<DataArray type="Float64" Name="temperature" format="ascii">
0.96626907629834002 0.77958067694553945 0.5860782057852183 0.9932918004566349 0.75407942860841648 0.99375064492992626 0.9457594975936543 0.66633239022005453 0.60311412162794531 0.96505296304681987 0.58695398510484953 0.78040906969136703 0.42500230373986175 0.44122151243377861 0.59257275300278478 0.60766306040375617 0.60837228549339184 0.42689703369999388 0.60935761807232092 0.76532197910843247 0.60913115815506691 0.37959276356966221 0.43667988291741089 0.30306093133928508 0.36744456129058761 0.5856003541890159 0.44472694608214192 0.2407710523409346 0.30213899954118872 0.19660571776783556 0.2311450075945494 0.36836913238253272 0.31189995515404478 0.19826054239215565 0.30216125001904703 0.26741849610907659 0.41637625196025074 0.25650019036885713 0.31079391947287766 0.4304083054012493 0.30015332616308354 0.43814806714922966 0.23633504722547261 0.26554993800319188 0.34200053143833037 0.41295826854643763 0.34421378765921029 0.26082800854021132 0.43410847519859952 0.32699449741479525 0.3408598154614732 0.23895609721992422 0.33719138125659975 0.32755216749571009 0.42906571684555272 0.56308964794496597 0.32693471443995575 0.42995115434698139 0.33935455517166524 0.54793380283548598 0.41883137345799287 0.65200556147709521 0.57612977044732894 0.40603885198444756 0.60995515198025996 0.6628547777300472 0.98546954553911859 0.98227865308984996 0.61863061957409082 0.93290925343739639 0.54365482955278255 0.6755873170065807 0.96226434809504124 0.9820934878463905 0.49943687022545002 0.91985655312887471 0.5886930127991703 0.56881465604145309 0.81776103544319978 0.68949429454328148 0.58436319057503405 0.79276750672902907 0.61665754656525484 0.80762886683942936 0.95837724786949618 1.0262274522215713 0.79517989650444876 0.92062975571349037 0.82546758380125551 0.59352751390895253 0.97973058324599338 0.66524097835507201 0.79058248099084927 0.99611197140786656 0.78818371178867652 0.8171597134632812 1.0146790833193819 0.94123340833061508 0.62183457516261387 0.8160303719027886 0.62524108210806473 0.6880262808491372 0.49582052286677858 0.48535596497685357 0.66767075779121388 0.66634247704722416 0.63883142281171834 0.49807946972042116 0.59192729763644003 0.49538751054453939 0.38869228257990712 0.70608610218724566 0.62988969990625598 0.4535650203345874 0.70369652731096133 0.4671424233430404 0.62887675036128676 0.60092991114479066 0.37939319912692815 0.47477203077057806 0.67371130284293768 0.47838627795218813 0.58896016690662512 0.43322502114164851 0.6124187426169001 0.46610843053097206 0.42770321110001952 0.5542625154105093 0.61617225189252234 0.38251217237397372 0.32105569328538802 0.47961666057596403 0.42858673398318758 0.46885024349622495 0.32939880258515158 0.37601249318609942 0.26207173263577471 0.32526580452525922 0.22199626432711994 0.26124632960897598 0.3362536263828203 0.38644062437813104 0.34725268458962544 0.25403895345553834 0.54448350900514808 0.34738669860295918 0.37730089857460059 0.6316351264886868 0.57514719200606623 0.34980854331683059 0.63137330323860419 0.36899303735830519 0.57515663310120702 0.59821006988813141 0.3841573341560296 0.39802472950973439 0.39996688531194163 0.28735987480277247 0.38827762060492815 0.26686810956308604 0.36151381965026702 0.39581269071721026 0.55169041490959514 0.38928353800082355 0.36124771979544834 0.57432961262113646 0.53137648137235172 0.3196342829973296 0.57544643674943008 0.33818456670633529 0.53064770375629655 0.50399573070223402 0.36297575149132899 0.29300479311376965 0.30077087397016827 0.3572787097070273 0.19333530939999174 0.30023272351572444 0.18465321462571802 0.28631170583943921 0.46146164825525832 0.29596456083790568 0.28376899519106025 0.52787829824975807 0.49158973285533852 0.28008748995901706 0.52806618457845134 0.26780972509206519 0.49077509839189426 0.45834042367011191 0.23900218915619639 0.31051701379755281 0.50093140232357103 0.30464306569736888 0.34715284689453652 0.21242534106949104 0.34790834287750266 0.31019905618735399 0.22324955433194305 0.29780072667293667 0.19546804484764246 0.25372475941746231 0.1907517812565728 0.30495357173129417 0.13375314022312729 0.14953040409744062 0.19231335599665816 0.22344278301909232 0.19754271137384016 0.14451365565860513 0.13375998576035469 0.14727256916042875 0.10561220565477222 0.13309533929695999 0.10215680060916728 0.15059884084475503 0.1318160490336493 0.18563011857921102 0.14954857494295662 0.21771293211565115 0.14886423027745271 0.18497829321813053 0.22329534216792499 0.18116532436974545 0.26321226223811256 0.23852600284552281 0.2578024142426224 0.18499898563914449 0.23766745687077606 0.32996398996954951 0.25984379330741308 0.24063846264387989 0.1780072780171531 0.26015376570844345 0.24103418395834486 0.1841986587438848 0.17914067896189412 0.13355689654981431 0.17903427081906373 0.18352704346512461 0.19918572046117075 0.18041560393175948 0.13737696163473265 0.13346583677746546 0.13840042881440978 0.17983669917272177 0.2031724880295977 0.26262130694444208 0.17654125295079706 0.15442867475776317 0.23477351185328463 0.20290504835438106 0.15846950104255186 0.19930893859330506 0.13702417008373555 0.10831196972978541 0.1567030706119576 0.13901256192051537 0.10944688157779631 0.13773932151878568 0.098931998277556249 0.1337501511597339 0.099064796645390224 0.13766211439844217 0.078320426350051861 0.099501505743691099 0.1048045985235051 0.13422687070281358 0.10565951461399907 0.098709482398244133 0.080161050317459126 0.10939794048706585 0.099148289068274581 0.079152211784714571 0.099904797818414909 0.077601403629252039 0.062405666342525964 0.080424004443807248 0.076161768334697066 0.051390264444763176 0.062839577306154318 0.060906850845752251 0.060774476227619077 0.077923147198110193 0.06299231127356468 0.074072785422581819 0.060579722948329556 0.086996855184951594 0.078807321863842136 0.085223934620326736 0.062320964022356463 0.077293275683000956 0.10614310587450725 0.087178122668085042 0.12859623077978494 0.086293818369901576 0.10557489393008956 0.13405835415575626 0.16594426293281328 0.11111902905569172 0.15820391985926513 0.10654796052698061 0.17026504189899838 0.13263863724698682 0.11281351844862364 0.082962266748128302 0.073037794366624845 0.087543298205527934 0.10801347459972059 0.073966855829002268 0.093978807786471316 0.066189137608720888 0.070071443219295343 0.11096422575414723 0.097801822970443195 0.15092791044690043 0.095433154584289789 0.11245002350979227 0.15600640113298087 0.14190496765099972 0.090919835719693198 0.081936054748231388 0.097732209109402654 0.13405776451614099 0.084628332555717278 0.064196321562932285 0.096255961743937329 0.050187225784994099 0.0530363399224325 0.065070509006034616 0.071607974365243215 0.053044304921767323 0.062889628084666735 0.073701023948043121 0.066692744997080528 0.051049477098102897 0.049325727726092297 0.062727012806501739 0.053091502332716589 0.043779414171489825 0.051581071903902598 0.050956276032443286 0.040807208845026303 0.053552972917761371 0.048899969514866436 0.038149638954902219 0.043667542711232979 0.045903670221024144 0.050221762433343198 0.05655403328582638 0.04114009557340232 0.054220278775435546 0.039433954271503806 0.057808879515052897 0.034538137972805402 0.038341217722424083 0.03928813939926612 0.03547292422943172 0.04846547727989501 0.042032702382873842 0.032162214745718939 0.041404182935639355 0.037909038132982666 0.028591293132945592 0.038053613001778945 0.036656866957506154 0.031293358654488915 0.034545055165425276 0.035588883266319218 0.037563093465461939 0.037634687314052125 0.049331489173230568 0.05383278895211592 0.05118680605706645 0.035567382144120842 0.05169241171877588 0.037642511362275567 0.041756657973702427 0.054099104592195683 0.074854371079580651 0.050715731032941774 0.050797604916129481 0.081963529344902267 0.078349431517485385 0.067641916798448554 0.04893336695411675 0.076962993196985657 0.064847923575491434 0.078785145003922821 0.10975321407155186 0.125680344633504 0.11639762659064572 0.073112437730890531 0.12068826581040985 0.077300255744271004 0.082059311740198204 0.12722723436572203 0.076641008303696537 0.12988854541270756 0.082942353674614264 0.1240009023328083 0.082032006827057552 0.053745959557847209 0.058026761720962841 0.079091225958153016 0.083808791512958669 0.082302928441699452 0.055397786879937412 0.046351178430629546 0.067729169844419179 0.079945086418897304 0.046775199463295045 0.079215893796331552 0.058811862051763468 0.076117442985735972 0.13954278529516453 0.1308540880524636 0.20267010889775713 0.12889209545244676 0.14113231098509221 0.38835096445209144 0.366399714907722 0.18490965764303677 0.34294584032263892 0.2070226907180307 0.20857487252841933 0.19907858447799878 0.12548386653440302 0.12993866980598401 0.21084279809888473 0.20966554310063254 0.12112614206556625 0.12734397060646474 0.18493799013604267 0.11330959208067357 0.11823640517552146 0.20729828106513784 0.19553226733364226 0.17192110517303283 0.10858602059431095 0.19075206729302882 0.29669410463880669 0.164008661431568 0.19453552764129994 0.32029665887810982 0.18989002678354322 0.20942165560236756 0.33668362450894435 0.31732996362316374 0.17485475587620236 0.3357713064798436 0.16019009275764082 0.31728905795870321 0.18240481163771449 0.10576670775683104 0.18113946693675603 0.29682546105488528 0.18074654283443428 0.17839008001213005 0.31839506407791329 0.20439594740013015 0.17713564124908754 0.20179737691504021 0.116100591369678 0.18478114774489046 0.12303714259750308 0.2060193558368596 0.21979961486722946 0.34317920587010642 0.22162642733650617 0.19997552399380519 0.36176865294326843 0.1825894641379722 0.34080616042941525 0.36132318604225055 0.34128670985934295 0.18946742791649776 0.38892324352359298 0.19936786262302278 0.36642511802649941 0.36788865097257878 0.22472815839373186 0.21927203687741612 0.22710092862976111 0.12999939887875622 0.22247631653396524 0.39702951715830059 0.26228915401158148 0.22062492482164842 0.23002627938648232 0.25829578008423137 0.14484222491566992 0.41842576848169649 0.19941729761117799 0.39353642435555164 0.41883170113142004 0.39399296923862726 0.21582932850581729 0.36835168042103605 0.20442709682270344 0.24048251882170713 0.15783886601587238 0.22833671101183056 0.13812059644219599 0.21343443860834796 0.1311664405096547 0.23656624975459359 0.14684368414105617 0.25757094399397679 0.24138270696099137 0.39735951020817445 0.23569732701609308 0.25837591036386648 0.42432140220631498 0.25791405326866629 0.24265524816404899 0.1553843180232837 0.1711711719640088 0.24825399949029686 0.25161961295138296 0.25820005321487771 0.16485277241196905 0.12298041908676335 0.20042922807668248 0.24004855060499602 0.12382525727363095 0.23836024214422888 0.17341717371177839 0.4856523352117792 0.45554636718802755 0.21228889752345928 0.48738312936979322 0.25992805893621018 0.45600639659535003 0.45047449565968373 0.42403353589461723 0.23333707671473031 0.45189422799890977 0.23714951974554979 0.42320795211562601 0.42916261576060738 0.28501159985538749 0.25789417172570533 0.16630267019118786 0.26342297619559507 0.28452372191298492 0.17527407223775324 0.27394438105320112 0.19390984165672026 0.17760416813295496 0.19405687119084997 0.12324624617574487 0.17761245489863869 0.15185825582728008 0.25003286430690674 0.17547697654622343 0.10444566483801404 0.15610786398767329 0.08304339635982555 0.11124302671419635 0.1282425767254825 0.17002271244256376 0.12938546893788197 0.10896528039146794 0.085930711724075778 0.12512096848921181 0.10441859719187492 0.086712496762948427 0.10410012157636477 0.074436209539093315 0.084304975169704324 0.076557321222955055 0.062237617584518581 0.086520679919498883 0.060311560146073098 0.076518905605490586 0.086931140823387376 0.075884412883106975 0.10739564941607942 0.052836014934043947 0.088506535432647707 0.07750176018314546 0.09329618072218529 0.10960671035953483 0.073879633582774606 0.048321316129021366 0.05551134230411571 0.062886003925094594 0.056770063484607419 0.074726400952252151 0.062354646204003376 0.04069746754170659 0.046519898090404431 0.055041053476928503 0.05692472218492603 0.045594832683964193 0.062062531733389777 0.087918967644155757 0.092285671693248111 0.060701648391041634 0.053476794158006956 0.064228643198922949 0.087536297927096912 0.084456989193150436 0.14044590282718356 0.15325287433944443 0.087345754527812083 0.13311579930332418 0.091688722014111976 0.090221808880993459 0.1479263586227835 0.11146161011579456 0.21864248519959911 0.15524564678708119 0.13804218771584992 0.1308227748953536 0.21086941405749399 0.13955441682814312 0.1331908182150926 0.13906846101800188 0.081953704604301597 0.1265576563312335 0.087653269526105984 0.0819686604748356 0.087559414515375564 0.053924054652811887 0.082899885597687892 0.13265118470170215 0.12155624930274368 0.19497681437838169 0.13170950187674277 0.077393140902789828 0.12406871568337997 0.17578162588823404 0.12387125917957656 0.11190352093011717 0.071329032184992147 0.11427850069544297 0.12229124910276251 0.076653357913540068 0.070102840002664202 0.1087062461978722 0.075970142431651635 0.046067740316417437 0.071308030688042159 0.07558892119162601 0.11789524247809482 0.082802814706441602 0.076945288585632945 0.082193301624928286 0.050930184670043531 0.036761776895819033 0.049671897554899487 0.053782713694992407 0.07315116782890238 0.054257228583706317 0.048752181189368596 0.038966859899428954 0.034010793837293919 0.047316138830591312 0.038662041028523421 0.051792830667819534 0.040939809682832735 0.046354617764357196 0.040763892851481465 0.055287285642819282 0.057382875918238582 0.038623975226679125 0.054244290296451191 0.057440195147411839 0.053866166867317322 0.079097942540314964 0.043988495361382926 0.057798961884721479 0.063149047634922781 0.08446026680693397 0.063500411338036036 0.05710141841322338 0.043648299718984512 0.038488388159783796 0.0438108270859573 0.038542140220684959 0.034438934566980328 0.038870585699225711 0.03617729597767836 0.041159808389209192 0.045821939904214133 0.032133807411144862 0.038403235263709576 0.041041834451025001 0.034467409874436188 0.031230620883735231 0.035898637157805821 0.029024670739581204 0.034661495340846088 0.038045233150331946 0.051104881470483803 0.043336325969408535 0.052555396469519421 0.062719700899652495 0.051120373242496644 0.060414370641022688 0.060736451821247497 0.062345656990159613 0.07649870784060514 0.08023342349735825 0.06237784436314632 0.074989434756843387 0.23128272688213294 0.15525763954859878 0.18212805670948759 0.15556293333386306 0.10815886888065693 0.133222537882667 0.15785673749535975 0.13168944498461285 0.18091502147091729 0.10896670632608668 0.09871379584866069 0.13245109181705872 0.1085578782030015 0.079472076415936038 0.098504021223934382 0.099820189638496745 0.076153228443667231 0.10230680260364737 0.078782573732279718 0.076468744334982061 0.099430298427666083 0.099150507955617959 0.13502290690561117 0.13104860986117636 0.098223026069274896 0.10397012473620232 0.13649416961684824 0.1441194297777757 0.13645813880761259 0.10376968074586843 0.12844288264291004 0.18833913916989661 0.14648155206225158 0.12918006743981689 0.14670876787041237 0.10115219638562808 0.14273957062586387 0.19356633550259822 0.20989381119728406 0.28813616448813406 0.20577688282560755 0.19476969107598824 0.14831300483883028 0.20263497381959883 0.13129332893711732 0.20651456292004475 0.1314387120924341 0.20124273118051914 0.2767678610420588 0.20391165964993171 0.34748688504629743 0.27245750308897332 0.20033328501050363 0.21000805632196029 0.27145815622644526 0.29501345034734811 0.20187153482866357 0.27541441709290176 0.3833100851137356 0.28889739767525296 0.27764477901790846 0.20518393142153571 0.29131283201345387 0.28019712712873029 0.21671514990903662 0.20358845290799871 0.16476556741340528 0.13151221050244838 0.13554373492380645 0.16352096999291565 0.13651580229637492 0.20461612752160777 0.16338628573591793 0.20423187330431128 0.21593794550103565 0.16420983093103386 0.17987658645713375 0.13235520073430826 0.16282994023043035 0.21718003709063269 0.18128629387188591 0.24245447832616984 0.18066881247966407 0.2177292907705331 0.2370598953700761 0.17798281928101603 0.24439273209011561 0.23732193095493626 0.24244134824249233 0.33618426350190012 0.24038270509955495 0.31235893095092326 0.3402357227350935 0.44541942699081116 0.56211182803386806 0.33212923517309539 0.43413377352496196 0.30616571040443386 0.39798297690569712 0.43424149143207419 0.34639523309970849 0.30539004424500443 0.24562024526317269 0.21384182371284766 0.30642482867458043 0.28142439140183817 0.30431525570226925 0.2153160213332373 0.27530901195220403 0.39302071381020071 0.31082832003601107 0.27842842307649968 0.37475432717100371 0.38825676172582074 0.278715213031066 0.29144654665062725 0.37600908424287499 0.39740164535840422 0.50130488966849374 0.372569816075704 0.39427646819288159 0.37293289910917804 0.29338408059796683 0.48508376758843563 0.37537575832723119 0.49166144467982564 0.49345533870557212 0.39473076694695874 0.37131705768178536 0.44678571178176829 0.38137771349063226 0.6100404563030859 0.49340489152139932 0.59880118342827626 0.38859300071217417 0.49065582259262469 0.66838879312405508 0.61066255357795607 0.93635528764593401 0.63315692438065929 0.63363474589584756 0.99470082224249223 0.97207324602473122 0.57008617367406955 0.92286755339571902 0.57069256778791544 0.62810057727245594 0.98018298789739111 0.98106581200932808 0.55889819958533382 0.43262539056588983 0.63183285174915904 0.58160641612681541 0.97543420122307756 0.51192665274976767 0.97337256875053457 0.9206660783998567 0.5954209036267879 0.57858116136243432 0.59278549346406961 0.3486186135978297 0.58479758486970723 0.37344570151400014 0.33747994276376492 0.55797218530660886 0.36889195859364809 0.22724579524391059 0.34668719997361419 1.008086876389388 0.96762719484893045 0.96944838866243876 0.91720291805218346 0.39762438359035684 0.3704929647808472 0.27790508502289207 0.25895485593764211 0.56859534186736416 0.52993971105800419 0.52940615306997807 0.49338894331606775 0.29855385536407536 0.27818589428451007 0.1683352520192084 0.15684403796701035 0.15668734027239914 0.14600597287202521 0.06173104565621234 0.057523661102698943 0.066319445557415077 0.061794626528051635 0.071247602877094723 0.066386130770438492 0.4928864174035863 0.45931510674497689 0.45883726682124421 0.42757157750217384 0.4271322864315088 0.39803829902909799 0.076530772859709856 0.071318566221807281 0.24081875851052881 0.22442118007252823 0.37009756280178163 0.34484694704831598 0.082210782009006028 0.076608710854785725 0.088318730130654055 0.082292850508302304 0.094870969314667569 0.088406280138000087 0.32071153665517588 0.29884479597104874 0.14585764092050563 0.13590834004666899 0.10191906852141519 0.094964645417197943 0.13576093988455548 0.12649367732812811 0.10949839964902144 0.1020276293714459 0.11762968235588242 0.10960732643803088 0.34448511910198776 0.32102502006550998 0.12635624210551871 0.11774589712210021 0.18083610694658828 0.16850169737364509 0.034800598387653141 0.032530782973386081 0.040181629846098327 0.037451438321008383 0.043154525546453069 0.040222913142796669 0.20869700364936877 0.19446649376881808 0.91755960496621869 0.86262474728680338 0.037407788246015358 0.034869036622215945 0.19427525372232499 0.18100966714868147 0.8624794810899582 0.80774967439350864 0.046360336907298801 0.043198805819238843 0.80733585387225049 0.75460601575884068 0.75408158537899794 0.70392994640203965 0.25869477090249599 0.24107249836830144 0.70332993458840698 0.65604051244538586 0.61058131376215674 0.56916241609893092 0.22419437778466977 0.20890709301973201 0.05746837901949077 0.053549641829608023 0.053498277364420241 0.04984846449610008 0.65544711578152004 0.61116080538429274 0.049800753312356914 0.046408171005862031 0.01356688274766313 0.016414388672315518 0.017802969139837942 0.015751512625732267 0.014624925969426729 0.016708158141922825 0.014585100339661658 0.013701215277447059 0.015336043344654989 0.012905500586849011 0.015051161328854512 0.01618619829