<?xml version="1.0"?>
<VTKFile type="UnstructuredGrid" version="0.1" byte_order="LittleEndian">
<UnstructuredGrid>
<Piece NumberOfPoints="3764" NumberOfCells="1271">
<Points>
<DataArray type="Float64" NumberOfComponents="3" format="ascii">
0 0 0 0.01142230349469592 0.01018508895725519 0 0.024999999999941638 0 0 0 0 0 0.01142230349469592 0.01018508895725519 0 0 0.02040816326539097 0 0.01142230349469592 0.01018508895725519 0 0 0.02040816326539097 0 0.0211689540835866 0.020294207212749191 0 0 0.02040816326539097 0 0.0211689540835866 0.020294207212749191 0 0.01479277905737322 0.034115505761851322 0 0.0211689540835866 0.020294207212749191 0 0.035194166143748373 0.036267990104473 0 0.01479277905737322 0.034115505761851322 0 0.01142230349469592 0.01018508895725519 0 0.0211689540835866 0.020294207212749191 0 0.024999999999941638 0 0 0.0211689540835866 0.020294207212749191 0 0.024999999999941638 0 0 0.038487747360091522 0.016387646381637401 0 0.024999999999941638 0 0 0.038487747360091522 0.016387646381637401 0 0.049999999999868497 0 0 0.0211689540835866 0.020294207212749191 0 0.038487747360091522 0.016387646381637401 0 0.035194166143748373 0.036267990104473 0 0.038487747360091522 0.016387646381637401 0 0.057137757658075793 0.024268715362519691 0 0.035194166143748373 0.036267990104473 0 0.038487747360091522 0.016387646381637401 0 0.057137757658075793 0.024268715362519691 0 0.049999999999868497 0 0 0.057137757658075793 0.024268715362519691 0 0.049999999999868497 0 0 0.07499999999993355 0 0 0.050584644170265841 0.049990004250751632 0 0.06741623899727188 0.043431041269210921 0 0.06509133171351128 0.061536721924481862 0 0.050584644170265841 0.049990004250751632 0 0.049796226955297958 0.071615432852654121 0 0.06509133171351128 0.061536721924481862 0 0.057137757658075793 0.024268715362519691 0 0.050584644170265841 0.049990004250751632 0 0.035194166143748373 0.036267990104473 0 0.057137757658075793 0.024268715362519691 0 0.050584644170265841 0.049990004250751632 0 0.06741623899727188 0.043431041269210921 0 0.050584644170265841 0.049990004250751632 0 0.034597865044751562 0.059538283100065183 0 0.049796226955297958 0.071615432852654121 0 0.050584644170265841 0.049990004250751632 0 0.035194166143748373 0.036267990104473 0 0.034597865044751562 0.059538283100065183 0 0.034597865044751562 0.059538283100065183 0 0.01831348993664601 0.050179875844019929 0 0.019904986126699369 0.070829013869890683 0 0.035194166143748373 0.036267990104473 0 0.034597865044751562 0.059538283100065183 0 0.01831348993664601 0.050179875844019929 0 0.035194166143748373 0.036267990104473 0 0.01831348993664601 0.050179875844019929 0 0.01479277905737322 0.034115505761851322 0 0 0.02040816326539097 0 0.01479277905737322 0.034115505761851322 0 0 0.040816326530782043 0 0.01831348993664601 0.050179875844019929 0 0.01479277905737322 0.034115505761851322 0 0 0.040816326530782043 0 0.01831348993664601 0.050179875844019929 0 0 0.040816326530782043 0 0 0.061224489796173009 0 0.01831348993664601 0.050179875844019929 0 0 0.061224489796173009 0 0.019904986126699369 0.070829013869890683 0 0 0.061224489796173009 0 0 0.081632653061564198 0 0.019904986126699369 0.070829013869890683 0 0 0.081632653061564198 0 0.017559835652970961 0.090791477478020521 0 0.019904986126699369 0.070829013869890683 0 0 0.081632653061564198 0 0.017559835652970961 0.090791477478020521 0 0 0.1020408163269553 0 0.017559835652970961 0.090791477478020521 0 0.019904986126699369 0.070829013869890683 0 0.034559277816410987 0.081557337373673669 0 0.017559835652970961 0.090791477478020521 0 0.033420380235769848 0.1007185673550383 0 0.034559277816410987 0.081557337373673669 0 0.034597865044751562 0.059538283100065183 0 0.019904986126699369 0.070829013869890683 0 0.034559277816410987 0.081557337373673669 0 0 0.1224489795923462 0 0.01752448428357762 0.1117329240166892 0 0.019544808628996119 0.13227401154704449 0 0 0.1224489795923462 0 0 0.1020408163269553 0 0.01752448428357762 0.1117329240166892 0 0.017559835652970961 0.090791477478020521 0 0 0.1020408163269553 0 0.01752448428357762 0.1117329240166892 0 0.017559835652970961 0.090791477478020521 0 0.01752448428357762 0.1117329240166892 0 0.033420380235769848 0.1007185673550383 0 0.01752448428357762 0.1117329240166892 0 0.034087126905203192 0.1209861277781773 0 0.033420380235769848 0.1007185673550383 0 0.01752448428357762 0.1117329240166892 0 0.034087126905203192 0.1209861277781773 0 0.019544808628996119 0.13227401154704449 0 0.034087126905203192 0.1209861277781773 0 0.033420380235769848 0.1007185673550383 0 0.049315670342561173 0.11135059134879691 0 0.034087126905203192 0.1209861277781773 0 0.049315670342561173 0.11135059134879691 0 0.052231975381521037 0.1324697710711607 0 0.033420380235769848 0.1007185673550383 0 0.049315670342561173 0.11135059134879691 0 0.049933671108161173 0.09180167525965921 0 0.049315670342561173 0.11135059134879691 0 0.049933671108161173 0.09180167525965921 0 0.065519376542323787 0.1020060103813805 0 0.049315670342561173 0.11135059134879691 0 0.064954619147309406 0.1186102718044463 0 0.052231975381521037 0.1324697710711607 0 0.049315670342561173 0.11135059134879691 0 0.064954619147309406 0.1186102718044463 0 0.065519376542323787 0.1020060103813805 0 0.034597865044751562 0.059538283100065183 0 0.034559277816410987 0.081557337373673669 0 0.049796226955297958 0.071615432852654121 0 0.033420380235769848 0.1007185673550383 0 0.034559277816410987 0.081557337373673669 0 0.049933671108161173 0.09180167525965921 0 0.034559277816410987 0.081557337373673669 0 0.049933671108161173 0.09180167525965921 0 0.049796226955297958 0.071615432852654121 0 0.049933671108161173 0.09180167525965921 0 0.065437769419401298 0.08280988356141343 0 0.065519376542323787 0.1020060103813805 0 0.049933671108161173 0.09180167525965921 0 0.049796226955297958 0.071615432852654121 0 0.065437769419401298 0.08280988356141343 0 0.049796226955297958 0.071615432852654121 0 0.065437769419401298 0.08280988356141343 0 0.06509133171351128 0.061536721924481862 0 0.065437769419401298 0.08280988356141343 0 0.08048382778577895 0.07165939129726534 0 0.06509133171351128 0.061536721924481862 0 0.065437769419401298 0.08280988356141343 0 0.082207783798225631 0.091809159878798771 0 0.065519376542323787 0.1020060103813805 0 0.065437769419401298 0.08280988356141343 0 0.082207783798225631 0.091809159878798771 0 0.08048382778577895 0.07165939129726534 0 0.082207783798225631 0.091809159878798771 0 0.08048382778577895 0.07165939129726534 0 0.10000000000000001 0.081632653061067179 0 0.08048382778577895 0.07165939129726534 0 0.10000000000000001 0.081632653061067179 0 0.10000000000000001 0.061224489795794243 0 0.064954619147309406 0.1186102718044463 0 0.065519376542323787 0.1020060103813805 0 0.081723953713685502 0.11220798238239139 0 0.064954619147309406 0.1186102718044463 0 0.081723953713685502 0.11220798238239139 0 0.077414369161380808 0.1326877944589693 0 0.082207783798225631 0.091809159878798771 0 0.065519376542323787 0.1020060103813805 0 0.081723953713685502 0.11220798238239139 0 0.082207783798225631 0.091809159878798771 0 0.081723953713685502 0.11220798238239139 0 0.10000000000000001 0.1020408163263421 0 0.081723953713685502 0.11220798238239139 0 0.10000000000000001 0.1224489795916153 0 0.077414369161380808 0.1326877944589693 0 0.081723953713685502 0.11220798238239139 0 0.10000000000000001 0.1224489795916153 0 0.10000000000000001 0.1020408163263421 0 0.10000000000000001 0.1224489795916153 0 0.10000000000000001 0.1020408163263421 0 0.10000000000000001 0.1224489795916153 0 0.10000000000000001 0.1020408163263421 0 0.1193707164044376 0.1125679358902586 0 0.1193707164044376 0.1125679358902586 0 0.11606503917892 0.092831191981644676 0 0.13729388873166179 0.1023778823952045 0 0.10000000000000001 0.1020408163263421 0 0.1193707164044376 0.1125679358902586 0 0.11606503917892 0.092831191981644676 0 0.10000000000000001 0.1224489795916153 0 0.1193707164044376 0.1125679358902586 0 0.1174898008840846 0.1331867759582076 0 0.1193707164044376 0.1125679358902586 0 0.1174898008840846 0.1331867759582076 0 0.1339798845637783 0.12436412822187751 0 0.10000000000000001 0.081632653061067179 0 0.11690923237079839 0.075771674886482066 0 0.10000000000000001 0.061224489795794243 0 0.10000000000000001 0.081632653061067179 0 0.10000000000000001 0.061224489795794243 0 0.082207783798225631 0.091809159878798771 0 0.10000000000000001 0.1020408163263421 0 0.10000000000000001 0.081632653061067179 0 0.10000000000000001 0.1020408163263421 0 0.10000000000000001 0.081632653061067179 0 0.10000000000000001 0.1020408163263421 0 0.10000000000000001 0.081632653061067179 0 0.11606503917892 0.092831191981644676 0 0.11606503917892 0.092831191981644676 0 0.11690923237079839 0.075771674886482066 0 0.13083011011621179 0.085621994819866154 0 0.10000000000000001 0.081632653061067179 0 0.11606503917892 0.092831191981644676 0 0.11690923237079839 0.075771674886482066 0 0.11690923237079839 0.075771674886482066 0 0.1224113123827702 0.061448209743527132 0 0.1353873695908793 0.070572908111639798 0 0.11690923237079839 0.075771674886482066 0 0.1224113123827702 0.061448209743527132 0 0.10000000000000001 0.061224489795794243 0 0.1224113123827702 0.061448209743527132 0 0.10000000000000001 0.061224489795794243 0 0.1184025638397351 0.044620515969080433 0 0.10000000000000001 0.061224489795794243 0 0.10000000000000001 0.040816326530532299 0 0.083041428864014916 0.050921892867974709 0 0.10000000000000001 0.061224489795794243 0 0.10000000000000001 0.040816326530532299 0 0.1184025638397351 0.044620515969080433 0 0.10000000000000001 0.061224489795794243 0 0.10000000000000001 0.040816326530532299 0 0.10000000000000001 0.040816326530532299 0 0.1184025638397351 0.044620515969080433 0 0.1186263405973806 0.02146853907924717 0 0.1184025638397351 0.044620515969080433 0 0.1186263405973806 0.02146853907924717 0 0.133965734735811 0.0345517845108698 0 0.1186263405973806 0.02146853907924717 0 0.1249999999999323 0 0 0.10000000000000001 0 0 0.10000000000000001 0 0 0.10000000000000001 0
[...]
<PointData Scalars="temperature," Vectors="" Tensors="">
<DataArray type="Float64" Name="temperature" format="ascii">
0.99997699460016576 0.9808968939836229 1.000772187542138 1.0019062506984735 0.97910909666707924 0.95637542891623106 0.98023977803069362 0.95445629320837444 0.9562656510102725 0.95397066396975605 0.95701562932879425 0.9205081645449531 0.95796763540836305 0.91877801616313681 0.91936206597175407 0.97916387748806388 0.9580308464609496 1.0027620167415319 0.95805448659567027 1.0025619392614114 0.96859696919144411 0.99936504027217599 0.9723183043505006 1.0024841824703252 0.95558793092185068 0.97091014327625946 0.92169332295724671 0.96902121736796221 0.95856717373696976 0.92354475001436731 0.96923477764781441 0.95830615004946296 1.0044180902451043 0.96553790944728213 0.99874263639737382 1.0043773315481219 0.89489258933275118 0.9320189403402388 0.88773920450986987 0.8950420286574492 0.84215301201138892 0.88739831916934742 0.96374964194023827 0.89662886385627938 0.91855466884964299 0.96054720169822305 0.89974472675096628 0.92763425069626948 0.89870101501990263 0.85349286648470568 0.83849852650603685 0.89489659282446099 0.91970113540952525 0.8573144589287014 0.85393238412182615 0.87227059744730262 0.81112006346823506 0.92282813579776091 0.85458802495760766 0.87195315147040009 0.91979877133903198 0.87480877999054507 0.91848689002268036 0.95642399270353518 0.91835089713414153 0.89909375294700666 0.87301403530473087 0.92001944402366298 0.89692827257072882 0.87122719205929788 0.8986280872697302 0.83547332445582989 0.87417433114683063 0.83226106191886506 0.80894445821725991 0.83417977641803931 0.76879877588099799 0.80677549952697591 0.76567392275079382 0.74511069082922676 0.80982166144165446 0.76784547921674751 0.74272708923477404 0.70403032851263703 0.74621020203251176 0.80915064312338425 0.78836870352514532 0.74317417759335913 0.73240520573763324 0.79126258019965368 0.85661093062716043 0.8084022142694044 0.78945432904606827 0.63969465266135894 0.68244708352030869 0.6262807648452926 0.64352205178236588 0.7032497624913534 0.67912360362353819 0.74546331700074098 0.70091923203505624 0.68152479768028007 0.74427339975095752 0.6830621800100497 0.73109945003261545 0.67994174661791129 0.67771864927307657 0.73394670919286664 0.68081270011998685 0.67680461682194071 0.6286077579984215 0.68005119513975909 0.73165630425173156 0.73359422173936972 0.67593829902179403 0.73720103284352645 0.69187025519447864 0.73083155246860743 0.73448677267257323 0.78808045580106356 0.7375438701893372 0.78496694060024075 0.79821003495576748 0.73373583240042017 0.76276224701540507 0.69587340279438759 0.73403890645804126 0.76267507014038405 0.80197610900004879 0.85377673065973414 0.79207741436176393 0.83784050164404211 0.73449511141444801 0.78917961324034358 0.78451888636990563 0.7888092211717227 0.78533348519181967 0.84127593190589023 0.7850121738874225 0.8443414066415198 0.79870284566744287 0.78880059313191275 0.83763784748468872 0.84028528007067949 0.83817670036122727 0.84020105839452142 0.89122446925144927 0.84522611772310963 0.89848612986698495 0.88613632969623057 0.83986532113286505 0.8683318526391306 0.80299636417065356 0.84150472124131281 0.86730429107916629 0.90234925499837604 0.87331924171370767 0.89587990812559981 0.93789530733919557 0.89831709739232601 0.93696122156384987 0.96180458291816984 0.76547713001122319 0.79873363310269729 0.83221237146141791 0.76141369824833871 0.83681871201144542 0.78314044130472715 0.87289773878786026 0.79871381384086482 0.83256491214579176 0.86734503479852654 0.83783402899767356 0.91672625204147296 0.83302730146236303 0.89431635013642075 0.78643989741306719 0.8328264560548424 0.89554894338322011 0.92105379315729285 0.96644194948299311 0.97751985811769293 0.89541213533897523 0.9214421739729044 0.82813443168225831 0.82820655731895487 0.87705045165766393 0.7884384561068144 0.91710258601516326 0.8334355801596468 0.87246072651725859 0.89540102808912114 0.82668798320886228 0.80696330367860125 0.83211691507613228 0.80218288904186463 0.75421001462962989 0.93749208663521466 0.89966827969870033 0.96146900350122677 0.98586498031775815 0.99300390406272709 0.8686796644320941 0.9168362320567367 0.9419550257499042 0.97711469382598293 0.98629454583971332 0.91710732829004582 0.94160789244232301 0.87323697963353852 0.87200900221831112 0.90133767740902382 0.84448244260201943 0.93908124705622742 0.87658870438148573 0.89693065357424029 0.89640442840158863 0.91251471243109905 0.86739416592564933 0.90152085602650278 0.90849178832726785 0.96009921068654447 0.91333810013912886 0.95388286851564774 0.94379581222423836 0.95685582800041924 0.97844524880284378 0.93751816889161776 0.9565940930321406 0.97823398728665867 0.94253944377297971 0.9925317505929051 0.99755228710482069 0.97259251038549754 0.94883311515517044 0.97535740931245229 0.94387668775390821 0.98192405269116267 0.94569345391011661 0.98156433710904134 0.99809389825236661 1.0040480112291983 1.00205972990732 0.98931837010165169 0.99153431466120712 1.0007053312577914 0.99964787216374862 0.98072036890328662 1.0040120270434436 0.98823092099555798 0.9971006475548686 1.0000666056591665 0.97421737665664121 0.97421104266452196 0.99209800023933326 0.97375881503091255 0.99274588380837614 0.96813466446015939 0.98897220380400963 0.97362974416787051 0.99170474148640908 1.002599513003914 0.9916709212024194 0.99769970207046732 0.97296853534709205 0.99140080799292918 0.99813531659612731 0.96266240498312816 0.96597637914594014 1.0059046063880994 0.95602514574030872 0.97155792722391143 0.93145227267948283 0.97368768894866609 0.93020613299461474 0.93570740842946987 0.89791496425291217 0.88717956149961807 0.94202413221638259 0.92829388709586136 0.89190964560584707 0.93724363638411412 0.90388244832404618 0.9572170145178871 0.93600239194584711 0.97445681027835296 0.96654358878772062 0.94205071223399084 0.51996099350067571 0.57002127292377447 0.48413962305476976 0.52010610131344392 0.54031055363626612 0.59703182563497625 0.51617991542085884 0.60129031740839722 0.57439164874281368 0.51907533020909669 0.4760562911890911 0.54148050056399633 0.51584261368444095 0.47935634107264541 0.46060430627617016 0.51927144423611615 0.45742764261033664 0.48522401069467547 0.45752950117796859 0.43273466854349846 0.41752956492797394 0.43420563569357751 0.40094240814372034 0.41426922196836374 0.42800850359466247 0.40791519526564024 0.43391059720306602 0.433229945403318 0.42848363225775776 0.46089921731002287 0.47566963992571193 0.43382105929441905 0.46101511642667692 0.47969483702098187 0.46006983213799318 0.42971411386090863 0.47940038449935463 0.45754126615659557 0.50268043077997426 0.46092732784198909 0.50067929999243921 0.50019435882042096 0.4341396155793269 0.45594928474032159 0.46375071958695496 0.46165424643695213 0.45787035358454992 0.49804918906236578 0.46377648591939091 0.49238542378257322 0.49892449199066247 0.49574244991099298 0.50372648680622423 0.5569875622577023 0.49687884699622725 0.55608380950146286 0.54954154219269724 0.50010436626582855 0.54039717298075585 0.56192848886804514 0.48013043184810517 0.5022414580324972 0.53786129194889976 0.54201492146701435 0.55975018436142721 0.61371403272699576 0.53757010181426812 0.61844388591144606 0.6003702328147158 0.55677558666211169 0.64764659102495747 0.61666591943730864 0.5997707960891886 0.6830923044245617 0.64637758894158626 0.56175815493682613 0.60253296000164791 0.64313015398689144 0.60372968223920909 0.64384658100464831 0.67907236766960033 0.60258801722008759 0.57831521422278009 0.64504379196926498 0.60017934502057357 0.58087625271807697 0.54880861713712248 0.56126583764507088 0.60341218141125585 0.54572930960737343 0.50143758208184463 0.54666647476755337 0.5308927287707299 0.52744727781253686 0.49982176831357117 0.54098618014386646 0.49782144783910498 0.53257457905181471 0.49375292229338175 0.5311997812594258 0.53701483650575799 0.57647392406353326 0.57858496150161942 0.53244873271926541 0.57584600708954203 0.581808382108706 0.54784396271336799 0.52917005308199816 0.58104523045299339 0.57354283567127373 0.62667521812169602 0.57691616744001828 0.62732086899420902 0.62350494025318826 0.57648751205819515 0.58490311207401491 0.62703281254976229 0.54130035870361159 0.57277428581730105 0.58846425633280419 0.64255502908016571 0.58885188968605184 0.62310298071341441 0.67951742496659329 0.62590715853374079 0.62536580126535823 0.67683448795518963 0.62725141589393973 0.69024688274676604 0.62338505145354606 0.64408494960548446 0.69470872075950996 0.58207217224621655 0.62563829986860886 0.64146083578290647 0.64202645489576105 0.71255058924833348 0.68155479217348247 0.64575321694166776 0.69284809129297631 0.70897702868448409 0.68892088976777177 0.78243640879161214 0.71250687087512243 0.76470885162060365 0.69282871152230285 0.77868886986956964 0.71068250947386336 0.76992442174406783 0.68355555371251975 0.78510222358928361 0.71114845063962384 0.77006074103526134 0.77961677033966281 0.7741301925112436 0.8731127715143141 0.89992158294540114 0.78015422652825728 0.87390509416363615 0.89941368773391706 0.80267856764259693 0.87467234319966025 0.96679346945731548 0.95407894454802489 0.80227931221007176 0.77545084527333508 0.87378815604958737 0.80642853459327346 0.77161682461842229 0.71766588113016327 0.95435528057554275 0.94029490501224333 0.77127482877808706 0.87764317302989214 0.85363417803510755 0.76976284364701764 0.87763058105815317 0.85382268356111446 0.77210095386677613 0.85185835611002303 0.73598435396836881 0.77449035055389592 0.73388174242198112 0.67697710165064606 0.73574496415446244 0.71631258747954696 0.64151061635838125 0.73240118839443324 0.8306807429597366 0.71912268041697047 0.8562164522666964 0.73111320501936206 0.83281450378086153 0.85612981289690837 0.83307989451880471 0.7417005148015634 0.9405222403523712 0.92532965006391954 0.83052308268639563 0.74339267964879696 0.709542175216344 0.77034072989781122 0.85203154373900347 0.74607271803113784 0.77376038083384235 0.74299327079620459 0.67968205336607013 0.74100536082503854 0.6812154939197288 0.64813810481031353 0.74525705644068474 0.64398521877121873 0.70807718692538868 0.64608109961856286 0.61883917910409714 0.70584913060136512 0.61495232225309582 0.69590084703677679 0.7095683000028602 0.61685907162701681 0.69357276149473301 0.6018361527665681 0.69813803510497274 0.70680108712317735 0.81008731669120659 0.83495705657089947 0.70469994235142486 0.81276126032754448 0.834904453837223 0.71480082003765 0.81291708411946018 0.92550281676900814 0.90943213363611575 0.71674624196858294 0.69268082730785108 0.8101278259713417 0.71851702586173016 0.69125066679441483 0.61747474440679362 0.6884012944425858 0.8142478687321375 0.79307795935012093 0.69395553860393488 0.81417018389859031 0.79329940926717224 0.90955831447497115 0.89281960378195679 0.692105106104416 0.6618330044301346 0.59326863268384034 0.69126544492554076 0.78958137886975155 0.66198437975268254 0.66243939317751854 0.5674688879531723 0.65233986467295657 0.66059879804449018 0.77011741113347965 0.65356239072434719 0.89291055870745661 0.87566385389191426 0.7939574955980877 0.65734897483847143 0.77373411045186025 0.79411117786979968 0.77386495564889868 0.67011685666361043 0.77003175785910583 0.67330734587216945 0.64002248815891305 0.69633645895267549 0.79018422554181733 0.67408607016539679 0.69760325286421865 0.67312102907153293 0.59791431403705209 0.6698503135746825 0.60080013307265845 0.5747751033947085 0.67332191283617726 0.57143974642435946 0.64052323035238179 0.43551174852168661 0.44889257076288341 0.40835822726436283 0.43574059222965217 0.47593431768481126 0.45808324623357655 0.47941767564453819 0.45274925594065113 0.5120227069133173 0.43186931721031147 0.47968238044729511 0.45263435484482278 0.51566841293245036 0.5670252510992283 0.49332633533643028 0.4487205951198649 0.51600721606085165 0.49286142937741273 0.51234620892664129 0.57039135394484797 0.59638546893080657 0.65893482071064124 0.5711057148166665 0.5958786587232453 0.47617158470607052 0.51567872035667406 0.54189025952168002 0.516343311457793 0.59258829768680166 0.54117652216885059 0.54229597740258084 0.61703197407307508 0.56575404098877136 0.54090186928912964 0.56717290608341187 0.49991986761497381 0.59578919614508652 0.53832546440258844 0.62115557050469916 0.68837683858766308 0.59678864942564769 0.62000704926496863 0.71425035765319456 0.62156965975263934 0.64305418954177496 0.61993085263758652 0.56331807428955849 0.64486561842005807 0.56349306481701689 0.5327700306994122 0.5039991424528516 0.53325704511056904 0.50331523202959705 0.48851605339235543 0.48034168476898992 0.53785002089530509 0.50289121278571247 0.47927558306236728 0.50376519661971808 0.45473785264169336 0.49996430619426907 0.45884716111005891 0.49174002669256256 0.4922301455748801 0.53523394227039045 0.49352363811298439 0.53111005970673564 0.49165114534628201 0.53767596578299492 0.53503420701515292 0.57555492063530789 0.53534351202330255 0.53851716692861384 0.58700627546558737 0.57381818662962103 0.53426954147423666 0.58971183808800565 0.58988146674636033 0.58609547609196011 0.59479807714119692 0.64341718532655678 0.56586277388773609 0.53089616276564366 0.59548472312375966 0.53432479797515908 0.53310620919252916 0.59082149893976155 0.59066429415442123 0.64289062991479717 0.68060100206191365 0.56758152046136079 0.59319905529246075 0.64025604065437491 0.73200834914017643 0.64541815728333485 0.67862279585464824 0.59549415841140552 0.67627421407338129 0.64243143179761952 0.64219459773720777 0.68860509137362136 0.62262613062047101 0.64400871255926995 0.7165475148012197 0.68667810422668885 0.77022022064486262 0.68115352926119788 0.71858424632056361 0.67912107229239516 0.64010319466608734 0.72075217265521763 0.8022984951774651 0.72148995571935082 0.75341690571204112 0.71812259311209192 0.68565098174819528 0.75697109208287483 0.68510032865006987 0.62622715667400353 0.67202213661050647 0.62461460900285659 0.62174833313576716 0.67349484247941516 0.58919894250423455 0.64021915427712317 0.62471192161682476 0.58820950732267629 0.62562706685944169 0.57228339405012407 0.62227462892793428 0.57551751269679763 0.62382430538150069 0.62118306967983583 0.58886093645900606 0.642663261603167 0.57080928751798821 0.58848480657146085 0.54087730209236673 0.57427109547613242 0.6246889791592144 0.58494776216692845 0.53006207118715631 0.54000849988423161 0.49901906617288788 0.48708024746216372 0.49903676106466993 0.46431323867701241 0.45374303361254847 0.46406739862283525 0.43387413306886896 0.45842731514717489 0.49145033891750461 0.45919855477120736 0.43406506069924161 0.45886944840649235 0.42831638816386008 0.43391741092092928 0.40192685938902117 0.40879854862956272 0.42841260247242374 0.43358490909671538 0.4076858334542276 0.92380521506810886 0.88013088613820911 0.91486961042327963 0.92606423449647268 0.87781121950909968 0.88912881901958929 0.87744739153704598 0.86489527682208256 0.82538629043518263 0.87991909535963686 0.83986907058500304 0.82315516377497255 0.87771770158091278 0.84182309549360346 0.88922284491089176 0.83945607610785467 0.89132258726243496 0.83286248563367626 0.9234210984096588 0.89212534057886228 0.95461485905936416 0.92585633891165753 0.95203210696206553 0.96744367957481758 0.95633570980277749 1.0033240762124294 0.96378354402847777 0.95888209753633991 1.0022067102687422 1.0008235270081189 0.99887962680300935 0.96874204025293931 1.002495704566895 0.97400292323020843 1.005321148933755 0.96854919012007257 0.97937440672875042 0.96239573036672599 0.94671589675804346 1.0027840923109566 0.97264793972851815 0.99978926761457687 0.94426596212472103 0.94432324762669062 0.91220944935040937 0.94770474332110377 0.9144291453912945 0.90880868157104644 0.92444476850383039 0.97001610256939474 0.91498192736053374 0.96528633909337658 0.94368632615757941 0.91858442975167509 0.91425539767963115 0.86865237993195321 0.908753720662001 0.87727539828451695 0.91783368179693148 0.86523746059142048 0.91048719078422802 0.90857996021405218 0.87010304509904213 0.86507478932746151 0.91231357608916042 0.86628187071534357 0.91069932644747209 0.94819247777661142 0.90886543783381724 0.89854321624072919 0.86510500233644605 0.84680381747259525 0.86929414915561876 0.84278900869573914 0.81003388014656119 0.87196187370610001 0.84479371196028152 0.79415281486365319 0.84631561120890042 0.80589902838748217 0.79199244738350882 0.8680833117152752 0.80918396464412878 0.82214043800916559 0.86452841303518235 0.86672884461322053 0.81292798802800781 0.75316634341203026 0.79313284439531473 0.72632034669860657 0.82813130071866259 0.75761733086982452 0.78792380707491683 0.79054282041119683 0.72809776375504032 0.73033611404884224 0.81106100535758374 0.78594808106080394 0.73460639514882686 0.68675394695571679 0.72811579652662006 0.67078996028986848 0.6893466547723347 0.75329714169940309 0.72569912432767103 0.67228886842339586 0.73555145382744391 0.67920280434587388 0.7249902313365858 0.67418834537832484 0.73367071906004533 0.7317655974937407 0.68274039874804349 0.7360141911922401 0.62447491621821172 0.68147524221020295 0.63955129212885165 0.62531337881180749 0.6701221095629597 0.68111358919713605 0.73283483331468235 0.77494831285706434 0.73533152970044857 0.80757272147668835 0.82325198309684056 0.7745314506723322 0.81062980719707711 0.7365070938431818 0.77218559392130326 0.77245600358551136 0.73869943398108551 0.79207208888292158 0.84073425455528705 0.8219777119114936 0.79273201481534628 0.82412532801408522 0.77395365148379502 0.79042073916321465 0.84023079724288929 0.79281119744227391 0.83181392099898732 0.79031953390393572 0.76874471606927475 0.83448084674364031 0.73803475457718193 0.79246716039358067 0.76637805923428204 0.73600702923851136 0.76822026851317338 0.70397768496949553 0.6779610974057797 0.64309803451577596 0.70309135390344413 0.6806071064942647 0.73854126317372681 0.70109652946417189 0.88990428636537366 0.95685500834011883 0.8977220248734018 0.88862900470848782 0.89855445790243782 0.83595040484779592 0.95369525621288587 1.0049638867079056 0.95566073246038197 0.95354665652527826 0.90100431433543526 0.9557717553643057 0.24811756775062443 0.23891983352885499 0.25025806588180372 0.25822393484100803 0.26886470822163022 0.27074261627965213 0.25305788110634136 0.26443517858998106 0.27598357192590911 0.24841635181878968 0.25783875617831881 0.25937972323241748 0.24437591016215254 0.25382186193859302 0.2636325865994788 0.2919548107830493 0.28026914640056511 0.29272557755089079 0.29239289906599131 0.30409541880829205 0.30449003018611859 0.28682333432218782 0.30897253680806619 0.29812199814487833 0.28027463285044812 0.26925042904451596 0.2796977639221695 0.27497340534334153 0.28468953600945401 0.29775555781532498 0.26389370952242985 0.28461957572768354 0.27617277760815445 0.28376366922488866 0.30692337112898349 0.27723044760232923 0.28015623474320689 0.31445936673839675 0.31102002435775994 0.28388449572858016 0.31132401202991888 0.29934059056679668 0.31089781074200001 0.34726621535721403 0.36911996383980111 0.31313551184559685 0.31167329368232355 0.3660067707886836 0.30427514491734753 0.33241199796962495 0.34934067344627989 0.30815450050181986 0.2995311829123436 0.32881270158143189 0.29382599333074494 0.34277418143279342 0.33316383704935792 0.31546043553453146 0.29385576080833276 0.3424881465934021 0.33038104041106336 0.3917173600933942 0.35091554403513608 0.3474185598702737 0.32883842081373438 0.39338982113626858 0.34257045027533689 0.3988558029076919 0.4037311036014033 0.34275835824824791 0.40328005822152568 0.37399439615737462 0.40289530781531158 0.46948409131658542 0.45654082461893303 0.39180622635765899 0.469901513666171 0.48929651354132336 0.39638406948450777 0.40598951575560427 0.4658861324610501 0.30752915941149356 0.37072480923549522 0.34600457580080562 0.37359971935340375 0.40467960349636328 0.34370369356677449 0.3667046824125032 0.4559902109341728 0.45351036941878425 0.40615411676038887 0.37095202275921058 0.45243856896925799 0.36911045216276944 0.4514566448366335 0.40879957843317349 0.45510554751755622 0.40511286888709913 0.50496083924395485 0.40494005438995923 0.45078949840267996 0.505512