<?xml version="1.0"?>
<VTKFile type="UnstructuredGrid" version="0.1" byte_order="LittleEndian">
<UnstructuredGrid>
<Piece NumberOfPoints="3764" NumberOfCells="1271">
<Points>
<DataArray type="Float64" NumberOfComponents="3" format="ascii">
0 0 0 0.01142230349469592 0.01018508895725519 0 0 0.02040816326539097 0 0.024999999999941638 0 0 0.01142230349469592 0.01018508895725519 0 0 0 0 0.024999999999941638 0 0 0.038487747360091522 0.016387646381637401 0 0.0211689540835866 0.020294207212749191 0 0.024999999999941638 0 0 0.0211689540835866 0.020294207212749191 0 0.01142230349469592 0.01018508895725519 0 0.035194166143748373 0.036267990104473 0 0.01479277905737322 0.034115505761851322 0 0.0211689540835866 0.020294207212749191 0 0 0.02040816326539097 0 0.0211689540835866 0.020294207212749191 0 0.01479277905737322 0.034115505761851322 0 0 0.02040816326539097 0 0.01142230349469592 0.01018508895725519 0 0.0211689540835866 0.020294207212749191 0 0 0.040816326530782043 0 0.01479277905737322 0.034115505761851322 0 0.01831348993664601 0.050179875844019929 0 0 0.040816326530782043 0 0 0.02040816326539097 0 0.01479277905737322 0.034115505761851322 0 0 0.061224489796173009 0 0.01831348993664601 0.050179875844019929 0 0.019904986126699369 0.070829013869890683 0 0 0.061224489796173009 0 0 0.040816326530782043 0 0.01831348993664601 0.050179875844019929 0 0.019904986126699369 0.070829013869890683 0 0.01831348993664601 0.050179875844019929 0 0.034597865044751562 0.059538283100065183 0 0.035194166143748373 0.036267990104473 0 0.034597865044751562 0.059538283100065183 0 0.01831348993664601 0.050179875844019929 0 0.035194166143748373 0.036267990104473 0 0.01831348993664601 0.050179875844019929 0 0.01479277905737322 0.034115505761851322 0 0.049796226955297958 0.071615432852654121 0 0.034597865044751562 0.059538283100065183 0 0.050584644170265841 0.049990004250751632 0 0.035194166143748373 0.036267990104473 0 0.050584644170265841 0.049990004250751632 0 0.034597865044751562 0.059538283100065183 0 0.06741623899727188 0.043431041269210921 0 0.06509133171351128 0.061536721924481862 0 0.050584644170265841 0.049990004250751632 0 0.049796226955297958 0.071615432852654121 0 0.050584644170265841 0.049990004250751632 0 0.06509133171351128 0.061536721924481862 0 0.035194166143748373 0.036267990104473 0 0.057137757658075793 0.024268715362519691 0 0.050584644170265841 0.049990004250751632 0 0.06741623899727188 0.043431041269210921 0 0.050584644170265841 0.049990004250751632 0 0.057137757658075793 0.024268715362519691 0 0.035194166143748373 0.036267990104473 0 0.038487747360091522 0.016387646381637401 0 0.057137757658075793 0.024268715362519691 0 0.035194166143748373 0.036267990104473 0 0.0211689540835866 0.020294207212749191 0 0.038487747360091522 0.016387646381637401 0 0.024999999999941638 0 0 0.049999999999868497 0 0 0.038487747360091522 0.016387646381637401 0 0.049999999999868497 0 0 0.057137757658075793 0.024268715362519691 0 0.038487747360091522 0.016387646381637401 0 0.049999999999868497 0 0 0.07499999999993355 0 0 0.057137757658075793 0.024268715362519691 0 0.07499999999993355 0 0 0.080950281899397181 0.026970278689124379 0 0.057137757658075793 0.024268715362519691 0 0.10000000000000001 0.020408163265267731 0 0.10000000000000001 0.040816326530532299 0 0.080950281899397181 0.026970278689124379 0 0.10000000000000001 0.020408163265267731 0 0.080950281899397181 0.026970278689124379 0 0.088491713649877388 0.01129776753660997 0 0.07499999999993355 0 0 0.10000000000000001 0 0 0.088491713649877388 0.01129776753660997 0 0.07499999999993355 0 0 0.088491713649877388 0.01129776753660997 0 0.080950281899397181 0.026970278689124379 0 0.10000000000000001 0 0 0.1186263405973806 0.02146853907924717 0 0.10000000000000001 0.020408163265267731 0 0.10000000000000001 0 0 0.10000000000000001 0.020408163265267731 0 0.088491713649877388 0.01129776753660997 0 0.10000000000000001 0 0 0.1249999999999323 0 0 0.1186263405973806 0.02146853907924717 0 0.10000000000000001 0.020408163265267731 0 0.1186263405973806 0.02146853907924717 0 0.10000000000000001 0.040816326530532299 0 0.133965734735811 0.0345517845108698 0 0.1184025638397351 0.044620515969080433 0 0.1186263405973806 0.02146853907924717 0 0.10000000000000001 0.040816326530532299 0 0.1186263405973806 0.02146853907924717 0 0.1184025638397351 0.044620515969080433 0 0.10000000000000001 0.061224489795794243 0 0.1184025638397351 0.044620515969080433 0 0.1224113123827702 0.061448209743527132 0 0.10000000000000001 0.040816326530532299 0 0.10000000000000001 0.061224489795794243 0 0.083041428864014916 0.050921892867974709 0 0.10000000000000001 0.040816326530532299 0 0.1184025638397351 0.044620515969080433 0 0.10000000000000001 0.061224489795794243 0 0.10000000000000001 0.061224489795794243 0 0.08048382778577895 0.07165939129726534 0 0.083041428864014916 0.050921892867974709 0 0.10000000000000001 0.040816326530532299 0 0.083041428864014916 0.050921892867974709 0 0.080950281899397181 0.026970278689124379 0 0.06741623899727188 0.043431041269210921 0 0.080950281899397181 0.026970278689124379 0 0.083041428864014916 0.050921892867974709 0 0.06741623899727188 0.043431041269210921 0 0.057137757658075793 0.024268715362519691 0 0.080950281899397181 0.026970278689124379 0 0.08048382778577895 0.07165939129726534 0 0.06509133171351128 0.061536721924481862 0 0.083041428864014916 0.050921892867974709 0 0.06741623899727188 0.043431041269210921 0 0.083041428864014916 0.050921892867974709 0 0.06509133171351128 0.061536721924481862 0 0.08048382778577895 0.07165939129726534 0 0.065437769419401298 0.08280988356141343 0 0.06509133171351128 0.061536721924481862 0 0.065519376542323787 0.1020060103813805 0 0.065437769419401298 0.08280988356141343 0 0.082207783798225631 0.091809159878798771 0 0.08048382778577895 0.07165939129726534 0 0.082207783798225631 0.091809159878798771 0 0.065437769419401298 0.08280988356141343 0 0.10000000000000001 0.081632653061067179 0 0.082207783798225631 0.091809159878798771 0 0.08048382778577895 0.07165939129726534 0 0.10000000000000001 0.061224489795794243 0 0.10000000000000001 0.081632653061067179 0 0.08048382778577895 0.07165939129726534 0 0.10000000000000001 0.061224489795794243 0 0.11690923237079839 0.075771674886482066 0 0.10000000000000001 0.081632653061067179 0 0.10000000000000001 0.061224489795794243 0 0.1224113123827702 0.061448209743527132 0 0.11690923237079839 0.075771674886482066 0 0.1224113123827702 0.061448209743527132 0 0.1353873695908793 0.070572908111639798 0 0.11690923237079839 0.075771674886482066 0 0.13083011011621179 0.085621994819866154 0 0.11606503917892 0.092831191981644676 0 0.11690923237079839 0.075771674886482066 0 0.10000000000000001 0.081632653061067179 0 0.11690923237079839 0.075771674886482066 0 0.11606503917892 0.092831191981644676 0 0.10000000000000001 0.081632653061067179 0 0.10000000000000001 0.1020408163263421 0 0.082207783798225631 0.091809159878798771 0 0.10000000000000001 0.081632653061067179 0 0.11606503917892 0.092831191981644676 0 0.10000000000000001 0.1020408163263421 0 0.10000000000000001 0.1020408163263421 0 0.11606503917892 0.092831191981644676 0 0.1193707164044376 0.1125679358902586 0 0.1193707164044376 0.1125679358902586 0 0.11606503917892 0.092831191981644676 0 0.13729388873166179 0.1023778823952045 0 0.1193707164044376 0.1125679358902586 0 0.1339798845637783 0.12436412822187751 0 0.1174898008840846 0.1331867759582076 0 0.10000000000000001 0.1224489795916153 0 0.1193707164044376 0.1125679358902586 0 0.1174898008840846 0.1331867759582076 0 0.10000000000000001 0.1020408163263421 0 0.10000000000000001 0.1224489795916153 0 0.081723953713685502 0.11220798238239139 0 0.10000000000000001 0.1020408163263421 0 0.1193707164044376 0.1125679358902586 0 0.10000000000000001 0.1224489795916153 0 0.10000000000000001 0.1224489795916153 0 0.077414369161380808 0.1326877944589693 0 0.081723953713685502 0.11220798238239139 0 0.10000000000000001 0.1020408163263421 0 0.081723953713685502 0.11220798238239139 0 0.082207783798225631 0.091809159878798771 0 0.065519376542323787 0.1020060103813805 0 0.082207783798225631 0.091809159878798771 0 0.081723953713685502 0.11220798238239139 0 0.065519376542323787 0.1020060103813805 0 0.081723953713685502 0.11220798238239139 0 0.064954619147309406 0.1186102718044463 0 0.077414369161380808 0.1326877944589693 0 0.064954619147309406 0.1186102718044463 0 0.081723953713685502 0.11220798238239139 0 0.052231975381521037 0.1324697710711607 0 0.049315670342561173 0.11135059134879691 0 0.064954619147309406 0.1186102718044463 0 0.065519376542323787 0.1020060103813805 0 0.064954619147309406 0.1186102718044463 0 0.049315670342561173 0.11135059134879691 0 0.033420380235769848 0.1007185673550383 0 0.049315670342561173 0.11135059134879691 0 0.034087126905203192 0.1209861277781773 0 0.052231975381521037 0.1324697710711607 0 0.034087126905203192 0.1209861277781773 0 0.049315670342561173 0.11135059134879691 0 0.033420380235769848 0.1007185673550383 0 0.049933671108161173 0.09180167525965921 0 0.049315670342561173 0.11135059134879691 0 0.065519376542323787 0.1020060103813805 0 0.049315670342561173 0.11135059134879691 0 0.049933671108161173 0.09180167525965921 0 0.065519376542323787 0.1020060103813805 0 0.049933671108161173 0.09180167525965921 0 0.065437769419401298 0.08280988356141343 0 0.049796226955297958 0.071615432852654121 0 0.065437769419401298 0.08280988356141343 0 0.049933671108161173 0.09180167525965921 0 0.049796226955297958 0.071615432852654121 0 0.06509133171351128 0.061536721924481862 0 0.065437769419401298 0.08280988356141343 0 0.049796226955297958 0.071615432852654121 0 0.034559277816410987 0.081557337373673669 0 0.034597865044751562 0.059538283100065183 0 0.049796226955297958 0.071615432852654121 0 0.049933671108161173 0.09180167525965921 0 0.034559277816410987 0.081557337373673669 0 0.033420380235769848 0.1007185673550383 0 0.034559277816410987 0.081557337373673669 0 0.049933671108161173 0.09180167525965921 0 0.019904986126699369 0.070829013869890683 0 0.0345592778
[...]
<PointData Scalars="temperature," Vectors="" Tensors="">
<DataArray type="Float64" Name="temperature" format="ascii">
1.004113659873785 0.90808703280505731 0.81082979990218385 1.0020534007850732 0.91211190511818208 1.0007695415751166 1.0046343346287032 0.85599573760172254 0.81504864489514495 1.0055586369557634 0.81428983489248619 0.90798400580183614 0.67780824304887277 0.68657315477624048 0.81023852166095134 0.8084731247718604 0.81366298989117258 0.68388791355530532 0.80968706648713529 0.90849594503900555 0.81306805686858941 0.62668367794478963 0.6849559846668577 0.55619213472460793 0.6245931721187199 0.80493417066587158 0.68641379845486605 0.47583945996185761 0.55541242314293016 0.42473784414611593 0.47267795571248333 0.62212351600354787 0.5591415500060225 0.42753160158748876 0.55391049441100282 0.51410672471259222 0.67709321527041821 0.50840414764274866 0.55904951063647701 0.68083274807665806 0.55677795362720373 0.68387974764515347 0.47957726084032209 0.51237264324976917 0.60673006139777663 0.67188320918494915 0.6046172519323102 0.51341264716418755 0.69979162352071278 0.58694274578150629 0.60300663110799957 0.48478975467385371 0.60023012592757785 0.5873798628323631 0.67825457431253466 0.80654625398108293 0.59890413533157294 0.69202022561510368 0.60881577796968134 0.79546442040096765 0.68208423375004457 0.85193516278214132 0.80416081272895179 0.67607674141564267 0.81180830535473092 0.85747273813655944 0.99982619839081055 1.0059018063678307 0.86267861154967496 1.007163939172264 0.79884369916941278 0.85744162227832299 0.99529827715708086 1.0135416203680592 0.81397058070386008 1.0097456070127899 0.82283473426825171 0.81228038089998222 0.94938238811147879 0.86818030292559767 0.82919062767604013 0.93362907832824238 0.8516541189022907 0.94494727936435552 0.98677443713211299 1.0151114020601846 0.94717304589370865 0.9850750105974635 0.9470515137734925 0.84633523181210446 1.0157746379206505 0.88556988416767057 0.93005452197476124 1.01049048751677 0.93416417414995756 0.94697438489979802 1.0205190742463488 0.98705153279886604 0.88479689426823216 0.94775367301540614 0.85589204953247777 0.86839593640488499 0.74941289680964818 0.7426756407943359 0.88153400813335303 0.86147501436295082 0.85838365526290628 0.75775470959537194 0.80351739041335002 0.74526258116534128 0.65491931467918474 0.88359130063296776 0.8192882208360972 0.72350712097798175 0.88318582331147699 0.73714325959857196 0.81783814505373253 0.81241570244497963 0.63796765556294355 0.72459541528875426 0.86787213348811043 0.73732567153763084 0.82287313892683711 0.69782982542407401 0.84441849783760292 0.72101588565486641 0.69678423659673616 0.79104465451062322 0.84262061963425239 0.63030778115703945 0.58460018886559506 0.73508677761270935 0.69218191545761909 0.72497477733354965 0.59373557840045721 0.6289489847780324 0.50500141804742515 0.58406904270455495 0.44469040149793426 0.49985895701267047 0.5773200852610918 0.63723402079318281 0.58160535213365672 0.49809064759097293 0.76360732866197523 0.58824339349314658 0.62659036365179099 0.82805060837180655 0.77235707893369332 0.62167861130360358 0.82713249048941406 0.63295694233428168 0.77331388872383655 0.81564545718397874 0.64599329805934791 0.64397408077370522 0.65685303274391482 0.5430047776529755 0.63352970026504074 0.50990012702577059 0.59504467899902747 0.64223698547666386 0.76800070270959353 0.63532497960640111 0.59994019022529066 0.77851592795864488 0.73311469236860127 0.57390779314168017 0.77865783659348853 0.58876234423047413 0.73315918462478824 0.72324733870842228 0.59664781211990014 0.52308118762204947 0.52221450108145973 0.59695675821293293 0.41481025972196889 0.5247129252789432 0.38752945547724293 0.49826474839700707 0.68304470559988695 0.51950490244384595 0.50010243927193065 0.73588075384422935 0.6963555942589299 0.52007768642589125 0.73628325122557203 0.50864798009179946 0.69581811173277852 0.68046725848135925 0.45459646644886781 0.53332167205834391 0.72140986158388432 0.5338671052580557 0.58241589920534675 0.43632561977420653 0.58689289985120963 0.53204731006530959 0.44246695433024746 0.52497794011467724 0.40095546342022936 0.46048079471466213 0.39533608925961594 0.53220396767442746 0.30772244651380276 0.33988605188601717 0.3966381468872886 0.44447760560009109 0.40044842237337658 0.33647955083101816 0.32190769035407607 0.33799658430280038 0.26954947365422299 0.30517912651343326 0.26476733913613471 0.34236234947564725 0.32025082198625726 0.40251569918458169 0.34001050337062522 0.43832341374096778 0.34138856687132679 0.40015517942656204 0.44203530428567811 0.39812853270651805 0.50445953652946685 0.48005883007707412 0.49832569791935999 0.40294184429042085 0.48093385350924878 0.59168348293922657 0.49868613703224302 0.48225601156766867 0.39797730761438571 0.50839830848995615 0.48457286218951984 0.39972763781814807 0.3968944564751859 0.32341765144148493 0.39649033024670788 0.39915192771466756 0.42609044524409012 0.39751714571828456 0.33240315748864302 0.3220874559389143 0.33176591670239691 0.39839639483518841 0.42913487422428276 0.51237544288073655 0.39494766032745249 0.36116886008834526 0.47258359969908836 0.42774142390276998 0.36265646598316137 0.42651150377100261 0.33147977521857303 0.28140654726161268 0.362119874007446 0.33200877666923234 0.28116194047227649 0.33185497611180287 0.26167487137617568 0.32193404188386626 0.26251987681462585 0.33130111795930212 0.21797008380070126 0.26196930487914982 0.26747043362134942 0.32336092969550057 0.26847459273472535 0.2610316484423611 0.22493318328953513 0.28197731250389885 0.26099028005874897 0.22240264648168359 0.26297798107336734 0.21621914417704996 0.184868990070225 0.22479849226035523 0.21349886267959509 0.15720258111009502 0.18533924240035227 0.1787370590468067 0.18166476572643853 0.2168509022246104 0.18247479888293058 0.19910083000261658 0.17879920750747277 0.22878012674442072 0.21808724201842528 0.22581965664450279 0.18183655793783707 0.21607816026844057 0.26964823102776836 0.22844942432301138 0.30053824101180626 0.22829134022873718 0.26802892292894337 0.30683055202577336 0.34849093027336508 0.26504252260695893 0.33030323201129869 0.25969972940628949 0.35360162034606452 0.30606331937065562 0.26600125334452684 0.22375317336635231 0.19832474482392828 0.22914248203798437 0.26029675579673289 0.19904632747116491 0.23135725918741659 0.18093708025230562 0.19398137285602216 0.26448733604348401 0.2362040043321719 0.3227952570906546 0.2342649048778698 0.26575323677553442 0.32881973660533526 0.30213242141972063 0.2286393213733523 0.20663497249090093 0.2362800657116387 0.29342371948920104 0.20931962908920598 0.17775889021514077 0.23484113422633554 0.14724828243969734 0.15746312165024812 0.17888742036285205 0.19548857774121231 0.15785060856299479 0.18220550986734105 0.19892285684484162 0.18120860421153279 0.15449745041515922 0.15330573370999973 0.18211308207188065 0.15751684152590656 0.13687254577067456 0.15741561987536404 0.15365511242660651 0.13118182875607748 0.15855422275015446 0.14450975608894126 0.12131336588388024 0.13650404615962264 0.13894240618032283 0.14716325635943206 0.15718571549225477 0.12588310454160098 0.14990237636532869 0.12278360369293696 0.15943291255294412 0.11053789738260787 0.12161568320106306 0.12195967490451587 0.11603746343159009 0.14398908129687521 0.12730348628135393 0.10570090703560413 0.1262345584144435 0.11614075364905471 0.095562882393538023 0.11658365004018455 0.11143661304752066 0.10119836348592924 0.110511477096034 0.11148678637350996 0.11353950659953296 0.11567004923137346 0.13905686704371062 0.14944740535626028 0.14221175780092307 0.11207897434566556 0.14556734552817693 0.11593292478033844 0.12681872120546653 0.14978853201852907 0.18821443403319468 0.14177482144272296 0.14482004631148715 0.20238332454861466 0.19331435200336797 0.17195452437580394 0.13871831187534944 0.19167933189175163 0.16842089817985964 0.19413793105845351 0.24788487700985945 0.27362109373298915 0.25629158590946749 0.18684605489575817 0.26721235263400339 0.19247279462404157 0.20235838853215038 0.2750066205695364 0.19574522095731686 0.28186251786934818 0.20719374935147872 0.27443644705755948 0.20272717680452515 0.14951679494337394 0.15967528237250073 0.19799616931142522 0.20856712134947694 0.20255561249382659 0.15584872654018506 0.14124314519771966 0.18296009186514423 0.20237210257527677 0.14149832589172084 0.20169574856829464 0.16097880736299777 0.19920377505192746 0.30021346645709646 0.28229839505620535 0.38889689716123127 0.28135623741451421 0.30154408036311831 0.59970874828483156 0.57392080034471726 0.37943925337506418 0.55844531536737363 0.39187876720779319 0.39483558533354213 0.38301286673101481 0.27397408884282154 0.28175144542438751 0.39684474814392889 0.39269897803111758 0.27331951798094722 0.27538850438034679 0.36209446722830418 0.25353596359847591 0.26627828856348529 0.39123132526418331 0.37234037045521023 0.33872938894985566 0.24809301648462934 0.36821594188926915 0.50591538327976482 0.33237944659128543 0.37184298273213717 0.53273005478917879 0.36857305854258338 0.39301565060607835 0.54474892826571863 0.52140064491692939 0.35733022925528363 0.54402245423777673 0.33889871400723842 0.52135650654045951 0.35554411630834659 0.24383246404602255 0.35248598402498121 0.50603347676166277 0.35416489365447845 0.35093024420118585 0.53104548620286218 0.38634083259379165 0.351803771639776 0.38397294314571861 0.26186610746571864 0.35745210390270843 0.27644689432380387 0.38724321198796674 0.4091752027425446 0.55866143978756577 0.41057051808119488 0.38356097858766869 0.5716792250121614 0.37113374071297195 0.54696897348468876 0.57136937890683848 0.54740270067732955 0.37934579733081697 0.60002287965126855 0.39627458440716407 0.57397973611147146 0.58599286994579658 0.41822556103087821 0.40975293591084022 0.42047528099163034 0.29042091227381417 0.41058061390594325 0.61653302904509311 0.46615574791636005 0.4169472337364471 0.42192131394813559 0.46383341318031329 0.31744305989387878 0.63013909484308572 0.40306898805874597 0.60174694298833764 0.63037673447120812 0.6021364116471144 0.42154318990085415 0.58626076710789299 0.39291808428062586 0.43632302135310841 0.33004599020730663 0.42567662351034197 0.29968304608949015 0.39836998968642284 0.29242252916636197 0.43357187146517429 0.32083005557805599 0.46247043683650235 0.43630693448051006 0.61690038961343407 0.43432069607501267 0.46211251893669131 0.64620348187725285 0.46352147539662675 0.45270352645826978 0.32900436757261947 0.35376761376636523 0.45414638783478312 0.46029365173196063 0.46140315411342037 0.34901166448870341 0.29825308902216241 0.40356584402459589 0.44884622112132944 0.2970333027964201 0.44944159691979341 0.3560296123026146 0.69694083624383585 0.66232037447350345 0.43799845676383514 0.69740847608707568 0.48663851968453348 0.66300817966061598 0.66200847204744395 0.63198324201984835 0.44868940843719785 0.66281184513941227 0.4525404627718258 0.63137974133361507 0.6495205473326322 0.49821889536035663 0.46500751946373531 0.3546364860388041 0.46608848769212707 0.4994453098271554 0.36269293980219813 0.49044340707926126 0.39320767588733657 0.36260036800570417 0.39482023259661714 0.29379230903745135 0.36318699541822186 0.3245694754395454 0.45612410909679396 0.36205029926499899 0.25674202915589583 0.32699732355051092 0.2233829486102325 0.26354017347498754 0.29882215141537166 0.35574946063581819 0.29927537547449506 0.26221303454363776 0.22747340714713549 0.29462728992257486 0.26499579327253603 0.22762200781564654 0.26516025527681414 0.21111818207046884 0.22426253356376458 0.21406209741218701 0.1812798093431344 0.227818836048548 0.17810723472786189 0.20430706317854488 0.22805002289150403 0.20397603791478899 0.25906203215847734 0.15873584931997925 0.22142061464400423 0.20590040500103263 0.22824427265352965 0.26240193104390497 0.20080993787334292 0.15144746706317366 0.16194427543394571 0.18208580842693475 0.16462073930425247 0.2018598976011047 0.18096627639927867 0.1309473070484628 0.1396968389539863 0.16139451075653757 0.16465482185807864 0.13830271890967383 0.17122277883728099 0.21507492212248636 0.22737136398637464 0.16964781736757664 0.1591916970784272 0.17475025938787789 0.22053395245982355 0.21828431942356094 0.2995340233024989 0.32487928642791225 0.21498493424452778 0.29157117178533087 0.22626206544108357 0.22542878787824444 0.31848493772621439 0.26404870660469848 0.41253067831987189 0.32630517323610514 0.29848680944992628 0.28453991369123699 0.40047113403561374 0.29909198256976238 0.28600229067406596 0.29888061527817872 0.20818548164149411 0.27840162110993888 0.21486932095053476 0.20284403005878859 0.21498024422911191 0.15376699919391268 0.20340464054572185 0.28569964364536826 0.26796011668333058 0.37700040155858366 0.28483474779974083 0.19687275182153699 0.26989224781249133 0.34858783373889124 0.26985059267444328 0.25071102104642856 0.18357834433303383 0.25274220022811883 0.2681564588674743 0.19035773315518886 0.17761259237958477 0.24580885730871019 0.18947896333293118 0.13306897056505959 0.17885795064371066 0.18928932605649501 0.26250911229839591 0.20349425932360463 0.19061211262506231 0.20280976748540491 0.1450272493182849 0.11433813241444288 0.1386160897180001 0.14936440470314999 0.18501224409542441 0.15001867908547767 0.13745999714179272 0.11829513737951428 0.10618925149811119 0.13447366185633469 0.11790278227521812 0.14575653227566249 0.12501545320444205 0.1394154415800376 0.12492163272758267 0.15517352957968361 0.1589060872519398 0.12100549972461758 0.14989406673314859 0.15885790766449068 0.1497210094643007 0.19804432005273215 0.13543641410123139 0.15933586626399515 0.17312816274001502 0.21036998428601142 0.17351902772757685 0.15868172103752565 0.13649373917337143 0.12192578003669167 0.13460413001452351 0.12196460031974107 0.11032881784955836 0.12089527311774534 0.11735051655157396 0.12533696022273796 0.13854959985934362 0.10561894107046151 0.11710260058915631 0.12529682260536343 0.11032059160714303 0.10105377016872133 0.11207624403327256 0.096424881106705121 0.10720854458144236 0.11654275206831395 0.15644419605515184 0.1360055328735508 0.1566379985597908 0.1851375683173461 0.15669716822939836 0.17752582632612399 0.18159585994549426 0.18096377271430308 0.21422337357557253 0.22457792065825402 0.18480912867909277 0.21133563777735323 0.46991571464804544 0.36189593982614954 0.3991180584307582 0.36120260837985441 0.28119807357020127 0.32274962252544565 0.36256444050926318 0.32229540713953692 0.3993821428155373 0.28070623203413531 0.26105173525981523 0.32304235766941436 0.28090873616827194 0.22388583136382081 0.25982236281145088 0.26242653399669646 0.21415790570747306 0.2621300882151944 0.2218695272872365 0.21414232560655366 0.26208169246400981 0.26252696698934413 0.323764080938026 0.32039566882761661 0.26029521894906482 0.26442439813024243 0.32666279047132291 0.33092830574516813 0.32576556691969177 0.2651555043013481 0.29968814179997205 0.38867480068049831 0.33322000072913083 0.29901851353445236 0.33446298226198173 0.2615441702288579 0.33077808307803547 0.39234107569626581 0.42706840956356973 0.51500723173486784 0.42153013952301094 0.39575257273855757 0.33586636171103912 0.42040318802580406 0.32012661542311543 0.43445522535802655 0.32255583052455766 0.41645242039160835 0.51504005114718932 0.42499226999916867 0.58803192900601997 0.51389347395722629 0.42748218880041605 0.42639367942272349 0.51019601869387299 0.54782909680000169 0.43209248687520835 0.51599809158445242 0.6338569846615123 0.54098990545565051 0.53106639253762455 0.43588842142944917 0.54391912435505152 0.53574264530850446 0.45084088538277262 0.43166342967154087 0.37482117448401364 0.32084141182702425 0.32455112740900655 0.37234659501529882 0.32725682255604366 0.43341663139729586 0.37363467052268751 0.4313926785167983 0.45065306447376963 0.37308429871722981 0.39817810194090475 0.32337584801876829 0.37269045467404005 0.45231255097215628 0.39853329625456585 0.48419537001199969 0.39954209444861932 0.45143664462756489 0.4726135232172648 0.39751620526599951 0.48529858609488669 0.47364678859783937 0.48355947125584531 0.59450943339828344 0.48424600189230227 0.56613703731631293 0.59526059710372747 0.69262061878376135 0.79260323446154135 0.59676933527491416 0.68833287477276217 0.5653344281807261 0.65810784461382199 0.69111886874387851 0.59900499706590626 0.56239004643984347 0.48594926923906789 0.44952509378003275 0.56416648404362146 0.53434206393998196 0.5606255559769967 0.45235824508560118 0.53096618293647124 0.65860691797620674 0.56466594952133753 0.53645195559281134 0.63863207309806891 0.65194861268678117 0.53314129464068871 0.54302243187550869 0.64277681422821353 0.65315918980947341 0.75523534344392029 0.63821100562243671 0.65221554737882403 0.6368671910317133 0.54841835715621801 0.74237200541042292 0.64384152068076306 0.74600320203456905 0.75108913240035102 0.65591995898901945 0.63689679241932151 0.69443611779756187 0.65214316927374882 0.83630587918289834 0.74453113008901195 0.82434965824568573 0.66046006009613489 0.74954160537355219 0.87672746960161774 0.82204200962070628 1.0113423986290846 0.84206412024627841 0.85735789396353135 1.0100142486353505 0.99854601976695334 0.85006673928912513 1.0025840927263316 0.8027691725620536 0.83182475204174877 1.0063786351132802 0.99794715829626413 0.83897610796886168 0.69150834604568245 0.8388942720795366 0.79590695284705448 1.0031869929392869 0.8051121013313054 1.0041729508921062 1.0060726084762914 0.80840711448514435 0.80022780924580506 0.80716599735705707 0.61868508996530502 0.80017586412042818 0.62432580622789025 0.59612391384370744 0.79401311883941661 0.62239341836972906 0.46992945959201676 0.59872206352392532 1.0041497997646751 0.99718769510001293 0.99900602285858264 0.98268438192239749 0.62037107417627391 0.59218820502799863 0.48796035680394462 0.46454592240085951 0.77505678978813553 0.74284185677645553 0.74266367023924018 0.71109977118279943 0.51253752134000596 0.48817107423988337 0.34160988198973785 0.3242677987888713 0.3241016042032252 0.30756255854401282 0.15905514368742274 0.15040204376825742 0.16828345787966889 0.15915505864999688 0.17800268807158839 0.16838546524223619 0.71090025433268667 0.68008180178298872 0.67986277894665659 0.64988578975597433 0.64966593888420432 0.62059790736025355 0.18821783327455241 0.17810858221803766 0.44166423881929029 0.42011735934315564 0.59194863178020396 0.56471641072687995 0.19897599111779909 0.18833074330586158 0.21030629192993378 0.19909180956472539 0.22220553389549841 0.21042614607588905 0.53804776898362616 0.5127413231731569 0.30739950629768958 0.29160516424056254 0.23472987130696432 0.22233047271851214 0.29143416939545896 0.27636187560624753 0.24790020430443743 0.23487279076490203 0.26171266341590421 0.24803614347520866 0.56448705308641312 0.53825549682756402 0.2761968587410869 0.2618536483233902 0.35990999018184655 0.3417781184234373 0.10056414841012346 0.095223293745405752 0.11294286667962854 0.10669601804006498 0.11961788329639239 0.11301906934984234 0.39904979637375582 0.37924043318512196 0.98390746162192078 0.96110662328154861 0.1066103579228925 0.10071376123618733 0.37906075809534084 0.36007816805941079 0.96192467471894372 0.93459108041427097 0.1266904521121901 0.11969668242679346 0.93507165207834519 0.904933161820625 0.90520940243334125 0.87337118382348122 0.4643414178146803 0.44187627739086988 0.87346748604732039 0.84081095316521537 0.80787189328837694 0.77520404346686322 0.41991903350579679 0.39923806272146917 0.15031352759776495 0.14210161971785371 0.14201751594158379 0.13422732858944386 0.84079205378660671 0.80795962548991607 0.13414745337565256 0.12677366276330959 0.04980520050425475 0.056780338463143475 0.060782751719104106 0.055870390486892817 0.052502417597062527 0.05801627818862562 0.052366141774543531 0.049610216917243564 0.054072709959232933 0.047555013540101887 0.052938115439620986 0.056253653263546567 0.04949363110195943 0.046825145837863062 0.051096182659248861 0.057199169035959389 0.047523310119717381 0.063572182871717453 0.043672271063997931 0.049270115950674521 0.054893869389231555 0.043808457571026568 0.055059614659036679 0.05352729945647302 0.06694449050213267