<?xml version="1.0"?>
<VTKFile type="UnstructuredGrid" version="0.1" byte_order="LittleEndian">
<UnstructuredGrid>
<Piece NumberOfPoints="3764" NumberOfCells="1271">
<Points>
<DataArray type="Float64" NumberOfComponents="3" format="ascii">
0.024999999999941638 0 0 0.01142230349469592 0.01018508895725519 0 0 0 0 0 0 0 0.01142230349469592 0.01018508895725519 0 0 0.02040816326539097 0 0 0.02040816326539097 0 0.01142230349469592 0.01018508895725519 0 0.0211689540835866 0.020294207212749191 0 0 0.02040816326539097 0 0.0211689540835866 0.020294207212749191 0 0.01479277905737322 0.034115505761851322 0 0.035194166143748373 0.036267990104473 0 0.01479277905737322 0.034115505761851322 0 0.0211689540835866 0.020294207212749191 0 0.024999999999941638 0 0 0.0211689540835866 0.020294207212749191 0 0.01142230349469592 0.01018508895725519 0 0.024999999999941638 0 0 0.038487747360091522 0.016387646381637401 0 0.0211689540835866 0.020294207212749191 0 0.024999999999941638 0 0 0.049999999999868497 0 0 0.038487747360091522 0.016387646381637401 0 0.035194166143748373 0.036267990104473 0 0.0211689540835866 0.020294207212749191 0 0.038487747360091522 0.016387646381637401 0 0.035194166143748373 0.036267990104473 0 0.038487747360091522 0.016387646381637401 0 0.057137757658075793 0.024268715362519691 0 0.049999999999868497 0 0 0.057137757658075793 0.024268715362519691 0 0.038487747360091522 0.016387646381637401 0 0.049999999999868497 0 0 0.07499999999993355 0 0 0.057137757658075793 0.024268715362519691 0 0.06741623899727188 0.043431041269210921 0 0.06509133171351128 0.061536721924481862 0 0.050584644170265841 0.049990004250751632 0 0.049796226955297958 0.071615432852654121 0 0.050584644170265841 0.049990004250751632 0 0.06509133171351128 0.061536721924481862 0 0.035194166143748373 0.036267990104473 0 0.057137757658075793 0.024268715362519691 0 0.050584644170265841 0.049990004250751632 0 0.06741623899727188 0.043431041269210921 0 0.050584644170265841 0.049990004250751632 0 0.057137757658075793 0.024268715362519691 0 0.049796226955297958 0.071615432852654121 0 0.034597865044751562 0.059538283100065183 0 0.050584644170265841 0.049990004250751632 0 0.035194166143748373 0.036267990104473 0 0.050584644170265841 0.049990004250751632 0 0.034597865044751562 0.059538283100065183 0 0.019904986126699369 0.070829013869890683 0 0.01831348993664601 0.050179875844019929 0 0.034597865044751562 0.059538283100065183 0 0.035194166143748373 0.036267990104473 0 0.034597865044751562 0.059538283100065183 0 0.01831348993664601 0.050179875844019929 0 0.035194166143748373 0.036267990104473 0 0.01831348993664601 0.050179875844019929 0 0.01479277905737322 0.034115505761851322 0 0 0.040816326530782043 0 0 0.02040816326539097 0 0.01479277905737322 0.034115505761851322 0 0 0.040816326530782043 0 0.01479277905737322 0.034115505761851322 0 0.01831348993664601 0.050179875844019929 0 0 0.061224489796173009 0 0 0.040816326530782043 0 0.01831348993664601 0.050179875844019929 0 0 0.061224489796173009 0 0.01831348993664601 0.050179875844019929 0 0.019904986126699369 0.070829013869890683 0 0 0.081632653061564198 0 0 0.061224489796173009 0 0.019904986126699369 0.070829013869890683 0 0 0.081632653061564198 0 0.019904986126699369 0.070829013869890683 0 0.017559835652970961 0.090791477478020521 0 0 0.1020408163269553 0 0 0.081632653061564198 0 0.017559835652970961 0.090791477478020521 0 0.019904986126699369 0.070829013869890683 0 0.034559277816410987 0.081557337373673669 0 0.017559835652970961 0.090791477478020521 0 0.033420380235769848 0.1007185673550383 0 0.017559835652970961 0.090791477478020521 0 0.034559277816410987 0.081557337373673669 0 0.019904986126699369 0.070829013869890683 0 0.034597865044751562 0.059538283100065183 0 0.034559277816410987 0.081557337373673669 0 0 0.1224489795923462 0 0.01752448428357762 0.1117329240166892 0 0.019544808628996119 0.13227401154704449 0 0 0.1224489795923462 0 0 0.1020408163269553 0 0.01752448428357762 0.1117329240166892 0 0 0.1020408163269553 0 0.017559835652970961 0.090791477478020521 0 0.01752448428357762 0.1117329240166892 0 0.033420380235769848 0.1007185673550383 0 0.01752448428357762 0.1117329240166892 0 0.017559835652970961 0.090791477478020521 0 0.033420380235769848 0.1007185673550383 0 0.034087126905203192 0.1209861277781773 0 0.01752448428357762 0.1117329240166892 0 0.019544808628996119 0.13227401154704449 0 0.01752448428357762 0.1117329240166892 0 0.034087126905203192 0.1209861277781773 0 0.033420380235769848 0.1007185673550383 0 0.049315670342561173 0.11135059134879691 0 0.034087126905203192 0.1209861277781773 0 0.052231975381521037 0.1324697710711607 0 0.034087126905203192 0.1209861277781773 0 0.049315670342561173 0.11135059134879691 0 0.033420380235769848 0.1007185673550383 0 0.049933671108161173 0.09180167525965921 0 0.049315670342561173 0.11135059134879691 0 0.065519376542323787 0.1020060103813805 0 0.049315670342561173 0.11135059134879691 0 0.049933671108161173 0.09180167525965921 0 0.052231975381521037 0.1324697710711607 0 0.049315670342561173 0.11135059134879691 0 0.064954619147309406 0.1186102718044463 0 0.065519376542323787 0.1020060103813805 0 0.064954619147309406 0.1186102718044463 0 0.049315670342561173 0.11135059134879691 0 0.049796226955297958 0.071615432852654121 0 0.034559277816410987 0.081557337373673669 0 0.034597865044751562 0.059538283100065183 0 0.033420380235769848 0.1007185673550383 0 0.034559277816410987 0.081557337373673669 0 0.049933671108161173 0.09180167525965921 0 0.049796226955297958 0.071615432852654121 0 0.049933671108161173 0.09180167525965921 0 0.034559277816410987 0.081557337373673669 0 0.065519376542323787 0.1020060103813805 0 0.049933671108161173 0.09180167525965921 0 0.065437769419401298 0.08280988356141343 0 0.049796226955297958 0.071615432852654121 0 0.065437769419401298 0.08280988356141343 0 0.049933671108161173 0.09180167525965921 0 0.049796226955297958 0.071615432852654121 0 0.06509133171351128 0.061536721924481862 0 0.065437769419401298 0.08280988356141343 0 0.08048382778577895 0.07165939129726534 0 0.065437769419401298 0.08280988356141343 0 0.06509133171351128 0.061536721924481862 0 0.065519376542323787 0.1020060103813805 0 0.065437769419401298 0.08280988356141343 0 0.082207783798225631 0.091809159878798771 0 0.08048382778577895 0.07165939129726534 0 0.082207783798225631 0.091809159878798771 0 0.065437769419401298 0.08280988356141343 0 0.10000000000000001 0.081632653061067179 0 0.082207783798225631 0.091809159878798771 0 0.08048382778577895 0.07165939129726534 0 0.10000000000000001 0.061224489795794243 0 0.10000000000000001 0.081632653061067179 0 0.08048382778577895 0.07165939129726534 0 0.065519376542323787 0.1020060103813805 0 0.081723953713685502 0.11220798238239139 0 0.064954619147309406 0.1186102718044463 0 0.077414369161380808 0.1326877944589693 0 0.064954619147309406 0.1186102718044463 0 0.081723953713685502 0.11220798238239139 0 0.065519376542323787 0.1020060103813805 0 0.082207783798225631 0.091809159878798771 0 0.081723953713685502 0.11220798238239139 0 0.10000000000000001 0.1020408163263421 0 0.081723953713685502 0.11220798238239139 0 0.082207783798225631 0.091809159878798771 0 0.10000000000000001 0.1224489795916153 0 0.077414369161380808 0.1326877944589693 0 0.081723953713685502 0.11220798238239139 0 0.10000000000000001 0.1020408163263421 0 0.10000000000000001 0.1224489795916153 0 0.081723953713685502 0.11220798238239139 0 0.10000000000000001 0.1020408163263421 0 0.10000000000000001 0.1224489795916153 0 0.10000000000000001 0.1020408163263421 0 0.1193707164044376 0.1125679358902586 0 0.10000000000000001 0.1224489795916153 0 0.1193707164044376 0.1125679358902586 0 0.11606503917892 0.092831191981644676 0 0.13729388873166179 0.1023778823952045 0 0.10000000000000001 0.1020408163263421 0 0.11606503917892 0.092831191981644676 0 0.1193707164044376 0.1125679358902586 0 0.10000000000000001 0.1224489795916153 0 0.1193707164044376 0.1125679358902586 0 0.1174898008840846 0.1331867759582076 0 0.1193707164044376 0.1125679358902586 0 0.1339798845637783 0.12436412822187751 0 0.1174898008840846 0.1331867759582076 0 0.10000000000000001 0.061224489795794243 0 0.11690923237079839 0.075771674886482066 0 0.10000000000000001 0.081632653061067179 0 0.10000000000000001 0.061224489795794243 0 0.10000000000000001 0.081632653061067179 0 0.10000000000000001 0.081632653061067179 0 0.10000000000000001 0.1020408163263421 0 0.082207783798225631 0.091809159878798771 0 0.10000000000000001 0.081632653061067179 0 0.10000000000000001 0.1020408163263421 0 0.10000000000000001 0.081632653061067179 0 0.11606503917892 0.092831191981644676 0 0.10000000000000001 0.1020408163263421 0 0.13083011011621179 0.085621994819866154 0 0.11606503917892 0.092831191981644676 0 0.11690923237079839 0.075771674886482066 0 0.10000000000000001 0.081632653061067179 0 0.11690923237079839 0.075771674886482066 0 0.11606503917892 0.092831191981644676 0 0.1224113123827702 0.061448209743527132 0 0.1353873695908793 0.070572908111639798 0 0.11690923237079839 0.075771674886482066 0 0.10000000000000001 0.061224489795794243 0 0.1224113123827702 0.061448209743527132 0 0.11690923237079839 0.075771674886482066 0 0.10000000000000001 0.061224489795794243 0 0.1184025638397351 0.044620515969080433 0 0.1224113123827702 0.061448209743527132 0 0.10000000000000001 0.040816326530532299 0 0.10000000000000001 0.061224489795794243 0 0.083041428864014916 0.050921892867974709 0 0.10000000000000001 0.040816326530532299 0 0.1184025638397351 0.044620515969080433 0 0.10000000000000001 0.061224489795794243 0 0.10000000000000001 0.040816326530532299 0 0.10000000000000001 0.061224489795794243 0 0.10000000000000001 0.040816326530532299 0 0.1186263405973806 0.02146853907924717 0 0.1184025638397351 0.044620515969080433 0 0.133965734735811 0.0345517845108698 0 0.1184025638397351 0.044620515969080433 0 0.1186263405973806 0.02146853907924717 0 0.10000000000000001 0 0 0.1249999999999323 0 0 0.1186263405973806 0.02146853907924717 0 0.10000000000000001 0 0 0.10000000000000001 0
[...]
<PointData Scalars="temperature," Vectors="" Tensors="">
<DataArray type="Float64" Name="temperature" format="ascii">
1.0007721875975375 0.98089689419128245 0.99997699457149802 1.0019062506848151 0.97910909685471337 0.95637542930586583 0.95445629360100437 0.98023977819176733 0.95626565141027098 0.95397066433906963 0.95701562976177679 0.92050816517876421 0.91877801676653892 0.91936206650407004 0.95796763597046952 1.002762016925024 0.95803084684643247 0.97916387752586032 1.0025619395461467 0.96859696969312314 0.95805448712565722 0.9993650404168436 1.0024841823808623 0.97231830502301497 0.92169332368817014 0.95558793130839437 0.97091014387087815 0.9235447509574719 0.96902121786024453 0.95856717457848462 1.0044180903729594 0.958306150790593 0.96923477800376934 0.99874263664624885 1.0043773313602069 0.96553791047459725 0.93201894234244209 0.88773920718273813 0.89489259121566878 0.84215301464328962 0.89504203056271336 0.88739832170922595 0.91855466948824027 0.96374964273881503 0.89662886554787347 0.92763425241295594 0.89974472893822521 0.96054720252002124 0.83849852926109647 0.85349286829393611 0.89870101684905901 0.91970113617045157 0.8948965947093811 0.85731446054649951 0.81112006579979123 0.87227059853981614 0.85393238568501517 0.92282813650245044 0.85458802635458042 0.87195315208108748 0.91979877158487333 0.87480878079566604 0.91848689063988753 0.89909375389251167 0.95642399293684144 0.91835089775104461 0.89692827373869477 0.92001944461411389 0.87301403632458718 0.83547332608636782 0.89862808824723284 0.87122719327346942 0.83226106369539066 0.87417433218299812 0.80894446026704914 0.76879877872397473 0.8341797781657776 0.80677550168492318 0.76567392553347391 0.80982166333876127 0.74511069441004063 0.70403033305083107 0.76784548220357129 0.74272709279008142 0.80915064519478486 0.78836870648281088 0.74621020556394901 0.73240521005348536 0.74317418102689381 0.79126258314607478 0.80840221615929275 0.85661093204815608 0.78945433209480664 0.63969465956546567 0.68244708893724026 0.62628077287074346 0.64352205843615495 0.70324976680474283 0.6791236091578543 0.70091923656159349 0.74546332011287153 0.6815248032454766 0.73109945442409974 0.68306218531014073 0.74427340281253207 0.73394671358552066 0.67771865575279089 0.67994175219289055 0.62860776580742239 0.68081270547128991 0.67680462331726299 0.7316563085656862 0.73359422711457378 0.68005120145079712 0.69187026252284278 0.67593830569305213 0.73720103807789361 0.7308315569842071 0.78808045937448601 0.73448677803640561 0.79821003899935639 0.73754387529607746 0.7849669443087659 0.69587340992192359 0.73373583749688698 0.76276225239037299 0.80197611278622194 0.76267507528839984 0.73403891188897663 0.83784050407863098 0.79207741787896635 0.85377673212795169 0.7344951153258974 0.78917961624752342 0.78451889024870192 0.84127593481242524 0.78533348891420607 0.78880922460848801 0.79870284955743576 0.78501217762851538 0.84434140971141092 0.83763785026482485 0.84028528331186281 0.78880059663959257 0.83817670320695259 0.89122447135842187 0.84020106202588762 0.89848613243990438 0.84522612099919292 0.88613633203651143 0.80299636762644089 0.83986532436914174 0.86833185580449246 0.90234925756706885 0.86730429429697231 0.84150472499114348 0.93789530872321525 0.87331924491837853 0.89587991048931026 0.9618045837803989 0.93696122280497995 0.89831709967018869 0.79873363671461617 0.83221237538677506 0.76547713481543067 0.78314044690386952 0.76141370369328909 0.83681871543931885 0.79871381787442908 0.87289774142254106 0.83256491584500425 0.91672625411696129 0.83783403212781316 0.86734503758467074 0.89431635273195764 0.78643990264602215 0.83302730501855027 0.92105379477995886 0.89554894602797119 0.83282645983209724 0.97751985858525348 0.96644195011659506 0.9214421740388602 0.8281344317726097 0.89541213592848068 0.82820655741524463 0.87705045110139412 0.78843845550653346 0.91710258606735129 0.87246072599123226 0.8334355801797958 0.89540102850293679 0.82668798318765091 0.80696330471883559 0.83211691492528783 0.75421001533827592 0.80218289034747503 0.96146900301569127 0.89966827884578704 0.93749208633341119 0.99300390411946804 0.9858649805351406 0.94195502711390877 0.91683623438220885 0.86867966772967575 0.98629454603405153 0.97711469430981024 0.94160789210659845 0.87323697906840014 0.91710732831918707 0.84448244169873765 0.87200900160167816 0.90133767680782206 0.93908124654686809 0.8969306529015858 0.87658870378196918 0.91251471132220852 0.86739416489172561 0.89640442760849859 0.96009921015330557 0.90849178718611268 0.90152085517527292 0.95388286811643463 0.94379581104043997 0.91333809877175165 0.97844524897064467 0.95685582922501144 0.93751816982024661 0.97823398692256436 0.94253944247788402 0.95659409272164742 0.99755228811862073 0.99253175064825094 0.97259250936559938 0.97535740884580391 0.94883311379391533 0.94569345311520947 0.94387668662854163 0.98192405217369638 1.004048011296635 0.99809389823103167 0.98156433675666332 1.0020597298690452 0.98931837038845183 0.99153431481370147 1.0007053312657319 0.99964787235329178 1.0040120272355213 0.98072036839538201 0.98823092072294361 1.0000666056552652 0.99710064865246961 0.99209800009095395 0.9742110417143931 0.97421737621202231 0.99274588432409239 0.97375881548843657 0.9681346646187855 0.98897220421635446 0.97362974452915829 0.99170474158807054 0.99769970211329095 1.0025995129757046 0.99167092131318424 0.99813531671040612 0.99140080800584884 0.97296853557277752 1.0059046062855619 0.96597637963601712 0.96266240582346108 0.93145227402153552 0.95602514653705406 0.97155792783524142 0.93020613540666985 0.9736876889992111 0.93570740997563295 0.89791496634197066 0.88717956445550816 0.94202413409748265 0.92829388891627329 0.93724363914491893 0.89190964848848475 0.95721701595741582 0.90388245059101846 0.93600239308539368 0.97445681019052821 0.94205071303147747 0.96654358850741873 0.48413963888963873 0.51996100896450992 0.57002128642522831 0.59703183862570475 0.52010611691432862 0.54031056874683925 0.60129033046548541 0.57439166217853654 0.51617993091560921 0.47605630846118541 0.54148051592711832 0.51907534560178104 0.47935635814881206 0.51584262926474056 0.46060432332722523 0.48522402642114448 0.45742765972425981 0.51927145977546851 0.41752958213044605 0.43273468622709049 0.45752951837504713 0.40094242569285166 0.43420565317077919 0.41426923936857296 0.40791521290451882 0.43391061442383011 0.42800852095328173 0.42848364931057825 0.4608992339619109 0.4332299629164636 0.47566965691482149 0.43382107689076987 0.46101513290544166 0.47969485415339663 0.46006984955031693 0.42971413151476673 0.47940040156709868 0.45754128240174152 0.50268044675077583 0.50067931465707127 0.5001943745797045 0.46092734440318456 0.43413963278050172 0.46375073549431328 0.4559493011509731 0.45787036933871966 0.49804920373094896 0.46165426306138768 0.46377650162706713 0.49892450567727342 0.49238543839834054 0.49574246492226709 0.55698757570862523 0.50372650247838024 0.4968788617692888 0.54954155494296342 0.55608382317695471 0.5619285019592738 0.54039718827010719 0.50010438208723729 0.48013044917408138 0.5022414747615106 0.537861307498812 0.55975019836602191 0.61371404493954618 0.54201493664213418 0.60037024585366583 0.5375701167771455 0.61844389818720158 0.55677560032697404 0.64764660143122355 0.61666593181586582 0.68309231343199117 0.6463775995935096 0.59977080750212819 0.56175816828053404 0.60253297134678296 0.64313016474214257 0.6790723767599004 0.60372969360444473 0.64384659077806095 0.57831522597467711 0.6450438020452085 0.60258802839092818 0.58087626409910298 0.60017935674788137 0.54880862987537804 0.56126585100216864 0.54572932259246287 0.60341219280757852 0.50143759664544818 0.53089274126344033 0.54666648765512471 0.49982178194482318 0.54098619193137487 0.52744729045457583 0.49375293608290144 0.53257459148527242 0.49782146242397152 0.53701484842549618 0.57647393456905249 0.53119979397242001 0.57858497280669852 0.53244874525691932 0.57584601775822952 0.58180839309764132 0.54784397548502162 0.52917006571647685 0.58104524218600073 0.57354284593984795 0.62667522767812578 0.62732087696088423 0.6235049494211572 0.57691617807626572 0.58490312159256119 0.62703282074343769 0.57648752278318349 0.54130037066670189 0.58846426615640934 0.57277429622697762 0.58885189952312922 0.64255503572948391 0.62310298864845237 0.6259071665269087 0.67951743112259688 0.62536581055076401 0.69024688984130866 0.62725142515200116 0.67683449437810794 0.69470872741889977 0.64408495956028644 0.62338506087734535 0.58207218374041525 0.62563831007639226 0.6414608467422569 0.68155480127198675 0.64202646482322911 0.71255059685128885 0.69284809868782116 0.70897703657968947 0.64575322682187719 0.68892089733239115 0.78243641413853493 0.71250687819490754 0.69282871899596377 0.76470885665592347 0.77868887598143 0.6835555627629808 0.71068251723918263 0.76992442786933413 0.78510222883603276 0.77006074723075246 0.71114845813352412 0.87311277478946514 0.77413019831187957 0.77961677603588675 0.89992158541186174 0.8739050975029875 0.78015423238539605 0.89941368821266632 0.80267856875766253 0.87467234446654851 0.96679346993704862 0.9540789454402705 0.87378815707576496 0.80227931329212887 0.77545084749784698 0.71766588340434168 0.77161682712963575 0.80642853558298921 0.95435528144259218 0.9402949058863348 0.87764317414441939 0.7712748311088895 0.85363417990053403 0.87763058407618322 0.85382268722567023 0.76976284983103094 0.85185835777994945 0.77210095625902186 0.7359843575129783 0.73388174613267643 0.77449035263610078 0.67697710567760283 0.73574496776241527 0.64151062242908874 0.71631259266723346 0.83068074521532309 0.73240119240219781 0.71912268527163259 0.85621645366306998 0.73111320863024321 0.83281450619107389 0.85612981633856056 0.83307989884900679 0.74170052218054039 0.94052224121235473 0.92532965094035946 0.83052308700687671 0.70954218403969993 0.74339268709046313 0.85203154738796838 0.74607272511135725 0.77034073604315445 0.67968206252038932 0.77376038661202506 0.74299327824175943 0.68121550313946899 0.74100536849991072 0.64813811559538304 0.70807719584172624 0.64398522989050377 0.74525706391289404 0.7058491396000045 0.61883919129159948 0.64608111055080597 0.70956830872881871 0.69590085661932977 0.61495233468764787 0.69357277115987892 0.60183616596819289 0.61685908421646651 0.81008732180506748 0.69813804448576333 0.70680109615461417 0.83495706073097964 0.81276126530682957 0.70469995147114983 0.83490445568300342 0.71480082484913698 0.81291708734971846 0.92550281759938624 0.90943213473685436 0.81012782914701942 0.7167462471111582 0.69268083388028512 0.61747475250048567 0.69125067360842041 0.71851703061945982 0.8142478717267827 0.68840130105565067 0.79307796354067073 0.81417018874288349 0.79329941488391853 0.69395554825622086 0.90955831554673405 0.89281960535117699 0.69210511277605058 0.59326864265141599 0.66183301261611327 0.78958138306584502 0.69126545168044529 0.66198438789056013 0.66243940116240341 0.56746889947369239 0.65233987382006031 0.77011741643044029 0.66059880607043486 0.65356239984491993 0.89291056029412275 0.87566385605034891 0.7939574996167319 0.65734898307102885 0.77373411560866856 0.7941111835055773 0.77386496173455666 0.67011686701621831 0.77003176419913399 0.64002249916461085 0.67330735600880953 0.79018423136675675 0.67408608041012674 0.69633646859104315 0.59791432736981454 0.69760326247354898 0.67312103915023092 0.60080014621190136 0.66985032404562506 0.57477511692428318 0.64052324115173942 0.57143976010402542 0.67332192317780004 0.43551176248783358 0.40835824270669918 0.44889258479381222 0.43574060612397442 0.47593433013959652 0.45808325849314541 0.51202271934190657 0.47941768831295389 0.4527492699157632 0.43186933119468268 0.45263436906176813 0.47968239299825011 0.51566842509658128 0.49332634902066286 0.56702526266283126 0.51600722817060174 0.44872060959645255 0.49286144274913191 0.51234622136820873 0.57039136518589273 0.59638547860887958 0.65893482901414047 0.59587866862825212 0.57110572616071686 0.51567873303949763 0.54189027008803792 0.47617159764606831 0.51634332402821193 0.59258830765917769 0.5411765326488075 0.61703198212076926 0.56575404942851493 0.54229598793959011 0.56717291444432383 0.49991987835084084 0.54090187981210591 0.62115557843767921 0.5383254749998081 0.59578920615400865 0.62000705737222428 0.59678865947402182 0.68837684548986766 0.6215696675291833 0.71425036279539555 0.6430541956479422 0.6199308605281818 0.64486562431575678 0.56331808275873652 0.56349307352490496 0.53277003916445198 0.50399915310474586 0.48851606308933648 0.50331524258278415 0.53325705359730502 0.50289122345357151 0.48034169745483291 0.53785003172193169 0.5037652071740184 0.45473786490446794 0.47927559605586983 0.49174003638993286 0.45884717314836115 0.49996431677112307 0.49352364669548893 0.49223015526700287 0.53523394923738188 0.53767597276303203 0.49165115501641682 0.53111006827276008 0.53534351790034473 0.53503421407426976 0.57555492495416849 0.53851717388176057 0.58700628039789993 0.57381819095953979 0.53426954858432485 0.58988147306487637 0.5897118430963969 0.5947980834678861 0.64341718867132769 0.58609548124742239 0.56586278236150678 0.59548472922163431 0.53089617133856615 0.53310621632156174 0.53432480638674595 0.59082150521456622 0.59066430017157834 0.64289063614609121 0.68060100576991045 0.56758152885146906 0.64025604682930704 0.59319906126431632 0.73200835285354848 0.67862279989664809 0.64541816320847234 0.59549416406352251 0.67627421793349185 0.64243143528172553 0.62262613345678486 0.64219460146753515 0.6886050929549784 0.71654751694516927 0.68667810587860234 0.64400871612029331 0.71858424867343751 0.68115353305125559 0.77022022307455662 0.72075217481873854 0.64010319822270922 0.67912107620299933 0.72148995773289926 0.80229849636789596 0.75341690650392268 0.71812259533068001 0.75697109246834737 0.68565098328623342 0.62622715923345007 0.68510033010075555 0.67202213750421691 0.6246146121207854 0.6734948430832548 0.62174833479785507 0.62471192433851197 0.58919894726218702 0.64021915769337934 0.62562706944338697 0.5722833986223147 0.58820951216657913 0.62227463191925747 0.62382430716836634 0.57551751677233276 0.64266326274633812 0.58886093950695639 0.62118307154481589 0.5884848095385673 0.54087730795648103 0.57080929177669459 0.58494776543464133 0.57427109932251197 0.62468898055226496 0.54000850562849401 0.49901907481202884 0.53006207821196738 0.49903676966365401 0.46431324969776011 0.48708025722722453 0.46406740964435489 0.43387414643618488 0.45374304584802277 0.45919856579783963 0.45842732733061325 0.49145034858976339 0.42831640133976695 0.43406507515623111 0.45886946074293333 0.4019268743996734 0.40879856430765704 0.43391742541827605 0.43358492245449304 0.40768584852693374 0.42841261670451863 0.92380521332783694 0.88013088519046079 0.91486960976556408 0.92606423306517183 0.88912881685963341 0.87781121832750186 0.8648952760631784 0.8774473906516127 0.82538628866364006 0.83986906861180632 0.82315516230983554 0.87991909435380378 0.8418230936360015 0.87771770036914742 0.8892228427772334 0.83286248309068667 0.83945607424072022 0.89132258498830674 0.92342109711438192 0.95461485714601446 0.89212533808261685 0.92585633716029458 0.96744367913368357 0.95203210552061224 1.0033240760033728 0.95633570864552164 0.96378354338399486 1.0008235270337771 0.95888209572147487 1.0022067102189711 1.0024957048573249 0.99887962633539806 0.96874203927153302 1.0053211490044278 0.96854918946941959 0.97400292285009726 0.94671589577022219 0.97937440615832216 0.96239572974859999 1.0027840923010756 0.99978926757801212 0.97264793881060407 0.94432324701170001 0.91220944818860428 0.94426596061465295 0.94770474295459883 0.91442914455407431 0.90880868091805633 0.92444476696247146 0.91498192623611863 0.97001610144742256 0.94368632558467302 0.96528633803174047 0.91858442877395774 0.86865237872294732 0.90875371936125893 0.91425539691306257 0.8652374605385188 0.91783368168034196 0.87727539708110502 0.91048718952689722 0.90857995894101418 0.87010304427246143 0.86507478825358164 0.86628186884713043 0.91231357562050086 0.91069932480542148 0.94819247661989425 0.90886543608293568 0.84680381640422475 0.89854321585300678 0.86510500111305055 0.84278900769989074 0.86929414733049515 0.81003387833194473 0.84479371078276477 0.79415281423022999 0.87196187306450046 0.84631560974914788 0.80589902701444138 0.79199244680954672 0.86808331020405594 0.82214043693012839 0.80918396289818029 0.86452841090798105 0.81292798569548563 0.86672884282532259 0.72632034701504533 0.75316634397257953 0.79313284394624728 0.82813130050719352 0.78792380640307269 0.7576173313969593 0.72809776375875612 0.79054282011911847 0.73033611363200512 0.81106100366261002 0.73460639506618408 0.7859480809659084 0.68675394854090122 0.72811579661629189 0.67078996122189027 0.68934665607069334 0.75329714212764787 0.72569912444883822 0.67920280448938652 0.67228886903617979 0.73555145354132578 0.72499023146266273 0.73367071843982878 0.6741883458517044 0.68274039898248307 0.7317655969728627 0.73601419010310098 0.6395512933427866 0.62447491800464794 0.68147524196129738 0.68111358855755733 0.62531337996665248 0.67012211009948108 0.77494831109734241 0.73533152859765338 0.73283483293649687 0.77453144885793312 0.8075727204939277 0.82325198113481424 0.77218559200384718 0.73650709294420802 0.81062980616401259 0.77245600162138739 0.79207208649467653 0.73869943261813675 0.8407342525679421 0.79273201245044156 0.82197771009408049 0.77395364965813829 0.8241253256180765 0.79042073637709875 0.83181391845760122 0.79281119543808476 0.84023079444027982 0.83448084497850972 0.76874471469076311 0.7903195321087213 0.76637805739447862 0.73803475278195563 0.79246715858540007 0.76822026530862841 0.70397768404820993 0.73600702752740488 0.70309135317320359 0.64309803476613558 0.67796109743918131 0.70109652893552066 0.68060710710761241 0.73854126169310896 0.8977220213805992 0.88990428422083567 0.95685500600574802 0.89855445568219006 0.83595040213619376 0.88862900144270063 1.0049638874626847 0.95566073047406808 0.95369525404904909 0.95577175290862582 0.90100430939724008 0.95354665422612572 0.24811754959245311 0.23891981044465527 0.25025804657976436 0.2688647014674046 0.25822392257519122 0.27074260681507323 0.25305786883244363 0.26443516385558186 0.2759835625143629 0.25783874388979305 0.24841633371334915 0.25937970846233793 0.24437589191597045 0.25382184271957442 0.26363257166412751 0.29195481348934316 0.28026914470879466 0.29272557781118186 0.30449003594848123 0.29239290161324843 0.30409542288979813 0.28682333680056099 0.29812199854982346 0.30897254099835414 0.28027463106251821 0.2692504224162055 0.27969775951656928 0.27497340336139725 0.28468953189255491 0.29775555767126499 0.26389370261063833 0.27617276832919552 0.28461957140462707 0.27723043800790059 0.30692336455987224 0.2837636648714299 0.31445936417854231 0.28015622989954736 0.31102001800590995 0.31132400924016645 0.29934059009044883 0.28388449127838494 0.31089780810186385 0.36911996110194367 0.34726621565480226 0.31313550932532047 0.31167328751097451 0.36600676805582538 0.33241200115288744 0.3493406791940023 0.30427514887014723 0.29953118306827015 0.32881270452962963 0.30815450471474698 0.29382599280863392 0.34277418188317049 0.33316384010743011 0.31546043293436871 0.34248814683828965 0.29385575977931699 0.39171736396724871 0.35091554957766385 0.33038104353696746 0.39338982532712463 0.32883842372076461 0.34741856022141965 0.40373110451793143 0.39885580670978948 0.34257045055547819 0.40328005909956327 0.34275835812760824 0.3739943936421376 0.40289530887175146 0.4565408246493074 0.46948409432185101 0.39180623017866573 0.46990151622595649 0.48929651795775769 0.40598951664158006 0.46588613551665814 0.39638407272516174 0.37072480654253526 0.30752915249229673 0.34600456841454524 0.37359971658042956 0.34370368626104797 0.40467959830682787 0.36670467964630893 0.45351036743528489 0.45599021123039812 0.40615411709974986 0.37095202022861529 0.45243856902079393 0.36911044898524037 0.40879957357914898 0.45145664302610755 0.45510554564873423 0.40511286404325531 0.50496083719004081 0.45078949291