<?xml version="1.0"?>
<VTKFile type="UnstructuredGrid" version="0.1" byte_order="LittleEndian">
<UnstructuredGrid>
<Piece NumberOfPoints="3764" NumberOfCells="1271">
<Points>
<DataArray type="Float64" NumberOfComponents="3" format="ascii">
0.024999999999941638 0 0 0.01142230349469592 0.01018508895725519 0 0 0 0 0 0 0 0.01142230349469592 0.01018508895725519 0 0 0.02040816326539097 0 0 0.02040816326539097 0 0.01142230349469592 0.01018508895725519 0 0.0211689540835866 0.020294207212749191 0 0 0.02040816326539097 0 0.0211689540835866 0.020294207212749191 0 0.01479277905737322 0.034115505761851322 0 0.035194166143748373 0.036267990104473 0 0.01479277905737322 0.034115505761851322 0 0.0211689540835866 0.020294207212749191 0 0.024999999999941638 0 0 0.0211689540835866 0.020294207212749191 0 0.01142230349469592 0.01018508895725519 0 0.024999999999941638 0 0 0.038487747360091522 0.016387646381637401 0 0.0211689540835866 0.020294207212749191 0 0.024999999999941638 0 0 0.049999999999868497 0 0 0.038487747360091522 0.016387646381637401 0 0.035194166143748373 0.036267990104473 0 0.0211689540835866 0.020294207212749191 0 0.038487747360091522 0.016387646381637401 0 0.035194166143748373 0.036267990104473 0 0.038487747360091522 0.016387646381637401 0 0.057137757658075793 0.024268715362519691 0 0.049999999999868497 0 0 0.057137757658075793 0.024268715362519691 0 0.038487747360091522 0.016387646381637401 0 0.049999999999868497 0 0 0.07499999999993355 0 0 0.057137757658075793 0.024268715362519691 0 0.06741623899727188 0.043431041269210921 0 0.06509133171351128 0.061536721924481862 0 0.050584644170265841 0.049990004250751632 0 0.049796226955297958 0.071615432852654121 0 0.050584644170265841 0.049990004250751632 0 0.06509133171351128 0.061536721924481862 0 0.035194166143748373 0.036267990104473 0 0.057137757658075793 0.024268715362519691 0 0.050584644170265841 0.049990004250751632 0 0.06741623899727188 0.043431041269210921 0 0.050584644170265841 0.049990004250751632 0 0.057137757658075793 0.024268715362519691 0 0.049796226955297958 0.071615432852654121 0 0.034597865044751562 0.059538283100065183 0 0.050584644170265841 0.049990004250751632 0 0.035194166143748373 0.036267990104473 0 0.050584644170265841 0.049990004250751632 0 0.034597865044751562 0.059538283100065183 0 0.019904986126699369 0.070829013869890683 0 0.01831348993664601 0.050179875844019929 0 0.034597865044751562 0.059538283100065183 0 0.035194166143748373 0.036267990104473 0 0.034597865044751562 0.059538283100065183 0 0.01831348993664601 0.050179875844019929 0 0.035194166143748373 0.036267990104473 0 0.01831348993664601 0.050179875844019929 0 0.01479277905737322 0.034115505761851322 0 0 0.040816326530782043 0 0 0.02040816326539097 0 0.01479277905737322 0.034115505761851322 0 0 0.040816326530782043 0 0.01479277905737322 0.034115505761851322 0 0.01831348993664601 0.050179875844019929 0 0 0.061224489796173009 0 0 0.040816326530782043 0 0.01831348993664601 0.050179875844019929 0 0 0.061224489796173009 0 0.01831348993664601 0.050179875844019929 0 0.019904986126699369 0.070829013869890683 0 0 0.081632653061564198 0 0 0.061224489796173009 0 0.019904986126699369 0.070829013869890683 0 0 0.081632653061564198 0 0.019904986126699369 0.070829013869890683 0 0.017559835652970961 0.090791477478020521 0 0 0.1020408163269553 0 0 0.081632653061564198 0 0.017559835652970961 0.090791477478020521 0 0.019904986126699369 0.070829013869890683 0 0.034559277816410987 0.081557337373673669 0 0.017559835652970961 0.090791477478020521 0 0.033420380235769848 0.1007185673550383 0 0.017559835652970961 0.090791477478020521 0 0.034559277816410987 0.081557337373673669 0 0.019904986126699369 0.070829013869890683 0 0.034597865044751562 0.059538283100065183 0 0.034559277816410987 0.081557337373673669 0 0 0.1224489795923462 0 0.01752448428357762 0.1117329240166892 0 0.019544808628996119 0.13227401154704449 0 0 0.1224489795923462 0 0 0.1020408163269553 0 0.01752448428357762 0.1117329240166892 0 0 0.1020408163269553 0 0.017559835652970961 0.090791477478020521 0 0.01752448428357762 0.1117329240166892 0 0.033420380235769848 0.1007185673550383 0 0.01752448428357762 0.1117329240166892 0 0.017559835652970961 0.090791477478020521 0 0.033420380235769848 0.1007185673550383 0 0.034087126905203192 0.1209861277781773 0 0.01752448428357762 0.1117329240166892 0 0.019544808628996119 0.13227401154704449 0 0.01752448428357762 0.1117329240166892 0 0.034087126905203192 0.1209861277781773 0 0.033420380235769848 0.1007185673550383 0 0.049315670342561173 0.11135059134879691 0 0.034087126905203192 0.1209861277781773 0 0.052231975381521037 0.1324697710711607 0 0.034087126905203192 0.1209861277781773 0 0.049315670342561173 0.11135059134879691 0 0.033420380235769848 0.1007185673550383 0 0.049933671108161173 0.09180167525965921 0 0.049315670342561173 0.11135059134879691 0 0.065519376542323787 0.1020060103813805 0 0.049315670342561173 0.11135059134879691 0 0.049933671108161173 0.09180167525965921 0 0.052231975381521037 0.1324697710711607 0 0.049315670342561173 0.11135059134879691 0 0.064954619147309406 0.1186102718044463 0 0.065519376542323787 0.1020060103813805 0 0.064954619147309406 0.1186102718044463 0 0.049315670342561173 0.11135059134879691 0 0.049796226955297958 0.071615432852654121 0 0.034559277816410987 0.081557337373673669 0 0.034597865044751562 0.059538283100065183 0 0.033420380235769848 0.1007185673550383 0 0.034559277816410987 0.081557337373673669 0 0.049933671108161173 0.09180167525965921 0 0.049796226955297958 0.071615432852654121 0 0.049933671108161173 0.09180167525965921 0 0.034559277816410987 0.081557337373673669 0 0.065519376542323787 0.1020060103813805 0 0.049933671108161173 0.09180167525965921 0 0.065437769419401298 0.08280988356141343 0 0.049796226955297958 0.071615432852654121 0 0.065437769419401298 0.08280988356141343 0 0.049933671108161173 0.09180167525965921 0 0.049796226955297958 0.071615432852654121 0 0.06509133171351128 0.061536721924481862 0 0.065437769419401298 0.08280988356141343 0 0.08048382778577895 0.07165939129726534 0 0.065437769419401298 0.08280988356141343 0 0.06509133171351128 0.061536721924481862 0 0.065519376542323787 0.1020060103813805 0 0.065437769419401298 0.08280988356141343 0 0.082207783798225631 0.091809159878798771 0 0.08048382778577895 0.07165939129726534 0 0.082207783798225631 0.091809159878798771 0 0.065437769419401298 0.08280988356141343 0 0.10000000000000001 0.081632653061067179 0 0.082207783798225631 0.091809159878798771 0 0.08048382778577895 0.07165939129726534 0 0.10000000000000001 0.061224489795794243 0 0.10000000000000001 0.081632653061067179 0 0.08048382778577895 0.07165939129726534 0 0.065519376542323787 0.1020060103813805 0 0.081723953713685502 0.11220798238239139 0 0.064954619147309406 0.1186102718044463 0 0.077414369161380808 0.1326877944589693 0 0.064954619147309406 0.1186102718044463 0 0.081723953713685502 0.11220798238239139 0 0.065519376542323787 0.1020060103813805 0 0.082207783798225631 0.091809159878798771 0 0.081723953713685502 0.11220798238239139 0 0.10000000000000001 0.1020408163263421 0 0.081723953713685502 0.11220798238239139 0 0.082207783798225631 0.091809159878798771 0 0.10000000000000001 0.1224489795916153 0 0.077414369161380808 0.1326877944589693 0 0.081723953713685502 0.11220798238239139 0 0.10000000000000001 0.1020408163263421 0 0.10000000000000001 0.1224489795916153 0 0.081723953713685502 0.11220798238239139 0 0.10000000000000001 0.1020408163263421 0 0.10000000000000001 0.1224489795916153 0 0.10000000000000001 0.1020408163263421 0 0.1193707164044376 0.1125679358902586 0 0.10000000000000001 0.1224489795916153 0 0.1193707164044376 0.1125679358902586 0 0.11606503917892 0.092831191981644676 0 0.13729388873166179 0.1023778823952045 0 0.10000000000000001 0.1020408163263421 0 0.11606503917892 0.092831191981644676 0 0.1193707164044376 0.1125679358902586 0 0.10000000000000001 0.1224489795916153 0 0.1193707164044376 0.1125679358902586 0 0.1174898008840846 0.1331867759582076 0 0.1193707164044376 0.1125679358902586 0 0.1339798845637783 0.12436412822187751 0 0.1174898008840846 0.1331867759582076 0 0.10000000000000001 0.061224489795794243 0 0.11690923237079839 0.075771674886482066 0 0.10000000000000001 0.081632653061067179 0 0.10000000000000001 0.061224489795794243 0 0.10000000000000001 0.081632653061067179 0 0.10000000000000001 0.081632653061067179 0 0.10000000000000001 0.1020408163263421 0 0.082207783798225631 0.091809159878798771 0 0.10000000000000001 0.081632653061067179 0 0.10000000000000001 0.1020408163263421 0 0.10000000000000001 0.081632653061067179 0 0.11606503917892 0.092831191981644676 0 0.10000000000000001 0.1020408163263421 0 0.13083011011621179 0.085621994819866154 0 0.11606503917892 0.092831191981644676 0 0.11690923237079839 0.075771674886482066 0 0.10000000000000001 0.081632653061067179 0 0.11690923237079839 0.075771674886482066 0 0.11606503917892 0.092831191981644676 0 0.1224113123827702 0.061448209743527132 0 0.1353873695908793 0.070572908111639798 0 0.11690923237079839 0.075771674886482066 0 0.10000000000000001 0.061224489795794243 0 0.1224113123827702 0.061448209743527132 0 0.11690923237079839 0.075771674886482066 0 0.10000000000000001 0.061224489795794243 0 0.1184025638397351 0.044620515969080433 0 0.1224113123827702 0.061448209743527132 0 0.10000000000000001 0.040816326530532299 0 0.10000000000000001 0.061224489795794243 0 0.083041428864014916 0.050921892867974709 0 0.10000000000000001 0.040816326530532299 0 0.1184025638397351 0.044620515969080433 0 0.10000000000000001 0.061224489795794243 0 0.10000000000000001 0.040816326530532299 0 0.10000000000000001 0.061224489795794243 0 0.10000000000000001 0.040816326530532299 0 0.1186263405973806 0.02146853907924717 0 0.1184025638397351 0.044620515969080433 0 0.133965734735811 0.0345517845108698 0 0.1184025638397351 0.044620515969080433 0 0.1186263405973806 0.02146853907924717 0 0.10000000000000001 0 0 0.1249999999999323 0 0 0.1186263405973806 0.02146853907924717 0 0.10000000000000001 0 0 0.10000000000000001 0
[...]
<PointData Scalars="temperature," Vectors="" Tensors="">
<DataArray type="Float64" Name="temperature" format="ascii">
1.0001946812038054 0.99539894455617928 0.99998808062533817 1.0004916456829396 0.99494113140223539 0.98942225295456832 0.98889309968441252 0.99525331621805146 0.98936888196949058 0.98876762116459871 0.98958803283780661 0.98044004291867304 0.97995218775589688 0.98004758350746479 0.9899327081090008 1.000710781811045 0.98985164520636615 0.9949584911036472 1.0006518689992201 0.99244269320398104 0.98986111396652088 0.99982879084628107 1.0006238339996198 0.99338877292837957 0.98086716918947081 0.9891903727796052 0.99310972051790258 0.9813398259215661 0.9926100661657018 0.99006400865069977 1.0011255963255472 0.99002696394676304 0.99260854223159389 0.99968485720845279 1.0010782810617427 0.99186387642214469 0.98351181966253298 0.97135147304958147 0.97354679746881423 0.95843108916502273 0.97380774294783745 0.97113048247273182 0.97986797701777617 0.99163936246157902 0.97427033360295934 0.98221932831291436 0.97503612487420832 0.99086726117639667 0.95729882598386662 0.96194087058157152 0.97489739321805635 0.9804567929692678 0.97354092651116075 0.96331706581265608 0.94962384955183166 0.96762139325746188 0.96205571272427493 0.98138240895299289 0.96251580775779411 0.9672670289898786 0.98022953511704136 0.96831718065132122 0.97983401296840311 0.97479525637589581 0.98958877227709485 0.97973171482271437 0.97404948259653312 0.98031290054818676 0.96773029099099517 0.95712591102089328 0.97480768394452888 0.9670139478681965 0.95579900254078953 0.96828979965410178 0.9489170026314111 0.93611398277041191 0.95680525759209889 0.94786474408815224 0.9346094928840375 0.94933353931691866 0.92750404335957826 0.91260371294798837 0.93574747983046125 0.92629991517547805 0.94905144554489651 0.94147806991490202 0.92791702414201827 0.92173476889212058 0.92647938274007435 0.94285167470659537 0.94841304106594393 0.96328490049330662 0.94219652247381147 0.88517166440915485 0.90335530865370783 0.87775225235243959 0.88711554163371242 0.91225515537637158 0.90156625232655407 0.91096485378997871 0.92783141800015057 0.90289351968014053 0.92096550079380957 0.90358445040580204 0.92725158176550193 0.92251917552420826 0.89902911293862764 0.9019238419730029 0.87880946509115176 0.90251206398340134 0.89844255079408486 0.92145773971941203 0.91960155015375866 0.90012216931356515 0.90051391619729582 0.89816494152348625 0.92135042368857978 0.92089934968376297 0.94060792426837303 0.92012012483739869 0.94157064408766966 0.92143053645274575 0.93933966204495212 0.90247311251462126 0.9196686165796234 0.92758944763119788 0.9431611325325111 0.92740692273157432 0.91983119431182225 0.95683144484944704 0.94308716316117824 0.96236167566040876 0.92256743847940859 0.94205800282976171 0.93899110845300626 0.95826540230932844 0.93949201235001922 0.94165970504258834 0.94182081390427486 0.93918513116438318 0.95807661279382927 0.95700299873770001 0.95648401662376648 0.94074942286638708 0.95695287633048032 0.9725431325191306 0.95662811805864012 0.97352877876740362 0.9582974431171456 0.97089771192536056 0.94351550632855397 0.95639669693475937 0.96358719555121275 0.97492926123787249 0.96321742103727759 0.9568828400463959 0.98359191623276832 0.965344947762109 0.97275820772086208 0.99065575224040803 0.98322125273856731 0.97351548150316369 0.94173162377533437 0.95037438808345387 0.92870101407103567 0.93131727020348409 0.92686628358033296 0.95240969005535481 0.94176184234700777 0.96539829976512992 0.95044457914744007 0.97661867622106491 0.95266676027784591 0.96316619668689585 0.96846795928582663 0.93320614647095879 0.95052301737997758 0.97822160400754776 0.96859108911380132 0.95066281467082114 0.99420470132545224 0.99085233746939416 0.97840148915979575 0.94925229065555805 0.96857267631847743 0.94914242235519775 0.96656914655390891 0.93862478206608302 0.97673520840921269 0.96461278298193354 0.95135201166819217 0.96889924449782916 0.94840678485577568 0.93967616264100706 0.95092394537451275 0.92360777664602223 0.9372899087290375 0.99058231114325412 0.97366200350701837 0.98336576491686301 0.9983381153632821 0.99645864122515826 0.9849399065714326 0.97650124054321275 0.9636933416061475 0.99661474207155853 0.99403075924980788 0.98480361940105476 0.96491316626180601 0.9766113943032908 0.95742984119560415 0.96445045448916389 0.9742942186154756 0.9839458166941476 0.97276319273911027 0.96610697460851824 0.97792424214886564 0.96523201798533054 0.97262975706192312 0.99017093363075048 0.97668861682083452 0.97424451809154744 0.98833913375631888 0.98635987382682255 0.97812478781395717 0.99493604101478406 0.98914595574194641 0.98458030835442534 0.99486034159894454 0.98594680781084498 0.98911113861073896 0.99943807624762449 0.99819022995031814 0.99338926996583876 0.99429800479367392 0.98762745123936158 0.98689771828724093 0.98637548776901285 0.99593519542351805 1.0009481886204501 0.99956354430434435 0.99570793013160719 1.0004846269818026 0.9975115893185158 0.99803128785559703 1.000165279943614 0.99991885097318411 1.0009629488012961 0.99548525804134902 0.99724372986331444 1.0000207031223523 0.99931566628066382 0.99817492060417545 0.99392720682278313 0.99384395297125327 0.99834526497653298 0.9937155368577687 0.99245513949854425 0.99741784292045244 0.99380265570924975 0.99809287299168059 0.99946364989550951 1.0006040602867199 0.99806505074339613 0.99958328425632004 0.99799894126067268 0.99366168236653185 1.0014986589856487 0.99194461919978483 0.99112119152461942 0.98335951048983805 0.98949356957995793 0.99332937122745579 0.98289958728372961 0.99401268378391572 0.98415581187129675 0.97343461140442422 0.971062160776058 0.98601372048023994 0.98246432769211689 0.98452000980674415 0.97256221307740387 0.98926453228472289 0.97526405885035528 0.98423561981287688 0.99386455680959485 0.98586182676265655 0.99214187369184048 0.76436754876393243 0.79059947141033549 0.81173280925780489 0.83181625537943726 0.79153016343201898 0.80876900248369277 0.83420106079238054 0.81327156769535047 0.7892935590300354 0.7741275494762464 0.81013100261233273 0.79020378870787733 0.77537425985008479 0.78897087619271056 0.75835103881584331 0.76397836132419417 0.75637800246585962 0.7911019583968647 0.72872669223955733 0.74705360004833143 0.75662934965553574 0.72519756839357674 0.74816693441540949 0.72660465617109249 0.72901253698583379 0.75341678265394207 0.74478915137166601 0.75064706391979463 0.77227008512008566 0.74746439496940453 0.77380456656071905 0.74812695518356431 0.77197746521530686 0.77602478793216612 0.7576174675566586 0.74582630304362429 0.77549692319538643 0.77038898649571275 0.79503464701179294 0.80098783238221605 0.7935310421878653 0.77236176253433109 0.7536711994402383 0.7789079304138401 0.76959750247399905 0.77604297485112539 0.80008016092126444 0.77244455261097522 0.77915546633212251 0.80543893912649533 0.79708337287686537 0.79849477209732567 0.8260085470905083 0.79543954429166974 0.79960991803297321 0.8289573982109717 0.82497062730077497 0.82823564089087298 0.80891848985913073 0.79381893163554695 0.77633112595974785 0.79441699610819883 0.80812730050650261 0.82646314064903148 0.84613221467183009 0.81041023758452457 0.83275100802087809 0.80810825740886461 0.84860041415407883 0.825742372378798 0.86861810900896697 0.8469230390241318 0.88870579175227959 0.86710288041938055 0.85237459548684502 0.82843473365251008 0.85323167953303103 0.86611846668932424 0.88653116714085878 0.85456412451815178 0.87659213703281225 0.84811469793076555 0.87772380338593115 0.85342244325848327 0.84912104037988101 0.85243297527507422 0.82885353299287856 0.82744074053673999 0.82709855393069631 0.85429670204679686 0.80167319673639237 0.82401250989582242 0.82767715863698821 0.80600150950145377 0.83294161540095335 0.82250898877295064 0.80296392558829399 0.82513431105732005 0.79967520279257831 0.83099064997669825 0.85201064128680937 0.82438697780699288 0.84818581032332474 0.8252137167220075 0.85144241278262911 0.84993582593875017 0.8280563671821326 0.82338529811198558 0.84933004162866099 0.8503377876295054 0.87445824055199506 0.87805564045628126 0.87268859848367886 0.85220120860413273 0.85830013669302296 0.87818476809406665 0.85179929503531315 0.83325614437709028 0.86003816134849287 0.84998241369629135 0.86039984040495709 0.88669667962238463 0.87612520687827411 0.87722368102609527 0.90003011296475344 0.87368425419049134 0.89982718404396655 0.87484102056407953 0.89866736023395977 0.90207833648586422 0.87680162407003892 0.87276964448808481 0.85015678551982632 0.87364735692317674 0.87574449075002636 0.88731586926428718 0.87597367960380379 0.90406622643423273 0.90085424951236592 0.90227833239361299 0.87791403882197394 0.89919260030566694 0.93155571240571411 0.90383738398298874 0.90129183073283492 0.92831770797238577 0.9295018665762228 0.88877001172554615 0.90278409160952666 0.92272511431294402 0.93243121649045591 0.92227302632057029 0.90341069541886099 0.95994726271051234 0.9246053283621094 0.92962084065137907 0.97077859929758148 0.95966851295623723 0.93047447202834188 0.97048764033642332 0.93780700617351975 0.96004140716073161 0.99103387377353225 0.98689264250946385 0.96013326972104751 0.93721219282180035 0.92506591046639985 0.90629853339393407 0.92269067551457495 0.93961918639997166 0.98706504457456079 0.9821426987269255 0.96180549697578266 0.92306357728097699 0.95058520156332171 0.96182205148412858 0.95064668829618393 0.922646697428394 0.9504126541584309 0.92281114095237815 0.90620636514730535 0.9042709545739307 0.92475400005456043 0.8858153658313026 0.90587259925231001 0.86499934524615141 0.89207360792026069 0.9402619249801174 0.90337774394933612 0.89441403671801245 0.95248269718743273 0.90374587433899312 0.94041199015650545 0.95235279455099686 0.94054335474527095 0.90778084104460433 0.98231426783673614 0.9766070382912706 0.94008067038697651 0.8907821052852114 0.90779513068792705 0.95045661243800184 0.91000699796262008 0.92226316663144714 0.88686890140533003 0.92463152624117018 0.90771808691267686 0.88703730961679728 0.90740166079994389 0.86877739595035874 0.88891400316140357 0.86644214429928157 0.90975394995905878 0.8884575277620258 0.84894865500833105 0.86682057339395979 0.89044629753436155 0.87851188203393338 0.84688851756583028 0.87828785278812438 0.83441776839810822 0.84690082025491276 0.92951370947357959 0.8806472664257764 0.88810689349557459 0.94231790497719814 0.92990770144375035 0.88817105363025928 0.94224636012286311 0.89221017767438227 0.93003788524466247 0.97676899845697429 0.9703193573416834 0.92951893322901191 0.89219182444049128 0.87823034399884148 0.84793008486691046 0.87629590826424386 0.89423724390653714 0.93160181779124096 0.87586404575704391 0.91905210918362579 0.93153925787624414 0.91917794967840072 0.87841103602742088 0.97046684384827042 0.96332179736112222 0.87786812857602348 0.8299921384001584 0.85786792208489049 0.91822291857672567 0.87624278909102504 0.85925908970279075 0.85910626906321774 0.8101713514510207 0.84811256686704906 0.90693268018698403 0.85706318293485106 0.84988901815766471 0.963458415371374 0.95566449640036488 0.92055295196941123 0.85662427085225445 0.90778212596099006 0.92051890604674758 0.90790106393310577 0.86243312931067551 0.90684607711603626 0.84335767164102493 0.86302370852858556 0.91845019745388001 0.86473014763564215 0.87862293588633789 0.83224842939968846 0.8805364065206901 0.86293828439647668 0.83289157453067764 0.86210650638493591 0.81453751774727279 0.84221079326031612 0.81238363056827734 0.86433950847505892 0.74832353432862531 0.72381976967935435 0.74962854524144185 0.74884015114467051 0.77403030284758179 0.76998371144238953 0.78677159767963967 0.77541595350235004 0.75211056992771219 0.74662456198157467 0.75140216436048402 0.77617090704557667 0.78809410759927878 0.76887874857429617 0.80966426609827313 0.78909533410925947 0.74976952499225613 0.76780162861553325 0.787078912115041 0.81076684211629146 0.83194258582606773 0.85711833286025851 0.8306010009126894 0.81220222020376054 0.78819162465841452 0.81031859402231488 0.77418294296441825 0.78936825970354429 0.82974389497341716 0.80914933953857848 0.84766526733239156 0.82861403111525633 0.81055421424941732 0.83004243640742481 0.79476809185163477 0.80911845793527359 0.84990987311743493 0.80837951512557027 0.83065590605853024 0.84838837385680788 0.83211315346769121 0.87566001988879738 0.85015770179226846 0.89190936241700269 0.86492745143265071 0.8484377640472508 0.86669522794372666 0.82805832842363591 0.8280330753776699 0.81770428276282014 0.79694410488173761 0.7951384311076608 0.79613961953850665 0.81834381051588256 0.79577655904704137 0.77652216480459557 0.80805613125307507 0.79672915376825826 0.76855979230286209 0.77544401243264216 0.79663156573338723 0.77086223186453851 0.79460790117097191 0.80292673152341487 0.79702617809507936 0.82613748204768589 0.82694171776220282 0.79697498645587561 0.81700019786523892 0.83039379769787025 0.82576340871426668 0.85130757551543323 0.82759821992398785 0.85269774747888394 0.85022140377646116 0.82567104963920201 0.84766110528473426 0.85392514745387094 0.84999137265060432 0.87705192200288573 0.85215261738051873 0.82878256912079606 0.85074859662032409 0.81719034077482489 0.82463212274578679 0.81875374965238745 0.84863553011769333 0.84834631986270947 0.86501970007670959 0.88796134393310688 0.83028765911524083 0.86429052697394526 0.84897522968191141 0.903889111654814 0.88611816326666371 0.867064608869485 0.85092799381031015 0.88557926570938061 0.87607536864896995 0.87244435730142789 0.87610298837702583 0.89964541696848244 0.90578004388626754 0.89836322764560284 0.87737503682781404 0.90633973396873813 0.88806191475199947 0.92250477037892753 0.90792157609679036 0.87529774389214787 0.88647136202369903 0.90817492075710904 0.93765904137625067 0.92305764348084651 0.90628203686701658 0.92496065852198495 0.89800664255255569 0.87435042227279647 0.89778017617555061 0.8961990229208785 0.87338523260849155 0.89707232379725377 0.87566917314292858 0.87327295393564996 0.85383305800619058 0.87526280483241614 0.8739830072683521 0.84961971107411971 0.85311669596139317 0.87225119415832508 0.8767514593344321 0.8513933196728124 0.88681014793952206 0.86043483119386355 0.87541030820172305 0.86016634241959933 0.833126832654567 0.84889861582829007 0.85836634483145058 0.8506616416943874 0.87731476705264144 0.83262811294133499 0.80579028714148937 0.82341636552360176 0.80556101716684003 0.77934621396054427 0.79447283868498608 0.77911663117595997 0.75355729663234139 0.76797121735607321 0.77667012834348925 0.77035026033524656 0.79680894230760946 0.75059300611858393 0.74766268475265041 0.77070207653921396 0.72572471331628863 0.72369836376111141 0.74783836051515895 0.75327183633723782 0.72892206034021922 0.74478557665973955 0.98137969301793782 0.96976359306619686 0.97895997345282348 0.98205948686760436 0.97206496855400659 0.96906281390838922 0.96506234467601004 0.96905220934753389 0.95374702766333652 0.95807817792394201 0.95302355661121951 0.96983927451386387 0.95890045198560503 0.96890052988992792 0.97225226456889313 0.95614553731448226 0.95804664203399204 0.97307345467714446 0.98115902483861472 0.98920692247060793 0.97309273637254678 0.98192495286347392 0.99229139375115594 0.98834326431035424 1.0008656523576209 0.98948363117635496 0.99131516347127258 1.0001865007828528 0.99013062225282455 1.0005723985996315 1.0006210199557113 0.99970997377533155 0.99258131926051696 1.0013252832948532 0.99254298745284286 0.99388517241218466 0.98722796447372541 0.9952135685285074 0.99102056556038265 1.0006781603711161 0.99994565174457861 0.99356042483069262 0.98663560160400643 0.97821943489113128 0.98640193729984627 0.98753355395839504 0.97884999865603861 0.97728378052226006 0.98143758769606859 0.97911429324750021 0.99310952579192302 0.9863844580568305 0.99186762240643267 0.9800781103649393 0.96636361384811809 0.97717901074118729 0.97895807165643323 0.96534809505405894 0.97999296863154783 0.96877829611847677 0.97723846473235765 0.97725709038034125 0.9661674947678468 0.96512646522453271 0.96498110301696882 0.97838425580784028 0.97737173587768778 0.98754380261126729 0.97720525303980399 0.95829697367551037 0.9733180818547873 0.96454961055936428 0.95688199764206772 0.96600743186985105 0.94796884612339705 0.95756522362254592 0.94089805803453941 0.96451057202224832 0.95811949591552359 0.94656889550977474 0.94011567596716827 0.96633892726058257 0.95248284960449481 0.94787803722932196 0.96516085477743863 0.94914523336094847 0.96500529235290922 0.91637516530747454 0.92312730873642102 0.94068479591793808 0.94920912935419954 0.93837191172768075 0.92517590039265674 0.91712129927649666 0.93959458825060427 0.92047408331874292 0.94879243334230423 0.92234259391767193 0.93775179057233415 0.89841756592950706 0.91729748374232911 0.89564561220870076 0.89975203637814805 0.92322533535566365 0.916085269888813 0.90155171326145012 0.89650184324701954 0.92283154110656196 0.91577233527868607 0.92198804170040238 0.89735932061214363 0.90335911894516463 0.92096224637958379 0.92434297619698969 0.88520022913295038 0.87709370170256651 0.90290129937887642 0.90263110746762809 0.87753449676119233 0.89531333388648049 0.93737944639695459 0.92376737462095249 0.92156030633873676 0.93717730768547591 0.94709106256777442 0.95307648378524956 0.93621800227974006 0.92315496057196056 0.94836965157504149 0.93627957946647744 0.94360337416057638 0.92519288479401174 0.95855756356312027 0.94369561405958546 0.95242048503847698 0.93704168615162509 0.95331223540969967 0.94276301154814623 0.95579882202981448 0.94387065402451231 0.95828312871539301 0.95710107745435424 0.93600124785896832 0.94271023436807866 0.93490992215165603 0.92502307398094585 0.94365703723335492 0.9360090436570413 0.91258895492701375 0.92395900099545869 0.91235648610123066 0.88709036531956786 0.90105409277362314 0.91111728070788245 0.9024512817919389 0.92531489804692557 0.97436894221315662 0.97239420176434332 0.98988549579097196 0.97474437461140961 0.95744161742747202 0.97191087594318193 1.0012884081623084 0.98923198150024905 0.98875187978441825 0.98930439093169875 0.97552100434005007 0.98871989272843042 0.5319267901860748 0.51883628993857533 0.53216346065109521 0.56033899027713319 0.54592104506586314 0.55873183290754358 0.54186887745911594 0.54816078267809232 0.56283943997836661 0.54554734746162648 0.53219434233756913 0.54425113329809061 0.52896079423954256 0.53499490472396882 0.54765549429499982 0.59125887383660214 0.57568229029943596 0.5884007237477028 0.60779591467320782 0.59164515373570359 0.60395866626009975 0.58768706282195315 0.59216234641722298 0.60740986414683207 0.57561742130387206 0.56070194524570471 0.57172920531049798 0.57178566927172381 0.57534883938465042 0.59210210207683933 0.55664051678852178 0.56278408731623053 0.57544749058492628 0.56382567820817231 0.58903674012471541 0.5746010319951762 0.59951081674414619 0.57214932174825361 0.59182451857122831 0.59714847672202631 0.59303166563187526 0.57497132184623945 0.59718630911054882 0.63708238558465335 0.62726194163320237 0.59831311760955708 0.59267373165968429 0.63544971919668536 0.62148006971611869 0.63901899635282466 0.60424299823613692 0.59338587871800541 0.6192051318300219 0.60666594486933667 0.58952602845235558 0.6240629343194114 0.62210670671809232 0.60009826952502054 0.6242292753015265 0.58919491461386342 0.6637100598497071 0.63967263135731056 0.62052797008152993 0.66527960235624151 0.61913497962071806 0.62736981426963701 0.6662012001325136 0.66843663742372994 0.62456440652392808 0.6664180544507049 0.62413743833443758 0.64051514194967651 0.66606206084419806 0.69983520690029732 0.71279687393738156 0.66414034189748372 0.71251863380362501 0.72901411360444601 0.66800917000436177 0.71048757885779357 0.66643428150844708 0.63883510843938074 0.58970531714796659 0.61526244118744666 0.64023426632983205 0.61416517908794788 0.65844987569075764 0.6363571910397402 0.69494794895063983 0.69999276312397907 0.66780394918263397 0.63917370422960573 0.69763905706576779 0.63724681238860392 0.66121540889628805 0.69417739954028779 0.69612198438238015 0.65936371084222634 0.72866704040957619 0.68849999878618573 0.72