<?xml version="1.0"?>
<VTKFile type="UnstructuredGrid" version="0.1" byte_order="LittleEndian">
<UnstructuredGrid>
<Piece NumberOfPoints="441" NumberOfCells="800">
<Points>
<DataArray type="Float64" NumberOfComponents="3" format="ascii">
0 0 0 0.050000000000000037 0 0 0.050000000000000037 0.049999999999899652 0 0 0.049999999999899652 0 0 0.099999999999814668 0 0.050000000000000037 0.099999999999814668 0 0.099999999999999978 0.099999999999814668 0 0.099999999999999978 0.049999999999899652 0 0.099999999999999978 0 0 0.050000000000000037 0.24999999999941211 0 0 0.24999999999941211 0 0 0.19999999999955789 0 0.050000000000000037 0.19999999999955789 0 0 0.14999999999970359 0 0.050000000000000037 0.14999999999970359 0 0.099999999999999978 0.14999999999970359 0 0.099999999999999978 0.19999999999955789 0 0.099999999999999978 0.24999999999941211 0 0.14999999999999999 0.24999999999941211 0 0.14999999999999999 0.19999999999955789 0 0.14999999999999999 0.14999999999970359 0 0.20000000000000001 0.14999999999970359 0 0.20000000000000001 0.19999999999955789 0 0.20000000000000001 0.24999999999941211 0 0.14999999999999999 0 0 0.14999999999999999 0.049999999999899652 0 0.14999999999999999 0.099999999999814668 0 0.20000000000000001 0.099999999999814668 0 0.20000000000000001 0.049999999999899652 0 0.20000000000000001 0 0 0.25 0 0 0.25 0.049999999999899652 0 0.29999999999999999 0.049999999999899652 0 0.29999999999999999 0 0 0.34999999999999998 0.049999999999899652 0 0.34999999999999998 0 0 0.34999999999999998 0.099999999999814668 0 0.29999999999999999 0.099999999999814668 0 0.25 0.099999999999814668 0 0.25 0.14999999999970359 0 0.29999999999999999 0.14999999999970359 0 0.25 0.24999999999941211 0 0.25 0.19999999999955789 0 0.29999999999999999 0.19999999999955789 0 0.29999999999999999 0.24999999999941211 0 0.34999999999999998 0.19999999999955789 0 0.34999999999999998 0.24999999999941211 0 0.34999999999999998 0.14999999999970359 0 0.40000000000000002 0.14999999999970359 0 0.40000000000000002 0.24999999999941211 0 0.40000000000000002 0.19999999999955789 0 0.45000000000000001 0.24999999999941211 0 0.45000000000000001 0.19999999999955789 0 0.45000000000000001 0.14999999999970359 0 0.45000000000000001 0.099999999999814668 0 0.45000000000000001 0 0 0.45000000000000001 0.049999999999899652 0 0.40000000000000002 0 0 0.40000000000000002 0.049999999999899652 0 0.40000000000000002 0.099999999999814668 0 0.40000000000000002 0.3999999999989749 0 0.40000000000000002 0.44999999999882923 0 0.40000000000000002 0.49999999999869432 0 0.45000000000000001 0.44999999999882923 0 0.45000000000000001 0.49999999999869432 0 0.45000000000000001 0.3999999999989749 0 0.45000000000000001 0.34999999999912063 0 0.45000000000000001 0.29999999999926641 0 0.40000000000000002 0.29999999999926641 0 0.40000000000000002 0.34999999999912063 0 0.34999999999999998 0.34999999999912063 0 0.34999999999999998 0.29999999999926641 0 0.29999999999999999 0.29999999999926641 0 0.25 0.29999999999926641 0 0.29999999999999999 0.34999999999912063 0 0.25 0.34999999999912063 0 0.25 0.3999999999989749 0 0.29999999999999999 0.3999999999989749 0 0.34999999999999998 0.3999999999989749 0 0.34999999999999998 0.49999999999869432 0 0.34999999999999998 0.44999999999882923 0 0.29999999999999999 0.49999999999869432 0 0.29999999999999999 0.44999999999882923 0 0.25 0.44999999999882923 0 0.25 0.49999999999869432 0 0.20000000000000001 0.49999999999869432 0 0.20000000000000001 0.44999999999882923 0 0.20000000000000001 0.3999999999989749 0 0.14999999999999999 0.3999999999989749 0 0.14999999999999999 0.44999999999882923 0 0.14999999999999999 0.49999999999869432 0 0.20000000000000001 0.29999999999926641 0 0.20000000000000001 0.34999999999912063 0 0.14999999999999999 0.34999999999912063 0 0.14999999999999999 0.29999999999926641 0 0.099999999999999978 0.29999999999926641 0 0.099999999999999978 0.34999999999912063 0 0.050000000000000037 0.34999999999912063 0 0 0.34999999999912063 0 0.050000000000000037 0.29999999999926641 0 0 0.29999999999926641 0 0.099999999999999978 0.49999999999869432 0 0.099999999999999978 0.44999999999882923 0 0.099999999999999978 0.3999999999989749 0 0.050000000000000037 0.3999999999989749 0 0 0.3999999999989749 0 0 0.44999999999882923 0 0.050000000000000037 0.44999999999882923 0 0.050000000000000037 0.49999999999869432 0 0 0.49999999999869432 0 0 0.5499999999988151 0 0.050000000000000037 0.5499999999988151 0 0.099999999999999978 0.5499999999988151 0 0.099999999999999978 0.59999999999894682 0 0.050000000000000037 0.59999999999894682 0 0 0.59999999999894682 0 0 0.64999999999907843 0 0.050000000000000037 0.64999999999907843 0 0 0.74999999999934175 0 0 0.69999999999921003 0 0.050000000000000037 0.69999999999921003 0 0.050000000000000037 0.74999999999934175 0 0.099999999999999978 0.69999999999921003 0 0.099999999999999978 0.74999999999934175 0 0.099999999999999978 0.64999999999907843 0 0.14999999999999999 0.64999999999907843 0 0.14999999999999999 0.74999999999934175 0 0.14999999999999999 0.69999999999921003 0 0.20000000000000001 0.74999999999934175 0 0.20000000000000001 0.69999999999921003 0 0.20000000000000001 0.64999999999907843 0 0.20000000000000001 0.59999999999894682 0 0.20000000000000001 0.5499999999988151 0 0.14999999999999999 0.5499999999988151 0 0.14999999999999999 0.59999999999894682 0 0.099999999999999978 1 0 0.099999999999999978 0.94999999999986839 0 0.050000000000000037 1 0 0 1 0 0 0.94999999999986839 0 0.050000000000000037 0.94999999999986839 0 0 0.89999999999973679 0 0.050000000000000037 0.89999999999973679 0 0.099999999999999978 0.89999999999973679 0 0.099999999999999978 0.84999999999960507 0 0.050000000000000037 0.84999999999960507 0 0 0.84999999999960507 0 0.050000000000000037 0.79999999999947335 0 0 0.79999999999947335 0 0.099999999999999978 0.79999999999947335 0 0.14999999999999999 0.79999999999947335 0 0.20000000000000001 0.79999999999947335 0 0.20000000000000001 0.84999999999960507 0 0.14999999999999999 0.84999999999960507 0 0.14999999999999999 0.89999999999973679 0 0.20000000000000001 0.89999999999973679 0 0.20000000000000001 0.94999999999986839 0 0.20000000000000001 1 0 0.14999999999999999 0.94999999999986839 0 0.14999999999999999 1 0 0.34999999999999998 1 0 0.34999999999999998 0.94999999999986839 0 0.29999999999999999 1 0 0.25 1 0 0.25 0.94999999999986839 0 0.29999999999999999 0.94999999999986839 0 0.25 0.89999999999973679 0 0.29999999999999999 0.89999999999973679 0 0.34999999999999998 0.89999999999973679 0 0.34999999999999998 0.84999999999960507 0 0.29999999999999999 0.84999999999960507 0 0.25 0.84999999999960507 0 0.29999999999999999 0.79999999999947335 0 0.25 0.79999999999947335 0 0.34999999999999998 0.79999999999947335 0 0.40000000000000002 0.79999999999947335 0 0.45000000000000001 0.79999999999947335 0 0.45000000000000001 0.84999999999960507 0 0.40000000000000002 0.84999999999960507 0 0.40000000000000002 0.89999999999973679 0 0.45000000000000001 0.89999999999973679 0 0.45000000000000001 0.94999999999986839 0 0.45000000000000001 1 0 0.40000000000000002 0.94999999999986839 0 0.40000000000000002 1 0 0.34999999999999998 0.59999999999894682 0 0.34999999999999998 0.5499999999988151 0 0.29999999999999999 0.5499999999988151 0 0.25 0.5499999999988151 0 0.29999999999999999 0.59999999999894682 0 0.25 0.59999999999894682 0 0.25 0.64999999999907843 0 0.29999999999999999 0.64999999999907843 0 0.25 0.74999999999934175 0 0.25 0.69999999999921003 0 0.29999999999999999 0.69999999999921003 0 0.29999999999999999 0.74999999999934175 0 0.34999999999999998 0.69999999999921003 0 0.34999999999999998 0.74999999999934175 0 0.34999999999999998 0.64999999999907843 0 0.40000000000000002 0.64999999999907843 0 0.40000000000000002 0.74999999999934175 0 0.40000000000000002 0.69999999999921003 0 0.45000000000000001 0.74999999999934175 0 0.45000000000000001 0.69999999999921003 0 0.45000000000000001 0.64999999999907843 0 0.45000000000000001 0.59999999999894682 0 0.40000000000000002 0.59999999999894682 0 0.40000000000000002 0.5499999999988151 0 0.45000000000000001 0.5499999999988151 0 0.5 0.5499999999988151 0 0.55000000000000004 0.5499999999988151 0 0.59999999999999998 0.5499999999988151 0 0.59999999999999998 0.59999999999894682 0 0.55000000000000004 0.59999999999894682 0 0.5 0.59999999999894682 0 0.5 0.64999999999907843 0 0.55000000000000004 0.64999999999907843 0 0.5 0.74999999999934175 0 0.5 0.69999999999921003 0 0.55000000000000004 0.69999999999921003 0 0.55000000000000004 0.74999999999934175 0 0.59999999999999998 0.69999999999921003 0 0.59999999999999998 0.74999999999934175 0 0.59999999999999998 0.64999999999907843 0 0.65000000000000002 0.64999999999907843 0 0.65000000000000002 0.74999999999934175 0 0.65000000000000002 0.69999999999921003 0 0.69999999999999996 0.74999999999934175 0 0.69999999999999996 0.69999999999921003 0 0.69999999999999996 0.64999999999907843 0 0.69999999999999996 0.59999999999894682 0 0.69999999999999996 0.5499999999988151 0 0.65000000000000002 0.5499999999988151 0 0.65000000000000002 0.59999999999894682 0 0.59999999999999998 1 0 0.59999999999999998 0.94999999999986839 0 0.55000000000000004 1 0 0.5 1 0 0.5 0.94999999999986839 0 0.55000000000000004 0.94999999999986839 0 0.5 0.89999999999973679 0 0.55000000000000004 0.89999999999973679 0 0.59999999999999998 0.89999999999973679 0 0.59999999999999998 0.84999999999960507 0 0.55000000000000004 0.84999999999960507 0 0.5 0.84999999999960507 0 0.55000000000000004 0.79999999999947335 0 0.5 0.79999999999947335 0 0.59999999999999998 0.79999999999947335 0 0.65000000000000002 0.79999999999947335 0 0.69999999999999996 0.79999999999947335 0 0.69999999999999996 0.84999999999960507 0 0.65000000000000002 0.84999999999960507 0 0.65000000000000002 0.89999999999973679 0 0.69999999999999996 0.89999999999973679 0 0.69999999999999996 0.94999999999986839 0 0.69999999999999996 1 0 0.65000000000000002 0.94999999999986839 0 0.65000000000000002 1 0 0.84999999999999998 1 0 0.84999999999999998 0.94999999999986839 0 0.80000000000000004 1 0 0.75 1 0 0.75 0.94
[...]
<CellData Scalars="pressure_p0," Vectors="velocity_p0," Tensors="">
<DataArray type="Float64" Name="pressure_p0" format="ascii">
-0.0081249999999836904 -0.015624999999968631 -0.032291666666604366 -0.05645833333322571 -0.038958333333259959 -0.028958333333277422 -0.034791666666601079 -0.050624999999903469 -0.044791666666581242 -0.025624999999950521 -0.0064583333333203602 -0.0072916666666520231 -0.013958333333305296 -0.10895833333308148 -0.10479166666642931 -0.085624999999816168 -0.080624999999833066 -0.062291666666545481 -0.05562499999989174 -0.063958333333200917 -0.076458333333169218 -0.072291666666516999 -0.093958333333120619 -0.083124999999811794 -0.097291666666441956 -0.073958333333162291 -0.085624999999802123 -0.072291666666502885 -0.058124999999875152 -0.055624999999884794 -0.067291666666522199 -0.048958333333238048 -0.042291666666584307 -0.03562499999993058 -0.048958333333228049 -0.047291666666568644 -0.061458333333193962 -0.062291666666522527 -0.010624999999978641 -0.0056249999999886929 -0.012291666666641974 -0.030624999999942271 -0.038958333333259001 -0.022291666666623612 -0.026458333333283436 -0.01895833333329669 -0.033124999999936754 -0.022291666666624591 -0.0089583333333153031 -0.004791666666657023 -0.0039583333333253583 -0.0072916666666519702 -0.0031249999999936962 -0.0056249999999886521 -0.0022916666666620376 -0.015624999999970053 -0.008958333333315957 -0.012291666666642848 -0.013958333333306924 -0.021458333333292268 -0.018124999999965745 -0.015624999999969757 -0.027291666666614506 -0.038958333333252465 -0.039791666666580981 -0.028958333333276833 -0.050624999999885095 -0.050624999999882778 -0.03895833333324307 -0.039791666666576297 -0.028958333333267534 -0.022291666666623116 -0.030624999999933997 -0.030624999999936349 -0.022291666666620281 -0.015624999999969419 -0.02145833333328704 -0.01229166666664005 -0.013958333333304219 -0.0089583333333157471 -0.027291666666603362 -0.018124999999958709 -0.015624999999963658 -0.0072916666666499284 -0.0039583333333239662 -0.0056249999999881516 -0.0031249999999930834 -0.0022916666666620783 -0.0039583333333256653 -0.0022916666666622041 -0.0014583333333305377 -0.00062499999999872228 -0.00062499999999873041 -0.0022916666666620267 -0.0014583333333303805 -0.003958333333325334 -0.0097916666666481127 -0.0097916666666478438 -0.0056249999999893243 -0.005624999999989071 -0.034791666666576897 -0.028958333333258177 -0.025624999999934592 -0.044791666666552515 -0.050624999999868789 -0.056458333333185784 -0.032291666666582133 -0.0389583333332316 -0.015624999999959012 -0.0081249999999784758 -0.0072916666666475501 -0.013958333333297183 -0.0064583333333166834 -0.0056249999999857733 -0.010624999999973558 -0.012291666666635385 -0.0047916666666548641 -0.0089583333333117382 -0.022291666666613266 -0.018958333333287294 -0.033124999999919753 -0.030624999999922388 -0.026458333333267831 -0.022291666666610959 -0.038958333333236159 -0.048958333333209425 -0.042291666666562144 -0.055624999999861362 -0.058124999999856361 -0.067291666666496469 -0.03562499999991478 -0.047291666666552157 -0.048958333333216308 -0.061458333333184595 -0.062291666666517823 -0.072291666666486537 -0.073958333333150647 -0.085624999999783499 -0.097291666666416338 -0.09395833333309031 -0.083124999999788465 -0.063958333333170497 -0.076458333333136536 -0.07229166666647957 -0.05562499999985665 -0.062291666666504202 -0.085624999999776907 -0.080624999999789559 -0.10479166666639328 -0.10895833333304955 -0.12895833333299697 -0.13229166666632222 -0.11562499999970095 -0.10229166666640643 -0.11812499999969608 -0.13895833333297575 -0.13729166666631162 -0.12145833333302439 -0.14062499999964229 -0.15895833333292214 -0.17729166666620461 -0.15312499999960077 -0.155624999999595 -0.075624999999819476 -0.075624999999817061 -0.089791666666444947 -0.088958333333111775 -0.10395833333307061 -0.12229166666635767 -0.12229166666636221 -0.10562499999973932 -0.105624999999737 -0.089791666666449679 -0.10395833333308224 -0.088958333333121115 -0.11562499999972425 -0.10229166666642275 -0.11812499999971471 -0.13895833333298732 -0.13729166666632781 -0.12145833333303366 -0.14062499999964462 -0.15895833333293133 -0.17729166666621801 -0.15312499999962179 -0.15562499999961216 -0.1322916666663469 -0.1289583333330255 -0.20229166666614024 -0.20145833333280841 -0.1789583333328677 -0.1597916666662553 -0.15979166666625991 -0.18062499999953258 -0.1806249999995348 -0.20229166666614307 -0.17895833333287764 -0.20145833333281429 -0.22562499999941243 -0.22562499999941193 -0.24979166666605551 -0.24895833333276207 -0.22395833333278548 -0.22229166666615646 -0.19812499999951516 -0.23645833333294602 -0.21729166666622918 -0.24312499999954254 -0.24562499999950557 -0.26729166666622872 -0.27229166666615467 -0.27395833333278202 -0.2981249999995122 -0.32229166666624243 -0.31895833333294399 -0.29562499999954928 -0.34645833333297271 -0.34229166666633887 -0.30562499999970683 -0.31062499999967641 -0.27479166666638011 -0.26395833333293062 -0.28895833333295246 -0.28479166666631889 -0.25562499999966304 -0.23229166666631218 -0.25062499999969368 -0.22229166666637346 -0.21645833333306858 -0.2006249999996936 -0.26895833333307517 -0.23895833333308386 -0.23229166666644349 -0.20312499999978784 -0.19562499999981209 -0.1889583333330839 -0.18229166666644359 -0.16895833333307528 -0.17479166666638013 -0.16062499999967628 -0.15562499999970705 -0.14229166666633974 -0.14645833333297475 -0.16895833333294522 -0.17229166666624485 -0.1956249999995508 -0.21395833333293077 -0.20562499999966297 -0.1847916666663188 -0.1889583333329527 -0.37062499999996623 -0.41895833333329485 -0.40979166666664835 -0.45895833333331282 -0.46729166666662425 -0.43562499999991777 -0.44312499999989385 -0.41229166666652306 -0.36812499999987114 -0.38895833333325969 -0.39729166666657079 -0.35145833333324872 -0.33229166666653132 -0.31312499999981425 -0.34729166666648309 -0.35395833333312371 -0.37562499999984722 -0.41895833333316357 -0.39479166666643312 -0.38895833333312818 -0.3656249999997333 -0.37062499999970289 -0.33229166666639964 -0.32645833333309504 -0.29395833333309712 -0.28729166666645678 -0.2481249999998186 -0.25562499999979443 -0.21729166666649186 -0.20895833333318042 -0.23145833333319571 -0.22229166666654901 -0.24562499999989984 -0.28895833333321552 -0.26395833333319363 -0.27229166666650506 -0.30562499999983833 -0.32395833333321999 -0.34229166666660193 -0.29562499999994407 -0.30562499999992626 -0.27979166666656863 -0.23562499999991759 -0.24895833333328621 -0.25979166666660403 -0.27395833333330832 -0.26229166666665504 -0.31145833333331951 -0.32229166666663733 -0.36062499999998393 -0.12895833333332166 -0.17729166666665055 -0.16395833333332616 -0.21312499999999052 -0.22562499999997943 -0.20229166666662843 -0.21395833333328182 -0.19145833333326651 -0.14729166666661522 -0.1681249999999595 -0.15562499999997062 -0.12229166666663724 -0.1156249999999529 -0.10895833333326857 -0.13895833333325988 -0.14979166666657776 -0.1589583333332687 -0.20229166666658432 -0.19062499999988675 -0.1806249999999045 -0.16979166666654238 -0.17895833333318922 -0.14062499999988676 -0.13062499999990443 -0.10229166666658421 -0.091458333333266251 -0.052291666666628073 -0.06395833333328152 -0.025624999999978897 -0.01312499999998987 -0.027291666666650047 -0.013958333333325502 -0.028958333333321214 -0.072291666666637097 -0.055624999999970337 -0.068124999999959329 -0.097291666666615137 -0.1031249999999639 -0.1089583333333127 -0.076458333333314782 -0.062291666666654782 -0.058958333333312532 -0.014791666666661138 -0.01562499999999686 -0.030624999999992401 -0.032291666666663707 -0.01645833333333268 -0.06562499999999713 -0.080624999999992647 -0.11479166666666162 -0.10395833333312382 -0.097291666666483423 -0.1131249999998144 -0.082291666666531593 -0.075624999999847523 -0.068958333333164354 -0.094791666666434488 -0.088958333333128858 -0.1156249999997343 -0.12062499999970461 -0.1322916666664001 -0.12645833333309525 -0.14395833333309729 -0.15562499999979454 -0.14812499999981865 -0.13729166666645695 -0.16729166666649189 -0.15895833333318057 -0.12229166666654903 -0.13145833333319595 -0.095624999999899915 -0.10562499999983851 -0.12229166666650508 -0.11395833333319373 -0.088958333333215692 -0.073958333333220133 -0.079791666666568756 -0.055624999999926233 -0.045624999999943808 -0.042291666666601752 -0.085624999999917489 -0.059791666666603877 -0.048958333333285919 -0.023958333333307845 -0.012291666666654318 -0.022291666666636806 -0.011458333333318808 -0.010624999999983358 -0.0097916666666479756 -0.018958333333294948 -0.020624999999965841 -0.051458333333248694 -0.038958333333259806 -0.047291666666571225 -0.068124999999871622 -0.062291666666523408 -0.035624999999918014 -0.043124999999894283 -0.017291666666624232 -0.0089583333333126177 0.0085416666666458356 0.017708333333292803 0.034374999999915917 0.044374999999898218 0.060208333333185912 0.071874999999883046 0.06604166666653398 0.048541666666575743 0.037708333333257703 0.041041666666600057 0.019374999999963897 0.0093749999999813687 0.010208333333317058 0.011041666666652704 0.022708333333306283 0.021041666666635126 0.011874999999988272 0.024374999999977366 0.061041666666609068 0.047708333333284461 0.083541666666580652 0.052708333333253657 0.044374999999942322 0.05687499999993146 0.077708333333231974 0.084374999999872233 0.091041666666556623 0.11104166666652161 0.12520833333318179 0.11604166666649077 0.097708333333240846 0.11937499999987691 0.13437499999987254 0.15520833333317308 0.17104166666650428 0.14437499999981118 0.15937499999980689 0.14770833333310923 0.13354166666644898 0.12270833333308653 0.13604166666641132 0.12437499999971421 0.11187499999972583 0.097708333333108965 0.086041666666455949 0.071041666666503578 0.077708333333187662 0.10270833333316604 0.10687499999979949 0.094374999999810333 0.11270833333332334 0.06437499999999427 0.081874999999996353 0.03270833333333184 0.016041666666665268 0.031041666666661132 0.015208333333330024 0.02937499999999027 0.073541666666641664 0.061041666666652492 0.077708333333319099 0.10687499999997499 0.10104166666662648 0.095208333333277967 0.054374999999968587 0.069374999999964174 0.057708333333310553 0.014374999999994661 0.013541666666659246 0.027708333333319346 0.026041666666648408 0.012708333333323812 0.051041666666626594 0.065208333333286725 0.089374999999929414 0.10437499999992508 0.14354166666656343 0.1277083333332322 0.16604166666653497 0.18270833333320166 0.17687499999989664 0.19437499999989882 0.1877083333332582 0.14437499999994233 0.13604166666658735 0.1527083333332539 0.11104166666660917 0.11770833333329309 0.12437499999997714 0.15270833333329747 0.17104166666663517 0.16187499999994448 0.20604166666659599 0.21770833333329315 0.19854166666661999 0.20937499999998138 0.22937499999998989 0.18020833333332548 0.1610416666666524 0.13104166666666089 0.35437499999996847 0.30604166666663951 0.32770833333331906 0.27854166666665459 0.25770833333331045 0.26437499999995123 0.24437499999994244 0.25020833333324749 0.29437499999989852 0.31104166666660926 0.2902083333332649 0.33604166666658741 0.31770833333320564 0.29937499999982431 0.27770833333318828 0.25854166666651518 0.2743749999998899 0.23104166666657422 0.21770833333320605 0.23604166666654375 0.22187499999984012 0.20437499999983777 0.24270833333314057 0.26104166666647816 0.28104166666644298 0.30020833333311614 0.33937499999975373 0.31937499999974522 0.35770833333304708 0.378541666666391 0.38104166666644168 0.4027083333331215 0.4043749999998365 0.3610416666665211 0.36104166666647708 0.340208333333133 0.31937499999983288 0.33854166666654989 0.35770833333326707 0.40437499999992466 0.38187499999990943 0.38270833333320087 0.42687499999985168 0.45104166666658202 0.42770833333323133 0.45104166666662593 0.47520833333331203 0.42604166666664789 0.40270833333329731 0.37687499999998347 0.19437499999963487 0.17937499999963913 0.19520833333301477 0.2260416666662976 0.20770833333291527 0.18937499999953591 0.16354166666626596 0.17770833333292507 0.15104166666631963 0.13770833333299581 0.15104166666636287 0.16520833333302315 0.16437499999973193 0.17770833333310077 0.19354166666643202 0.17937499999972772 0.19104166666646935 0.2077083333331361 0.24437499999976753 0.2268749999997654 0.26270833333306121 0.21104166666634616 0.22770833333305707 0.21104166666639029 0.2443749999996796 0.24270833333296438 0.26187499999968172 0.27770833333296879 0.29604166666630644 0.27437499999958248 0.28104166666639885 0.29854166666635679 0.31770833333302984 0.33437499999965226 0.35437499999966082 0.31104166666625765 0.33020833333293054 0.3060416666662002 0.28187499999946974 0.26437499999946745 0.28770833333286266 0.2568749999995803 0.23604166666619147 0.25270833333285825 0.22354166666624664 0.20437499999953027 0.23104166666613568 0.21520833333280592 0.24104166666607585 0.2577083333327409 0.23354166666605738 0.2177083333327659 0.18520833333286152 0.20937499999945769 0.19437499999949895 0.16604166666624365 0.17354166666621929 0.18770833333284695 0.16604166666623649 0.14687499999962586 0.20937499999945361 0.19437499999949337 0.18520833333285008 0.16104166666624647 0.14770833333294847 0.17104166666622081 0.15270833333293965 0.12770833333300813 0.14437499999962594 0.13187499999966013 0.12270833333301553 0.10854166666639037 0.11104166666638063 0.12437499999967594 0.136874999999643 0.080208333333139856 0.071041666666497555 0.084374999999791991 0.097708333333086372 0.094374999999765147 0.10020833333308615 0.1110416666663902 0.11604166666637322 0.13437499999966004 0.11604166666638036 0.094374999999772224 0.084374999999799055 0.097708333333100486 0.10854166666640459 0.12270833333303691 0.11104166666640197 0.12770833333301529 0.14437499999964032 0.1318749999996745 0.15270833333294692 0.17104166666623383 0.14770833333296868 0.16104166666626538 0.12437499999970331 0.13687499999966918 0.11270833333307295 0.10104166666643799 0.088541666666476684 0.06437499999987481 0.077708333333172647 0.069374999999856649 0.079374999999829846 0.057708333333221153 0.051041666666567523 0.070208333333182923 0.089374999999793731 0.10104166666643341 0.09020833333312929 0.0077083333333178537 0.016041666666634459 0.031041666666606696 0.040208333333257552 0.054374999999896395 0.04854166666657421 0.031874999999939958 0.036041666666598707 0.027708333333279819 0.014374999999971131 0.012708333333307818 0.006874999999986189 0.0052083333333228831 0.0060416666666545356 0.011041666666644507 0.027708333333281134 0.021041666666626067 0.024374999999952934 0.042708333333252052 0.036874999999929839 0.031041666666607681 0.017708333333299194 0.023541666666622385 0.0093749999999812039 0.0043749999999912297 0.068541666666511791 0.077708333333154106 0.079374999999820575 0.061041666666540616 0.044374999999913838 0.061041666666535974 0.052708333333224562 0.051874999999889017 0.037708333333260187 0.044374999999908502 0.057708333333203035 0.066041666666514426 0.054374999999874718 0.046874999999894224 0.042708333333242018 0.031041666666606488 0.036041666666592399 0.033541666666594992 0.027708333333276297 0.024374999999952785 0.017708333333299069 0.024374999999947973 0.031041666666595219 0.042708333333234996 0.03604166666658537 0.003541666666659571 0.0077083333333178867 0.014374999999972295 0.019374999999963581 0.025208333333285468 0.019374999999963241 0.011041666666645937 0.011041666666645399 0.015208333333304746 0.0060416666666545686 0.0043749999999912453 0.0027083333333279107 0.0010416666666645852 0.0018749999999962477 0.0027083333333279194 0.0043749999999915835 0.0068749999999870946 0.0077083333333184921 0.013541666666641012 0.0077083333333187627 0.0018749999999965359 0.0010416666666646771 0.0027083333333282702 0.0010416666666645917 0.00020833333333292317 0.014374999999967693 0.01937499999995549 0.025208333333276531 0.019374999999960167 0.011041666666645333 0.01104166666664403 0.015208333333300938 0.0060416666666539007 0.0043749999999916148 0.0027083333333279198 0.0035416666666588585 0.0077083333333157469 0.0043749999999897881 0.0093749999999775853 0.017708333333291339 0.02354166666661003 0.031041666666592881 0.042708333333225545 0.036874999999909244 0.021041666666614979 0.027708333333264574 0.024374999999938616 0.011041666666639419 0.0052083333333207121 0.0060416666666516378 0.0068749999999825496 0.01437499999996307 0.012708333333301248 0.0077083333333135655 0.016041666666625185 0.040208333333228777 0.031041666666586112 0.054374999999858606 0.0318749999999191 0.036041666666573602 0.027708333333262218 0.048541666666541847 0.05104166666653695 0.057708333333184147 0.069374999999821441 0.079374999999794582 0.070208333333154779 0.064374999999832372 0.077708333333131069 0.08854166666643587 0.10104166666640346 0.11270833333303937 0.090208333333101007 0.1010416666664051 0.089374999999772581 0.079374999999799453 0.068541666666497816 0.077708333333140062 0.066041666666507459 0.057708333333196013 0.051874999999874959 0.044374999999894471 0.037708333333242514 0.044374999999889739 0.061041666666512534 0.061041666666514907 0.052708333333203516 
</DataArray>
<DataArray type="Float64" Name="velocity_p0" NumberOfComponents="3" format="ascii">