<?xml version="1.0"?>
<VTKFile type="UnstructuredGrid" version="0.1" byte_order="LittleEndian">
<UnstructuredGrid>
<Piece NumberOfPoints="28566" NumberOfCells="7204">
<Points>
<DataArray type="Float64" NumberOfComponents="3" format="ascii">
0 0.16117713264797839 0.17753274418983939 0.23792456603906109 0.23792456603906109 0.21623589512422439 0.10865999053633831 0.10865999053633831 0.32358003890491438 0 0.37720163774080312 0.25422043336465477 0 0 0 0.1025501277357185 0.1025501277357185 0.1575259589564332 0.16666666666630359 0.16666666666630359 0 0 0.25000000000104078 0 0 0 0 0.1025501277357185 0.1025501277357185 0.1575259589564332 0.16666666666630359 0.16666666666630359 0 0 0 0 0.1025501277357185 0.1025501277357185 0.1575259589564332 0 0.16117713264797839 0.17753274418983939 0 0.25000000000104078 0 0 0 0 0.1025501277357185 0.1025501277357185 0.1575259589564332 0.17168462543555879 0 0.16615070464674431 0.25000000000104078 0 0 0 0 0 0.1025501277357185 0.1025501277357185 0.1575259589564332 0.16666666666630359 0.16666666666630359 0 0.25000000000104078 0 0 0 0 0 0 0 0.2499999999993999 0.1025501277357185 0.1025501277357185 0.1575259589564332 0.17168462543555879 0 0.16615070464674431 0 0 0.2499999999993999 0.1025501277357185 0.1025501277357185 0.1575259589564332 0 0.16117713264797839 0.17753274418983939 0.10865999053633831 0.10865999053633831 0.32358003890491438 0 0 0.2499999999993999 0.1025501277357185 0.1025501277357185 0.1575259589564332 0.10865999053633831 0.10865999053633831 0.32358003890491438 0 0 0.2499999999993999 0.1025501277357185 0.1025501277357185 0.1575259589564332 0.17168462543555879 0 0.16615070464674431 0.10865999053633831 0.10865999053633831 0.32358003890491438 0 0 0 0 0 0.2499999999993999 0.1025501277357185 0.1025501277357185 0.1575259589564332 0 0.16117713264797839 0.17753274418983939 0 0 0 0 0 0.2499999999993999 0.1025501277357185 0.1025501277357185 0.1575259589564332 0.1025501277357185 0.1025501277357185 0.1575259589564332 0 0.16117713264797839 0.17753274418983939 0.23792456603906109 0.23792456603906109 0.21623589512422439 0.10865999053633831 0.10865999053633831 0.32358003890491438 0.1025501277357185 0.1025501277357185 0.1575259589564332 0 0.16117713264797839 0.17753274418983939 0.23792456603906109 0.23792456603906109 0.21623589512422439 0.1489715852349735 0.34998856881609408 0 0.1025501277357185 0.1025501277357185 0.1575259589564332 0 0.16117713264797839 0.17753274418983939 0.16666666666630359 0.16666666666630359 0 0.1489715852349735 0.34998856881609408 0 0 0.16117713264797839 0.17753274418983939 0.16666666666630359 0.16666666666630359 0 0.1489715852349735 0.34998856881609408 0 0 0.25000000000104078 0 0.1025501277357185 0.1025501277357185 0.1575259589564332 0 0.16117713264797839 0.17753274418983939 0.16666666666630359 0.16666666666630359 0 0 0.25000000000104078 0 0.1025501277357185 0.1025501277357185 0.1575259589564332 0.16666666666630359 0.16666666666630359 0 0.23792456603906109 0.23792456603906109 0.21623589512422439 0.1489715852349735 0.34998856881609408 0 0.16666666666630359 0.16666666666630359 0 0.23792456603906109 0.23792456603906109 0.21623589512422439 0.17168462543555879 0 0.16615070464674431 0.34998235745634898 0.14889171802055001 0 0.1025501277357185 0.1025501277357185 0.1575259589564332 0.16666666666630359 0.16666666666630359 0 0.23792456603906109 0.23792456603906109 0.21623589512422439 0.16666666666630359 0.16666666666630359 0 0.23792456603906109 0.23792456603906109 0.21623589512422439 0.3333333333329494 0.3333333333329494 0 0.1025501277357185 0.1025501277357185 0.1575259589564332 0.23792456603906109 0.23792456603906109 0.21623589512422439 0.10865999053633831 0.10865999053633831 0.32358003890491438 0.1025501277357185 0.1025501277357185 0.1575259589564332 0.16666666666630359 0.16666666666630359 0 0.23792456603906109 0.23792456603906109 0.21623589512422439 0.17168462543555879 0 0.16615070464674431 0.1025501277357185 0.1025501277357185 0.1575259589564332 0.23792456603906109 0.23792456603906109 0.21623589512422439 0.17168462543555879 0 0.16615070464674431 0.10865999053633831 0.10865999053633831 0.32358003890491438 0.1025501277357185 0.1025501277357185 0.1575259589564332 0.16666666666630359 0.16666666666630359 0 0.17168462543555879 0 0.16615070464674431 0.25000000000104078 0 0 0.16666666666630359 0.16666666666630359 0 0.17168462543555879 0 0.16615070464674431 0.25000000000104078 0 0 0.34998235745634898 0.14889171802055001 0 0.25000000000104078 0 0 0.34998235745634898 0.14889171802055001 0 0.37729325866038171 0 0.19117845012663931 0.50000000000138778 0 0 0.49998234673398478 0.24420594492696129 0 0.37729325866038171 0 0.19117845012663931 0.38724035665579781 0.38724035665579781 0.16804493435552431 0.61783302218606417 0 0.1922186014161669 0.23792456603906109 0.23792456603906109 0.21623589512422439 0.34998235745634898 0.14889171802055001 0 0.49998234673398478 0.24420594492696129 0 0.37729325866038171 0 0.19117845012663931 0.23792456603906109 0.23792456603906109 0.21623589512422439 0.49998234673398478 0.24420594492696129 0 0.37729325866038171 0 0.19117845012663931 0.38724035665579781 0.38724035665579781 0.16804493435552431 0.37729325866038171 0 0.19117845012663931 0.48977135788173931 0 0.38770592272319038 0.38724035665579781 0.38724035665579781 0.16804493435552431 0.61783302218606417 0 0.1922186014161669 0.17168462543555879 0 0.16615070464674431 0.25000000000104078 0 0 0.34998235745634898 0.14889171802055001 0 0.37729325866038171 0 0.19117845012663931 0.23792456603906109 0.23792456603906109 0.21623589512422439 0.37729325866038171 0 0.19117845012663931 0.36539539881857508 0.36539539881857508 0.37498061819009071 0.38724035665579781 0.38724035665579781 0.16804493435552431 0.16666666666630359 0.16666666666630359 0 0.23792456603906109 0.23792456603906109 0.21623589512422439 0.34998235745634898 0.14889171802055001 0 0.3333333333329494 0.3333333333329494 0 0.49998234673398478 0.24420594492696129 0 0.37729325866038171 0 0.19117845012663931 0.50000000000138778 0 0 0.61783302218606417 0 0.1922186014161669 0.34998235745634898 0.14889171802055001 0 0.49998234673398478 0.24420594492696129 0 0.37729325866038171 0 0.19117845012663931 0.50000000000138778 0 0 0.23792456603906109 0.23792456603906109 0.21623589512422439 0.17168462543555879 0 0.16615070464674431 0.37729325866038171 0 0.19117845012663931 0.23008567404400659 0 0.38606276816302848 0.23792456603906109 0.23792456603906109 0.21623589512422439 0.17168462543555879 0 0.16615070464674431 0.34998235745634898 0.14889171802055001 0 0.37729325866038171 0 0.19117845012663931 0.48977135788173931 0 0.38770592272319038 0.42758337835015719 0.18269769940928754 0.38134327045664052 0.3638479619604002 0.11896228301953055 0.30197090892370737 0.49924504345045218 0.085409373044967651 0.44554361730832676 0.42758337835015719 0.18269769940928754 0.38134327045664052 0.36539539881857508 0.36539539881857508 0.37498061819009071 0.30165998242881809 0.30165998242881809 0.29560825665715756 0.43705706391887006 0.26810707245425519 0.43918096504177695 0.3638479619604002 0.11896228301953055 0.30197090892370737 0.30165998242881809 0.30165998242881809 0.29560825665715756 0.23792456603906109 0.23792456603906109 0.21623589512422439 0.37332164752911307 0.2043716560644982 0.35980860350884375 0.49924504345045218 0.085409373044967651 0.44554361730832676 0.43705706391887006 0.26810707245425519 0.43918096504177695 0.37332164752911307 0.2043716560644982 0.35980860350884375 0.50871872901916504 0.1708187460899353 0.50338131189346313 0.37332164752911307 0.2043716560644982 0.35980860350884375 0.49924504345045218 0.085409373044967651 0.44554361730832676 0.42758337835015719 0.18269769940928754 0.38134327045664052 0.43705706391887006 0.26810707245425519 0.43918096504177695 0.49924504345045218 0.085409373044967651 0.44554361730832676 0.37332164752911307 0.2043716560644982 0.35980860350884375 0.42758337835015719 0.18269769940928754 0.38134327045664052 0.3638479619604002 0.11896228301953055 0.30197090892370737 0.37332164752911307 0.2043716560644982 0.35980860350884375 0.30165998242881809 0.30165998242881809 0.29560825665715756 0.42758337835015719 0.18269769940928754 0.38134327045664052 0.3638479619604002 0.11896228301953055 0.30197090892370737 0.30165998242881809 0.30165998242881809 0.29560825665715756 0.37332164752911307 0.2043716560644982 0.35980860350884375 0.42758337835015719 0.18269769940928754 0.38134327045664052 0.43705706391887006 0.26810707245425519 0.43918096504177695 0.48977135788173931 0 0.38770592272319038 0.23008567404400659 0 0.38606276816302848 0.50871872901916504 0.1708187460899353 0.50338131189346313 0.37508549455735979 0 0.55718040386560697 0.23792456603906109 0.23792456603906109 0.21623589512422439 0.23008567404400659 0 0.38606276816302848 0.36539539881857508 0.36539539881857508 0.37498061819009071 0.50871872901916504 0.1708187460899353 0.50338131189346313 0.48977135788173931 0 0.38770592272319038 0.35992851596287295 0 0.38688434544310946 0.3638479619604002 0.11896228301953055 0.30197090892370737 0.49924504345045218 0.085409373044967651 0.44554361730832676 0.35992851596287295 0 0.38688434544310946 0.23008567404400659 0 0.38606276816302848 0.23400512004153384 0.11896228301953055 0.30114933164362645 0.36940220153158582 0.085409373044967651 0.44472204002824578 0.3638479619604002 0.11896228301953055 0.30197090892370737 0.23400512004153384 0.11896228301953055 0.30114933164362645 0.23792456603906109 0.23792456603906109 0.21623589512422439 0.37332164752911307 0.2043716560644982 0.35980860350884375 0.49924504345045218 0.085409373044967651 0.44554361730832676 0.36940220153158582 0.085409373044967651 0.44472204002824578 0.37332164752911307 0.2043716560644982 0.35980860350884375 0.50871872901916504 0.1708187460899353 0.50338131189346313 0.35992851596287295 0 0.38688434544310946 0.3638479619604002 0.11896228301953055 0.30197090892370737 0.49924504345045218 0.085409373044967651 0.44554361730832676 0.36940220153158582 0.085409373044967651 0.44472204002824578 0.35992851596287295 0 0.38688434544310946 0.
[...]
<CellData Scalars="pressure_p0,water_source_density," Vectors="velocity_p0," Tensors="">
<DataArray type="Float64" Name="pressure_p0" format="ascii">
-0.011951761183200411 -0.0026922461110282076 -0.0066024223614360401 -0.0024111371150414567 -0.0023365021466575917 -0.0026482751075707373 -0.0018585928106219607 -0.0049941932191833053 -0.014810315179068275 -0.0047416793301395853 -0.0019245568156691316 -0.0052420853211312332 -0.012209450849268172 -0.012751520690220289 -0.0084169336497678226 -0.0032121576200996359 -0.0063423707567858865 -0.012345791059499824 -0.011046961827874725 -0.021830703382608691 -0.018850159347827546 -0.027209935295334321 -0.011942500065327464 -0.012258850735977092 -0.005992599709251493 -0.0033292565716869929 -0.0028120786569230827 -0.019427693631722746 -0.015742241197774138 -0.023439004067767673 -0.015769710783394879 -0.0037084843122552175 -0.032590957234304767 -0.010542227039978603 -0.0063566422450106776 -0.0058503121446573788 -0.0089360679334981579 -0.012171381817178289 -0.030085219527853941 -0.030085219527853941 -0.030085219527853941 -0.030085219527853941 -0.030085219527853941 -0.030085219527853941 -0.030085219527853941 -0.030085219527853941 -0.0073855119035649659 -0.028490503685682383 -0.016957859707202549 -0.016957859707202549 -0.016957859707202549 -0.016957859707202549 -0.016957859707202549 -0.016957859707202549 -0.016957859707202549 -0.016957859707202549 -0.023541185082281441 -0.023541185082281441 -0.023541185082281441 -0.023541185082281441 -0.023541185082281441 -0.023541185082281441 -0.023541185082281441 -0.023541185082281441 -0.034565241777912641 -0.026974464682582147 -0.010164884504107338 -0.013629434127922427 -0.013629434127922427 -0.013629434127922427 -0.013629434127922427 -0.013629434127922427 -0.013629434127922427 -0.013629434127922427 -0.013629434127922427 -0.029115676193310677 -0.026088598156123056 -0.012629255659567833 -0.01619691125265571 -0.0044461136205367537 -0.036232177297691341 -0.018102447498088248 -0.016776488526368795 -0.009165168927628406 -0.021157889915026679 -0.0085409726342820132 -0.0080727513547007284 -0.0025536709356504808 -0.0032447148066329918 -0.00248431927943481 -0.01160536203645642 -0.0033517768034545636 -0.005319952843272093 -0.028941153106976647 -0.028941153106976647 -0.028941153106976647 -0.028941153106976647 -0.028941153106976647 -0.028941153106976647 -0.028941153106976647 -0.028941153106976647 -0.034141379484128195 -0.021308404331443875 -0.025179601347872168 -0.02917763454070927 -0.02837586736489368 -0.015293652712488004 -0.0080340641950047368 -0.04042550435672871 -0.04990811144826407 -0.04793407637575272 -0.037030431365515745 -0.054296082902043907 -0.072094755801095242 -0.041005210570621703 -0.041005210570621703 -0.041005210570621703 -0.041005210570621703 -0.041005210570621703 -0.041005210570621703 -0.041005210570621703 -0.041005210570621703 -0.034432910414268651 -0.051958707770998147 -0.062631850778075954 -0.065857803456389793 -0.055406204023499425 -0.026281287127044355 -0.026281287127044355 -0.026281287127044355 -0.026281287127044355 -0.026281287127044355 -0.026281287127044355 -0.026281287127044355 -0.026281287127044355 -0.026281287127044355 -0.026281287127044355 -0.026281287127044355 -0.026281287127044355 -0.026281287127044355 -0.026281287127044355 -0.026281287127044355 -0.026281287127044355 -0.026281287127044355 -0.026281287127044355 -0.026281287127044355 -0.026281287127044355 -0.026281287127044355 -0.026281287127044355 -0.041808490837787676 -0.041808490837787676 -0.041808490837787676 -0.041808490837787676 -0.041808490837787676 -0.041808490837787676 -0.041808490837787676 -0.041808490837787676 -0.041808490837787676 -0.041808490837787676 -0.041808490837787676 -0.041808490837787676 -0.041808490837787676 -0.041808490837787676 -0.041808490837787676 -0.041971923382356391 -0.041971923382356391 -0.041971923382356391 -0.041971923382356391 -0.041971923382356391 -0.041971923382356391 -0.041971923382356391 -0.041971923382356391 -0.041971923382356391 -0.041971923382356391 -0.041971923382356391 -0.041971923382356391 -0.041971923382356391 -0.041971923382356391 -0.041971923382356391 -0.019871455421072378 -0.019871455421072378 -0.019871455421072378 -0.019871455421072378 -0.019871455421072378 -0.019871455421072378 -0.019871455421072378 -0.019871455421072378 -0.026424560250550292 -0.026424560250550292 -0.026424560250550292 -0.026424560250550292 -0.026424560250550292 -0.026424560250550292 -0.026424560250550292 -0.026424560250550292 -0.026424560250550292 -0.026424560250550292 -0.026424560250550292 -0.026424560250550292 -0.026424560250550292 -0.026424560250550292 -0.026424560250550292 -0.026424560250550292 -0.026424560250550292 -0.026424560250550292 -0.026424560250550292 -0.026424560250550292 -0.026424560250550292 -0.026424560250550292 -0.029344528783546875 -0.014589650397491469 -0.014589650397491469 -0.014589650397491469 -0.014589650397491469 -0.014589650397491469 -0.014589650397491469 -0.014589650397491469 -0.014589650397491469 -0.014589650397491469 -0.014589650397491469 -0.014589650397491469 -0.014589650397491469 -0.014589650397491469 -0.014589650397491469 -0.014589650397491469 -0.039469220557789481 -0.014747226371482996 -0.014747226371482996 -0.014747226371482996 -0.014747226371482996 -0.014747226371482996 -0.014747226371482996 -0.014747226371482996 -0.014747226371482996 -0.014747226371482996 -0.014747226371482996 -0.014747226371482996 -0.014747226371482996 -0.014747226371482996 -0.014747226371482996 -0.014747226371482996 -0.050529206450359909 -0.050529206450359909 -0.050529206450359909 -0.050529206450359909 -0.050529206450359909 -0.050529206450359909 -0.050529206450359909 -0.020631195258918773 -0.020631195258918773 -0.020631195258918773 -0.020631195258918773 -0.020631195258918773 -0.020631195258918773 -0.020631195258918773 -0.020631195258918773 -0.037488827565381348 -0.050628657455826183 -0.050367544141213423 -0.024141336183560524 -0.024141336183560524 -0.024141336183560524 -0.024141336183560524 -0.024141336183560524 -0.024141336183560524 -0.024141336183560524 -0.011383616169279059 -0.011383616169279059 -0.011383616169279059 -0.011383616169279059 -0.011383616169279059 -0.011383616169279059 -0.011383616169279059 -0.011383616169279059 -0.022215348612065668 -0.021505867504032088 -0.011671617135794765 -0.011671617135794765 -0.011671617135794765 -0.011671617135794765 -0.011671617135794765 -0.011671617135794765 -0.011671617135794765 -0.011671617135794765 -0.0070549008368446953 -0.0032920105374180009 -0.017406861439880874 -0.0041114240237244302 -0.025953144144647323 -0.013297081774940269 -0.010786885652299148 -0.0072328706808422721 -0.033521686169592724 -0.020889642475745061 -0.024404715335956374 -0.016461538869736198 -0.0063451761535089938 -0.0030207937264170909 -0.0038736144614079709 -0.010702099654654707 -0.012598025151222556 -0.02776133628300494 -0.023561823783030105 -0.029751159481463788 -0.015896090643078609 -0.015896090643078609 -0.015896090643078609 -0.015896090643078609 -0.015896090643078609 -0.015896090643078609 -0.015896090643078609 -0.015896090643078609 -0.028967069343745051 -0.017489627227725402 -0.008177635665537121 -0.008177635665537121 -0.008177635665537121 -0.008177635665537121 -0.008177635665537121 -0.008177635665537121 -0.008177635665537121 -0.008177635665537121 -0.0068947938966174701 -0.0059199753857486978 -0.012688502846257671 -0.017634829454744583 -0.017024219104713287 -0.0044841165653699442 -0.016209804496141348 -0.036236951159742306 -0.0053951414300032726 -0.0086262708644293928 -0.021154238795630689 -0.0088117521000774281 -0.011429966377214378 -0.0025384194132201041 -0.0025771852873161553 -0.0033674515348666601 -0.0033235480324850806 -0.0080711801241199563 -0.0049168514787447451 -0.011613869646211038 -0.0018682317567131294 -0.0048100240442968288 -0.0018979295382570516 -0.014806988955395454 -0.005244393897215008 -0.0066101032272147791 -0.0060737157299581637 -0.0023704623286389327 -0.0027011780126963243 -0.003371058741926503 -0.01232145348233047 -0.012115847492711161 -0.011906190024709048 -0.027221067171703146 -0.021866968021600267 -0.011252404493552496 -0.01889727082673372 -0.011019034342576301 -0.002345030389381008 -0.0059727871121470809 -0.0032629305596182045 -0.0026873648231870301 -0.0088753752870583003 -0.012234740891203216 -0.019689034230854642 -0.012204622289257559 -0.023666894271888648 -0.01587703054331676 -0.032697720066294449 -0.0036830649988216415 -0.0028245302960820621 -0.010627325081302682 -0.0058777149410508284 -0.021731203460087702 -0.017192332424249689 -0.017192332424249689 -0.017192332424249689 -0.017192332424249689 -0.017192332424249689 -0.017192332424249689 -0.017192332424249689 -0.017192332424249689 -0.02238442502985382 -0.0075567672305136427 -0.0075567672305136427 -0.0075567672305136427 -0.0075567672305136427 -0.0075567672305136427 -0.0075567672305136427 -0.0075567672305136427 -0.0075567672305136427 -0.034565899533915853 -0.014911100640314598 -0.014911100640314598 -0.014911100640314598 -0.014911100640314598 -0.014911100640314598 -0.014911100640314598 -0.014911100640314598 -0.014911100640314598 -0.010244139976684125 -0.017936619244593548 -0.017936619244593548 -0.017936619244593548 -0.017936619244593548 -0.017936619244593548 -0.017936619244593548 -0.017936619244593548 -0.017936619244593548 -0.033146244267790427 -0.029132881867015258 -0.029132881867015258 -0.029132881867015258 -0.029132881867015258 -0.029132881867015258 -0.029132881867015258 -0.029132881867015258 -0.029132881867015258 -0.034530443875839714 -0.052523687160912283 -0.052548240835096155 -0.04525703487714438 -0.072108337730979244 -0.049931195839265197 -0.055464869419149472 -0.051953919524151647 -0.062628024260963852 -0.065887939710815344 -0.014654050873447773 -0.014654050873447773 -0.014654050873447773 -0.014654050873447773 -0.014654050873447773 -0.014654050873447773 -0.014654050873447773 -0.014654050873447773 -0.014654050873447773 -0.014654050873447773 -0.014654050873447773 -0.014654050873447773 -0.014654050873447773 -0.014654050873447773 -0.014654050873447773 -0.020204247217205908 -0.020204247217205908 -0.020204247217205908 -0.020204247217205908 -0.020204247217205908 -0.020204247217205908 -0.020204247217205908 -0.020204247217205908 -0.05055810688213612 -0.05055810688213612 -0.05055810688213612 -0.05055810688213612 -0.05055810688213612 -0.05055810688213612 -0.05055810688213612 -0.020054984547816745 -0.020054984547816745 -0.020054984547816745 -0.020054984547816745 -0.020054984547816745 -0.020054984547816745 -0.020054984547816745 -0.020054984547816745 -0.014700364031463353 -0.014700364031463353 -0.014700364031463353 -0.014700364031463353 -0.014700364031463353 -0.014700364031463353 -0.014700364031463353 -0.014700364031463353 -0.014700364031463353 -0.014700364031463353 -0.014700364031463353 -0.014700364031463353 -0.014700364031463353 -0.014700364031463353 -0.014700364031463353 -0.03755932446907264 -0.011521062784866391 -0.011521062784866391 -0.011521062784866391 -0.011521062784866391 -0.011521062784866391 -0.011521062784866391 -0.011521062784866391 -0.011521062784866391 -0.021822553809005593 -0.021677821913486457 -0.011460955657201474 -0.011460955657201474 -0.011460955657201474 -0.011460955657201474 -0.011460955657201474 -0.011460955657201474 -0.011460955657201474 -0.011460955657201474 -0.024180727952004072 -0.024180727952004072 -0.024180727952004072 -0.024180727952004072 -0.024180727952004072 -0.024180727952004072 -0.024180727952004072 -0.014774586910470892 -0.014774586910470892 -0.014774586910470892 -0.014774586910470892 -0.014774586910470892 -0.014774586910470892 -0.014774586910470892 -0.014774586910470892 -0.014774586910470892 -0.014774586910470892 -0.014774586910470892 -0.014774586910470892 -0.014774586910470892 -0.014774586910470892 -0.014774586910470892 -0.026345054134373592 -0.026345054134373592 -0.026345054134373592 -0.026345054134373592 -0.026345054134373592 -0.026345054134373592 -0.026345054134373592 -0.026345054134373592 -0.026345054134373592 -0.026345054134373592 -0.026345054134373592 -0.026345054134373592 -0.026345054134373592 -0.026345054134373592 -0.026345054134373592 -0.026345054134373592 -0.026345054134373592 -0.026345054134373592 -0.026345054134373592 -0.026345054134373592 -0.026345054134373592 -0.026345054134373592 -0.041919472849553184 -0.041919472849553184 -0.041919472849553184 -0.041919472849553184 -0.041919472849553184 -0.041919472849553184 -0.041919472849553184 -0.041919472849553184 -0.041919472849553184 -0.041919472849553184 -0.041919472849553184 -0.041919472849553184 -0.041919472849553184 -0.041919472849553184 -0.041919472849553184 -0.028222328988443873 -0.027895100626311481 -0.024148011176077233 -0.024148011176077233 -0.024148011176077233 -0.024148011176077233 -0.024148011176077233 -0.024148011176077233 -0.024148011176077233 -0.038615282897862147 -0.042054050361040311 -0.042054050361040311 -0.042054050361040311 -0.042054050361040311 -0.042054050361040311 -0.042054050361040311 -0.042054050361040311 -0.042054050361040311 -0.042054050361040311 -0.042054050361040311 -0.042054050361040311 -0.042054050361040311 -0.042054050361040311 -0.042054050361040311 -0.042054050361040311 -0.026495890654016127 -0.026495890654016127 -0.026495890654016127 -0.026495890654016127 -0.026495890654016127 -0.026495890654016127 -0.026495890654016127 -0.026495890654016127 -0.026495890654016127 -0.026495890654016127 -0.026495890654016127 -0.026495890654016127 -0.026495890654016127 -0.026495890654016127 -0.026495890654016127 -0.026495890654016127 -0.026495890654016127 -0.026495890654016127 -0.026495890654016127 -0.026495890654016127 -0.026495890654016127 -0.026495890654016127 -0.020670186308425997 -0.020670186308425997 -0.020670186308425997 -0.020670186308425997 -0.020670186308425997 -0.020670186308425997 -0.020670186308425997 -0.020670186308425997 -0.055091656942472769 -0.055091656942472769 -0.055091656942472769 -0.055091656942472769 -0.020503865244800485 -0.020503865244800485 -0.020503865244800485 -0.020503865244800485 -0.020503865244800485 -0.020503865244800485 -0.020503865244800485 -0.020503865244800485 -0.050538791058941768 -0.050538791058941768 -0.050538791058941768 -0.050538791058941768 -0.050538791058941768 -0.050538791058941768 -0.050538791058941768 -0.014704644823821807 -0.014704644823821807 -0.014704644823821807 -0.014704644823821807 -0.014704644823821807 -0.014704644823821807 -0.014704644823821807 -0.014704644823821807 -0.014704644823821807 -0.014704644823821807 -0.014704644823821807 -0.014704644823821807 -0.014704644823821807 -0.014704644823821807 -0.014704644823821807 -0.011620596538845127 -0.011620596538845127 -0.011620596538845127 -0.011620596538845127 -0.011620596538845127 -0.011620596538845127 -0.011620596538845127 -0.011620596538845127 -0.022081121409031887 -0.022231865822680046 -0.011691868520691347 -0.011691868520691347 -0.011691868520691347 -0.011691868520691347 -0.011691868520691347 -0.011691868520691347 -0.011691868520691347 -0.011691868520691347 -0.037513869784980079 -0.050578786078512454 -0.050747923555403723 -0.034404832190483237 -0.072108568305956799 -0.049856570974390009 -0.045801066448191395 -0.093134288393933035 -0.093134288393933035 -0.054532029868651556 -0.045227353633278428 -0.037642848461394617 -0.037642848461394617 -0.037642848461394617 -0.037642848461394617 -0.037642848461394617 -0.037642848461394617 -0.037642848461394617 -0.037642848461394617 -0.054397308022527596 -0.040680989592367683 -0.040680989592367683 -0.040680989592367683 -0.040680989592367683 -0.040680989592367683 -0.040680989592367683 -0.040680989592367683 -0.040680989592367683 -0.065861577147616771 -0.04798373073053918 -0.062617713127252825 -0.051888942025837992 -0.05541005127608116 -0.0069997430300036316 -0.012444436406378264 -0.0085136276191513753 -0.0085136276191513753 -0.0085136276191513753 -0.0085136276191513753 -0.0085136276191513753 -0.0085136276191513753 -0.0085136276191513753 -0.0085136276191513753 -0.034380805283049445 -0.016488018816247275 -0.016488018816247275 -0.016488018816247275 -0.016488018816247275 -0.016488018816247275 -0.016488018816247275 -0.016488018816247275 -0.016488018816247275 -0.033974003703532457 -0.02166492173035877 -0.0081219674049668161 -0.0081219674049668161 -0.0081219674049668161 -0.0081219674049668161 -0.0081219674049668161 -0.0081219674049668161 -0.0081219674049668161 -0.0081219674049668161 -0.032987788759705768 -0.028962772737534639 -0.028962772737534639 -0.028962772737534639 -0.028962772737534639 -0.028962772737534639 -0.028962772737534639 -0.028962772737534639 -0.028962772737534639 -0.0028507589418114041 -0.032565727416209833 -0.024297201721099566 -0.016214167783748699 -0.0063504939015503843 -0.0059457257801504241 -0.01077458952199524 -0.0037257937974200833 -0.012385094865288776 -0.0088883326149277915 -0.0023587536752023843 -0.002701242602267096 -0.0027074960438684121 -0.0023658186920618969 -0.0018749244825736499 -0.005246543250800503 -0.012266047934993128 -0.0018807301581593549 -0.0032883690736466749 -0.0060159877661823203 -0.011186887281000913 -0.011131784013341282 -0.018867217303056065 -0.021844239558823492 -0.027216848395193519 -0.012043789529635453 -0.011985591325073593 -0.012348661101713012 -0.003297738519076829 -0.0060392908438275323 -0.0066082184885849216 -0.0048223103410631385 -0.004842411271233334 -0.01481034673890709 -0.0033689910965439629 -0.0080665525011046069 -0.005836534685970592 -0.01760399225371111 -0.017953923526619557 -0.002574422430413963 -0.0025971968234429657 -0.0059085389682726874 -0.036177104763978236 -0.0033966941884444601 -0.011440013854753885 -0.0087605474838312949 -0.021090825899422846 -0.0088938281384911555 -0.011563621753697712 -0.026724526459815143 -0.0075331634626417468 -0.0075331634626417468 -0.0075331634626417468 -0.0075331634626417468 -0.0075331634626417468 -0.0075331634626417468 -0.0075331634626417468 -0.0075331634626417468 -0.023076116621489024 -0.021184888513134808 -0.010226740117440673 -0.023862981601044501 -0.023862981601044501 -0.023862981601044501 -0.023862981601044501 -0.023862981601044501 -0.023862981601044501 -0.023862981601044501 -0.023862981601044501 -0.030798946696975818 -0.030798946696975818 -0.030798946696975818 -0.030798946696975818 -0.030798946696975818 -0.030798946696975818 -0.030798946696975818 -0.030798946696975818 -0.029522326241044412 -0.029522326241044412 -0.029522326241044412 -0.029522326241044412 -0.029522326241044412 -0.029522326241044412 -0.029522326241044412 -0.029522326241044412 -0.0028674482135243973 -0.03290330078594287 -0.016344736984368821 -0.024542223082640535 -0.012467166408558463 -0.0089327720678773707 -0.010834627258993691 -0.0037451712039944587 -0.0059895282921708986 -0.028452466846804445 -0.028452466846804445 -0.028452466846804445 -0.028452466846804445 -0.028452466846804445 -0.028452466846804445 -0.028452466846804445 -0.028452466846804445 -0.016013521141563201 -0.023919561124467269 -0.0064145747263535105 -0.0059304229285478908 -0.019891994209338466 -0.033139215600713971 -0.012274813584990052 -0.01068861525465448 -0.0028429059007559002 -0.0037001627686457468 -0.0059955554399537389 -0.0032736845961739347 -0.0026947941965100278 -0.0023524663619071988 -0.008879940372362595 -0.012287942284100113 -0.0018734162237802588 -0.0048210125860545395 -0.0046990227978050232 -0.014793145673981403 -0.0018536501284050694 -0.0052436004622837037 -0.0066122260484394301 -0.0060073212941602495 -0.0023361908581770396 -0.0026365207890068176 -0.0033382884175792915 -0.012265731679168916 -0.027211834447652353 -0.012002902804545036 -0.011957140412079037 -0.018901734617731612 -0.011094873628152842 -0.011072484588369435 -0.021870665810203371 -0.017277073977655422 -0.022432081721271081 -0.033261460080000686 -0.010399580143122072 -0.027849855475146509 -0.009061997522729669 -0.012321251182405514 -0.0028593550402091768 -0.0037526103058433498 -0.0060530567353794008 -0.0271035686798148 -0.014724879508730892 -0.014724879508730892 -0.014724879508730892 -0.014724879508730892 -0.014724879508730892 -0.014724879508730892 -0.014724879508730892 -0.014724879508730892 -0.014724879508730892 -0.014724879508730892 -0.01472