<?xml version="1.0"?>
<VTKFile type="UnstructuredGrid" version="0.1" byte_order="LittleEndian">
<UnstructuredGrid>
<Piece NumberOfPoints="12288" NumberOfCells="4096">
<Points>
<DataArray type="Float64" NumberOfComponents="3" format="ascii">
0.0000000000 0.0000000000 0.0000000000 0.1562500000 0.0000000000 0.0000000000 0.0000000000 0.1562500000 0.0000000000 0.1562500000 0.0000000000 0.0000000000 0.3125000000 0.0000000000 0.0000000000 0.1562500000 0.1562500000 0.0000000000 0.0000000000 0.1562500000 0.0000000000 0.1562500000 0.1562500000 0.0000000000 0.0000000000 0.3125000000 0.0000000000 0.1562500000 0.0000000000 0.0000000000 0.1562500000 0.1562500000 0.0000000000 0.0000000000 0.1562500000 0.0000000000 0.3125000000 0.0000000000 0.0000000000 0.4687500000 0.0000000000 0.0000000000 0.3125000000 0.1562500000 0.0000000000 0.4687500000 0.0000000000 0.0000000000 0.6250000000 0.0000000000 0.0000000000 0.4687500000 0.1562500000 0.0000000000 0.3125000000 0.1562500000 0.0000000000 0.4687500000 0.1562500000 0.0000000000 0.3125000000 0.3125000000 0.0000000000 0.4687500000 0.0000000000 0.0000000000 0.4687500000 0.1562500000 0.0000000000 0.3125000000 0.1562500000 0.0000000000 0.0000000000 0.3125000000 0.0000000000 0.1562500000 0.3125000000 0.0000000000 0.0000000000 0.4687500000 0.0000000000 0.1562500000 0.3125000000 0.0000000000 0.3125000000 0.3125000000 0.0000000000 0.1562500000 0.4687500000 0.0000000000 0.0000000000 0.4687500000 0.0000000000 0.1562500000 0.4687500000 0.0000000000 0.0000000000 0.6250000000 0.0000000000 0.1562500000 0.3125000000 0.0000000000 0.1562500000 0.4687500000 0.0000000000 0.0000000000 0.4687500000 0.0000000000 0.3125000000 0.0000000000 0.0000000000 0.3125000000 0.1562500000 0.0000000000 0.1562500000 0.1562500000 0.0000000000 0.3125000000 0.1562500000 0.0000000000 0.3125000000 0.3125000000 0.0000000000 0.1562500000 0.3125000000 0.0000000000 0.1562500000 0.1562500000 0.0000000000 0.1562500000 0.3125000000 0.0000000000 0.0000000000 0.3125000000 0.0000000000 0.3125000000 0.1562500000 0.0000000000 0.1562500000 0.3125000000 0.0000000000 0.1562500000 0.1562500000 0.0000000000 0.6250000000 0.0000000000 0.0000000000 0.7812500000 0.0000000000 0.0000000000 0.6250000000 0.1562500000 0.0000000000 0.7812500000 0.0000000000 0.0000000000 0.9375000000 0.0000000000 0.0000000000 0.7812500000 0.1562500000 0.0000000000 0.6250000000 0.1562500000 0.0000000000 0.7812500000 0.1562500000 0.0000000000 0.6250000000 0.3125000000 0.0000000000 0.7812500000 0.0000000000 0.0000000000 0.7812500000 0.1562500000 0.0000000000 0.6250000000 0.1562500000 0.0000000000 0.9375000000 0.0000000000 0.0000000000 1.0937500000 0.0000000000 0.0000000000 0.9375000000 0.1562500000 0.0000000000 1.0937500000 0.0000000000 0.0000000000 1.2500000000 0.0000000000 0.0000000000 1.0937500000 0.1562500000 0.0000000000 0.9375000000 0.1562500000 0.0000000000 1.0937500000 0.1562500000 0.0000000000 0.9375000000 0.3125000000 0.0000000000 1.0937500000 0.0000000000 0.0000000000 1.0937500000 0.1562500000 0.0000000000 0.9375000000 0.1562500000 0.0000000000 0.6250000000 0.3125000000 0.0000000000 0.7812500000 0.3125000000 0.0000000000 0.6250000000 0.4687500000 0.0000000000 0.7812500000 0.3125000000 0.0000000000 0.9375000000 0.3125000000 0.0000000000 0.7812500000 0.4687500000 0.0000000000 0.6250000000 0.4687500000 0.0000000000 0.7812500000 0.4687500000 0.0000000000 0.6250000000 0.6250000000 0.0000000000 0.7812500000 0.3125000000 0.0000000000 0.7812500000 0.4687500000 0.0000000000 0.6250000000 0.4687500000 0.0000000000 0.9375000000 0.0000000000 0.0000000000 0.9375000000 0.1562500000 0.0000000000 0.7812500000 0.1562500000 0.0000000000 0.9375000000 0.1562500000 0.0000000000 0.9375000000 0.3125000000 0.0000000000 0.7812500000 0.3125000000 0.0000000000 0.7812500000 0.1562500000 0.0000000000 0.7812500000 0.3125000000 0.0000000000 0.6250000000 0.3125000000 0.0000000000 0.9375000000 0.1562500000 0.0000000000 0.7812500000 0.3125000000 0.0000000000 0.7812500000 0.1562500000 0.0000000000 0.0000000000 0.6250000000 0.0000000000 0.1562500000 0.6250000000 0.0000000000 0.0000000000 0.7812500000 0.0000000000 0.1562500000 0.6250000000 0.0000000000 0.3125000000 0.6250000000 0.0000000000 0.1562500000 0.7812500000 0.0000000000 0.0000000000 0.7812500000 0.0000000000 0.1562500000 0.7812500000 0.0000000000 0.0000000000 0.9375000000 0.0000000000 0.1562500000 0.6250000000 0.0000000000 0.1562500000 0.7812500000 0.0000000000 0.0000000000 0.7812500000 0.0000000000 0.3125000000 0.6250000000 0.0000000000 0.4687500000 0.6250000000 0.0000000000 0.3125000000 0.7812500000 0.0000000000 0.4687500000 0.6250000000 0.0000000000 0.6250000000 0.6250000000 0.0000000000 0.4687500000 0.7812500000 0.0000000000 0.3125000000 0.7812500000 0.0000000000 0.4687500000 0.7812500000 0.0000000000 0.3125000000 0.9375000000 0.0000000000 0.4687500000 0.6250000000 0.0000000000 0.4687500000 0.7812500000 0.0000000000 0.3125000000 0.7812500000 0.0000000000 0.0000000000 0.9375000000 0.0000000000 0.1562500000 0.9375000000 0.0000000000 0.0000000000 1.0937500000 0.0000000000 0.1562500000 0.9375000000 0.0000000000 0.3125000000 0.9375000000 0.0000000000 0.1562500000 1.0937500000 0.0000000000 0.0000000000 1.0937500000 0.0000000000 0.1562500000 1.0937500000 0.0000000000 0.0000000000 1.2500000000 0.0000000000 0.1562500000 0.9375000000 0.0000000000 0.1562500000 1.0937500000 0.0000000000 0.0000000000 1.0937500000 0.0000000000 0.3125000000 0.6250000000 0.0000000000 0.3125000000 0.7812500000 0.0000000000 0.1562500000 0.7812500000 0.0000000000 0.3125000000 0.7812500000 0.0000000000 0.3125000000 0.9375000000 0.0000000000 0.1562500000 0.9375000000 0.0000000000 0.1562500000 0.7812500000 0.0000000000 0.1562500000 0.9375000000 0.0000000000 0.0000000000 0.9375000000 0.0000000000 0.3125000000 0.7812500000 0.0000000000 0.1562500000 0.9375000000 0.0000000000 0.1562500000 0.7812500000 0.0000000000 0.6250000000 0.0000000000 0.0000000000 0.6250000000 0.1562500000 0.0000000000 0.4687500000 0.1562500000 0.0000000000 0.6250000000 0.1562500000 0.0000000000 0.6250000000 0.3125000000 0.0000000000 0.4687500000 0.3125000000 0.0000000000 0.4687500000 0.1562500000 0.0000000000 0.4687500000 0.3125000000 0.0000000000 0.3125000000 0.3125000000 0.0000000000 0.6250000000 0.1562500000 0.0000000000 0.4687500000 0.3125000000 0.0000000000 0.4687500000 0.1562500000 0.0000000000 0.6250000000 0.3125000000 0.0000000000 0.6250000000 0.4687500000 0.0000000000 0.4687500000 0.4687500000 0.0000000000 0.6250000000 0.4687500000 0.0000000000 0.6250000000 0.6250000000 0.0000000000 0.4687500000 0.6250000000 0.0000000000 0.4687500000 0.4687500000 0.0000000000 0.4687500000 0.6250000000 0.0000000000 0.3125000000 0.6250000000 0.0000000000 0.6250000000 0.4687500000 0.0000000000 0.4687500000 0.6250000000 0.0000000000 0.4687500000 0.4687500000 0.0000000000 0.3125000000 0.3125000000 0.0000000000 0.3125000000 0.4687500000 0.0000000000 0.1562500000 0.4687500000 0.0000000000 0.3125000000 0.4687500000 0.0000000000 0.3125000000 0.6250000000 0.0000000000 0.1562500000 0.6250000000 0.0000000000 0.1562500000 0.4687500000 0.0000000000 0.1562500000 0.6250000000 0.0000000000 0.0000000000 0.6250000000 0.0000000000 0.3125000000 0.4687500000 0.0000000000 0.1562500000 0.6250000000 0.0000000000 0.1562500000 0.4687500000 0.0000000000 0.6250000000 0.3125000000 0.0000000000 0.4687500000 0.4687500000 0.0000000000 0.4687500000 0.3125000000 0.0000000000 0.4687500000 0.4687500000 0.0000000000 0.3125000000 0.6250000000 0.0000000000 0.3125000000 0.4687500000 0.0000000000 0.4687500000 0.3125000000 0.0000000000 0.3125000000 0.4687500000 0.0000000000 0.3125000000 0.3125000000 0.0000000000 0.4687500000 0.4687500000 0.0000000000 0.3125000000 0.4687500000 0.0000000000 0.4687500000 0.3125000000 0.0000000000 1.2500000000 0.0000000000 0.0000000000 1.2500000000 0.1562500000 0.0000000000 1.0937500000 0.1562500000 0.0000000000 1.2500000000 0.1562500000 0.0000000000 1.2500000000 0.3125000000 0.0000000000 1.0937500000 0.3125000000 0.0000000000 1.0937500000 0.1562500000 0.0000000000 1.0937500000 0.3125000000 0.0000000000 0.9375000000 0.3125000000 0.0000000000 1.2500000000 0.1562500000 0.0000000000 1.0937500000 0.3125000000 0.0000000000 1.0937500000 0.1562500000 0.0000000000 1.2500000000 0.3125000000 0.0000000000 1.2500000000 0.4687500000 0.0000000000 1.0937500000 0.4687500000 0.0000000000 1.2500000000 0.4687500000 0.0000000000 1.2500000000 0.6250000000 0.0000000000 1.0937500000 0.6250000000 0.0000000000 1.0937500000 0.4687500000 0.0000000000 1.0937500000 0.6250000000 0.0000000000 0.9375000000 0.6250000000 0.0000000000 1.2500000000 0.4687500000 0.0000000000 1.0937500000 0.6250000000 0.0000000000 1.0937500000 0.4687500000 0.0000000000 0.9375000000 0.3125000000 0.0000000000 0.9375000000 0.4687500000 0.0000000000 0.7812500000 0.4687500000 0.0000000000 0.9375000000 0.4687500000 0.0000000000 0.9375000000 0.6250000000 0.0000000000 0.7812500000 0.6250000000 0.0000000000 0.7812500000 0.4687500000 0.0000000000 0.7812500000 0.6250000000 0.0000000000 0.6250000000 0.6250000000 0.0000000000 0.9375000000 0.4687500000 0.0000000000 0.7812500000 0.6250000000 0.0000000000 0.7812500000 0.4687500000 0.0000000000 1.2500000000 0.3125000000 0.0000000000 1.0937500000 0.4687500000 0.0000000000 1.0937500000 0.3125000000 0.0000000000 1.0937500000 0.4687500000 0.0000000000 0.9375000000 0.6250000000 0.0000000000 0.9375000000 0.4687500000 0.0000000000 1.0937500000 0.3125000000 0.0000000000 0.9375000000 0.4687500000 0.0000000000 0.9375000000 0.3125000000 0.0000000000 1.0937500000 0.4687500000 0.0000000000 0.9375000000 0.4687500000 0.0000000000 1.0937500000 0.3125000000 0.0000000000 1.2500000000 0.6250000000 0.0000000000 1.2500000000 0.7812500000 0.0000000000 1.0937500000 0.7812500000 0.0000000000 1.2500000000 0.7812500000 0.0000000000 1.2500000000 0.9375000000 0.0000000000 1.0937500000 0.9375000000 0.0000000000 1.0937500000 0.7812500000 0.0000000000 1.0937500000 0.9375000000 0.0000000000 0.9375000000 0.9375000000 0.0000000000 1.2500000000 0.7812500000 0.0000000000 1.0937500
[...]
<CellData Scalars="pressure_p0,pressure_diff,velocity_diff," Vectors="velocity_p0,velocity_enr,velocity_reg,velocity_exact," Tensors="">
<DataArray type="Float64" Name="pressure_p0" format="ascii">
45.7885439867 45.7885439867 45.7885439867 45.7885439867 45.7885439867 45.7885439867 45.7885439867 45.7885439867 45.7885439867 45.7885439867 45.7885439867 45.7885439867 45.7885439867 45.7885439867 45.7885439867 45.7885439867 45.7885439867 45.7885439867 45.7885439867 45.7885439867 45.7885439867 45.7885439867 45.7885439867 45.7885439867 45.7885439867 45.7885439867 45.7885439867 45.7885439867 45.7885439867 45.7885439867 45.7885439867 45.7885439867 45.7885439867 45.7885439867 45.7885439867 45.7885439867 45.7885439867 45.7885439867 45.7885439867 45.7885439867 45.7885439867 45.7885439867 45.7885439867 45.7885439867 45.7885439867 45.7885439867 45.7885439867 45.7885439867 45.7885439867 45.7885439867 45.7885439867 45.7885439867 45.7885439867 45.7885439867 45.7885439867 45.7885439867 45.7885439867 45.7885439867 45.7885439867 45.7885439867 45.7885439867 45.7885439867 45.7885439867 45.7885439867 46.7277641289 46.7277641289 46.7277641289 46.7277641289 46.7277641289 46.7277641289 46.7277641289 46.7277641289 46.7277641289 46.7277641289 46.7277641289 46.7277641289 46.7277641289 46.7277641289 46.7277641289 46.7277641289 46.7277641289 46.7277641289 46.7277641289 46.7277641289 46.7277641289 46.7277641289 46.7277641289 46.7277641289 46.7277641289 46.7277641289 46.7277641289 46.7277641289 46.7277641289 46.7277641289 46.7277641289 46.7277641289 46.7277641289 46.7277641289 46.7277641289 46.7277641289 46.7277641289 46.7277641289 46.7277641289 46.7277641289 46.7277641289 46.7277641289 46.7277641289 46.7277641289 46.7277641289 46.7277641289 46.7277641289 46.7277641289 46.7277641289 46.7277641289 46.7277641289 46.7277641289 46.7277641289 46.7277641289 46.7277641289 46.7277641289 46.7277641289 46.7277641289 46.7277641289 46.7277641289 46.7277641289 46.7277641289 46.7277641289 46.7277641289 47.0909119450 47.0909119450 47.0909119450 47.0909119450 47.0909119450 47.0909119450 47.0909119450 47.0909119450 47.0909119450 47.0909119450 47.0909119450 47.0909119450 47.0909119450 47.0909119450 47.0909119450 47.0909119450 47.0909119450 47.0909119450 47.0909119450 47.0909119450 47.0909119450 47.0909119450 47.0909119450 47.0909119450 47.0909119450 47.0909119450 47.0909119450 47.0909119450 47.0909119450 47.0909119450 47.0909119450 47.0909119450 47.0909119450 47.0909119450 47.0909119450 47.0909119450 47.0909119450 47.0909119450 47.0909119450 47.0909119450 47.0909119450 47.0909119450 47.0909119450 47.0909119450 47.0909119450 47.0909119450 47.0909119450 47.0909119450 47.0909119450 47.0909119450 47.0909119450 47.0909119450 47.0909119450 47.0909119450 47.0909119450 47.0909119450 47.0909119450 47.0909119450 47.0909119450 47.0909119450 47.0909119450 47.0909119450 47.0909119450 47.0909119450 47.0909119450 47.0909119450 47.0909119450 47.0909119450 47.0909119450 47.0909119450 47.0909119450 47.0909119450 47.0909119450 47.0909119450 47.0909119450 47.0909119450 47.0909119450 47.0909119450 47.0909119450 47.0909119450 47.0909119450 47.0909119450 47.0909119450 47.0909119450 47.0909119450 47.0909119450 47.0909119450 47.0909119450 47.0909119450 47.0909119450 47.0909119450 47.0909119450 47.0909119450 47.0909119450 47.0909119450 47.0909119450 47.0909119450 47.0909119450 47.0909119450 47.0909119450 47.0909119450 47.0909119450 47.0909119450 47.0909119450 47.0909119450 47.0909119450 47.0909119450 47.0909119450 47.0909119450 47.0909119450 47.0909119450 47.0909119450 47.0909119450 47.0909119450 47.0909119450 47.0909119450 47.0909119450 47.0909119450 47.0909119450 47.0909119450 47.0909119450 47.0909119450 47.0909119450 47.0909119450 47.0909119450 47.0909119450 47.0909119450 47.0909119450 48.2430565971 48.2430565971 48.2430565971 48.2430565971 48.2430565971 48.2430565971 48.2430565971 48.2430565971 48.2430565971 48.2430565971 48.2430565971 48.2430565971 48.2430565971 48.2430565971 48.2430565971 48.2430565971 48.2430565971 48.2430565971 48.2430565971 48.2430565971 48.2430565971 48.2430565971 48.2430565971 48.2430565971 48.2430565971 48.2430565971 48.2430565971 48.2430565971 48.2430565971 48.2430565971 48.2430565971 48.2430565971 48.2430565971 48.2430565971 48.2430565971 48.2430565971 48.2430565971 48.2430565971 48.2430565971 48.2430565971 48.2430565971 48.2430565971 48.2430565971 48.2430565971 48.2430565971 48.2430565971 48.2430565971 48.2430565971 48.2430565971 48.2430565971 48.2430565971 48.2430565971 48.2430565971 48.2430565971 48.2430565971 48.2430565971 48.2430565971 48.2430565971 48.2430565971 48.2430565971 48.2430565971 48.2430565971 48.2430565971 48.2430565971 49.4376550070 49.4376550070 49.4376550070 49.4376550070 49.4376550070 49.4376550070 49.4376550070 49.4376550070 49.4376550070 49.4376550070 49.4376550070 49.4376550070 49.4376550070 49.4376550070 49.4376550070 49.4376550070 49.4376550070 49.4376550070 49.4376550070 49.4376550070 49.4376550070 49.4376550070 49.4376550070 49.4376550070 49.4376550070 49.4376550070 49.4376550070 49.4376550070 49.4376550070 49.4376550070 49.4376550070 49.4376550070 49.4376550070 49.4376550070 49.4376550070 49.4376550070 49.4376550070 49.4376550070 49.4376550070 49.4376550070 49.4376550070 49.4376550070 49.4376550070 49.4376550070 49.4376550070 49.4376550070 49.4376550070 49.4376550070 49.4376550070 49.4376550070 49.4376550070 49.4376550070 49.4376550070 49.4376550070 49.4376550070 49.4376550070 49.4376550070 49.4376550070 49.4376550070 49.4376550070 49.4376550070 49.4376550070 49.4376550070 49.4376550070 51.4563606156 51.4563606156 51.4563606156 51.4563606156 51.4563606156 51.4563606156 51.4563606156 51.4563606156 51.4563606156 51.4563606156 51.4563606156 51.4563606156 51.4563606156 51.4563606156 51.4563606156 51.4563606156 51.4563606156 51.4563606156 51.4563606156 51.4563606156 51.4563606156 51.4563606156 51.4563606156 51.4563606156 51.4563606156 51.4563606156 51.4563606156 51.4563606156 51.4563606156 51.4563606156 51.4563606156 51.4563606156 51.4563606156 51.4563606156 51.4563606156 51.4563606156 51.4563606156 51.4563606156 51.4563606156 51.4563606156 51.4563606156 51.4563606156 51.4563606156 51.4563606156 51.4563606156 51.4563606156 51.4563606156 51.4563606156 51.4563606156 51.4563606156 51.4563606156 51.4563606156 51.4563606156 51.4563606156 51.4563606156 51.4563606156 51.4563606156 51.4563606156 51.4563606156 51.4563606156 51.4563606156 51.4563606156 51.4563606156 51.4563606156 48.2430565970 48.2430565970 48.2430565970 48.2430565970 48.2430565970 48.2430565970 48.2430565970 48.2430565970 48.2430565970 48.2430565970 48.2430565970 48.2430565970 48.2430565970 48.2430565970 48.2430565970 48.2430565970 48.2430565970 48.2430565970 48.2430565970 48.2430565970 48.2430565970 48.2430565970 48.2430565970 48.2430565970 48.2430565970 48.2430565970 48.2430565970 48.2430565970 48.2430565970 48.2430565970 48.2430565970 48.2430565970 48.2430565970 48.2430565970 48.2430565970 48.2430565970 48.2430565970 48.2430565970 48.2430565970 48.2430565970 48.2430565970 48.2430565970 48.2430565970 48.2430565970 48.2430565970 48.2430565970 48.2430565970 48.2430565970 48.2430565970 48.2430565970 48.2430565970 48.2430565970 48.2430565970 48.2430565970 48.2430565970 48.2430565970 48.2430565970 48.2430565970 48.2430565970 48.2430565970 48.2430565970 48.2430565970 48.2430565970 48.2430565970 47.9129024841 47.9129024841 47.9129024841 47.9129024841 47.9129024841 47.9129024841 47.9129024841 47.9129024841 47.9129024841 47.9129024841 47.9129024841 47.9129024841 47.9129024841 47.9129024841 47.9129024841 47.9129024841 47.9129024841 47.9129024841 47.9129024841 47.9129024841 47.9129024841 47.9129024841 47.9129024841 47.9129024841 47.9129024841 47.9129024841 47.9129024841 47.9129024841 47.9129024841 47.9129024841 47.9129024841 47.9129024841 47.9129024841 47.9129024841 47.9129024841 47.9129024841 47.9129024841 47.9129024841 47.9129024841 47.9129024841 47.9129024841 47.9129024841 47.9129024841 47.9129024841 47.9129024841 47.9129024841 47.9129024841 47.9129024841 47.9129024841 47.9129024841 47.9129024841 47.9129024841 47.9129024841 47.9129024841 47.9129024841 47.9129024841 47.9129024841 47.9129024841 47.9129024841 47.9129024841 47.9129024841 47.9129024841 47.9129024841 47.9129024841 49.0219217624 49.0219217624 49.0219217624 49.0219217624 49.0219217624 49.0219217624 49.0219217624 49.0219217624 49.0219217624 49.0219217624 49.0219217624 49.0219217624 49.0219217624 49.0219217624 49.0219217624 49.0219217624 49.0219217624 49.0219217624 49.0219217624 49.0219217624 49.0219217624 49.0219217624 49.0219217624 49.0219217624 49.0219217624 49.0219217624 49.0219217624 49.0219217624 49.0219217624 49.0219217624 49.0219217624 49.0219217624 49.0219217624 49.0219217624 49.0219217624 49.0219217624 49.0219217624 49.0219217624 49.0219217624 49.0219217624 49.0219217624 49.0219217624 49.0219217624 49.0219217624 49.0219217624 49.0219217624 49.0219217624 49.0219217624 49.0219217624 49.0219217624 49.0219217624 49.0219217624 49.0219217624 49.0219217624 49.0219217624 49.0219217624 49.0219217624 49.0219217624 49.0219217624 49.0219217624 49.0219217624 49.0219217624 49.0219217624 49.0219217624 47.7385397940 47.7385397940 47.7385397940 47.7385397940 47.7385397940 47.7385397940 47.7385397940 47.7385397940 47.7385397940 47.7385397940 47.7385397940 47.7385397940 47.7385397940 47.7385397940 47.7385397940 47.7385397940 47.7385397940 47.7385397940 47.7385397940 47.7385397940 47.7385397940 47.7385397940 47.7385397940 47.7385397940 47.7385397940 47.7385397940 47.7385397940 47.7385397940 47.7385397940 47.7385397940 47.7385397940 47.7385397940 47.7385397940 47.7385397940 47.7385397940 47.7385397940 47.7385397940 47.7385397940 47.7385397940 47.7385397940 47.7385397940 47.7385397940 47.7385397940 47.7385397940 47.7385397940 47.7385397940 47.7385397940 47.7385397940 47.7385397940 47.7385397940 47.7385397940 47.7385397940 47.7385397940 47.7385397940 47.7385397940 47.7385397940 47.7385397940 47.7385397940 47.7385397940 47.7385397940 47.7385397940 47.7385397940 47.7385397940 47.7385397940 51.6700878176 51.6700878176 51.6700878176 51.6700878176 51.6700878176 51.6700878176 51.6700878176 51.6700878176 51.6700878176 51.6700878176 51.6700878176 51.6700878176 51.6700878176 51.6700878176 51.6700878176 51.6700878176 51.6700878176 51.6700878176 51.6700878176 51.6700878176 51.6700878176 51.6700878176 51.6700878176 51.6700878176 51.6700878176 51.6700878176 51.6700878176 51.6700878176 51.6700878176 51.6700878176 51.6700878176 51.6700878176 51.6700878176 51.6700878176 51.6700878176 51.6700878176 51.6700878176 51.6700878176 51.6700878176 51.6700878176 51.6700878176 51.6700878176 51.6700878176 51.6700878176 51.6700878176 51.6700878176 51.6700878176 51.6700878176 51.6700878176 51.6700878176 51.6700878176 51.6700878176 51.6700878176 51.6700878176 51.6700878176 51.6700878176 51.6700878176 51.6700878176 51.6700878176 51.6700878176 51.6700878176 51.6700878176 51.6700878176 51.6700878176 47.9129024840 47.9129024840 47.9129024840 47.9129024840 47.9129024840 47.9129024840 47.9129024840 47.9129024840 47.9129024840 47.9129024840 47.9129024840 47.9129024840 47.9129024840 47.9129024840 47.9129024840 47.9129024840 47.9129024840 47.9129024840 47.9129024840 47.9129024840 47.9129024840 47.9129024840 47.9129024840 47.9129024840 47.9129024840 47.9129024840 47.9129024840 47.9129024840 47.9129024840 47.9129024840 47.9129024840 47.9129024840 47.9129024840 47.9129024840 47.9129024840 47.9129024840 47.9129024840 47.9129024840 47.9129024840 47.9129024840 47.9129024840 47.9129024840 47.9129024840 47.9129024840 47.9129024840 47.9129024840 47.9129024840 47.9129024840 47.9129024840 47.9129024840 47.9129024840 47.9129024840 47.9129024840 47.9129024840 47.9129024840 47.9129024840 47.9129024840 47.9129024840 47.9129024840 47.9129024840 47.9129024840 47.9129024840 47.9129024840 47.9129024840 49.0219217624 49.0219217624 49.0219217624 49.0219217624 49.0219217624 49.0219217624 49.0219217624 49.0219217624 49.0219217624 49.0219217624 49.0219217624 49.0219217624 49.0219217624 49.0219217624 49.0219217624 49.0219217624 49.0219217624 49.0219217624 49.0219217624 49.0219217624 49.0219217624 49.0219217624 49.0219217624 49.0219217624 49.0219217624 49.0219217624 49.0219217624 49.0219217624 49.0219217624 49.0219217624 49.0219217624 49.0219217624 49.0219217624 49.0219217624 49.0219217624 49.0219217624 49.0219217624 49.0219217624 49.0219217624 49.0219217624 49.0219217624 49.0219217624 49.0219217624 49.0219217624 49.0219217624 49.0219217624 49.0219217624 49.0219217624 49.0219217624 49.0219217624 49.0219217624 49.0219217624 49.0219217624 49.0219217624 49.0219217624 49.0219217624 49.0219217624 49.0219217624 49.0219217624 49.0219217624 49.0219217624 49.0219217624 49.0219217624 49.0219217624 51.6700878175 51.6700878175 51.6700878175 51.6700878175 51.6700878175 51.6700878175 51.6700878175 51.6700878175 51.6700878175 51.6700878175 51.6700878175 51.6700878175 51.6700878175 51.6700878175 51.6700878175 51.6700878175 51.6700878175 51.6700878175 51.6700878175 51.6700878175 51.6700878175 51.6700878175 51.6700878175 51.6700878175 51.6700878175 51.6700878175 51.6700878175 51.6700878175 51.6700878175 51.6700878175 51.6700878175 51.6700878175 51.6700878175 51.6700878175 51.6700878175 51.6700878175 51.6700878175 51.6700878175 51.6700878175 51.6700878175 51.6700878175 51.6700878175 51.6700878175 51.6700878175 51.6700878175 51.6700878175 51.6700878175 51.6700878175 51.6700878175 51.6700878175 51.6700878175 51.6700878175 51.6700878175 51.6700878175 51.6700878175 51.6700878175 51.6700878175 51.6700878175 51.6700878175 51.6700878175 51.6700878175 51.6700878175 51.6700878175 51.6700878175 47.7385397941 47.7385397941 47.7385397941 47.7385397941 47.7385397941 47.7385397941 47.7385397941 47.7385397941 47.7385397941 47.7385397941 47.7385397941 47.7385397941 47.7385397941 47.7385397941 47.7385397941 47.7385397941 47.7385397941 47.7385397941 47.7385397941 47.7385397941 47.7385397941 47.7385397941 47.7385397941 47.7385397941 47.7385397941 47.7385397941 47.7385397941 47.7385397941 47.7385397941 47.7385397941 47.7385397941 47.7385397941 47.7385397941 47.7385397941 47.7385397941 47.7385397941 47.7385397941 47.7385397941 47.7385397941 47.7385397941 47.7385397941 47.7385397941 47.7385397941 47.7385397941 47.7385397941 47.7385397941 47.7385397941 47.7385397941 47.7385397941 47.7385397941 47.7385397941 47.7385397941 47.7385397941 47.7385397941 47.7385397941 47.7385397941 47.7385397941 47.7385397941 47.7385397941 47.7385397941 47.7385397941 47.7385397941 47.7385397941 47.7385397941 46.7105264618 46.7105264618 46.7105264618 46.7105264618 46.7105264618 46.7105264618 46.7105264618 46.7105264618 46.7105264618 46.7105264618 46.7105264618 46.7105264618 46.7105264618 46.7105264618 46.7105264618 46.7105264618 46.7105264618 46.7105264618 46.7105264618 46.7105264618 46.7105264618 46.7105264618 46.7105264618 46.7105264618 46.7105264618 46.7105264618 46.7105264618 46.7105264618 46.7105264618 46.7105264618 46.7105264618 46.7105264618 46.7105264618 46.7105264618 46.7105264618 46.7105264618 46.7105264618 46.7105264618 46.7105264618 46.7105264618 46.7105264618 46.7105264618 46.7105264618 46.7105264618 46.7105264618 46.7105264618 46.7105264618 46.7105264618 46.7105264618 46.7105264618 46.7105264618 46.7105264618 46.7105264618 46.7105264618 46.7105264618 46.7105264618 46.7105264618 46.7105264618 46.7105264618 46.7105264618 46.7105264618 46.7105264618 46.7105264618 46.7105264618 46.8439117188 46.8439117188 46.8439117188 46.8439117188 46.8439117188 46.8439117188 46.8439117188 46.8439117188 46.8439117188 46.8439117188 46.8439117188 46.8439117188 46.8439117188 46.8439117188 46.8439117188 46.8439117188 46.8439117188 46.8439117188 46.8439117188 46.8439117188 46.8439117188 46.8439117188 46.8439117188 46.8439117188 46.8439117188 46.8439117188 46.8439117188 46.8439117188 46.8439117188 46.8439117188 46.8439117188 46.8439117188 46.8439117188 46.8439117188 46.8439117188 46.8439117188 46.8439117188 46.8439117188 46.8439117188 46.8439117188 46.8439117188 46.8439117188 46.8439117188 46.8439117188 46.8439117188 46.8439117188 46.8439117188 46.8439117188 46.8439117188 46.8439117188 46.8439117188 46.8439117188 46.8439117188 46.8439117188 46.8439117188 46.8439117188 46.8439117188 46.8439117188 46.8439117188 46.8439117188 46.8439117188 46.8439117188 46.8439117188 46.8439117188 45.3502741039 45.3502741039 45.3502741039 45.3502741039 45.3502741039 45.3502741039 45.3502741039 45.3502741039 45.3502741039 45.3502741039 45.3502741039 45.3502741039 45.3502741039 45.3502741039 45.3502741039 45.3502741039 45.3502741039 45.3502741039 45.3502741039 45.3502741039 45.3502741039 45.3502741039 45.3502741039 45.3502741039 45.3502741039 45.3502741039 45.3502741039 45.3502741039 45.3502741039 45.3502741039 45.3502741039 45.3502741039 45.3502741039 45.3502741039 45.3502741039 45.3502741039 45.3502741039 45.3502741039 45.3502741039 45.3502741039 45.3502741039 45.3502741039 45.3502741039 45.3502741039 45.3502741039 45.3502741039 45.3502741039 45.3502741039 45.3502741039 45.3502741039 45.3502741039 45.3502741039 45.3502741039 45.3502741039 45.3502741039 45.3502741039 45.3502741039 45.3502741039 45.3502741039 45.3502741039 45.3502741039 45.3502741039 45.3502741039 45.3502741039 48.7662668842 48.7662668842 48.7662668842 48.7662668842 48.7662668842 48.7662668842 48.7662668842 48.7662668842 48.7662668842 48.7662668842 48.7662668842 48.7662668842 48.7662668842 48.7662668842 48.7662668842 48.7662668842 48.7662668842 48.7662668842 48.7662668842 48.7662668842 48.7662668842 48.7662668842 48.7662668842 48.7662668842 48.7662668842 48.7662668842 48.7662668842 48.7662668842 48.7662668842 48.7662668842 48.7662668842 48.7662668842 48.7662668842 48.7662668842 48.7662668842 48.7662668842 48.7662668842 48.7662668842 48.7662668842 48.7662668842 48.7662668842 48.7662668842 48.7662668842 48.7662668842 48.7662668842 48.7662668842 48.7662668842 48.7662668842 48.7662668842 48.7662668842 48.7662668842 48.7662668842 48.7662668842 48.7662668842 48.7662668842 48.7662668842 48.7662668842 48.7662668842 48.7662668842 48.7662668842 48.7662668842 48.7662668842 48.7662668842 48.7662668842 45.2256035381 45.2256035381 45.2256035381 45.2256035381 45.2256035381 45.2256035381 45.2256035381 45.2256035381 45.2256035381 45.2256035381 45.2256035381 45.2256035381 45.2256035381 45.2256035381 45.2256035381 45.2256035381 45.2256035381 45.2256035381 45.2256035381 45.2256035381 45.2256035381 45.2256035381 45.2256035381 45.2256035381 45.2256035381 45.2256035381 45.2256035381 45.2256035381 45.2256035381 45.2256035381 45.2256035381 45.2256035381 45.2256035381 45.2256035381 45.2256035381 45.2256035381 45.2256035381 45.2256035381 45.2256035381 45.2256035381 45.2256035381 45.2256035381 45.2256035381 45.2256035381 45.2256035381 45.2256035381 45.2256035381 45.2256035381 45.2256035381 45.2256035381 45.2256035381 45.2256035381 45.2256035381 45.2256035381 45.2256035381 45.2256035381 45.2256035381 45.2256035381 45.2256035381 45.2256035381 45.2256035381 45.2256035381 45.2256035381 45.2256035381 46.4898184100 46.4898184100 46.4898184100 46.4898184100 46.4898184100 46.4898184100 46.4898184100 46.4898184100 46.4898184100 46.4898184100 46.4898184100 46.4898184100 46.4898184100 46.4898184100 46.4898184100 46.4898184100 46.4898184100 46.4898184100 46.4898184100 46.4898184100 46.4898184100 46.4898184100 46.4898184100 46.4898184100 46.4898184100 46.4898184100 46.4898184100 46.4898184100 46.4898184100 46.4898184100 46.4898184100 46.4898184100 46.4898184100 46.4898184100 46.4898184100 46.4898184100 46.4898184100 46.4898184100 46.4898184100 46.4898184100 46.4898184100 46.4898184100 46.4898184100 46.4898184100 46.4898184100 46.4898184100 46.4898184100 46.4898184100 46.4898184100 46.4898184100 46.4898184100 46.4898184100 46.4898184100 46.4898184100 46.4898184100 46.4898184100 46.4898184100 46.4898184100 46.4898184100 46.4898184100 46.4898184100 46.4898184100 46.4898184100 46.4898184100 46.0773178714 46.0773178714 46.0773178714 46.0773178714 46.0773178714 46.0773178714 46.077