<?xml version="1.0"?>
<VTKFile type="UnstructuredGrid" version="0.1" byte_order="LittleEndian">
<UnstructuredGrid>
<Piece NumberOfPoints="2400" NumberOfCells="800">
<Points>
<DataArray type="Float64" NumberOfComponents="3" format="ascii">
0.050000000000000037 0 0 0 0.049999999999899652 0 0 0 0 0.050000000000000037 0 0 0.050000000000000037 0.049999999999899652 0 0 0.049999999999899652 0 0.050000000000000037 0.049999999999899652 0 0 0.099999999999814668 0 0 0.049999999999899652 0 0.050000000000000037 0.099999999999814668 0 0 0.14999999999970359 0 0 0.099999999999814668 0 0.050000000000000037 0.049999999999899652 0 0.050000000000000037 0.099999999999814668 0 0 0.099999999999814668 0 0.099999999999999978 0.049999999999899652 0 0.050000000000000037 0.099999999999814668 0 0.050000000000000037 0.049999999999899652 0 0.099999999999999978 0.049999999999899652 0 0.099999999999999978 0.099999999999814668 0 0.050000000000000037 0.099999999999814668 0 0.099999999999999978 0.099999999999814668 0 0.050000000000000037 0.14999999999970359 0 0.050000000000000037 0.099999999999814668 0 0.14999999999999999 0.099999999999814668 0 0.099999999999999978 0.14999999999970359 0 0.099999999999999978 0.099999999999814668 0 0.14999999999999999 0.049999999999899652 0 0.099999999999999978 0.099999999999814668 0 0.099999999999999978 0.049999999999899652 0 0.14999999999999999 0 0 0.099999999999999978 0.049999999999899652 0 0.099999999999999978 0 0 0.099999999999999978 0 0 0.050000000000000037 0.049999999999899652 0 0.050000000000000037 0 0 0.099999999999999978 0 0 0.099999999999999978 0.049999999999899652 0 0.050000000000000037 0.049999999999899652 0 0.050000000000000037 0.19999999999955789 0 0.050000000000000037 0.24999999999941211 0 0 0.24999999999941211 0 0.050000000000000037 0.19999999999955789 0 0 0.24999999999941211 0 0 0.19999999999955789 0 0.050000000000000037 0.14999999999970359 0 0.050000000000000037 0.19999999999955789 0 0 0.19999999999955789 0 0.050000000000000037 0.14999999999970359 0 0 0.19999999999955789 0 0 0.14999999999970359 0 0.050000000000000037 0.099999999999814668 0 0.050000000000000037 0.14999999999970359 0 0 0.14999999999970359 0 0.099999999999999978 0.099999999999814668 0 0.099999999999999978 0.14999999999970359 0 0.050000000000000037 0.14999999999970359 0 0.14999999999999999 0.14999999999970359 0 0.099999999999999978 0.19999999999955789 0 0.099999999999999978 0.14999999999970359 0 0.099999999999999978 0.14999999999970359 0 0.099999999999999978 0.19999999999955789 0 0.050000000000000037 0.19999999999955789 0 0.099999999999999978 0.14999999999970359 0 0.050000000000000037 0.19999999999955789 0 0.050000000000000037 0.14999999999970359 0 0.099999999999999978 0.19999999999955789 0 0.050000000000000037 0.24999999999941211 0 0.050000000000000037 0.19999999999955789 0 0.14999999999999999 0.19999999999955789 0 0.099999999999999978 0.24999999999941211 0 0.099999999999999978 0.19999999999955789 0 0.099999999999999978 0.19999999999955789 0 0.099999999999999978 0.24999999999941211 0 0.050000000000000037 0.24999999999941211 0 0.20000000000000001 0.19999999999955789 0 0.20000000000000001 0.24999999999941211 0 0.14999999999999999 0.24999999999941211 0 0.14999999999999999 0.19999999999955789 0 0.14999999999999999 0.24999999999941211 0 0.099999999999999978 0.24999999999941211 0 0.20000000000000001 0.19999999999955789 0 0.14999999999999999 0.24999999999941211 0 0.14999999999999999 0.19999999999955789 0 0.20000000000000001 0.14999999999970359 0 0.20000000000000001 0.19999999999955789 0 0.14999999999999999 0.19999999999955789 0 0.20000000000000001 0.14999999999970359 0 0.14999999999999999 0.19999999999955789 0 0.14999999999999999 0.14999999999970359 0 0.14999999999999999 0.14999999999970359 0 0.14999999999999999 0.19999999999955789 0 0.099999999999999978 0.19999999999955789 0 0.14999999999999999 0.099999999999814668 0 0.14999999999999999 0.14999999999970359 0 0.099999999999999978 0.14999999999970359 0 0.20000000000000001 0.099999999999814668 0 0.20000000000000001 0.14999999999970359 0 0.14999999999999999 0.14999999999970359 0 0.25 0.099999999999814668 0 0.25 0.14999999999970359 0 0.20000000000000001 0.14999999999970359 0 0.25 0.14999999999970359 0 0.25 0.19999999999955789 0 0.20000000000000001 0.19999999999955789 0 0.25 0.14999999999970359 0 0.20000000000000001 0.19999999999955789 0 0.20000000000000001 0.14999999999970359 0 0.25 0.19999999999955789 0 0.20000000000000001 0.24999999999941211 0 0.20000000000000001 0.19999999999955789 0 0.25 0.19999999999955789 0 0.25 0.24999999999941211 0 0.20000000000000001 0.24999999999941211 0 0.20000000000000001 0 0 0.20000000000000001 0.049999999999899652 0 0.14999999999999999 0.049999999999899652 0 0.20000000000000001 0 0 0.14999999999999999 0.049999999999899652 0 0.14999999999999999 0 0 0.14999999999999999 0 0 0.14999999999999999 0.049999999999899652 0 0.099999999999999978 0.049999999999899652 0 0.14999999999999999 0.049999999999899652 0 0.14999999999999999 0.099999999999814668 0 0.099999999999999978 0.099999999999814668 0 0.20000000000000001 0.099999999999814668 0 0.14999999999999999 0.14999999999970359 0 0.14999999999999999 0.099999999999814668 0 0.20000000000000001 0.049999999999899652 0 0.14999999999999999 0.099999999999814668 0 0.14999999999999999 0.049999999999899652 0 0.20000000000000001 0.049999999999899652 0 0.20000000000000001 0.099999999999814668 0 0.14999999999999999 0.099999999999814668 0 0.25 0.049999999999899652 0 0.20000000000000001 0.099999999999814668 0 0.20000000000000001 0.049999999999899652 0 0.25 0.099999999999814668 0 0.20000000000000001 0.14999999999970359 0 0.20000000000000001 0.099999999999814668 0 0.25 0.049999999999899652 0 0.25 0.099999999999814668 0 0.20000000000000001 0.099999999999814668 0 0.25 0 0 0.25 0.049999999999899652 0 0.20000000000000001 0.049999999999899652 0 0.25 0 0 0.20000000000000001 0.049999999999899652 0 0.20000000000000001 0 0 0.29999999999999999 0 0 0.25 0.049999999999899652 0 0.25 0 0 0.29999999999999999 0 0 0.29999999999999999 0.049999999999899652 0 0.25 0.049999999999899652 0 0.34999999999999998 0 0 0.29999999999999999 0.049999999999899652 0 0.29999999999999999 0 0 0.34999999999999998 0 0 0.34999999999999998 0.049999999999899652 0 0.29999999999999999 0.049999999999899652 0 0.40000000000000002 0 0 0.34999999999999998 0.049999999999899652 0 0.34999999999999998 0 0 0.40000000000000002 0.099999999999814668 0 0.34999999999999998 0.14999999999970359 0 0.34999999999999998 0.099999999999814668 0 0.40000000000000002 0.049999999999899652 0 0.34999999999999998 0.099999999999814668 0 0.34999999999999998 0.049999999999899652 0 0.34999999999999998 0.049999999999899652 0 0.29999999999999999 0.099999999999814668 0 0.29999999999999999 0.049999999999899652 0 0.34999999999999998 0.049999999999899652 0 0.34999999999999998 0.099999999999814668 0 0.29999999999999999 0.099999999999814668 0 0.34999999999999998 0.099999999999814668 0 0.29999999999999999 0.14999999999970359 0 0.29999999999999999 0.099999999999814668 0 0.29999999999999999 0.049999999999899652 0 0.29999999999999999 0.099999999999814668 0 0.25 0.099999999999814668 0 0.29999999999999999 0.049999999999899652 0 0.25 0.099999999999814668 0 0.25 0.049999999999899652 0 0.29999999999999999 0.099999999999814668 0 0.25 0.14999999999970359 0 0.25 0.099999999999814668 0 0.29999999999999999 0.14999999999970359 0 0.25 0.19999999999955789 0 0.25 0.14999999999970359 0 0.29999999999999999 0.14999999999970359 0 0.29999999999999999 0.19999999999955789 0 0.25 0.19999999999955789 0 0.29999999999999999 0.099999999999814668 0 0.29999999999999999 0.14999999999970359 0 0.25 0.14999999999970359 0 0.29999999999999999 0.19999999999955789 0 0.25 0.24999999999941211 0 0.25 0.19999999999955789 0 0.29999999999999999 0.19999999999955789 0 0.29999999999999999 0.24999999999941211 0 0.25 0.24999999999941211 0 0.34999999999999998 0.19999999999955789 0 0.34999999999999998 0.24999999999941211 0 0.29999999999999999 0.24999999999941211 0 0.34999999999999998 0.19999999999955789 0 0.29999999999999999 0.24999999999941211 0 0.29999999999999999 0.19999999999955789 0 0.40000000000000002 0.19999999999955789 0 0.34999999999999998 0.24999999999941211 0 0.34999999999999998 0.19999999999955789 0 0.34999999999999998 0.099999999999814668 0 0.34999999999999998 0.14999999999970359 0 0.29999999999999999 0.14999999999970359 0 0.34999999999999998 0.14999999999970359 0 0.34999999999999998 0.19999999999955789 0 0.29999999999999999 0.19999999999955789 0 0.34999999999999998 0.14999999999970359 0 0.29999999999999999 0.19999999999955789 0 0.29999999999999999 0.14999999999970359 0 0.40000000000000002 0.14999999999970359 0 0.34999999999999998 0.19999999999955789 0 0.34999999999999998 0.14999999999970359 0 0.40000000000000002 0.099999999999814668 0 0.40000000000000002 0.14999999999970359 0 0.34999999999999998 0.14999999999970359 0 0.40000000000000002 0.14999999999970359 0 0.40000000000000002 0.19999999999955789 0 0.34999999999999998 0.19999999999955789 0 0.45000000000000001 0.14999999999970359 0 0.45000000000000001 0.19999999999955789 0 0.40000000000000002 0.19999999999955789 0 0.45000000000000001 0.14999999999970359 0 0.40000000000000002 0.19999999999955789 0 0.40000000000000002 0.14999999999970359 0 0.45000000000000001 0.099999999999814668 0 0.45000000000000001 0.14999999999970359 0 0.40000000000000002 0.14999999999970359 0 0.40000000000000002 0.19999999999955789 0 0.40000000000000002 0.24999999999941211 0 0.34999999999999998 0.24999999999941211 0 0.45000000000000001 0.19999999999955789 0 0.40000000000000002 0.24999999999941211 0 0.40000000000000002 0.19999999999955789 0 0.45000000000000001 0.19999999999955789 0 0.45000000000000001 0.24999999999941211 0 0.40000000000000002 0.24999999999941211 0 0.5 0.19999999999955789 0 0.45000000000000001 0.24999999999941211 0 0.45000000000000001 0.19999999999955789 0 0.5 0.19999999999955789 0 0.5 0.24999999999941211 0 0.45000000000000001 0.24999999999941211 0 0.5 0.14999999999970359 0 0.45000000000000001 0.19999999999955789 0 0.45000000000
[...]
<PointData Scalars="tracer_conc," Vectors="" Tensors="">
<DataArray type="Float64" Name="tracer_conc" format="ascii">
1.9996986658951443 1.9990990108893889 1.9998827189529271 1.9997777968899793 1.998466527580304 1.999089101480769 1.9984443358391548 1.9967023116751006 1.999223874764309 1.9947452494114144 1.9903028406159089 1.9970288232494342 1.9985093456432057 1.9946495187253448 1.996816690367534 1.9949233359595515 1.993703498457569 1.9990120286867412 1.9951793775600386 1.9866329810377841 1.993867493801021 1.9850202606269856 1.9828508997777206 1.9956456258215793 1.9647644596312279 1.9622083674538688 1.9882294967263838 1.9864770813830535 1.984474936777469 1.9968078191124188 1.9962590025584026 1.9947503735094887 1.9996292981440342 1.9987802485525525 1.998117211559864 1.9999420316493026 1.9989631327152397 1.9957336133279981 1.9981296067649998 1.9626619855246683 1.9238622282364435 1.950207290159188 1.9655456860107245 1.9463166851491081 1.9771924425373 1.9845474363168296 1.9639205656079599 1.9773182706580921 1.9855082607595143 1.9756530498914673 1.9910652054504883 1.99457776547841 1.9849827932339537 1.9908632405564328 1.9852940102303966 1.9661761653342966 1.9833524744236641 1.9234671111445059 1.9205238855956728 1.9679480452486984 1.9635959799025771 1.9266281363727096 1.9609034114920634 1.9634333413175526 1.9598710455811648 1.9863941360965114 1.9226569473675774 1.9172911909057104 1.9652982993249914 1.8551642173983764 1.8521397612341344 1.9277464895255725 1.9224483291399097 1.8599977926532445 1.9190111158700975 1.7539409662938819 1.632381611008801 1.7550541910779029 1.8546270015137238 1.7618941979179628 1.8536768834677704 1.7550299797763331 1.7535091874532631 1.8603254452602527 1.854781454771846 1.7612426463084996 1.8543730766247619 1.8554236724829223 1.8528009754502044 1.929332409054453 1.9233867080955251 1.8609428100172321 1.9217642352681457 1.9649610784583764 1.9281664809088992 1.9630041678963748 1.9248604298488363 1.8616885972700705 1.9230211929336833 1.8551665185525965 1.760019000321517 1.854941085189451 1.7521856586034761 1.6295179729462468 1.7543326963174526 1.7535666497994293 1.752489877463312 1.8609620080724572 1.6248452535866926 1.625678588267728 1.757972096952922 1.6233611238212302 1.4839831242669836 1.6271566802473099 1.989816514591467 1.9709138418956664 1.9863614711453301 1.9894818399659224 1.9860443097008229 1.9981885392341419 1.9965658229671452 1.9883699132640706 1.9948298593499798 1.9868029794503703 1.9679945427503274 1.9848272895623948 1.9250570776583593 1.9217409535020471 1.9698661815335832 1.9672753305950439 1.9637929994075436 1.9901007666270314 1.9674671952584288 1.930254237914766 1.9645409793000426 1.9283027018220713 1.92330951246961 1.9730337380785989 1.8562191468414193 1.8530299540975828 1.9314618532413552 1.9277987254238966 1.8629509238061523 1.9248043831777313 1.9727554598289676 1.9340509179237915 1.9671821991808336 1.9729847614890761 1.9661267030488778 1.9931807546111457 1.9367295872538284 1.9255578447468409 1.9786777904754085 1.9343472618222555 1.8650152750792373 1.9284677434524771 1.8652483871971339 1.8525503214407495 1.942705955668649 1.8580015594842847 1.7515834006969664 1.8590621917309857 1.7400577074635977 1.7380933719158669 1.8657140392805964 1.4511571453822536 1.467045286087435 1.6081907695321689 1.5926920728111194 1.6085585856357751 1.7473142084220072 1.7465722030801369 1.7476712429457308 1.8642171308136755 1.7426759727218923 1.6150033631987686 1.7516119421181437 1.6115905904671359 1.6175564982575308 1.7536247906747786 1.8560448085350398 1.7577415257741675 1.8560983830021291 1.8580598757979652 1.8534337862297927 1.9355395195447749 1.7512528867803461 1.7507106672021702 1.8620416459762332 1.6201485540014435 1.6226189349900206 1.7564253783316126 1.6183549520105485 1.4784336347040807 1.6245007182874907 1.7491346700777932 1.6245859450728257 1.7532255386061497 1.4771060708557173 1.481158269822876 1.6238346866933948 1.475828913207021 1.3365956675914772 1.4824263118851908 1.3310195886194431 1.2101173851072151 1.3394391326732562 1.3313744746979586 1.338585842348873 1.4719970457245093 1.2069645293461699 1.2159342567214435 1.323823058077618 1.6090303577253902 1.4687111113912525 1.6202412247788347 1.4669245943030664 1.3288533786855341 1.4773842100356132 1.4682115237576669 1.4758713554618859 1.6184575607303315 1.3188519527852707 1.3316650119879165 1.4619808289665266 1.4499405861118202 1.3152923767704403 1.46885357056823 1.319099536184136 1.2017240210307221 1.3322700227261213 1.1951491899155853 1.1094113845777474 1.2081661395368246 1.1932099473966096 1.2086585403602363 1.310305004827264 1.2966028883094478 1.1875222489532147 1.3197886503752481 1.2077012413162458 1.1165760674932841 1.2162761024229647 1.1153102403467856 1.1239612155601797 1.199350767984195 1.116749383023983 1.0570871503168475 1.1238456877453051 1.0571454790214263 1.0638044161739173 1.1094288569609945 1.0586592051917898 1.0245864407821135 1.0634346571100899 1.1034655367998278 1.1177193219103327 1.1853361403578231 1.1063115030248747 1.0523050610182341 1.1164059894799065 1.1728903129622303 1.0983015229450968 1.1938729042698832 1.1677333316449594 1.196858953860829 1.2843737887358635 1.241648654344057 1.3000768350790231 1.3966925358957614 1.2508061369701022 1.1630735421056615 1.2943797701031723 1.3197196866159457 1.2360776922068055 1.4101260996517053 1.3084129656717505 1.4206935065147737 1.5037207661505911 1.5325859199241327 1.4024244928103904 1.5974008763562582 1.5489943957833634 1.5856320052645154 1.7239832132275534 1.7258866777436759 1.5910456517019487 1.7492503400128305 1.5884399291450388 1.4494109853915143 1.6127243417880606 1.2946137031810636 1.3201500743588395 1.4424900651159787 1.4123530748032005 1.289018256708127 1.4527513600494637 1.4122070712765451 1.4513094956628187 1.5843385295637522 1.0053280276931802 1.0056480928161291 1.012780936998775 1.0055188029469411 1.0011715982568132 1.0057968739530647 1.0137342216977723 1.0039218489700223 1.0145902278023258 1.032349277647439 1.0114260348653559 1.0339624298171013 1.0143144704056242 1.004022231255437 1.0149530968310996 1.0050142549581225 1.001522010320427 1.0059483978938557 1.0017048672880395 1.0003863415703427 1.0020302308018434 1.0018321178349257 1.0018948210247196 1.0048408450103892 1.0005559134521338 1.0005461888623337 1.0016184745447143 1.0005054265958169 1.0000758155874734 1.000594019944234 1.0019228617984017 1.0002756893731299 1.0020133509631808 1.001836172151839 1.0019489317651182 1.0047891717825652 1.0052479813478203 1.0011580543685854 1.0056323777372036 1.0130123760722185 1.0036947492601322 1.0139720601878621 1.0126354804095774 1.0138282554464639 1.028121978679948 1.005073248168276 1.0055131585825032 1.0122219875878282 1.0291095087624345 1.0101823299402042 1.0313018252741564 1.0283374423232632 1.0312611718512981 1.0583890539905536 1.0623325370679928 1.0668164217884197 1.1165219219785876 1.0632789664572935 1.0265008104818187 1.0670044737546687 1.1232307199539708 1.0604207168089681 1.1284954115952499 1.0134114644272973 1.0143430517111021 1.0295551900024833 1.0304392879786133 1.0325831654300903 1.0617158996658356 1.0310137680974465 1.0108862487418029 1.0328716226142691 1.0663580965553721 1.0279200188063875 1.0693922615265989 1.0318781014907028 1.033526451226058 1.0640269383001197 1.0657027716638845 1.0689082279604956 1.1211331779405376 1.1273770411256758 1.0627529300282375 1.1315643017932253 1.1269246436630416 1.1308826429211769 1.2129476020197145 1.0679428643204161 1.0703847140637865 1.1242662121822911 1.1224458842119893 1.1280772341894403 1.2076694235876302 1.2151199267682067 1.1212376996870579 1.2213064116222416 1.214926138501637 1.220630780792916 1.3316625419098229 1.3379516616797158 1.2153907461481002 1.3439275497586287 1.3385923269775832 1.3430260261487081 1.4778252072638272 1.2197812226707221 1.1243907842305052 1.2246250226761934 1.21987648733561 1.2238051723642718 1.3366120962815566 1.1298683950769088 1.1328568611700054 1.2165034335883531 1.0694714480250505 1.0714381434257831 1.1265157012747267 1.070060270302488 1.0295846532204249 1.0721273095198509 1.1301337428110976 1.0644204098867238 1.1336782715258296 1.0684427470663678 1.028962005805697 1.0710358216890621 1.0328733727138355 1.034153360612335 1.0656947409187174 1.033400742133431 1.0117138943874375 1.0346342121714001 1.0139617104423631 1.0146638191799884 1.0306037216824231 1.0053668354939762 1.0056335455799872 1.0129369377486308 1.0140638391777481 1.0148340394414899 1.030950535621072 1.0131378883693953 1.0049485504843023 1.015489725985951 1.0309053126054615 1.0138468716278584 1.0361101670065993 1.0330737699346628 1.0348678005622458 1.0663437524052581 1.0653900169300576 1.0339044742761203 1.0754973573214996 1.0698466932647046 1.0733308579738177 1.1275589358474414 1.1322342778265613 1.0655404477744277 1.1352643561950124 1.2228599837363152 1.1266213045876077 1.2269366666774568 1.1318760400941248 1.1343884278731071 1.219050029445087 1.2254197057325564 1.2278820148397396 1.3422246161236862 1.2251118632855811 1.1283457364473659 1.2289686294641637 1.3451668688359197 1.2213946984215911 1.3489751334770046 1.4864177263648908 1.346852959080838 1.4887091467061639 1.3469660582625436 1.2236689023597171 1.3508887162206926 1.2139920507656834 1.1404191548634186 1.2393502114348283 1.1245653837866134 1.0732441286229608 1.141746111566615 1.1325839913284066 1.1382172210749637 1.2204279534514735 1.482358974659457 1.4845535984398885 1.627032450017899 1.4810494984117781 1.3414099126561705 1.4856545509012198 1.343129945775358 1.3460120577975259 1.4815262222914465 1.3423033208342312 1.2189041360049075 1.3469128728101474 1.2231440722706972 1.2260378289018201 1.3399390663462254 1.3461932961902361 1.3480120796454631 1.4839109704088711 1.628244144781235 1.4896761138138341 1.6293706143869622 1.4857718775752222 1.4867137857373325 1.6289844140329244 1.4843557626918695 1.3446034002140281 1.4877548113967369 1.6263794291941009 1.4874461461257176 1.6288394127828327 1.7550130935378909 1.6341021360376884 1.7550226194052061 1.6277789405757901 1.6275485627302138 1.7588425554019851 1.8552299696293408 1.8478784241213277 1.9242241038949619 1.7561223116424092 1.7534268122926171 1.8593955676579303 1.8542841856962782 1.7617181916773443 1.8503428361954288 1.7552221968480837 1.6346684488670573 1.7513085826475627 1.7572464979040794 1.7481473486961292 1.8550608326447739 1.629860487238546 1.6278871718914341 1.7586842123324378 1.4882574087909857 1.4872902801746464 1.6294658733596366 1.6319756789852549 1.6219253118171015 1.7537463476994397 1.7716546628991543 1.7036682839758555 1.8202681159057505 1.8646094577888872 1.8141015559065834 1.8989325074267063 1.8523026066296102 1.7589094714999762 1.8269618016713829 1.9211591941696291 1.8569978472585507 1.9022137052791865 1.9277284536775934 1.8945885969316023 1.949057420698969 1.3514620125683705 1.3527893201443868 1.4808401821032322 1.3320901548578923 1.2402261829218291 1.3630902461598797 1.2267634467731696 1.2337692794969954 1.3432046851501911 1.3485266594083707 1.3491766763716531 1.4847747232254811 1.6287311457837843 1.4908796710825696 1.6257370273125749 1.4865458324378393 1.3492450257352924 1.4870074006408547 1.4911347303253257 1.4819939900070882 1.6242955575840798 1.6236084230146439 1.4911290336281338 1.596395524682777 1.7520917861792951 1.6326179305573008 1.7226219939289897 1.6509703683064134 1.5709543088434053 1.7114976273374829 1.5127657726923878 1.4399597862074058 1.5809364706056395 1.4647275903319619 1.3682074475853196 1.4805486702978548 1.3950913465395975 1.4017406701830042 1.4940788477548739 1.380303540193329 1.2629614860218785 1.3691032420108693 1.2712251096934655 1.2629610938929463 1.3803033847961428 1.2557595886980382 1.1490447133310764 1.2354126863539117 1.1682699775506795 1.1490439876789562 1.2557597390362443 1.0071253365943762 0.99721813050687402 1.0367219817572355 1.0684854611251078 1.0366023036482934 1.1321174873017577 1.1321168116867903 1.0366035034544681 1.1071876436636419 1.1446291764907288 1.1068619110987514 1.2397126054569563 1.0366416046968232 1.0145567346730371 1.1026683762960585 1.2397122166843526 1.1068629638884 1.2165882693378032 1.2589185953113773 1.2262866228410059 1.3751878735451311 1.1058565798659479 1.0745990097069933 1.2154111141735227 1.015952582126715 1.0012847652576502 1.075587512445666 1.0192629523118695 0.99488457348561965 1.0120374049471392 1.1026675530390471 1.0145581129451542 1.0815106962637442 0.99624060609542975 0.99503743414013779 1.0086853921903265 0.99881654956788068 0.99885269270639998 0.99882902013238983 0.99738724281562463 1.0052978560145391 1.0006606161158524 0.99730902929995879 0.99885266122314809 0.99881657523928991 1.0000805486407731 1.0052978617702022 0.99738723790189954 1.0367213456930986 0.99721901707479477 1.0240764692068585 0.99893477128438679 0.99488390096849499 1.0192634329021559 1.0018509495205079 0.99725376917733988 1.0001480612361455 0.99744111495531196 0.99725363317863314 1.0018510606664075 1.0085868120590238 0.99676762952631559 1.0038581970125304 0.99828281781896588 0.99971754128417656 0.99892050210423955 0.99778149377230396 0.99971754243577149 0.99828281718118628 0.99751903643797801 1.0042289868289347 1.0009982734622582 1.0005936759858667 0.99806412144034939 0.99937942714869632 1.0004694858397061 1.0130683980722197 1.0065517188333855 1.0067922292479372 1.0130683980859858 1.0004694858204095 1.0088748642857843 1.0134795912297501 1.0114154033210274 1.0158831512560029 1.013479591216818 1.0088748642939505 1.0198599806252688 0.99954810871106381 1.0072526118507843 0.99911291283836479 1.0042289891208331 0.9975190341428638 0.9991087125331487 1.0093756122037736 1.005192800710579 0.99865490015349501 0.99911902359297355 0.99891482626471662 0.99836598564650836 0.99806406461805142 1.0005937302910728 1.0076604944061078 0.99815134663308103 1.0229595213780636 1.0064596814222371 0.99799820412791862 1.0020443864519946 1.0412944766269634 1.0089703159389198 1.0258976184160811 1.0484296096755461 1.0290518106861932 1.0843974035547348 1.0843969203128134 1.0290525593617041 1.0633047661724155 1.0947835637199683 1.0723055723531694 1.1548377371192369 1.154837345899123 1.0723064182037854 1.1312428292315275 1.061320273812919 1.0061506412362191 1.042124436603018 0.99932405524473933 0.99676729402988162 1.0085870910907324 1.0229590521256937 0.99815190360282591 1.0121709218577184 1.0264033772423664 1.0061496783577688 1.0613209557333383 2.4753307438633363 2.9737737065428891 2.0241189541049951 1.9683849409027827 2.6039574745322756 1.4447230444577739 2.024118954107192 2.9737737065377932 2.5598216349740475 1.4447230444577657 2.6039574745322769 2.0392022393679254 1.4038148123436784 1.9922548273500369 0.97959985421747908 0.79859881412352296 1.3607535153877632 1.0720794796043587 0.83056449362885443 0.9736680579684035 0.84436789504491261 0.94644804983673769 0.8608477689476417 0.90731649285775251 0.84392413891720663 0.96374458355911463 0.90554608187588947 0.94617229831945993 1.8962585708736326 1.4597324456468737 0.95424605099941873 1.3607535153877786 0.79859881412349965 1.2608006188675405 1.8962585708736031 0.94617229831950977 0.82140197682411298 0.96374458355917525 0.84392413891714668 0.96875716073215812 0.90738347961801435 1.0117332907502525 1.0117332907505796 0.90738347961771615 0.96113944292683651 1.0111879791201179 0.97470801614050362 1.023356105023389 0.87474724725678266 0.86084776894718562 0.94644804983716646 0.96178917441667078 0.90619926076868373 1.0146955365145363 1.0177097121694774 1.0131423304032094 1.0087050741508832 1.0233561050172395 0.97470801615677827 1.0027175217967275 0.9999009222558477 1.0135492129810062 1.0051841352135535 0.99925846602322221 1.0033087663002553 0.99723881368833522 1.0080754463538795 1.0135492151908647 0.99990092040052714 1.0114482371885216 1.0106747446137059 1.0110989177043059 1.0183851597916866 1.010674744507001 1.0114482372860829 1.023369623895803 0.9802218288295067 1.0010997941593478 1.0188834854738531 0.93352772451143862 0.96932207587926855 1.0166173362749347 0.98022182881291664 1.0233696238985379 0.99536623516323874 0.93352772450948895 1.0188834854759756 0.9930662047126434 0.89443128782933601 0.9294307744635093 0.8358035272446992 0.90011666431468551 0.88119580673269382 0.80648964695247949 1.0270772192382676 0.95354802847228048 1.0055033764898111 1.601928895703925 0.84319063523985227 0.86433458889654691 1.2373288713967243 0.7883508351134686 0.88119580673265219 0.90011666431468496 0.89266299314599729 0.90181141070675097 0.86547016578268787 0.95920327066284983 0.95920327065376332 0.86547016577182312 0.90807612253926484 0.78835083511323589 1.2373288714015489 1.0449097129869078 1.2768040830489096 2.4049206086702553 1.9475760712381713 1.6989187049447914 2.7709671339629476 2.3943014697106282 1.6648412044085119 2.404920608660535 1.2768040830527578 0.84319063524029847 1.6019288957050746 1.3201118275269579 0.99561536523014504 1.9680058017865949 1.662397378861644 2.1124907640671706 2.9664366056496623 2.7125608149063978 2.0695357752706247 2.7709671339629507 1.6989187049447871 2.990315523982253 3.1202673275941817 2.8342606931600445 2.9996965276130378 3.0879746013953064 3.0630756575060882 2.8342606931601027 3.1202673275942465 3.0249317827827484 2.8131628400962394 3.1085474401727131 2.5193370783498081 2.5193370783594475 3.108547440176348 2.8819280702545416 3.0896858304465122 3.0058183576914863 3.1028077593020353 3.1012581261806265 3.0412254457103054 3.0799424403934932 3.1028077593034369 3.0058183576887485 3.0232267118288845 3.0799424403934919 3.0412254457103058 3.0501601367910944 3.0725846561825705 3.0879746013941554 2.9996965276136067 2.4318670843087995 3.048058708824628 2.8981742596173978 2.3975648735549511 2.9664366056496623 2.1124907640671688 1.1863640385495808 2.2908468845462218 2.0068370098609845 1.3766520471439532 2.5430932300120248 2.3098049934391653 2.6066546717701637 3.0480587088246147 2.431867084308823 2.6214856748469799 3.0941740890478275 3.0047465512116918 2.7079705369167253 3.0941740890387113 2.6214856748512587 1.5429542544642423 2.5430932300120239 1.3766520471439523 0.84968540224527733 1.3835417063526347 0.78550175407543543 0.78550175407542722 1.3835417063526303 1.2566847467788629 0.80188990260924553 1.2105993965663813 0.76763528305055706 1.378029978986606 2.2908468845462084 1.186364038549601 1.1925959877656054 1.9680058017821289 0.99561536523182126 0.79621534837517982 1.0270772192356763 0.80648964695366754 0.76763528304405593 1.2105993965716566 1.0897910019770156 0.95882942938390159 0.87242885592451069 0.89751289338056572 0.96305555595110015 0.89443128782799697 0.99306620471318463 0.9335510565819013 0.87242885592451402 0.95882942938389393 0.92998148270686065 0.86276016859157678 0.87793917500052709 0.91293038618998823 0.86276016859001048 0.92998148270704595 0.91032026221199369 0.85958334585074558 0.86776671945111816 0.89884450350744116 0.85929518645129122 0.86312253971482666 0.90062547485330879 0.85958334584838481 0.91032026221228191 0.89572822427104182 0.85929518645129088 0.89884450350744083 0.89509383995310876 0.85941228296200101 0.86056330093149747 0.93876551443966638 1.5532944881411856 0.91375708407951906 0.94124530292401998 1.5681494905282714 1.5491523939327589 1.7228284335120518 2.7830747813403103 1.6794318399024355 1.6686200668964404 2.7044630581444258 1.5503490730449108 0.91375708407951517 1.5532944881411834 1.4951547241386891 0.9088060024862441 1.4985853430146912 0.84791791231363411 0.84791791231572633 1.4985853430183789 1.3999993686707242 1.5503490730384077 2.7044630581331934 2.5395896316922451 2.7085185804766647 3.1390034150417061 3.0808297887352807 2.7434608303361454 3.1390034150328798 2.7085185804807952 2.7399654817042753 3.1760919805986076 3.1407303725800726 1.6794318399041817 2.7830747813406909 2.6884768149269962 1.7273778141883203 2.8054970592500452 2.7746936522528656 2.7467424806905596 3.1906418950371216 3.1786446135688258 2.7483304422644363 3.1760919805986423 2.7399654817042602 3.0365333659686415 3.0110091618442589 3.0481297466779531 3.0324778783617652 3.0181313925836109 3.0184992512112605 3.0481297466779509 3.0110091618442598 3.0138645914467999 3.