<?xml version="1.0"?>
<VTKFile type="UnstructuredGrid" version="0.1" byte_order="LittleEndian">
<UnstructuredGrid>
<Piece NumberOfPoints="2400" NumberOfCells="800">
<Points>
<DataArray type="Float64" NumberOfComponents="3" format="ascii">
0.050000000000000037 0 0 0 0.049999999999899652 0 0 0 0 0.050000000000000037 0 0 0.050000000000000037 0.049999999999899652 0 0 0.049999999999899652 0 0.050000000000000037 0.049999999999899652 0 0 0.099999999999814668 0 0 0.049999999999899652 0 0.050000000000000037 0.099999999999814668 0 0 0.14999999999970359 0 0 0.099999999999814668 0 0.050000000000000037 0.049999999999899652 0 0.050000000000000037 0.099999999999814668 0 0 0.099999999999814668 0 0.099999999999999978 0.049999999999899652 0 0.050000000000000037 0.099999999999814668 0 0.050000000000000037 0.049999999999899652 0 0.099999999999999978 0.049999999999899652 0 0.099999999999999978 0.099999999999814668 0 0.050000000000000037 0.099999999999814668 0 0.099999999999999978 0.099999999999814668 0 0.050000000000000037 0.14999999999970359 0 0.050000000000000037 0.099999999999814668 0 0.14999999999999999 0.099999999999814668 0 0.099999999999999978 0.14999999999970359 0 0.099999999999999978 0.099999999999814668 0 0.14999999999999999 0.049999999999899652 0 0.099999999999999978 0.099999999999814668 0 0.099999999999999978 0.049999999999899652 0 0.14999999999999999 0 0 0.099999999999999978 0.049999999999899652 0 0.099999999999999978 0 0 0.099999999999999978 0 0 0.050000000000000037 0.049999999999899652 0 0.050000000000000037 0 0 0.099999999999999978 0 0 0.099999999999999978 0.049999999999899652 0 0.050000000000000037 0.049999999999899652 0 0.050000000000000037 0.19999999999955789 0 0.050000000000000037 0.24999999999941211 0 0 0.24999999999941211 0 0.050000000000000037 0.19999999999955789 0 0 0.24999999999941211 0 0 0.19999999999955789 0 0.050000000000000037 0.14999999999970359 0 0.050000000000000037 0.19999999999955789 0 0 0.19999999999955789 0 0.050000000000000037 0.14999999999970359 0 0 0.19999999999955789 0 0 0.14999999999970359 0 0.050000000000000037 0.099999999999814668 0 0.050000000000000037 0.14999999999970359 0 0 0.14999999999970359 0 0.099999999999999978 0.099999999999814668 0 0.099999999999999978 0.14999999999970359 0 0.050000000000000037 0.14999999999970359 0 0.14999999999999999 0.14999999999970359 0 0.099999999999999978 0.19999999999955789 0 0.099999999999999978 0.14999999999970359 0 0.099999999999999978 0.14999999999970359 0 0.099999999999999978 0.19999999999955789 0 0.050000000000000037 0.19999999999955789 0 0.099999999999999978 0.14999999999970359 0 0.050000000000000037 0.19999999999955789 0 0.050000000000000037 0.14999999999970359 0 0.099999999999999978 0.19999999999955789 0 0.050000000000000037 0.24999999999941211 0 0.050000000000000037 0.19999999999955789 0 0.14999999999999999 0.19999999999955789 0 0.099999999999999978 0.24999999999941211 0 0.099999999999999978 0.19999999999955789 0 0.099999999999999978 0.19999999999955789 0 0.099999999999999978 0.24999999999941211 0 0.050000000000000037 0.24999999999941211 0 0.20000000000000001 0.19999999999955789 0 0.20000000000000001 0.24999999999941211 0 0.14999999999999999 0.24999999999941211 0 0.14999999999999999 0.19999999999955789 0 0.14999999999999999 0.24999999999941211 0 0.099999999999999978 0.24999999999941211 0 0.20000000000000001 0.19999999999955789 0 0.14999999999999999 0.24999999999941211 0 0.14999999999999999 0.19999999999955789 0 0.20000000000000001 0.14999999999970359 0 0.20000000000000001 0.19999999999955789 0 0.14999999999999999 0.19999999999955789 0 0.20000000000000001 0.14999999999970359 0 0.14999999999999999 0.19999999999955789 0 0.14999999999999999 0.14999999999970359 0 0.14999999999999999 0.14999999999970359 0 0.14999999999999999 0.19999999999955789 0 0.099999999999999978 0.19999999999955789 0 0.14999999999999999 0.099999999999814668 0 0.14999999999999999 0.14999999999970359 0 0.099999999999999978 0.14999999999970359 0 0.20000000000000001 0.099999999999814668 0 0.20000000000000001 0.14999999999970359 0 0.14999999999999999 0.14999999999970359 0 0.25 0.099999999999814668 0 0.25 0.14999999999970359 0 0.20000000000000001 0.14999999999970359 0 0.25 0.14999999999970359 0 0.25 0.19999999999955789 0 0.20000000000000001 0.19999999999955789 0 0.25 0.14999999999970359 0 0.20000000000000001 0.19999999999955789 0 0.20000000000000001 0.14999999999970359 0 0.25 0.19999999999955789 0 0.20000000000000001 0.24999999999941211 0 0.20000000000000001 0.19999999999955789 0 0.25 0.19999999999955789 0 0.25 0.24999999999941211 0 0.20000000000000001 0.24999999999941211 0 0.20000000000000001 0 0 0.20000000000000001 0.049999999999899652 0 0.14999999999999999 0.049999999999899652 0 0.20000000000000001 0 0 0.14999999999999999 0.049999999999899652 0 0.14999999999999999 0 0 0.14999999999999999 0 0 0.14999999999999999 0.049999999999899652 0 0.099999999999999978 0.049999999999899652 0 0.14999999999999999 0.049999999999899652 0 0.14999999999999999 0.099999999999814668 0 0.099999999999999978 0.099999999999814668 0 0.20000000000000001 0.099999999999814668 0 0.14999999999999999 0.14999999999970359 0 0.14999999999999999 0.099999999999814668 0 0.20000000000000001 0.049999999999899652 0 0.14999999999999999 0.099999999999814668 0 0.14999999999999999 0.049999999999899652 0 0.20000000000000001 0.049999999999899652 0 0.20000000000000001 0.099999999999814668 0 0.14999999999999999 0.099999999999814668 0 0.25 0.049999999999899652 0 0.20000000000000001 0.099999999999814668 0 0.20000000000000001 0.049999999999899652 0 0.25 0.099999999999814668 0 0.20000000000000001 0.14999999999970359 0 0.20000000000000001 0.099999999999814668 0 0.25 0.049999999999899652 0 0.25 0.099999999999814668 0 0.20000000000000001 0.099999999999814668 0 0.25 0 0 0.25 0.049999999999899652 0 0.20000000000000001 0.049999999999899652 0 0.25 0 0 0.20000000000000001 0.049999999999899652 0 0.20000000000000001 0 0 0.29999999999999999 0 0 0.25 0.049999999999899652 0 0.25 0 0 0.29999999999999999 0 0 0.29999999999999999 0.049999999999899652 0 0.25 0.049999999999899652 0 0.34999999999999998 0 0 0.29999999999999999 0.049999999999899652 0 0.29999999999999999 0 0 0.34999999999999998 0 0 0.34999999999999998 0.049999999999899652 0 0.29999999999999999 0.049999999999899652 0 0.40000000000000002 0 0 0.34999999999999998 0.049999999999899652 0 0.34999999999999998 0 0 0.40000000000000002 0.099999999999814668 0 0.34999999999999998 0.14999999999970359 0 0.34999999999999998 0.099999999999814668 0 0.40000000000000002 0.049999999999899652 0 0.34999999999999998 0.099999999999814668 0 0.34999999999999998 0.049999999999899652 0 0.34999999999999998 0.049999999999899652 0 0.29999999999999999 0.099999999999814668 0 0.29999999999999999 0.049999999999899652 0 0.34999999999999998 0.049999999999899652 0 0.34999999999999998 0.099999999999814668 0 0.29999999999999999 0.099999999999814668 0 0.34999999999999998 0.099999999999814668 0 0.29999999999999999 0.14999999999970359 0 0.29999999999999999 0.099999999999814668 0 0.29999999999999999 0.049999999999899652 0 0.29999999999999999 0.099999999999814668 0 0.25 0.099999999999814668 0 0.29999999999999999 0.049999999999899652 0 0.25 0.099999999999814668 0 0.25 0.049999999999899652 0 0.29999999999999999 0.099999999999814668 0 0.25 0.14999999999970359 0 0.25 0.099999999999814668 0 0.29999999999999999 0.14999999999970359 0 0.25 0.19999999999955789 0 0.25 0.14999999999970359 0 0.29999999999999999 0.14999999999970359 0 0.29999999999999999 0.19999999999955789 0 0.25 0.19999999999955789 0 0.29999999999999999 0.099999999999814668 0 0.29999999999999999 0.14999999999970359 0 0.25 0.14999999999970359 0 0.29999999999999999 0.19999999999955789 0 0.25 0.24999999999941211 0 0.25 0.19999999999955789 0 0.29999999999999999 0.19999999999955789 0 0.29999999999999999 0.24999999999941211 0 0.25 0.24999999999941211 0 0.34999999999999998 0.19999999999955789 0 0.34999999999999998 0.24999999999941211 0 0.29999999999999999 0.24999999999941211 0 0.34999999999999998 0.19999999999955789 0 0.29999999999999999 0.24999999999941211 0 0.29999999999999999 0.19999999999955789 0 0.40000000000000002 0.19999999999955789 0 0.34999999999999998 0.24999999999941211 0 0.34999999999999998 0.19999999999955789 0 0.34999999999999998 0.099999999999814668 0 0.34999999999999998 0.14999999999970359 0 0.29999999999999999 0.14999999999970359 0 0.34999999999999998 0.14999999999970359 0 0.34999999999999998 0.19999999999955789 0 0.29999999999999999 0.19999999999955789 0 0.34999999999999998 0.14999999999970359 0 0.29999999999999999 0.19999999999955789 0 0.29999999999999999 0.14999999999970359 0 0.40000000000000002 0.14999999999970359 0 0.34999999999999998 0.19999999999955789 0 0.34999999999999998 0.14999999999970359 0 0.40000000000000002 0.099999999999814668 0 0.40000000000000002 0.14999999999970359 0 0.34999999999999998 0.14999999999970359 0 0.40000000000000002 0.14999999999970359 0 0.40000000000000002 0.19999999999955789 0 0.34999999999999998 0.19999999999955789 0 0.45000000000000001 0.14999999999970359 0 0.45000000000000001 0.19999999999955789 0 0.40000000000000002 0.19999999999955789 0 0.45000000000000001 0.14999999999970359 0 0.40000000000000002 0.19999999999955789 0 0.40000000000000002 0.14999999999970359 0 0.45000000000000001 0.099999999999814668 0 0.45000000000000001 0.14999999999970359 0 0.40000000000000002 0.14999999999970359 0 0.40000000000000002 0.19999999999955789 0 0.40000000000000002 0.24999999999941211 0 0.34999999999999998 0.24999999999941211 0 0.45000000000000001 0.19999999999955789 0 0.40000000000000002 0.24999999999941211 0 0.40000000000000002 0.19999999999955789 0 0.45000000000000001 0.19999999999955789 0 0.45000000000000001 0.24999999999941211 0 0.40000000000000002 0.24999999999941211 0 0.5 0.19999999999955789 0 0.45000000000000001 0.24999999999941211 0 0.45000000000000001 0.19999999999955789 0 0.5 0.19999999999955789 0 0.5 0.24999999999941211 0 0.45000000000000001 0.24999999999941211 0 0.5 0.14999999999970359 0 0.45000000000000001 0.19999999999955789 0 0.45000000000
[...]
<PointData Scalars="tracer_conc," Vectors="" Tensors="">
<DataArray type="Float64" Name="tracer_conc" format="ascii">
1.9989150362917221 1.996480145882261 1.9994949165420568 1.9993508537986111 1.994447156465788 1.9962566493362233 1.9943940196780159 1.9873761371749485 1.9967029271240595 1.9814930128565196 1.9644971288637996 1.9879397040550297 1.9949733603784234 1.9811677557437157 1.9873113592762981 1.9845538156760691 1.9788829401034869 1.9958857724413093 1.9858518728400081 1.9596108281559812 1.9786618223262447 1.9553242539545495 1.9444668434914083 1.9834844669867233 1.9061465864869915 1.8929036162725852 1.9627832719620841 1.963305862712164 1.9547069457042037 1.9893167285409199 1.9898042917851138 1.9845308854073322 1.9985800117151136 1.9962790298662156 1.9936036293703718 1.9996336367781118 1.997102030619232 1.9868346692930157 1.9933143879633084 1.8832112158955956 1.7748021686311208 1.8372952185878184 1.8901691484897156 1.8282960433321775 1.9189939450751832 1.9490916636451543 1.8855716660305586 1.9198323226580642 1.9510772863360772 1.9161775732052782 1.9658602443127311 1.9815935044226094 1.9494773368567193 1.9654370913419239 1.9569264879818662 1.9014245058106234 1.944692301769845 1.8027563655791765 1.7845198925173933 1.9039626904983511 1.8961325951808157 1.7965092425518772 1.8777337149127056 1.8947897627239003 1.8765760182960114 1.9521223654656932 1.7881783058268892 1.7613815008111338 1.8869699180090427 1.6434176931647866 1.6211467899594048 1.7963118804548865 1.7882586802559979 1.6346341020834985 1.763975634614229 1.4472261448213701 1.2114934033758207 1.4305924364031648 1.6427679402676936 1.4403469150896944 1.6228119070730089 1.4493250575389867 1.4288125105614615 1.6495512047935041 1.6595312763422967 1.4583144358035787 1.6415133399607671 1.6600337941100101 1.6400578015364939 1.813131270493354 1.803632273839562 1.6540519200802608 1.7855247703351222 1.9077859361264005 1.812999458100105 1.8932404786074828 1.8188355027987724 1.6719031443358368 1.8013830966600499 1.6761287229718353 1.4747792263571438 1.6588143743374533 1.4626553701462786 1.2257755104704011 1.4480828199168418 1.4650570191684593 1.4459062441983705 1.6673728920701771 1.2226336054696301 1.2060082899883899 1.4488540407691655 1.2193826229310534 0.98231757150592391 1.208172329280147 1.9755068063041088 1.9275773273551235 1.9628230877996005 1.9738260715158749 1.9630699753679133 1.994556945041899 1.9911214155123933 1.9681716039668082 1.9841530188598733 1.9650233520731188 1.9139611025290968 1.9545125656116185 1.8179675593477593 1.8004800026053145 1.9168551390412325 1.9190254851280883 1.9051294215354397 1.971661491356377 1.9207204350570868 1.8292903840177757 1.9052949029518835 1.8358107860714321 1.8158534623193154 1.9310971601830715 1.6771753802583227 1.6568516096751889 1.829711718419978 1.8362288432292824 1.6901129937651189 1.8170812387701987 1.9385666343862855 1.8481847143670511 1.9185226316442894 1.9377021770672258 1.9177616671105437 1.9821815479604286 1.863378561415362 1.8318854596171315 1.9495163223820269 1.8603193583222293 1.7096390474250018 1.8357196158019267 1.7256151736495491 1.6873617821043208 1.8744778180531065 1.713638440487967 1.4972258864645855 1.6974478079301112 1.4987851686466223 1.4754354242998384 1.7245069359477596 0.98824123405369912 0.99701874077679042 1.2244522966693259 1.2251573291418434 1.2329777583544292 1.4860877308483231 1.4894370633432248 1.4738713191594919 1.7053191687064289 1.4829895391398262 1.2390269314884466 1.4795585115767453 1.2375933001412343 1.2296590310037125 1.4783122994173317 1.6935039131741412 1.4892179627077318 1.6766113051750728 1.6961189990043524 1.6733676000924382 1.8493428989795968 1.4791390621058029 1.4611000840967203 1.6854188427743242 1.2333742388469555 1.2196739204401341 1.4647730212730758 1.2296918606626988 0.99066234785593266 1.2224583152839088 1.4756068510587037 1.236319696716661 1.4643859174701985 0.99600948806405942 0.98578892058550716 1.2133835526074657 0.99290087194665655 0.79280278051125119 0.98817896718577469 0.80679845719533672 0.67307590043147736 0.8069654215549209 0.80821135059245086 0.80496115010408364 0.97962718729083287 0.68875731184192812 0.69009083501384272 0.7896561485593232 1.2327175232314533 0.99199641378194481 1.2337492739927787 0.99560394788468431 0.79523472051711708 0.9971464378576933 0.99872511406538089 0.99440838539161247 1.2230383524471931 0.80323042683332979 0.80876101505566966 0.98030546981791988 0.98534255055376729 0.78838322442829611 1.0001345922005187 0.80274358879165708 0.67228038782994348 0.81028916072366841 0.68273334634232685 0.63100714415415426 0.69088016279357589 0.6803078980109557 0.69120374038006205 0.78282460613545213 0.78275720682929117 0.66292573968594204 0.80493898170685307 0.68939486729611843 0.63128394738130644 0.69114900317151406 0.64586760654473641 0.64786975075562181 0.6733206391939629 0.64780022993542996 0.65350888781526195 0.64784834387612567 0.66603533308587137 0.66555550235624861 0.63663176507457764 0.66807403201956961 0.71369747578594822 0.66482030238551626 0.63968629360325124 0.64907441326223014 0.66437180900197002 0.64353180479837946 0.65618495392068554 0.64723512580369724 0.66313921682483812 0.62587337755470651 0.68110636891032239 0.65579516098363744 0.68546552129401606 0.75738688429867251 0.71647689935815173 0.78851449420227759 0.91073788927582222 0.73083078608126961 0.64056807943101179 0.77911112305219898 0.82381962201402015 0.70076761227974826 0.93742511147176144 0.80304150447951828 0.95698596973383643 1.0935095984639918 1.148249096857632 0.92075170077266288 1.2319356419147598 1.1753616979919628 1.213390639210949 1.4662902116400611 1.4746468896454004 1.2183401287049502 1.4934567477361489 1.2176940838739392 0.97789845371057327 1.239399571918957 0.78034605220061748 0.80514125268855263 0.96577554863128989 0.943562399861132 0.76239269455822067 0.99058951192033873 0.94369133368268676 0.9884909555532525 1.2039101072491607 0.83080111249108046 0.82079142912682168 0.76671309340059712 0.83067149300787146 0.88014857206415165 0.82030614120141865 0.7737616211162186 0.83134401874020314 0.76465894673962054 0.70699480031285911 0.76323879687470497 0.69784809456654895 0.76571216759799154 0.82153585726663736 0.7529572926245266 0.83096637547907781 0.85674437880896226 0.79716119584917833 0.88726526006330353 0.90620868097197804 0.86001999894100623 0.88129638767685814 0.86224498814938899 0.82351469979159342 0.92485382718795939 0.91094219165259538 0.88090525204280257 0.92918548615110441 0.94215284367164909 0.90986840907734934 0.88527772690484685 0.92437978195530535 0.87766213442841179 0.88583335792267315 0.87779650945461007 0.83303490929364254 0.83822375524012038 0.88763035874199858 0.82996760281332027 0.78086448747787063 0.83912145495065837 0.77290854172754775 0.78042118797628901 0.77324965624753161 0.71316791240688704 0.83818121607449969 0.83025881683449365 0.77523842273840682 0.71987213582731513 0.77911753334738143 0.71328627209509199 0.71882520954465168 0.71368522404496726 0.66022913602844746 0.66381068334347049 0.66048577720651036 0.63659087087728139 0.66521591772733146 0.70761232037426702 0.66051808354054109 0.64690020232063494 0.64899683318583268 0.64419224251237617 0.77328403182206618 0.76497898253007368 0.70599991451577571 0.71298899970091145 0.70657961660698498 0.65547241664612577 0.7139008150296664 0.77171423658359484 0.70645021102221839 0.6603011626738825 0.70061030412394498 0.65412703075788847 0.70601624279803732 0.69797378755778194 0.64894191715056981 0.65914509765182216 0.65373871509196912 0.63290109835207187 0.64254090141506426 0.64271012770453173 0.6376870120135183 0.64172687883342816 0.6365816737950174 0.6697005088070388 0.65251290973977349 0.64502176366358188 0.62663240047520385 0.64579595664703149 0.64340483129644122 0.67391766579124202 0.6884423675118303 0.62786089033601 0.68639736597564693 0.68850709828553081 0.68480059872155685 0.78747396091443733 0.8029182380268759 0.66890118661191433 0.79907441500247633 0.804674376567175 0.79697102806755626 0.97193394424778878 0.6831345598560089 0.62177633902251017 0.67851751514657899 0.68342330230799286 0.67677036598665419 0.7804883806313716 0.63494489436846213 0.62747195282284707 0.66245787863798367 0.64366861949330845 0.63237670301872129 0.61802558821894338 0.64567798478161542 0.67943401317224716 0.63177775900859834 0.6358753463645368 0.63426994116679003 0.62847497763536875 0.6537645997887922 0.69199540034792772 0.64537467368789669 0.69739060852082402 0.68572495114862375 0.64038260522670931 0.69883306706730874 0.7516129721519047 0.68485244441809001 0.76509630065063339 0.75376323630016984 0.6972739566098588 0.82361461188885532 0.80055893245285437 0.75528376588229995 0.7554733444775712 0.73014694864977092 0.68477043422372719 0.76393807295198635 0.7938920786706184 0.72576631062114927 0.69471365857229594 0.72177316905696065 0.65573218873506722 0.68601198394749641 0.66052719011110128 0.62746988220966282 0.63804638264248281 0.65038992967939091 0.60328707033929097 0.63108197868458416 0.60755941433287075 0.60484014872869363 0.62752923581240772 0.6215052770491386 0.61449995784277711 0.67516204191599438 0.61316839466493755 0.66794995206855445 0.62561147082354995 0.61456595042478479 0.65283499506596254 0.6647088678372286 0.65257494414044404 0.75841374019288332 0.66553322135304382 0.60037792945237312 0.65321284777660449 0.78406901006991647 0.65174809901940545 0.77521153213423832 0.95724456367073973 0.76268675209852588 0.94390698665915762 0.77155726677268333 0.63842391430750667 0.75830823387462998 0.64360108193649512 0.58303045823481425 0.63390237716430486 0.61411300205132813 0.59674376742205282 0.58947446782514401 0.61199509286920784 0.59193379641080957 0.63880930239079614 0.98715443984992657 0.97379054618741667 1.1998037729892332 0.98402306264245853 0.78548303976711153 0.97594808712323999 0.79664197592143249 0.78631126814832686 0.96051856284219117 0.79477351140586505 0.66160304770377532 0.78836944151875255 0.67532838794391892 0.66637826567527414 0.77060288648508002 0.78592268591302539 0.77327110356770545 0.94658582658302504 1.1891709961884651 0.95592701544115921 1.172627854282658 0.97506538441265855 0.95932373553073447 1.1837138877042479 0.97180096122135751 0.77523860355007557 0.96142585940470038 1.205463779409367 0.97031206191792241 1.1918154068474114 1.4300635419652641 1.1948930411262226 1.4107472893778177 1.2087003595384529 1.1898525800018767 1.4312424267070467 1.6266600704748382 1.5919949467622792 1.7726107798258781 1.4325758587149007 1.4085496960210966 1.629933859743155 1.6243841006379327 1.4199415035570091 1.5963373366967697 1.4101816609807336 1.1756040380691839 1.381812244070491 1.4153552101696629 1.3757681811661566 1.6008483661700557 1.1930531141631626 1.1700493722442238 1.4107368809939922 0.96116037502666596 0.94116633234568203 1.1642876730535792 1.1770487764584607 1.1369055691260201 1.3791314813126769 1.4196267262720432 1.2671756862929862 1.5083018249060138 1.6266726745434603 1.4975598340488958 1.697165449281526 1.5995075698425267 1.3924624801304448 1.5247952556553874 1.769275969603977 1.6085948862649639 1.7065455390596627 1.7848870870892228 1.6893098062973497 1.833332875273342 0.75853599323188847 0.73298383112773435 0.90200768891705851 0.73821375319672289 0.63004188251293802 0.74261544498201026 0.65010057607824723 0.63272488041304986 0.74169059531420811 0.77322254019925152 0.75631619695914865 0.9293829168784713 1.1695738976399379 0.93900920001313692 1.1441877188585137 0.93917346808179847 0.74753941616818198 0.91848600894920107 0.94706995047690379 0.91065883053137175 1.1335132850440215 1.1380704424750387 0.91739534934962996 1.0700925797738294 1.3809688465374181 1.1498426842153513 1.3035246787613959 1.1843187032942475 1.0280013623084316 1.2800226188192252 0.95232542720035818 0.82376597547535024 1.0431602008622634 0.88692341194133972 0.74559407833558522 0.87706391839665021 0.78699168001245623 0.74899323650711869 0.8976830793048538 0.76370256343935028 0.61157873911624605 0.7016513740585294 0.6685160848312981 0.61144864559152912 0.76366485548912166 0.64810178209228619 0.5448460475167245 0.58183684326536933 0.60795684046895648 0.54483245910307831 0.64810121910826801 0.59884981895362988 0.60947995613277295 0.50845649803336113 0.54947270299453288 0.50638829912626615 0.52986069743667941 0.52993500795010562 0.50617272316532202 0.4811480622540566 0.54091971858198828 0.47183258634405917 0.5823314064257844 0.50693386782638095 0.48169064495611552 0.47249053799741647 0.58219948521458453 0.47192869253749897 0.52082893960157661 0.60654618605134181 0.52602375933359857 0.70755189895175952 0.47203680232462752 0.41906832481161466 0.51520567249055627 0.48343232056906066 0.47398253492897641 0.42569901192090337 0.48913755381085311 0.64089173163855317 0.49429405947809485 0.47264243732937439 0.48129527147051804 0.43585893159966349 0.64757507762494693 0.6705299967269831 0.49123746688099607 0.66072790962168093 0.78572394037046134 0.66479410945797979 0.77984781677381376 0.84476835365482172 0.77127154379976415 0.78541017170973804 0.7853663984337369 0.66084103620881463 0.85162691291452897 0.84406086002966996 0.78011147665440772 0.50887922238992622 0.60889771678796045 0.49916155609094015 0.61656332791157653 0.64156485950060405 0.48867017224511622 0.62990745050660668 0.78892450875772346 0.64764548762159235 0.76853628476818037 0.78866118762445681 0.62993841648899451 0.60277205863445826 0.76295480393504911 0.62361677988118969 0.7750551122881475 0.85590887346778588 0.773548545403689 0.86167409593137911 0.85506177469976996 0.77540016139454826 0.85500887026137062 0.89780522394291373 0.84542335165860982 0.73685115687342451 0.86775765221298229 0.75969727495174444 0.84605615309999227 0.89900386040176816 0.84105460527146902 0.90014918628639573 0.89823730237114152 0.84630425561689981 0.90111349023366805 0.93620523629816621 0.89514205024976246 0.943932591671647 0.93541482488864391 0.90136712517615103 0.94685861315787956 0.94906853126159529 0.92812967073839181 0.90402789530694838 0.89694759026137327 0.8552818971974977 0.89983110087006835 0.9378087189635641 0.89629256748782027 0.85212160397397119 0.90864718445285675 0.85038659700004648 0.84626289827157586 0.86679828162119299 0.73728680026297932 0.69260454677913663 0.71627173207573314 0.60726762041002325 0.69412537951588904 0.83772489331831468 0.72611908433642391 0.64502021105479435 0.69045096867792666 0.61958132312639669 0.64567688831881898 0.60849869740309481 0.5989522014687273 0.59915189693211823 0.60837691775217129 0.55539368204306738 0.60577546442320851 0.55116455790095153 0.59412896541718496 0.59420896567750747 0.55105668802542573 0.53515944024378181 0.5465794496526154 0.59627536013066273 0.51968491284967511 0.72625773144147399 0.76289786734061071 0.60263261000151858 0.60757335539776069 0.71616298311006132 0.60965833682132742 0.6081267096360562 0.5966385477717876 0.546275353441248 2.4052622312046488 2.9023305129473607 1.9276563499963295 1.874130616469631 2.4890888123326684 1.3338285979206048 1.9277760457798987 2.9029304782585124 2.4528341418117576 1.3349478157277077 2.4886317693136548 1.8985594028765351 1.2978199997445938 1.846477984276764 0.86761957841036552 0.7160651808038947 1.2577164318301597 0.95924004002958274 0.74851284025131903 0.8694576267548052 0.72946573906511092 0.82755640780332518 0.77816136464831642 0.78421949222863874 0.7675802366671659 0.89527215403574834 0.81586867473949043 0.87447359523653045 1.8036624900953404 1.3551904800184895 0.88463853533415082 1.2583821933439525 0.7150331291957851 1.1978964523607514 1.80439431707732 0.87317202946010997 0.76927789364836985 0.89509295556365875 0.76739960484681624 0.89005081899293526 0.82772078660320736 0.89173723708648234 0.89122930139157663 0.82865320016659105 0.83836589954377549 0.89154360393830823 0.8532113294891176 0.85001397343267437 0.79771732310530175 0.77741823335332128 0.82792998365795933 0.84232672687326893 0.78701302012293128 0.83667950817784509 0.84577472345340676 0.83490042167083378 0.77053629967582782 0.84959691404384841 0.85406236196504193 0.82362351806023093 0.77299613719464966 0.84237431778727412 0.76607980247266283 0.7810427006611218 0.77449731926356946 0.6745361148518324 0.84602952759692951 0.84176632629310377 0.77321586269891518 0.846663242597681 0.89110438362082811 0.83736018275569446 0.90379038234029463 0.89035105511986568 0.84694880410614148 0.90742858497221479 0.9007241040183539 0.8797316791590446 0.94046085527388457 0.88259385423488312 0.8879031829847176 0.93910269588579209 0.89986018417452329 0.90781507075999057 0.94530345359770884 0.88175105483304561 0.94087634400297404 0.94261545781302269 0.86173242106848591 0.8761579934314363 0.80457960799133188 0.86023316004226558 0.83157929086304727 0.77530540933181236 0.99608973483442198 0.91113858915905643 0.97407121238101901 1.5510487217913242 0.80202599502054461 0.82497558609705279 1.1762557333350863 0.73541314747699116 0.83155579066418539 0.86062246174021928 0.83536951325932673 0.85209263724725148 0.81143162928791257 0.88076814861818753 0.88041450549872535 0.81216083901210956 0.82566741715156122 0.73614252168226335 1.1759845914768459 0.97142548858129629 1.211818780279428 2.3350658556823478 1.858563851710211 1.6450531699362865 2.7266471113072028 2.3284477979772649 1.6124565091647032 2.3353101650517814 1.2108660579600332 0.8029491702492878 1.5507135756340404 1.2576113111452782 0.963104926526542 1.9303771017999143 1.6124385506385759 2.0728052332316094 2.9427166244228076 2.6704255807998516 2.0308991704076238 2.7263207741946354 1.6447044426970909 2.9672269725623761 3.1066438922758635 2.7915018330381125 2.9765946766507168 3.0850217380355027 3.0481028805383419 2.7905480941793601 3.1079017989844915 2.9903830767467685 2.7695397489939308 3.0733721975307646 2.4491773444898768 2.4485055604871291 3.0745939196540846 2.8151543744084098 3.0878337722911851 3.0062341978873168 3.0985109807296056 3.0966917929639024 3.0407586123618326 3.0697179559017003 3.0981022981156503 3.0065855741598217 3.0218802701844978 3.0690863492916471 3.0413802265404657 3.0448410364031351 3.0618685148780909 3.0840568346279249 2.9774528926121695 2.40581021470451 3.0374118355197219 2.8746982498949034 2.3721476716792402 2.9420372916801081 2.0729819223161536 1.1616015146062035 2.2661868147187443 1.9705812423369271 1.3596757837563593 2.5281926665318215 2.2856937623919285 2.5916785605165318 3.0366674958274551 2.406259556816877 2.6062613280160689 3.0901099931666929 2.9931314316774658 2.7000627553235388 3.0895046750480151 2.6067253667137167 1.5327463446796199 2.5279999793796493 1.3593638968371864 0.84157707048654973 1.3663889977760646 0.77189939304277289 0.77243283232736049 1.3663456003781287 1.2324739421808022 0.78911411880109217 1.1867047604636629 0.74714428276083178 1.3614901597597895 2.2661042058173169 1.1610846934531136 1.1685986810971929 1.9305100819115071 0.96233076458161304 0.77634498297750365 0.99598852047668862 0.77499313828921867 0.74765687399885294 1.1866661990106846 1.0573617462762273 0.92762800238974152 0.85103643789585992 0.86272094693903301 0.9321210112200613 0.86104645966809434 0.94293658232725897 0.91498350630939429 0.85054423602781304 0.92780093979399914 0.91114990975833776 0.84877594347652985 0.85515240506437196 0.90208844118042786 0.84843994050172833 0.9112000850755918 0.89924921141061753 0.85067964817604569 0.85298700474672051 0.89253252608749267 0.85393562812880497 0.85383692858631788 0.89452131757763931 0.85045211339282489 0.89922297611337421 0.8924248765837427 0.85377712000850448 0.89247632285159118 0.89160887926999988 0.85645425852172796 0.8550601323494218 0.93602503176819007 1.5465845413239614 0.90819622364172714 0.9382322842770856 1.5645770473049023 1.5426920649453937 1.719795908013148 2.7784200621963735 1.6733458623240876 1.6628768485280163 2.6957938776699923 1.5396707038558568 0.90850454763094435 1.5466354136610196 1.4842306273564518 0.90390137109674229 1.4873377600394537 0.83900058745109485 0.8394368910437201 1.4873456466127031 1.3830583464024186 1.5398537791347282 2.696004336673651 2.5246554561413004 2.7005638887984369 3.1376114361759391 3.075533123832757 2.7396310696979005 3.1372066127641807 2.700907452982444