<?xml version="1.0"?>
<VTKFile type="UnstructuredGrid" version="0.1" byte_order="LittleEndian">
<UnstructuredGrid>
<Piece NumberOfPoints="2400" NumberOfCells="800">
<Points>
<DataArray type="Float64" NumberOfComponents="3" format="ascii">
0 0 0 0.050000000000000037 0 0 0 0.049999999999899652 0 0.050000000000000037 0 0 0.050000000000000037 0.049999999999899652 0 0 0.049999999999899652 0 0.050000000000000037 0.049999999999899652 0 0 0.049999999999899652 0 0 0.099999999999814668 0 0 0.099999999999814668 0 0.050000000000000037 0.099999999999814668 0 0 0.14999999999970359 0 0.050000000000000037 0.049999999999899652 0 0 0.099999999999814668 0 0.050000000000000037 0.099999999999814668 0 0.050000000000000037 0.049999999999899652 0 0.050000000000000037 0.099999999999814668 0 0.099999999999999978 0.049999999999899652 0 0.050000000000000037 0.099999999999814668 0 0.099999999999999978 0.099999999999814668 0 0.099999999999999978 0.049999999999899652 0 0.050000000000000037 0.099999999999814668 0 0.099999999999999978 0.099999999999814668 0 0.050000000000000037 0.14999999999970359 0 0.099999999999999978 0.099999999999814668 0 0.099999999999999978 0.14999999999970359 0 0.14999999999999999 0.099999999999814668 0 0.099999999999999978 0.099999999999814668 0 0.099999999999999978 0.049999999999899652 0 0.14999999999999999 0.049999999999899652 0 0.099999999999999978 0.049999999999899652 0 0.099999999999999978 0 0 0.14999999999999999 0 0 0.050000000000000037 0 0 0.050000000000000037 0.049999999999899652 0 0.099999999999999978 0 0 0.050000000000000037 0.049999999999899652 0 0.099999999999999978 0.049999999999899652 0 0.099999999999999978 0 0 0.050000000000000037 0.24999999999941211 0 0 0.24999999999941211 0 0.050000000000000037 0.19999999999955789 0 0 0.24999999999941211 0 0 0.19999999999955789 0 0.050000000000000037 0.19999999999955789 0 0 0.19999999999955789 0 0.050000000000000037 0.19999999999955789 0 0.050000000000000037 0.14999999999970359 0 0 0.19999999999955789 0 0 0.14999999999970359 0 0.050000000000000037 0.14999999999970359 0 0.050000000000000037 0.099999999999814668 0 0 0.14999999999970359 0 0.050000000000000037 0.14999999999970359 0 0.099999999999999978 0.099999999999814668 0 0.050000000000000037 0.14999999999970359 0 0.099999999999999978 0.14999999999970359 0 0.099999999999999978 0.14999999999970359 0 0.099999999999999978 0.19999999999955789 0 0.14999999999999999 0.14999999999970359 0 0.050000000000000037 0.19999999999955789 0 0.099999999999999978 0.14999999999970359 0 0.099999999999999978 0.19999999999955789 0 0.050000000000000037 0.19999999999955789 0 0.050000000000000037 0.14999999999970359 0 0.099999999999999978 0.14999999999970359 0 0.050000000000000037 0.24999999999941211 0 0.050000000000000037 0.19999999999955789 0 0.099999999999999978 0.19999999999955789 0 0.099999999999999978 0.19999999999955789 0 0.099999999999999978 0.24999999999941211 0 0.14999999999999999 0.19999999999955789 0 0.050000000000000037 0.24999999999941211 0 0.099999999999999978 0.19999999999955789 0 0.099999999999999978 0.24999999999941211 0 0.14999999999999999 0.24999999999941211 0 0.20000000000000001 0.19999999999955789 0 0.20000000000000001 0.24999999999941211 0 0.099999999999999978 0.24999999999941211 0 0.14999999999999999 0.24999999999941211 0 0.14999999999999999 0.19999999999955789 0 0.14999999999999999 0.24999999999941211 0 0.14999999999999999 0.19999999999955789 0 0.20000000000000001 0.19999999999955789 0 0.14999999999999999 0.19999999999955789 0 0.20000000000000001 0.14999999999970359 0 0.20000000000000001 0.19999999999955789 0 0.14999999999999999 0.19999999999955789 0 0.14999999999999999 0.14999999999970359 0 0.20000000000000001 0.14999999999970359 0 0.099999999999999978 0.19999999999955789 0 0.14999999999999999 0.19999999999955789 0 0.14999999999999999 0.14999999999970359 0 0.099999999999999978 0.14999999999970359 0 0.14999999999999999 0.14999999999970359 0 0.14999999999999999 0.099999999999814668 0 0.14999999999999999 0.14999999999970359 0 0.20000000000000001 0.14999999999970359 0 0.20000000000000001 0.099999999999814668 0 0.20000000000000001 0.14999999999970359 0 0.25 0.099999999999814668 0 0.25 0.14999999999970359 0 0.20000000000000001 0.19999999999955789 0 0.25 0.14999999999970359 0 0.25 0.19999999999955789 0 0.20000000000000001 0.14999999999970359 0 0.20000000000000001 0.19999999999955789 0 0.25 0.14999999999970359 0 0.20000000000000001 0.19999999999955789 0 0.20000000000000001 0.24999999999941211 0 0.25 0.19999999999955789 0 0.20000000000000001 0.24999999999941211 0 0.25 0.24999999999941211 0 0.25 0.19999999999955789 0 0.14999999999999999 0.049999999999899652 0 0.20000000000000001 0.049999999999899652 0 0.20000000000000001 0 0 0.14999999999999999 0 0 0.14999999999999999 0.049999999999899652 0 0.20000000000000001 0 0 0.099999999999999978 0.049999999999899652 0 0.14999999999999999 0 0 0.14999999999999999 0.049999999999899652 0 0.099999999999999978 0.099999999999814668 0 0.14999999999999999 0.049999999999899652 0 0.14999999999999999 0.099999999999814668 0 0.14999999999999999 0.14999999999970359 0 0.14999999999999999 0.099999999999814668 0 0.20000000000000001 0.099999999999814668 0 0.14999999999999999 0.049999999999899652 0 0.14999999999999999 0.099999999999814668 0 0.20000000000000001 0.049999999999899652 0 0.14999999999999999 0.099999999999814668 0 0.20000000000000001 0.099999999999814668 0 0.20000000000000001 0.049999999999899652 0 0.20000000000000001 0.099999999999814668 0 0.20000000000000001 0.049999999999899652 0 0.25 0.049999999999899652 0 0.20000000000000001 0.14999999999970359 0 0.20000000000000001 0.099999999999814668 0 0.25 0.099999999999814668 0 0.20000000000000001 0.099999999999814668 0 0.25 0.049999999999899652 0 0.25 0.099999999999814668 0 0.20000000000000001 0.049999999999899652 0 0.25 0 0 0.25 0.049999999999899652 0 0.20000000000000001 0.049999999999899652 0 0.20000000000000001 0 0 0.25 0 0 0.25 0 0 0.25 0.049999999999899652 0 0.29999999999999999 0 0 0.25 0.049999999999899652 0 0.29999999999999999 0.049999999999899652 0 0.29999999999999999 0 0 0.29999999999999999 0.049999999999899652 0 0.29999999999999999 0 0 0.34999999999999998 0 0 0.29999999999999999 0.049999999999899652 0 0.34999999999999998 0.049999999999899652 0 0.34999999999999998 0 0 0.34999999999999998 0.049999999999899652 0 0.34999999999999998 0 0 0.40000000000000002 0 0 0.34999999999999998 0.099999999999814668 0 0.34999999999999998 0.14999999999970359 0 0.40000000000000002 0.099999999999814668 0 0.34999999999999998 0.049999999999899652 0 0.34999999999999998 0.099999999999814668 0 0.40000000000000002 0.049999999999899652 0 0.29999999999999999 0.049999999999899652 0 0.34999999999999998 0.049999999999899652 0 0.29999999999999999 0.099999999999814668 0 0.34999999999999998 0.049999999999899652 0 0.34999999999999998 0.099999999999814668 0 0.29999999999999999 0.099999999999814668 0 0.34999999999999998 0.099999999999814668 0 0.29999999999999999 0.099999999999814668 0 0.29999999999999999 0.14999999999970359 0 0.29999999999999999 0.049999999999899652 0 0.29999999999999999 0.099999999999814668 0 0.25 0.099999999999814668 0 0.25 0.049999999999899652 0 0.29999999999999999 0.049999999999899652 0 0.25 0.099999999999814668 0 0.29999999999999999 0.099999999999814668 0 0.25 0.099999999999814668 0 0.25 0.14999999999970359 0 0.25 0.14999999999970359 0 0.29999999999999999 0.14999999999970359 0 0.25 0.19999999999955789 0 0.29999999999999999 0.14999999999970359 0 0.25 0.19999999999955789 0 0.29999999999999999 0.19999999999955789 0 0.29999999999999999 0.099999999999814668 0 0.25 0.14999999999970359 0 0.29999999999999999 0.14999999999970359 0 0.25 0.24999999999941211 0 0.25 0.19999999999955789 0 0.29999999999999999 0.19999999999955789 0 0.25 0.24999999999941211 0 0.29999999999999999 0.19999999999955789 0 0.29999999999999999 0.24999999999941211 0 0.29999999999999999 0.24999999999941211 0 0.34999999999999998 0.19999999999955789 0 0.34999999999999998 0.24999999999941211 0 0.29999999999999999 0.19999999999955789 0 0.29999999999999999 0.24999999999941211 0 0.34999999999999998 0.19999999999955789 0 0.34999999999999998 0.19999999999955789 0 0.34999999999999998 0.24999999999941211 0 0.40000000000000002 0.19999999999955789 0 0.34999999999999998 0.099999999999814668 0 0.29999999999999999 0.14999999999970359 0 0.34999999999999998 0.14999999999970359 0 0.29999999999999999 0.19999999999955789 0 0.34999999999999998 0.19999999999955789 0 0.34999999999999998 0.14999999999970359 0 0.29999999999999999 0.14999999999970359 0 0.29999999999999999 0.19999999999955789 0 0.34999999999999998 0.14999999999970359 0 0.34999999999999998 0.19999999999955789 0 0.34999999999999998 0.14999999999970359 0 0.40000000000000002 0.14999999999970359 0 0.34999999999999998 0.14999999999970359 0 0.40000000000000002 0.14999999999970359 0 0.40000000000000002 0.099999999999814668 0 0.34999999999999998 0.19999999999955789 0 0.40000000000000002 0.14999999999970359 0 0.40000000000000002 0.19999999999955789 0 0.40000000000000002 0.19999999999955789 0 0.45000000000000001 0.19999999999955789 0 0.45000000000000001 0.14999999999970359 0 0.40000000000000002 0.14999999999970359 0 0.40000000000000002 0.19999999999955789 0 0.45000000000000001 0.14999999999970359 0 0.40000000000000002 0.14999999999970359 0 0.45000000000000001 0.14999999999970359 0 0.45000000000000001 0.099999999999814668 0 0.34999999999999998 0.24999999999941211 0 0.40000000000000002 0.24999999999941211 0 0.40000000000000002 0.19999999999955789 0 0.40000000000000002 0.24999999999941211 0 0.40000000000000002 0.19999999999955789 0 0.45000000000000001 0.19999999999955789 0 0.40000000000000002 0.24999999999941211 0 0.45000000000000001 0.24999999999941211 0 0.45000000000000001 0.19999999999955789 0 0.45000000000000001 0.24999999999941211 0 0.45000000000000001 0.19999999999955789 0 0.5 0.19999999999955789 0 0.45000000000000001 0.24999999999941211 0 0.5 0.19999999999955789 0 0.5 0.24999999999941211 0 0.45000000000000001 0.19999999999955789 0 0.45000000000000001 0.14999999999970359
[...]
<PointData Scalars="tracer_conc," Vectors="" Tensors="">
<DataArray type="Float64" Name="tracer_conc" format="ascii">
1.9998827189530619 1.9996986658954969 1.9990990108904101 1.9997777968902861 1.9984665275820515 1.9990891014817582 1.9984443358408883 1.9992238747651967 1.9967023116779803 1.997028823251928 1.994745249415437 1.9903028406229188 1.9985093456454477 1.9968166903698594 1.9946495187299609 1.9990120286903317 1.9937034984620126 1.9949233359656424 1.9938674938057657 1.9866329810453252 1.9951793775660005 1.995645625826256 1.9850202606341631 1.9828508997853573 1.9882294967332694 1.9622083674660988 1.9647644596447658 1.9844749367856886 1.9968078191181449 1.9864770813907733 1.9947503735149203 1.9996292981446824 1.9962590025600566 1.9999420316481453 1.9981172115624855 1.9987802485545476 1.9981296067700172 1.995733613333196 1.9989631327184816 1.9238622282542224 1.9502072901728733 1.9626619855362533 1.9463166851630203 1.9771924425468617 1.9655456860219749 1.9773182706676677 1.9639205656195211 1.9845474363252991 1.975653049900767 1.9910652054584501 1.9855082607682981 1.9945777654810199 1.9908632405647273 1.98498279324402 1.9852940102374033 1.9833524744310251 1.9661761653451499 1.9679480452596758 1.9205238856136488 1.9234671111647557 1.9609034115039559 1.9635959799140028 1.9266281363901887 1.9598710455941022 1.986394136103401 1.9634333413284826 1.9172911909240549 1.9652982993363559 1.9226569473857971 1.9277464895448446 1.8521397612580419 1.8551642174231151 1.9190111158881693 1.9224483291590129 1.8599977926794751 1.7550541911082986 1.7539409663149312 1.6323816110372056 1.8536768834938102 1.7618941979477645 1.8546270015356363 1.7535091874809983 1.860325445285459 1.7550299798016284 1.8543730766497599 1.8547814547945636 1.761242646335478 1.8528009754734593 1.9293324090770765 1.8554236725068072 1.9217642352860991 1.8609428100441017 1.9233867081170641 1.9630041679073384 1.928166480929483 1.9649610784727711 1.9230211929590177 1.861688597294284 1.9248604298643195 1.8549410852119219 1.8551665185662833 1.7600190003400902 1.7543326963427366 1.7521856586236801 1.6295179729662501 1.860962008093983 1.7524898774922386 1.753566649820739 1.757972096973994 1.6256785882954363 1.6248452536092655 1.6271566802812583 1.4839831242917512 1.6233611238468926 1.9863614711518673 1.9709138419036045 1.9898165145933735 1.9981885392363463 1.9860443097073188 1.989481839967842 1.9948298593571048 1.9965658229703742 1.9883699132706603 1.9848272895700672 1.9868029794580049 1.9679945427630783 1.9217409535242285 1.9698661815517684 1.9250570776758187 1.9901007666334889 1.9637929994244552 1.9672753306024808 1.9645409793208315 1.9302542379344005 1.9674671952624558 1.9233095124863044 1.9730337380855918 1.9283027018303036 1.8530299541192639 1.9314618532592926 1.856219146857941 1.92480438319603 1.9277987254310371 1.8629509238256183 1.9671821991890908 1.9727554598323691 1.9340509179313383 1.9661267030571579 1.993180754613705 1.9729847614941189 1.9786777904785886 1.9255578447547959 1.9367295872574795 1.9284677434623039 1.865015275088046 1.9343472618244388 1.8525503214474173 1.9427059556724382 1.8652483871999341 1.8590621917376964 1.7515834007023581 1.8580015594870145 1.7380933719205383 1.8657140392840381 1.7400577074663512 1.6081907695392463 1.4670452860983614 1.4511571453859808 1.7473142084283071 1.6085585856432083 1.5926920728132252 1.86421713082047 1.7465722030851689 1.7476712429569492 1.7426759727280119 1.6150033632068488 1.7516119421307159 1.6115905904738796 1.7536247906881033 1.6175564982731492 1.8560448085434089 1.7577415257834503 1.8560983830178319 1.9355395195541942 1.8580598758085523 1.8534337862486288 1.7512528867921107 1.8620416459887112 1.7507106672213555 1.7564253783509947 1.6201485540191678 1.6226189350113889 1.6183549520301983 1.6245007183121896 1.4784336347218046 1.749134670092332 1.7532255386287134 1.6245859450893179 1.4811582698453263 1.6238346867185154 1.4771060708711261 1.4824263119090637 1.4758289132219253 1.3365956676058015 1.3394391326840986 1.3310195886285885 1.2101173851118361 1.4719970457399552 1.3385858423628318 1.3313744747059346 1.3238230580858794 1.2159342567278109 1.2069645293508069 1.6090303577324119 1.620241224794404 1.4687111114017986 1.4773842100514227 1.3288533786922996 1.4669245943130844 1.618457560748344 1.4758713554802683 1.4682115237681914 1.3316650119949582 1.4619808289762131 1.3188519527913283 1.4688535705806178 1.3152923767783944 1.4499405861145669 1.3322700227357844 1.3190995361898685 1.2017240210345583 1.2081661395404957 1.1094113845764673 1.1951491899138291 1.3103050048314639 1.208658540364977 1.1932099473945161 1.3197886503799305 1.187522248950341 1.2966028883067062 1.2162761024300022 1.1165760674964169 1.2077012413211401 1.1239612155649028 1.199350767987565 1.1153102403459498 1.123845687749683 1.057087150316729 1.1167493830251478 1.0638044161750491 1.1094288569602837 1.0571454790184351 1.0634346571096989 1.0586592051905184 1.0245864407815821 1.117719321909914 1.185336140355524 1.1034655367944557 1.1164059894786649 1.1063115030196593 1.0523050610148752 1.1938729042650591 1.1728903129589041 1.0983015229405335 1.1968589538579411 1.2843737887329743 1.1677333316398939 1.3000768350761944 1.3966925358933349 1.2416486543397869 1.2943797700983826 1.1630735421010021 1.250806136967336 1.4101260996486626 1.2360776922020187 1.3197196866120104 1.5037207661485732 1.4206935065125117 1.3084129656674177 1.5325859199214811 1.4024244928075553 1.5974008763584027 1.548994395781381 1.7239832132300765 1.5856320052662758 1.7492503400183332 1.7258866777461614 1.5910456517049307 1.6127243417955515 1.5884399291468492 1.4494109853950192 1.3201500743672137 1.294613703176134 1.4424900651205499 1.2890182567042179 1.4123530748011124 1.4527513600503597 1.4122070712726544 1.5843385295673473 1.4513094956663448 1.0127809369958023 1.0056480928074591 1.0053280276871219 1.0057968739439944 1.0011715982456557 1.0055188029413091 1.0145902277993388 1.0039218489636648 1.0137342216978267 1.0114260348636035 1.0323492776487564 1.0339624298170567 1.0143144704034746 1.0040222312450384 1.0149530968278169 1.0050142549468706 1.0015220103067748 1.0059483978824553 1.002030230792643 1.0017048672780551 1.0003863415667451 1.0048408449990816 1.0018948210108209 1.0018321178232703 1.0016184745372383 1.000546188854859 1.0005559134452575 1.0005940199382017 1.0000758155800404 1.0005054265876918 1.0020133509553764 1.00192286179447 1.0002756893684843 1.0019489317550887 1.0047891717751296 1.0018361721455964 1.0056323777277172 1.0052479813506079 1.0011580543627592 1.0139720601870887 1.0130123760754921 1.0036947492611592 1.0138282554475906 1.0281219786818074 1.0126354804110231 1.0055131585755821 1.012221987587965 1.005073248168652 1.0313018252751371 1.0291095087624542 1.010182329942779 1.0583890539896017 1.0312611718513971 1.0283374423225964 1.1165219219814331 1.0623325370685648 1.066816421788817 1.0632789664563143 1.0265008104821944 1.0670044737555391 1.1232307199562397 1.0604207168081821 1.1284954115977912 1.0143430517088829 1.0134114644264831 1.0295551900063644 1.0304392879805748 1.0617158996654019 1.0325831654329345 1.0108862487435883 1.0310137680994562 1.0328716226188961 1.066358096555184 1.027920018806878 1.069392261527278 1.0318781014901079 1.0640269383021883 1.0335264512271805 1.065702771664512 1.0689082279609758 1.1211331779420761 1.0627529300278729 1.1273770411252442 1.1315643017972778 1.1269246436635405 1.2129476020255587 1.1308826429250833 1.0679428643209299 1.1242662121855949 1.0703847140715446 1.207669423594339 1.1224458842162992 1.1280772341911993 1.2151199267729904 1.1212376996877409 1.2213064116280321 1.3316625419213783 1.2149261385057495 1.2206307807996621 1.3379516616933471 1.2153907461512965 1.3439275497763019 1.4778252072895652 1.3385923269924498 1.3430260261731348 1.219781222676519 1.1243907842345915 1.2246250226868733 1.2198764873410441 1.3366120962973376 1.2238051723741237 1.1298683950828858 1.2165034335975078 1.1328568611791354 1.1265157012837297 1.0694714480343595 1.0714381434323796 1.0700602703154998 1.0295846532271489 1.0721273095245916 1.1301337428152081 1.133678271538902 1.0644204098927721 1.0684427470668589 1.0710358216980433 1.0289620058107807 1.0656947409344131 1.0328733727238766 1.0341533606177615 1.0334007421419991 1.0117138943856856 1.0346342121749323 1.0139617104347127 1.0306037216894406 1.0146638191832626 1.0053668354838921 1.0056335455674403 1.0129369377435267 1.0140638391750367 1.0148340394332585 1.03095053562524 1.0049485504717905 1.0131378883634214 1.0154897259793192 1.0138468716216471 1.030905312607191 1.0361101670053545 1.033073769939022 1.066343752412902 1.0348678005593062 1.06539001693376 1.0339044742758787 1.075497357325307 1.0698466932703892 1.0733308579771159 1.1275589358544176 1.132234277834635 1.065540447783295 1.1352643562002507 1.2228599837474468 1.1266213045955156 1.2269366666852184 1.1318760400996404 1.1343884278734853 1.2190500294518929 1.2254197057389922 1.3422246161371369 1.2278820148469238 1.1283457364495122 1.2251118632913391 1.2289686294717246 1.2213946984277524 1.348975133490832 1.3451668688501461 1.3468529590934089 1.4864177263865943 1.488709146727873 1.3469660582762892 1.2236689023673561 1.3508887162343375 1.2139920507729445 1.1404191548692846 1.2393502114439174 1.0732441286275869 1.1245653837925247 1.1417461115721135 1.1325839913326345 1.220427953457905 1.1382172210815031 1.6270324500478226 1.4823589746870149 1.484553598468048 1.4810494984414533 1.3414099126774217 1.4856545509318464 1.3431299457964199 1.4815262223202454 1.3460120578129247 1.3423033208531852 1.2189041360123425 1.3469128728282544 1.2231440722790834 1.2260378289069991 1.339939066360992 1.3480120796576811 1.3461932962062095 1.4839109704300917 1.4896761138368078 1.6282441448113789 1.6293706144156359 1.4857718776002831 1.4867137857598658 1.6289844140635272 1.4843557627195958 1.3446034002301519 1.4877548114171544 1.6263794292253768 1.4874461461500625 1.6288394128140227 1.7550130935712713 1.6341021360715302 1.7550226194361738 1.7588425554325011 1.627778940607884 1.6275485627704644 1.9242241039126264 1.8552299696562788 1.8478784241477542 1.8593955676845599 1.7561223116753646 1.7534268123302443 1.854284185725174 1.7617181917119475 1.8503428362224443 1.7552221968796873 1.634668448897183 1.7513085826768151 1.7572464979355931 1.7481473487257841 1.8550608326738549 1.6298604872694504 1.7586842123661368 1.6278871719203551 1.4882574088132738 1.6294658733896938 1.4872902801968835 1.6319756790153166 1.7537463477303263 1.621925311844765 1.7716546629296823 1.8202681159363561 1.7036682840047146 1.8141015559351958 1.8646094578134342 1.8989325074459222 1.758909471531009 1.8269618017018763 1.8523026066584862 1.9211591941881923 1.8569978472835647 1.9022137052994885 1.9277284536948498 1.9490574207130218 1.8945885969543659 1.3514620125813348 1.4808401821220336 1.3527893201572763 1.240226182930189 1.3320901548702315 1.3630902461733563 1.2267634467811437 1.2337692795048623 1.3432046851631652 1.3485266594222922 1.3491766763842814 1.4847747232458692 1.6287311458146865 1.4908796711066803 1.6257370273400586 1.349245025746393 1.4865458324572915 1.4870074006612313 1.4911347303477633 1.6242955576137414 1.4819939900262968 1.6236084230431729 1.5963955247066977 1.4911290336507996 1.7520917862106928 1.6326179305854904 1.7226219939567611 1.6509703683342236 1.711497627365953 1.5709543088643585 1.5809364706310303 1.5127657727143209 1.4399597862238553 1.4647275903498311 1.3682074475983053 1.4805486703146502 1.395091346553688 1.4940788477721187 1.4017406701975506 1.3803035402076698 1.3691032420246223 1.2629614860308402 1.2712251097031642 1.3803033848105188 1.2629610939018363 1.2557595887064772 1.2354126863607031 1.1490447133389625 1.1682699775571241 1.2557597390452184 1.1490439876857839 1.0367219817514286 0.99721813048415564 1.0071253365750119 1.1321174873091828 1.0366023036487875 1.0684854611285708 1.1321168116942018 1.0366035034549332 1.1071876436693571 1.2397126054650327 1.1446291764981344 1.1068619111050941 1.0366416046926779 1.1026683763014944 1.0145567346697235 1.2397122166921284 1.106862963894504 1.2165882693454226 1.375187873561347 1.2589185953186648 1.2262866228432237 1.105856579872684 1.2154111141809787 1.0745990097132279 1.0755875124524485 1.0159525821166779 1.0012847652387673 1.019262952296524 1.0120374049288037 0.99488457346447245 1.1026675530477861 1.0815106962684615 1.0145581129373635 0.99503743411487744 1.0086853921729095 0.99624060607337606 0.99882902010711649 0.9988165495441127 0.99885269268203736 1.0006606160920821 0.99738724278803226 1.0052978559961034 0.99881657521594269 0.99885266119794403 0.99730902927286591 0.99738723787430661 1.0052978617517667 1.0000805486149895 1.0367213456876956 1.0240764691969504 0.99721901705122151 1.0192634328872752 0.99488390094644219 0.9989347712603146 1.0001480612155897 0.99725376914946773 1.0018509494995456 0.99725363315281412 1.0018510606443738 0.99744111492906407 1.0038581969929439 0.99676762949839315 1.0085868120418324 0.99892050207914396 0.99828281779533179 0.99971754125930024 0.99828281715786715 0.999717542410265 0.99778149374769221 1.0009982734370015 1.0042289868117238 0.99751903641162243 0.99937942712317174 0.99806412141878631 1.0005936759566632 1.0065517188186925 1.0130683980809068 1.0004694858127952 1.0130683980914226 1.0004694857951186 1.0067922292301807 1.0114154033253138 1.0134795912316108 1.0088748642728467 1.0134795912247188 1.0088748642779963 1.0158831512476698 1.007252611859673 0.99954810872865518 1.0198599806170976 1.0042289891012284 0.9975190341177026 0.99911291280994607 1.005192800696483 0.99910871250342426 1.009375612195331 0.99891482624589079 0.99865490012237734 0.99911902356599114 0.9980640645965051 1.0005937302618366 0.99836598561120815 0.99815134661179483 1.0229595213694167 1.0076604943950365 1.0020443864256432 1.0064596814143363 0.99799820409620499 1.0412944766354433 1.0258976184053661 1.0089703159243864 1.0484296096803623 1.0843974035576232 1.0290518106881399 1.084396920315543 1.0290525593634998 1.063304766174721 1.0947835637250087 1.1548377371252001 1.0723055723574373 1.1548373459054828 1.1312428292395713 1.0723064182051261 1.0421244366007221 1.0613202738203491 1.0061506412154102 0.99676729400140585 0.9993240552203988 1.0085870910747254 0.99815190358196293 1.0229590521232692 1.0121709218417736 1.0264033772404835 1.0613209557407306 1.0061496783370221 2.9737737065927541 2.024118954188785 2.4753307439389176 1.9683849409828471 2.6039574746083658 1.4447230445212513 2.973773706589379 2.0241189541902278 2.5598216350373644 2.6039574746083951 2.0392022394379787 1.4447230445212675 1.9922548274270715 0.97959985424623475 1.4038148123984602 1.0720794796351594 1.3607535154332733 0.79859881414108247 0.97366805799077116 0.84436789506866861 0.83056449365058316 0.90731649287944183 0.86084776897604709 0.94644804985271336 0.90554608190017771 0.96374458358440807 0.84392413894035767 1.8962585709494775 1.4597324456977909 0.94617229833975547 1.3607535154332691 0.79859881414109679 0.95424605102269744 1.8962585709494799 0.94617229833975869 1.2608006189072363 0.96374458358446691 0.84392413894029883 0.82140197684647076 0.90738347963771993 1.0117332907625298 0.9687571607422476 0.90738347963743604 0.96113944294308129 1.0117332907628742 0.97470801614147917 1.0233561050377782 1.0111879791291432 0.86084776897560766 0.87474724727950282 0.94644804985310971 0.90619926078582058 0.9617891744255388 1.0146955365271544 1.0131423304270222 1.0177097121784664 1.0087050741361021 0.97470801616042946 1.0027175218176851 1.0233561050281261 0.9999009222259202 1.0135492129886388 1.0051841351981046 0.99723881366124378 0.99925846599697288 1.0033087662798821 0.99990092037058209 1.0080754463407589 1.013549215198505 1.0114482371819393 1.0110989177129028 1.010674744631548 1.011448237276952 1.0183851597999309 1.0106747445287743 1.0233696239019334 1.0010997941797442 0.98022182883506159 1.0188834854837328 0.96932207588745523 0.9335277245183955 1.0233696239007974 1.0166173362832076 0.98022182882717279 1.0188834854858548 0.93352772451644495 0.99536623517084488 0.9294307744762329 0.89443128784822845 0.99306620471300522 0.88119580674902875 0.90011666434009741 0.83580352726769835 0.95354802849404474 1.0270772192496109 0.8064896469774161 0.8431906352485421 1.601928895752331 1.0055033765036927 0.86433458891089399 0.78835083513068216 1.237328871426904 0.88119580674902298 0.90011666434007576 0.89266299316782916 0.9592032706683451 0.90181141071819104 0.86547016580384761 0.90807612256196479 0.95920327066756095 0.86547016579883451 1.044909713015256 0.7883508351321632 1.2373288714312443 1.9475760713126471 1.2768040830952412 2.4049206087441313 1.6989187050081203 2.7709671340306223 2.3943014697797929 1.276804083096817 1.6648412044620664 2.4049206087400905 0.84319063524818472 1.320111827566137 1.6019288957525266 1.6623973789149757 1.9680058018420918 0.99561536524516092 2.7125608149662837 2.9664366057077918 2.1124907641201367 1.6989187050081109 2.7709671340306303 2.0695357753325516 2.8342606932302363 3.1202673275978356 2.9903155240362174 3.0630756575083953 3.0879746013849241 2.9996965276651468 2.8342606932302119 3.1202673275978055 3.0249317828089191 2.8131628401644244 2.5193370784300479 3.1085474402014541 2.8819280702985046 2.519337078435623 3.1085474402026216 3.0058183576872275 3.1028077593122831 3.0896858304518502 3.1012581261866075 3.041225445703656 3.0799424404137148 3.0058183576853561 3.102807759313186 3.0232267118262244 3.0412254457036769 3.0501601367905531 3.0799424404137365 3.0879746013802873 2.9996965276674401 3.0725846562101773 2.8981742596774969 3.0480587088821127 2.4318670843709986 2.9664366057077864 2.1124907641201403 2.3975648736111914 2.0068370099069792 2.2908468845963328 1.186364038572848 2.3098049934928939 2.5430932300716558 1.3766520471757262 3.0480587088821052 2.4318670843710066 2.6066546718361709 3.0941740890364042 3.0047465512656335 2.6214856749144553 3.0941740890590008 2.6214856749039406 2.7079705369606581 2.5430932300716584 1.376652047175722 1.542954254499006 1.3835417063844937 0.78550175408948009 0.8496854022593634 1.383541706384481 1.2566847468067339 0.78550175408946477 1.2105993965872019 0.76763528307093287 0.80188990262551207 2.2908468845963386 1.3780299790157866 1.1863640385728345 1.9680058018433004 1.1925959877889043 0.99561536524471039 1.0270772192507993 0.79621534839983921 0.80648964697687076 1.2105993965904027 1.0897910019891957 0.7676352830692198 0.87242885594811537 0.89751289339757701 0.95882942938510685 0.89443128784712678 0.99306620471342377 0.96305555595140946 0.87242885594811859 0.95882942938510174 0.93355105658750048 0.87793917502412155 0.86276016862151772 0.92998148271311643 0.86276016861796068 0.92998148271495684 0.91293038620365241 0.86776671947565254 0.85958334586714336 0.91032026222850171 0.86312253973350916 0.85929518646995595 0.89884450352504441 0.8595833458683052 0.91032026222790652 0.90062547487043743 0.85929518646995551 0.89884450352504386 0.89572822428489585 0.86056330094878897 0.8950938399695213 0.85941228298085792 0.91375708409180667 1.5532944881677946 0.93876551445322143 1.5491523939598195 1.5681494905536599 0.9412453029373764 1.679431839931121 2.7830747813847596 1.7228284335397506 1.6686200669242368 1.5503490730709377 2.7044630581932676 0.91375708409180167 1.5532944881677984 1.4951547241641321 0.84791791232198244 0.90880600249976673 1.4985853430443812 1.3999993687051342 0.84791791232937097 1.4985853430584521 2.5395896317532185 1.5503490730722727 2.7044630581866982 3.0808297887585607 2.7085185805190446 3.1390034150473007 2.7085185805196694 2.7434608303590622 3.1390034150459161 2.7399654817327068 3.176091980602437 3.140730372591868 1.6794318399320478 2.6884768149757314 2.7830747813842769 2.7746936522981049 2.8054970592917727 1.7273778142156258 3.1786446135754236 3.1906418950422797 2.7467424807186758 2.7399654817312475 3.1760919806055692 2.7483304422917247 3.0481297466908428 3.0110091618444255 3.0365333659825238 3.0184992512105131 3.0181313925907718 3.0324778783761617 3.0481297466908446 3.0110091618444308 3.013864591447879 3.0579729954573414 3.0