<?xml version="1.0"?>
<VTKFile type="UnstructuredGrid" version="0.1" byte_order="LittleEndian">
<UnstructuredGrid>
<Piece NumberOfPoints="2400" NumberOfCells="800">
<Points>
<DataArray type="Float64" NumberOfComponents="3" format="ascii">
1.0000000000 0.0000000000 0.0000000000 1.0000000000 0.0500000000 0.0000000000 0.9500000000 0.0500000000 0.0000000000 1.0000000000 0.0000000000 0.0000000000 0.9500000000 0.0500000000 0.0000000000 0.9500000000 0.0000000000 0.0000000000 0.9500000000 0.0000000000 0.0000000000 0.9500000000 0.0500000000 0.0000000000 0.9000000000 0.0500000000 0.0000000000 0.9500000000 0.0000000000 0.0000000000 0.9000000000 0.0500000000 0.0000000000 0.9000000000 0.0000000000 0.0000000000 0.9000000000 0.0000000000 0.0000000000 0.9000000000 0.0500000000 0.0000000000 0.8500000000 0.0500000000 0.0000000000 0.9000000000 0.0000000000 0.0000000000 0.8500000000 0.0500000000 0.0000000000 0.8500000000 0.0000000000 0.0000000000 0.8500000000 0.0000000000 0.0000000000 0.8500000000 0.0500000000 0.0000000000 0.8000000000 0.0500000000 0.0000000000 0.8500000000 0.0000000000 0.0000000000 0.8000000000 0.0500000000 0.0000000000 0.8000000000 0.0000000000 0.0000000000 0.8000000000 0.0000000000 0.0000000000 0.8000000000 0.0500000000 0.0000000000 0.7500000000 0.0500000000 0.0000000000 0.8000000000 0.0000000000 0.0000000000 0.7500000000 0.0500000000 0.0000000000 0.7500000000 0.0000000000 0.0000000000 0.7500000000 0.0000000000 0.0000000000 0.7500000000 0.0500000000 0.0000000000 0.7000000000 0.0500000000 0.0000000000 0.7500000000 0.0000000000 0.0000000000 0.7000000000 0.0500000000 0.0000000000 0.7000000000 0.0000000000 0.0000000000 0.7000000000 0.0000000000 0.0000000000 0.7000000000 0.0500000000 0.0000000000 0.6500000000 0.0500000000 0.0000000000 0.7000000000 0.0000000000 0.0000000000 0.6500000000 0.0500000000 0.0000000000 0.6500000000 0.0000000000 0.0000000000 0.6500000000 0.0000000000 0.0000000000 0.6500000000 0.0500000000 0.0000000000 0.6000000000 0.0500000000 0.0000000000 0.6500000000 0.0000000000 0.0000000000 0.6000000000 0.0500000000 0.0000000000 0.6000000000 0.0000000000 0.0000000000 0.6000000000 0.0000000000 0.0000000000 0.6000000000 0.0500000000 0.0000000000 0.5500000000 0.0500000000 0.0000000000 0.6000000000 0.0000000000 0.0000000000 0.5500000000 0.0500000000 0.0000000000 0.5500000000 0.0000000000 0.0000000000 0.5500000000 0.0000000000 0.0000000000 0.5500000000 0.0500000000 0.0000000000 0.5000000000 0.0500000000 0.0000000000 0.5500000000 0.0000000000 0.0000000000 0.5000000000 0.0500000000 0.0000000000 0.5000000000 0.0000000000 0.0000000000 0.5000000000 0.0000000000 0.0000000000 0.5000000000 0.0500000000 0.0000000000 0.4500000000 0.0500000000 0.0000000000 0.5000000000 0.0000000000 0.0000000000 0.4500000000 0.0500000000 0.0000000000 0.4500000000 0.0000000000 0.0000000000 0.4500000000 0.0000000000 0.0000000000 0.4500000000 0.0500000000 0.0000000000 0.4000000000 0.0500000000 0.0000000000 0.4500000000 0.0000000000 0.0000000000 0.4000000000 0.0500000000 0.0000000000 0.4000000000 0.0000000000 0.0000000000 0.4000000000 0.0000000000 0.0000000000 0.4000000000 0.0500000000 0.0000000000 0.3500000000 0.0500000000 0.0000000000 0.4000000000 0.0000000000 0.0000000000 0.3500000000 0.0500000000 0.0000000000 0.3500000000 0.0000000000 0.0000000000 0.3500000000 0.0000000000 0.0000000000 0.3500000000 0.0500000000 0.0000000000 0.3000000000 0.0500000000 0.0000000000 0.3500000000 0.0000000000 0.0000000000 0.3000000000 0.0500000000 0.0000000000 0.3000000000 0.0000000000 0.0000000000 0.3000000000 0.0000000000 0.0000000000 0.3000000000 0.0500000000 0.0000000000 0.2500000000 0.0500000000 0.0000000000 0.3000000000 0.0000000000 0.0000000000 0.2500000000 0.0500000000 0.0000000000 0.2500000000 0.0000000000 0.0000000000 0.2500000000 0.0000000000 0.0000000000 0.2500000000 0.0500000000 0.0000000000 0.2000000000 0.0500000000 0.0000000000 0.2500000000 0.0000000000 0.0000000000 0.2000000000 0.0500000000 0.0000000000 0.2000000000 0.0000000000 0.0000000000 0.2000000000 0.0000000000 0.0000000000 0.2000000000 0.0500000000 0.0000000000 0.1500000000 0.0500000000 0.0000000000 0.2000000000 0.0000000000 0.0000000000 0.1500000000 0.0500000000 0.0000000000 0.1500000000 0.0000000000 0.0000000000 0.1500000000 0.0000000000 0.0000000000 0.1500000000 0.0500000000 0.0000000000 0.1000000000 0.0500000000 0.0000000000 0.1500000000 0.0000000000 0.0000000000 0.1000000000 0.0500000000 0.0000000000 0.1000000000 0.0000000000 0.0000000000 0.1000000000 0.0000000000 0.0000000000 0.1000000000 0.0500000000 0.0000000000 0.0500000000 0.0500000000 0.0000000000 0.1000000000 0.0000000000 0.0000000000 0.0500000000 0.0500000000 0.0000000000 0.0500000000 0.0000000000 0.0000000000 0.0500000000 0.0000000000 0.0000000000 0.0500000000 0.0500000000 0.0000000000 0.0000000000 0.0500000000 0.0000000000 0.0500000000 0.0000000000 0.0000000000 0.0000000000 0.0500000000 0.0000000000 0.0000000000 0.0000000000 0.0000000000 1.0000000000 0.0500000000 0.0000000000 1.0000000000 0.1000000000 0.0000000000 0.9500000000 0.1000000000 0.0000000000 1.0000000000 0.0500000000 0.0000000000 0.9500000000 0.1000000000 0.0000000000 0.9500000000 0.0500000000 0.0000000000 0.9500000000 0.0500000000 0.0000000000 0.9500000000 0.1000000000 0.0000000000 0.9000000000 0.1000000000 0.0000000000 0.9500000000 0.0500000000 0.0000000000 0.9000000000 0.1000000000 0.0000000000 0.9000000000 0.0500000000 0.0000000000 0.9000000000 0.0500000000 0.0000000000 0.9000000000 0.1000000000 0.0000000000 0.8500000000 0.1000000000 0.0000000000 0.9000000000 0.0500000000 0.0000000000 0.8500000000 0.1000000000 0.0000000000 0.8500000000 0.0500000000 0.0000000000 0.8500000000 0.0500000000 0.0000000000 0.8500000000 0.1000000000 0.0000000000 0.8000000000 0.1000000000 0.0000000000 0.8500000000 0.0500000000 0.0000000000 0.8000000000 0.1000000000 0.0000000000 0.8000000000 0.0500000000 0.0000000000 0.8000000000 0.0500000000 0.0000000000 0.8000000000 0.1000000000 0.0000000000 0.7500000000 0.1000000000 0.0000000000 0.8000000000 0.0500000000 0.0000000000 0.7500000000 0.1000000000 0.0000000000 0.7500000000 0.0500000000 0.0000000000 0.7500000000 0.0500000000 0.0000000000 0.7500000000 0.1000000000 0.0000000000 0.7000000000 0.1000000000 0.0000000000 0.7500000000 0.0500000000 0.0000000000 0.7000000000 0.1000000000 0.0000000000 0.7000000000 0.0500000000 0.0000000000 0.7000000000 0.0500000000 0.0000000000 0.7000000000 0.1000000000 0.0000000000 0.6500000000 0.1000000000 0.0000000000 0.7000000000 0.0500000000 0.0000000000 0.6500000000 0.1000000000 0.0000000000 0.6500000000 0.0500000000 0.0000000000 0.6500000000 0.0500000000 0.0000000000 0.6500000000 0.1000000000 0.0000000000 0.6000000000 0.1000000000 0.0000000000 0.6500000000 0.0500000000 0.0000000000 0.6000000000 0.1000000000 0.0000000000 0.6000000000 0.0500000000 0.0000000000 0.6000000000 0.0500000000 0.0000000000 0.6000000000 0.1000000000 0.0000000000 0.5500000000 0.1000000000 0.0000000000 0.6000000000 0.0500000000 0.0000000000 0.5500000000 0.1000000000 0.0000000000 0.5500000000 0.0500000000 0.0000000000 0.5500000000 0.0500000000 0.0000000000 0.5500000000 0.1000000000 0.0000000000 0.5000000000 0.1000000000 0.0000000000 0.5500000000 0.0500000000 0.0000000000 0.5000000000 0.1000000000 0.0000000000 0.5000000000 0.0500000000 0.0000000000 0.5000000000 0.0500000000 0.0000000000 0.5000000000 0.1000000000 0.0000000000 0.4500000000 0.1000000000 0.0000000000 0.5000000000 0.0500000000 0.0000000000 0.4500000000 0.1000000000 0.0000000000 0.4500000000 0.0500000000 0.0000000000 0.4500000000 0.0500000000 0.0000000000 0.4500000000 0.1000000000 0.0000000000 0.4000000000 0.1000000000 0.0000000000 0.4500000000 0.0500000000 0.0000000000 0.4000000000 0.1000000000 0.0000000000 0.4000000000 0.0500000000 0.0000000000 0.4000000000 0.0500000000 0.0000000000 0.4000000000 0.1000000000 0.0000000000 0.3500000000 0.1000000000 0.0000000000 0.4000000000 0.0500000000 0.0000000000 0.3500000000 0.1000000000 0.0000000000 0.3500000000 0.0500000000 0.0000000000 0.3500000000 0.0500000000 0.0000000000 0.3500000000 0.1000000000 0.0000000000 0.3000000000 0.1000000000 0.0000000000 0.3500000000 0.0500000000 0.0000000000 0.3000000000 0.1000000000 0.0000000000 0.3000000000 0.0500000000 0.0000000000 0.3000000000 0.0500000000 0.0000000000 0.3000000000 0.1000000000 0.0000000000 0.2500000000 0.1000000000 0.0000000000 0.3000000000 0.0500000000 0.0000000000 0.2500000000 0.1000000000 0.0000000000 0.2500000000 0.0500000000 0.0000000000 0.2500000000 0.0500000000 0.0000000000 0.2500000000 0.1000000000 0.0000000000 0.2000000000 0.1000000000 0.0000000000 0.2500000000 0.0500000000 0.0000000000 0.2000000000 0.1000000000 0.0000000000 0.2000000000 0.0500000000 0.0000000000 0.2000000000 0.0500000000 0.0000000000 0.2000000000 0.1000000000 0.0000000000 0.1500000000 0.1000000000 0.0000000000 0.2000000000 0.0500000000 0.0000000000 0.1500000000 0.1000000000 0.0000000000 0.1500000000 0.0500000000 0.0000000000 0.1500000000 0.0500000000 0.0000000000 0.1500000000 0.1000000000 0.0000000000 0.1000000000 0.1000000000 0.0000000000 0.1500000000 0.0500000000 0.0000000000 0.1000000000 0.1000000000 0.0000000000 0.1000000000 0.0500000000 0.0000000000 0.1000000000 0.0500000000 0.0000000000 0.1000000000 0.1000000000 0.0000000000 0.0500000000 0.1000000000 0.0000000000 0.1000000000 0.0500000000 0.0000000000 0.0500000000 0.1000000000 0.0000000000 0.0500000000 0.0500000000 0.0000000000 0.0500000000 0.0500000000 0.0000000000 0.0500000000 0.1000000000 0.0000000000 0.0000000000 0.1000000000 0.0000000000 0.0500000000 0.0500000000 0.0000000000 0.0000000000 0.1000000000 0.0000000000 0.0000000000 0.0500000000 0.0000000000 1.0000000000 0.1000000000 0.0000000000 1.0000000000 0.1500000000 0.0000000000 0.9500000000 0.1500000000 0.0000000000 1.0000000000 0.1000000000 0.0000000000 0.9500000000 0.1500000000 0.0000000000 0.9500000000 0.1000000000 0.0000000000 0.9500000000 0.1000000000 0.0000000000 0.9500000000 0.1500000000 0.0000000000 0.9000000000 0.1500000000 0.0000000000 0.9500000000 0.1000000000 0.0000000000 0.900000000
[...]
<PointData Scalars="tracer_conc," Vectors="" Tensors="">
<DataArray type="Float64" Name="tracer_conc" format="ascii">
1.0000355640 1.0000137852 1.0000320575 1.0000199992 1.0000466176 1.0000628934 1.0000809736 1.0000253912 1.0001254249 1.0000378620 1.0001686467 1.0002159862 1.0002721697 1.0000986877 1.0004388097 1.0001384009 1.0005739337 1.0007136069 1.0008756754 1.0003744575 1.0014034990 1.0004937592 1.0017888983 1.0021620977 1.0025850737 1.0012770116 1.0040953023 1.0015961575 1.0050893033 1.0059847272 1.0069826232 1.0039044168 1.0109089321 1.0046599352 1.0132278585 1.0151554337 1.0172925592 1.0107449051 1.0265800309 1.0123242535 1.0314912932 1.0352241822 1.0394234236 1.0267398670 1.0594357883 1.0296524703 1.0689608301 1.0755234656 1.0832698130 1.0605046301 1.1225843475 1.0651169080 1.1398807556 1.1505682530 1.1646746615 1.1257452789 1.2347444737 1.1305199373 1.2645391800 1.2829812366 1.3197196866 1.2360776922 1.4101260996 1.3084129656 1.4206935065 1.5037207661 1.5325859199 1.4024244928 1.5974008763 1.5489943958 1.5856320053 1.7239832132 1.7258866777 1.5910456517 1.7492503400 1.7400577075 1.7380933719 1.8657140393 1.8580015595 1.7515834007 1.8590621917 1.8652483872 1.8525503214 1.9427059557 1.9343472618 1.8650152751 1.9284677435 1.9367295873 1.9255578447 1.9786777905 1.9727554598 1.9340509179 1.9671821992 1.9729847615 1.9661267031 1.9931807546 1.9898165146 1.9709138419 1.9863614711 1.9894818400 1.9860443097 1.9981885392 1.9965658230 1.9883699133 1.9948298594 1.9962590026 1.9947503735 1.9996292981 1.9989631327 1.9957336133 1.9981296068 1.9987802486 1.9981172116 1.9999420316 1.9997777969 1.9984665276 1.9990891015 1.9996986659 1.9990990109 1.9998827190 1.0000163020 1.0000036126 1.0000129784 1.0000125593 1.0000158685 1.0000337860 1.0000436573 1.0000060769 1.0000541220 1.0000295735 1.0000655615 1.0001213263 1.0001569290 1.0000285106 1.0002038277 1.0001099414 1.0002436458 1.0004267026 1.0005373096 1.0001289470 1.0007014364 1.0003943572 1.0008262385 1.0013770962 1.0016856996 1.0005092368 1.0022007985 1.0012906726 1.0025540189 1.0040525000 1.0048284753 1.0017675732 1.0062920951 1.0038375033 1.0071934170 1.0108735289 1.0126354972 1.0054417279 1.0163957089 1.0103786587 1.0184642779 1.0266393652 1.0302692732 1.0149595864 1.0389648423 1.0256108005 1.0432074566 1.0597342879 1.0665780668 1.0369155560 1.0844762856 1.0579748082 1.0920502726 1.1229263890 1.1348657682 1.0820417459 1.1665436448 1.1218964087 1.1768016939 1.2321682942 1.2508061369 1.1630735421 1.2943797701 1.2416486543 1.3000768350 1.3966925359 1.4123530748 1.2890182567 1.4527513600 1.4122070713 1.4513094956 1.5843385296 1.5884399291 1.4494109854 1.6127243418 1.5926920728 1.6085585856 1.7473142084 1.7426759727 1.6150033632 1.7516119421 1.7465722031 1.7476712429 1.8642171308 1.8560448085 1.7577415258 1.8560983830 1.8580598758 1.8534337862 1.9355395195 1.9277987254 1.8629509238 1.9248043832 1.9283027018 1.9233095125 1.9730337381 1.9674671953 1.9302542379 1.9645409793 1.9672753306 1.9637929994 1.9901007666 1.9868029795 1.9679945427 1.9848272896 1.9864770814 1.9844749368 1.9968078191 1.9951793776 1.9866329810 1.9938674938 1.9949233360 1.9937034985 1.9990120287 1.9985093456 1.9946495187 1.9968166904 1.9984443358 1.9967023117 1.9992238748 1.0000053163 1.0000006850 1.0000042389 1.0000044001 1.0000047052 1.0000125960 1.0000165019 1.0000008821 1.0000187738 1.0000120299 1.0000214683 1.0000486790 1.0000642527 1.0000058660 1.0000764332 1.0000481059 1.0000868835 1.0001848398 1.0002375515 1.0000340784 1.0002846225 1.0001849740 1.0003207229 1.0006448576 1.0008049298 1.0001610058 1.0009667222 1.0006497452 1.0010789904 1.0020509935 1.0024884367 1.0006457715 1.0029900168 1.0020741310 1.0033030176 1.0059382235 1.0070128046 1.0022522203 1.0084108647 1.0060169870 1.0091865418 1.0156440279 1.0180132699 1.0069179159 1.0214891468 1.0158825842 1.0231679399 1.0374914945 1.0421636105 1.0188459121 1.0497552237 1.0382293921 1.0527936129 1.0816528210 1.0897840160 1.0456668088 1.1039080703 1.0840461002 1.1079888370 1.1609728603 1.1728903129 1.0983015229 1.1938729042 1.1677333316 1.1968589538 1.2843737887 1.2966028883 1.1875222489 1.3197886504 1.2946137031 1.3201500743 1.4424900651 1.4499405861 1.3152923768 1.4688535706 1.4511571454 1.4670452861 1.6081907695 1.6090303577 1.4687111114 1.6202412248 1.6115905905 1.6175564983 1.7536247907 1.7491346701 1.6245859451 1.7532255386 1.7512528868 1.7507106672 1.8620416460 1.8551665186 1.7600190003 1.8549410852 1.8562191468 1.8530299541 1.9314618532 1.9248604298 1.8616885973 1.9230211929 1.9250570777 1.9217409535 1.9698661815 1.9649610785 1.9281664809 1.9630041679 1.9647644596 1.9622083675 1.9882294967 1.9852940102 1.9661761653 1.9833524744 1.9850202606 1.9828508998 1.9956456258 1.9945777655 1.9849827932 1.9908632406 1.9947452494 1.9903028406 1.9970288233 1.0000014327 1.0000000850 1.0000011823 1.0000012149 1.0000012203 1.0000038244 1.0000051043 0.9999999648 1.0000055768 1.0000038201 1.0000060823 1.0000160203 1.0000215756 1.0000005912 1.0000245331 1.0000165647 1.0000267411 1.0000658620 1.0000863799 1.0000064184 1.0000989084 1.0000688817 1.0001073656 1.0002491545 1.0003172537 1.0000399186 1.0003642259 1.0002620232 1.0003932445 1.0008599812 1.0010634115 1.0001922769 1.0012220413 1.0009063820 1.0013107257 1.0027014108 1.0032466461 1.0007754397 1.0037270977 1.0028476173 1.0039654522 1.0077089218 1.0090137835 1.0026991828 1.0103067007 1.0081212823 1.0108573224 1.0199466157 1.0227126378 1.0082234261 1.0257588835 1.0210105590 1.0268037425 1.0466713850 1.0517809197 1.0220700048 1.0579198440 1.0491813308 1.0593949832 1.0983190896 1.1063115030 1.0523050610 1.1164059894 1.1034655368 1.1177193219 1.1853361403 1.1951491899 1.1094113845 1.2081661395 1.1932099474 1.2086585403 1.3103050048 1.3190995362 1.2017240210 1.3322700227 1.3188519528 1.3316650120 1.4619808290 1.4669245943 1.3288533787 1.4773842100 1.4682115238 1.4758713555 1.6184575607 1.6183549520 1.4784336347 1.6245007183 1.6201485540 1.6226189350 1.7564253783 1.7521856586 1.6295179729 1.7543326963 1.7535666498 1.7524898774 1.8609620081 1.8547814548 1.7612426463 1.8543730766 1.8554236725 1.8528009754 1.9293324090 1.9233867081 1.8609428100 1.9217642353 1.9234671111 1.9205238856 1.9679480452 1.9635959799 1.9266281364 1.9609034115 1.9634333413 1.9598710456 1.9863941361 1.9845474363 1.9639205656 1.9773182707 1.9855082608 1.9756530499 1.9910652055 1.0000003370 1.0000000015 1.0000002947 1.0000002855 1.0000002881 1.0000010040 1.0000013653 0.9999999297 1.0000014779 1.0000010269 1.0000015470 1.0000045618 1.0000062562 0.9999998711 1.0000069856 1.0000048363 1.0000073323 1.0000202745 1.0000271019 1.0000005643 1.0000303612 1.0000217855 1.0000318481 1.0000830921 1.0001078844 1.0000072152 1.0001209087 1.0000899124 1.0001265961 1.0003113075 1.0003924437 1.0000458690 1.0004397776 1.0003378405 1.0004590188 1.0010626139 1.0013009167 1.0002220494 1.0014561880 1.0011532513 1.0015127589 1.0032954426 1.0039199140 1.0008939387 1.0043741383 1.0035701370 1.0045147580 1.0092586097 1.0107061866 1.0030903879 1.0118742054 1.0100004196 1.0121555418 1.0234856230 1.0264137297 1.0093055810 1.0290073416 1.0252490037 1.0294141531 1.0535676820 1.0586592052 1.0245864408 1.0634346571 1.0571454790 1.0638044161 1.1094288569 1.1167493830 1.0570871503 1.1238456877 1.1153102403 1.1239612155 1.1993507680 1.2077012413 1.1165760675 1.2162761024 1.2069645293 1.2159342567 1.3238230581 1.3310195886 1.2101173851 1.3394391327 1.3313744747 1.3385858423 1.4719970457 1.4758289132 1.3365956676 1.4824263119 1.4771060708 1.4811582698 1.6238346867 1.6233611238 1.4839831242 1.6271566802 1.6248452536 1.6256785882 1.7579720969 1.7539409663 1.6323816110 1.7550541911 1.7550299798 1.7535091874 1.8603254452 1.8546270015 1.7618941979 1.8536768834 1.8551642174 1.8521397612 1.9277464895 1.9224483291 1.8599977926 1.9190111159 1.9226569474 1.9172911909 1.9652982993 1.9626619855 1.9238622282 1.9502072902 1.9655456860 1.9463166851 1.9771924425 1.0000000722 0.9999999978 1.0000000712 1.0000000594 1.0000000683 1.0000002397 1.0000003283 0.9999999763 1.0000003757 1.0000002432 1.0000003827 1.0000011736 1.0000016210 0.9999999282 1.0000018700 1.0000012445 1.0000019026 1.0000055896 1.0000075604 0.9999999176 1.0000085886 1.0000060652 1.0000087278 1.0000246401 1.0000324962 1.0000008359 1.0000364156 1.0000271066 1.0000370033 1.0000997374 1.0001279936 1.0000085644 1.0001422105 1.0001104644 1.0001444922 1.0003691757 1.0004604263 1.0000523476 1.0005090449 1.0004096194 1.0005165837 1.0012446297 1.0015077703 1.0002501408 1.0016604609 1.0013787538 1.0016803868 1.0038066865 1.0044793264 1.0009984330 1.0049086177 1.0041992477 1.0049465337 1.0105198783 1.0120281632 1.0034181769 1.0130865123 1.0115212204 1.0131194669 1.0261635460 1.0291095087 1.0101823299 1.0313018253 1.0283374423 1.0312611718 1.0583890540 1.0632789664 1.0265008105 1.0670044737 1.0623325370 1.0668164218 1.1165219220 1.1232307199 1.0604207168 1.1284954116 1.1224458842 1.1280772342 1.2076694236 1.2151199268 1.1212376997 1.2213064116 1.2149261385 1.2206307808 1.3316625419 1.3379516617 1.2153907461 1.3439275497 1.3385923270 1.3430260261 1.4778252072 1.4810494984 1.3414099126 1.4856545509 1.4823589746 1.4845535984 1.6270324500 1.6263794292 1.4874461461 1.6288394128 1.6277789405 1.6275485627 1.7588425554 1.7550130935 1.6341021360 1.7550226194 1.7561223116 1.7534268123 1.8593955676 1.8542841857 1.7617181916 1.8503428362 1.8552299696 1.8478784241 1.9242241039 1.9211591942 1.8569978472 1.9022137053 1.9277284537 1.8945885969 1.9490574207 1.0000000153 0.9999999994 1.0000000203 1.0000000112 1.0000000212 1.0000000583 1.0000000758 0.9999999974 1.0000001151 1.0000000517 1.0000001211 1.0000003028 1.0000003965 1.0000000045 1.0000005824 1.0000002915 1.0000005944 1.0000014976 1.0000019617 1.0000000744 1.0000026337 1.0000015479 1.0000026302 1.0000068701 1.0000089775 1.0000004239 1.0000110068 1.0000074618 1.0000108864 1.0000292869 1.0000378386 1.0000021224 1.0000435454 1.0000326474 1.0000430326 1.0001157717 1.0001465568 1.0000114794 1.0001631771 1.0001303878 1.0001615594 1.0004213402 1.0005196975 1.0000600395 1.0005702759 1.0004751399 1.0005653663 1.0014004451 1.0016788737 1.0002758009 1.0018295324 1.0015732459 1.0018134725 1.0042223551 1.0049168947 1.0010865111 1.0053279961 1.0047047874 1.0052743542 1.0114879498 1.0130123761 1.0036947493 1.0139720602 1.0126354804 1.0138282554 1.0281219787 1.0310137681 1.0108862487 1.0328716226 1.0304392880 1.0325831654 1.0617158996 1.0663580965 1.0279200188 1.0693922615 1.0657027716 1.0689082279 1.1211331779 1.1273770411 1.0627529300 1.1315643018 1.1269246436 1.1308826429 1.2129476020 1.2197812227 1.1243907842 1.2246250227 1.2198764873 1.2238051724 1.3366120963 1.3423033208 1.2189041360 1.3469128728 1.3431299458 1.3460120578 1.4815262223 1.4843557627 1.3446034002 1.4877548114 1.4857718776 1.4867137857 1.6289844140 1.6282441448 1.4896761138 1.6293706144 1.6298604872 1.6278871719 1.7586842123 1.7552221968 1.6346684488 1.7513085826 1.7572464979 1.7481473487 1.8550608326 1.8523026066 1.7589094715 1.8269618017 1.8646094578 1.8141015559 1.8989325074 1.0000000041 0.9999999996 1.0000000074 1.0000000018 1.0000000099 1.0000000187 1.0000000194 0.9999999999 1.0000000600 1.0000000076 1.0000000719 1.0000001081 1.0000001036 1.0000000287 1.0000003468 1.0000000541 1.0000003800 1.0000005338 1.0000005401 1.0000002510 1.0000014866 1.0000003839 1.0000015236 1.0000022889 1.0000025622 1.0000010698 1.0000051324 1.0000021265 1.0000050353 1.0000090910 1.0000110156 1.0000029321 1.0000162737 1.0000096572 1.0000156720 1.0000350908 1.0000439676 1.0000065534 1.0000532945 1.0000395051 1.0000512729 1.0001315296 1.0001643256 1.0000171222 1.0001824478 1.0001504345 1.0001767302 1.0004664259 1.0005700077 1.0000669351 1.0006176762 1.0005327351 1.0006013832 1.0015266520 1.0018134031 1.0002934567 1.0019565011 1.0017289061 1.0019096005 1.0045441899 1.0052479813 1.0011580544 1.0056323777 1.0050732482 1.0055131586 1.0122219876 1.0137342217 1.0039218490 1.0145902278 1.0134114644 1.0143430517 1.0295551900 1.0323492776 1.0114260348 1.0339624298 1.0318781015 1.0335264512 1.0640269383 1.0684427471 1.0289620058 1.0710358217 1.0679428643 1.0703847141 1.1242662122 1.1301337428 1.0644204099 1.1336782715 1.1298683951 1.1328568612 1.2165034336 1.2228599837 1.1266213046 1.2269366667 1.2231440723 1.2260378289 1.3399390663 1.3451668688 1.2213946984 1.3489751334 1.3461932962 1.3480120796 1.4839109704 1.4864177263 1.3468529590 1.4887091467 1.4882574088 1.4872902801 1.6294658733 1.6287311458 1.4908796710 1.6257370273 1.6319756790 1.6219253118 1.7537463477 1.7520917862 1.6326179305 1.7226219939 1.7716546629 1.7036682840 1.8202681159 1.0000000029 1.0000000011 0.9999999971 1.0000000010 1.0000000008 1.0000000074 1.0000000061 0.9999999920 1.0000000367 0.9999999935 1.0000000603 1.0000000727 1.0000000192 1.0000000182 1.0000004119 0.9999999560 1.0000004899 1.0000004261 1.0000001796 1.0000004908 1.0000020165 1.0000000286 1.0000021306 1.0000016727 1.0000010885 1.0000024046 1.0000061786 1.0000009453 1.0000060758 1.0000050756 1.0000046961 1.0000063024 1.0000135353 1.0000045338 1.0000128632 1.0000142130 1.0000162693 1.0000111127 1.0000264357 1.0000157423 1.0000244742 1.0000429356 1.0000545825 1.0000128362 1.0000587248 1.0000508368 1.0000552437 1.0001449279 1.0001844501 1.0000133984 1.0001813053 1.0001704464 1.0001738999 1.0004991294 1.0006135446 1.0000502713 1.0006260207 1.0005768031 1.0006035707 1.0016187382 1.0019228618 1.0002756894 1.0020133510 1.0018361721 1.0019489318 1.0047891718 1.0055188029 1.0011715982 1.0057968739 1.0053280277 1.0056480928 1.0127809370 1.0143144704 1.0040222312 1.0149530968 1.0139617104 1.0146638192 1.0306037217 1.0334007421 1.0117138944 1.0346342122 1.0328733727 1.0341533606 1.0656947409 1.0700602703 1.0295846532 1.0721273095 1.0694714480 1.0714381434 1.1265157013 1.1322342778 1.0655404478 1.1352643562 1.1318760401 1.1343884279 1.2190500294 1.2251118633 1.1283457364 1.2289686294 1.2254197057 1.2278820148 1.3422246161 1.3469660582 1.2236689023 1.3508887162 1.3485266594 1.3491766763 1.4847747232 1.4865458324 1.3492450257 1.4870074006 1.4911347303 1.4819939900 1.6242955576 1.6236084230 1.4911290336 1.5963955247 1.6509703683 1.5709543088 1.7114976273 0.9999999999 0.9999999908 0.9999999834 1.0000000105 0.9999999767 0.9999999896 1.0000000092 0.9999998824 0.9999999615 0.9999999955 0.9999999834 1.0000000551 1.0000000776 0.9999996279 1.0000005132 0.9999998569 1.0000006583 1.0000006335 1.0000005394 1.0000001767 1.0000035474 0.9999998925 1.0000037960 1.0000026813 1.0000023270 1.0000039232 1.0000110823 1.0000014217 1.0000111355 1.0000071811 1.0000066273 1.0000121347 1.0000227817 1.0000056855 1.0000222187 1.0000132241 1.0000073938 1.0000335259 1.0000348810 1.0000134603 1.0000315438 1.0000207662 1.0000092284 1.0000480364 1.0000293510 1.0000238563 1.0000260167 1.0000412926 1.0000264258 1.0000400870 1.0000313816 1.0000473370 1.0000281540 1.0001329198 1.0001252458 1.0000259295 1.0001368836 1.0001527799 1.0001246681 1.0004835365 1.0005054266 1.0000758156 1.0005940199 1.0005559134 1.0005461889 1.0016184745 1.0017048673 1.0003863416 1.0020302308 1.0018321178 1.0018948210 1.0048408450 1.0050142549 1.0015220103 1.0059483979 1.0053668355 1.0056335456 1.0129369377 1.0131378884 1.0049485505 1.0154897260 1.0140638392 1.0148340394 1.0309505356 1.0309053126 1.0138468716 1.0361101670 1.0330737699 1.0348678005 1.0663437524 1.0653900169 1.0339044743 1.0754973573 1.0698466933 1.0733308580 1.1275589358 1.1245653838 1.0732441286 1.1417461115 1.1325839913 1.1382172211 1.2204279534 1.2139920507 1.1404191548 1.2393502114 1.2267634467 1.2337692795 1.3432046851 1.3320901548 1.2402261829 1.3630902461 1.3514620125 1.3527893201 1.4808401821 1.4647275903 1.3682074476 1.4805486703 1.5127657727 1.4399597862 1.5809364706 0.9999999853 0.9999999320 0.9999999813 0.9999999877 0.9999999781 0.9999999874 0.9999996845 0.9999996100 1.0000005237 0.9999996848 1.0000005265 1.0000000076 0.9999985341 1.0000009176 1.0000051759 0.9999983254 1.0000054519 1.0000005193 0.9999977236 1.0000117118 1.0000197027 0.9999964437 1.0000212057 1.0000024973 1.0000020759 1.0000405723 1.0000422133 0.9999983289 1.0000462701 1.0000067015 1.0000125423 1.0000981030 1.0000712573 1.0000049150 1.0000788105 1.0000126734 1.0000762328 1.0000877246 0.9999555223 1.0000708824 0.9999717386 1.0000351314 1.0001386383 0.9999276023 0.9997144778 1.0001524956 0.9997404437 1.0000782430 1.0001638837 0.9996931988 0.9995019204 1.0002071476 0.9995393619 1.0001467298 1.0001784226 0.9995224934 0.9994447368 1.0002618511 0.9994737003 1.0003050935 1.0003050791 0.9994737081 0.9995132957 1.0004806982 0.9994687219 1.0008282163 1.0008281764 0.9994687470 0.9996629159 1.0012649673 0.9994303116 1.0024936025 1.0024935098 0.9994303799 1.0001595095 1.0035627673 0.9996644216 1.0070816854 1.0070815006 0.9996645813 1.0021362155 1.0093828610 1.0015932384 1.0180872176 1.0180869064 1.0015935568 1.0086602393 1.0224129587 1.0089697804 1.0412949107 1.0412944766 1.0089703159 1.0258976184 1.0484296097 1.0290518107 1.0843974035 1.0843969203 1.0290525594 1.0633047662 1.0947835637 1.0723055723 1.1548377371 1.1548373459 1.0723064182 1.1312428292 1.1682699775 1.1490439877 1.2557597390 1.2557595887 1.1490447133 1.2354126863 1.2712251097 1.2629610939 1.3803033848 1.3803035402 1.2629614860 1.3691032420 1.3950913465 1.4017406701 1.4940788477 0.9999998569 0.9999999148 1.0000003341 0.9999998569 1.0000003341 1.0000000728 0.9999991553 1.0000020727 1.0000043254 0.9999991553 1.0000043254 1.0000013526 1.0000014652 1.0000177250 1.0000147042 1.0000014652 1.0000147042 1.0000066912 1.0000218238 1.0000501577 1.0000004538 1.0000218238 1.0000004538 1.0000141069 1.0000775449 1.0000419334 0.9998565461 1.0000775449 0.9998565461 1.0000060453 1.0002190464 0.9996684578 0.9992150962 1.0002190464 0.9992150962 0.9999366854 1.0001144667 0.9989379873 0.9985014747 1.0001144667 0.9985014747 0.9997381019 0.9997422294 0.9983493538 0.9981904205 0.9997422294 0.9981904205 0.9994651207 0.9993624811 0.9981808719 0.9982415768 0.9993624811 0.9982415768 0.9992331460 0.9991682133 0.9982676451 0.9983322870 0.9991682133 0.9983322870 0.9991333830 0.9991333830 0.9983322870 0.9983671173 0.9991481798 0.9983392554 0.9992258764 0.9992258772 0.9983392549 0.9984549012 0.9992575565 0.9983950316 0.9994749988 0.9994750021 0.9983950294 0.9986298080 0.9994653056 0.9985587816 0.9998688810 0.9998688768 0.9985587848 0.9989575127 0.9998067120 0.9985862500 1.0011453209 1.0011452601 0.9985863039 0.9995875578 1.0013207109 0.9979979810 1.0064598999 1.0064596814 0.9979982041 1.0020443864 1.0076604944 0.9981513466 1.0229595214 1.0229590521 0.9981519036 1.0121709218 1.0264033772 1.0061496783 1.0613209557 1.0613202738 1.0061506412 1.0421244366 1.0684854611 1.0366023036 1.1321174873 1.1321168117 1.0366035034 1.1071876437 1.1446291765 1.1068619111 1.2397126054 1.2397122167 1.1068629639 1.2165882693 1.2589185953 1.2262866228 1.3751878735 0.9999998116 1.0000015024 1.0000016618 0.9999998116 1.0000016618 1.0000006106 1.0000044249 1.0000153090 1.0000014344 1.0000044249 1.0000014344 1.0000032144 1.0000382712 1.0000196956 0.9999201754 1.0000382712 0.9999201754 0.9999939853 1.0001128831 0.9998056764 0.9995226323 1.0001128831 0.9995226323 0.9999109552 1.0001286634 0.9988398750 0.9985201490 1.0001286634 0.9985201490 0.9996371729 0.9991877876 0.9981642256 0.9990504373 0.9991877876 0.9990504373 0.9991514302 0.9980274866 0.9994128680 1.0016862313 0.9980274865 1.0016862313 0.9988278370 0.9976495976 1.0023318067 1.0049791519 0.9976495976 1.0049791519 0.9988711899 0.9981076657 1.0054326389 1.0073851972 0.9981076657 1.0073851972 0.9991016869 0.9988672158 1.0075127267 1.0081999599 0.9988672158 1.0081999599 0.9992261675 0.9992261675 1.0081999599 1.0078410082 0.9991904123 1.0078931068 0.9987593580 0.9987593580 1.0078931068 1.0067970569 0.9987089457 1.0067517782 0.9977531655 0.9977531654 1.0067517783 1.0049520557 0.9978815381 1.0044468138 0.9971223295 0.9971223290 1.0044468141 1.0023959577 0.9975245366 1.0014355598 0.9975221721 0.9975221740 1.0014355582 1.0000267411 0.9979052662 0.9991190267 0.998