<?xml version="1.0"?>
<VTKFile type="UnstructuredGrid" version="0.1" byte_order="LittleEndian">
<UnstructuredGrid>
<Piece NumberOfPoints="146" NumberOfCells="250">
<Points>
<DataArray type="Float64" NumberOfComponents="3" format="ascii">
0 0 0 0 0.019999999999965 0 0.0199756213010873 0.0199756213010872 0 0.0200000000000564 0 0 0 0.039999999999912 0 0.0159942811445127 0.0359796559780514 0 0.0341005291005428 0.0341005291005136 0 0.035979655978032 0.0159942811444533 0 0.0400000000001096 0 0 0.060000000000167 0 0 0.0708088115364077 0.0140878622716368 0 0.0519837008289658 0.0196393438958859 0 0.0525952709593619 0.0400766867126003 0 0.0666131996144097 0.0437302306415936 0 0.0718579774721212 0.030226786183147 0 0.0864193131896405 0.0360755992992104 0 0.0922244082210997 0.0220020016418291 0 0.0800000000002201 0 0 0.0821579650052456 0.0967855078943024 0 0.0995126974614008 0.0817268679039801 0 0.0963033959219251 0.0620110877275104 0 0.0801027402438638 0.0536111365655791 0 0.0866027874564484 0.0719686411149814 0 0.0687633044340069 0.0698536222016603 0 0.0592612093908959 0.0570385509265082 0 0.0656937592485226 0.0871752681869573 0 0.0439372822299652 0.099999999999995 0 0.0498957980066807 0.0769409783226201 0 0.0332980393214822 0.0883115494703587 0 0.0397469406756418 0.0544412351323512 0 0.0302267861832154 0.0718579774721309 0 0.0196079395114726 0.0521595069405985 0 0.013516334126646 0.0699999999998231 0 0 0.0599999999998546 0 0.017073730510092 0.0866871572573122 0 0 0.0799999999997917 0 0 0.099999999999737 0 0.0220020016418305 0.107775591778903 0 0 0.119999999999788 0 0 0.13999999999984 0 0.0196393438958872 0.148016299171036 0 0.0140878622716379 0.129191188463597 0 0.0302267861831483 0.128142022527879 0 0.0400766867126018 0.147404729040639 0 0.0437302306415954 0.133386800385591 0 0.0360755992992117 0.11358068681036 0 0.019999999999965 0.2 0 0 0.2 0 0 0.179999999999946 0 0.0199756213010873 0.180024378698913 0 0.0159942811444547 0.164020344021968 0 0 0.159999999999895 0 0.0341005291005142 0.165899470899457 0 0.0359796559780515 0.184005718855487 0 0.039999999999912 0.2 0 0.0599999999998546 0.2 0 0.0521595069405988 0.180392060488528 0 0.0699999999998231 0.186483665873354 0 0.0718579774721308 0.169773213816785 0 0.0544412351323534 0.160253059324359 0 0.07694097832262 0.15010420199332 0 0.0999999999999949 0.156062717770035 0 0.0881691940101259 0.166706408748769 0 0.0866790215040874 0.182935032772833 0 0.099999999999737 0.2 0 0.0799999999997917 0.2 0 0.0719686411149814 0.113397212543552 0 0.0598132146365165 0.102806347469244 0 0.05355862617188 0.11973188197449 0 0.057038550926509 0.140738790609104 0 0.0715001361588055 0.130390485467539 0 0.0882602500949993 0.133234672945338 0 0.0900331758058835 0.115170138254436 0 0.115397522978018 0.109250727089388 0 0.102806347469244 0.140186785363484 0 0.11973188197449 0.14644137382812 0 0.113397212543551 0.128031358885019 0 0.130390485467538 0.128499863841195 0 0.140738790609103 0.142961449073492 0 0.133234672945338 0.111739749905001 0 0.119999999999788 0.2 0 0.107844725460113 0.178072419834241 0 0.11358068681036 0.163924400700788 0 0.13338680038559 0.156269769358405 0 0.147404729040637 0.159923313287399 0 0.128142022527879 0.169773213816852 0 0.129200406287759 0.185922060591838 0 0.148016299171035 0.180360656104113 0 0.13999999999984 0.2 0 0.159999999999895 0.2 0 0.164020344021967 0.184005718855545 0 0.165899470899455 0.165899470899487 0 0.2 0.160000000000111 0 0.184005718855482 0.164020344021948 0 0.180024378698912 0.180024378698912 0 0.2 0.180000000000055 0 0.2 0.2 0 0.179999999999946 0.2 0 0.166839872615104 0.111799642146 0 0.156062717770035 0.100000000000005 0 0.150104201993318 0.123059021677381 0 0.160253059324355 0.14555876486765 0 0.169773213816783 0.128142022527869 0 0.186560263209849 0.129920447179442 0 0.180392060488524 0.147840493059407 0 0.2 0.140000000000166 0 0.2 0.120000000000221 0 0.182827535085176 0.113420838257665 0 0.2 0.100000000000274 0 0.2 0.0800000000002201 0 0.177997998358171 0.0922244082210998 0 0.16392440070079 0.0864193131896406 0 0.1599233132874 0.0525952709593643 0 0.156269769358407 0.0666131996144111 0 0.169773213816853 0.0718579774721213 0 0.180360656104115 0.0519837008289669 0 0.185912137728363 0.0708088115364079 0 0.2 0.060000000000167 0 0.2 0.0400000000001096 0 0.184005718855546 0.0359796559780329 0 0.2 0 0 0.2 0.0200000000000564 0 0.180024378698912 0.0199756213010879 0 0.180000000000055 0 0 0.164020344021948 0.015994281144518 0 0.160000000000111 0 0 0.165899470899487 0.0341005291005453 0 0.145558764867652 0.0397469406756457 0 0.128142022527869 0.0302267861832175 0 0.140000000000166 0 0 0.147840493059407 0.0196079395114762 0 0.129906047777445 0.0134265722028536 0 0.120000000000221 0 0 0.113312842742693 0.0170737305100911 0 0.100000000000274 0 0 0.123059021677381 0.0498957980066821 0 0.111688450529641 0.0332980393214812 0 0.100000000000005 0.0439372822299653 0 0.111739749905001 0.0667653270546627 0 0.1 0.1 0 0.111788044474371 0.0899810450729541 0 0.128031358885019 0.0866027874564487 0 0.140186785363484 0.0971936525307562 0 0.146598184681182 0.0801875265875624 0 0.142961449073493 0.0592612093908971 0 0.13014637779834 0.0687633044340075 0 
</DataArray>
</Points>
<Cells>
<DataArray type="UInt32" Name="connectivity" format="ascii">
1 2 0 0 2 3 4 31 5 1 4 5 1 5 2 6 2 5 6 5 31 6 31 29 6 12 11 6 29 12 8 3 7 3 2 7 6 7 2 6 11 7 8 7 11 9 11 10 9 8 11 17 9 10 14 10 11 14 11 12 24 13 12 14 12 13 14 13 15 16 14 15 21 15 13 137 15 21 137 16 15 134 17 16 17 10 16 16 10 14 22 25 18 139 19 18 22 18 19 22 20 21 22 19 20 137 21 20 22 21 23 24 23 21 24 21 13 24 12 29 24 27 23 25 23 27 22 23 25 25 67 18 26 67 25 26 25 27 26 27 28 30 28 27 30 34 28 37 26 28 30 27 29 24 29 27 30 29 31 30 31 32 33 35 32 33 32 31 33 31 4 37 28 34 36 37 34 30 32 34 35 34 32 35 36 34 36 38 37 37 41 42 38 41 37 38 39 41 39 40 41 39 51 40 42 41 40 42 44 45 42 40 43 69 44 43 42 43 44 68 45 44 26 45 68 37 45 26 37 42 45 47 46 49 47 49 48 52 50 49 51 48 50 48 49 50 51 50 40 52 40 50 52 43 40 52 59 43 52 56 59 52 49 53 52 53 56 54 56 53 46 54 53 46 53 49 55 65 57 54 55 56 55 57 56 58 56 57 58 59 56 58 60 59 69 59 60 58 62 60 61 60 62 61 62 81 58 63 62 58 57 63 81 62 63 64 81 63 65 64 63 65 63 57 66 68 70 66 18 67 66 67 68 26 68 67 69 70 68 69 68 44 69 43 59 69 60 70 71 72 70 71 76 72 71 70 60 71 61 74 71 60 61 66 70 72 66 72 18 139 18 72 139 72 73 76 73 72 76 77 73 71 74 76 61 75 74 76 74 75 76 75 77 78 77 75 78 75 83 78 84 101 78 100 77 79 77 100 79 141 73 99 79 100 99 142 79 79 73 77 80 86 81 64 80 81 81 86 85 81 85 82 61 81 82 61 82 75 75 82 83 85 84 83 78 83 84 85 87 84 85 83 82 85 86 87 88 87 86 88 89 87 80 88 86 97 94 90 89 97 90 89 90 87 91 87 90 91 90 94 91 84 87 91 101 84 91 104 101 91 93 104 92 104 93 95 93 94 95 92 93 91 94 93 96 95 94 96 94 97 102 107 98 99 98 110 99 100 98 102 98 100 78 101 100 102 100 101 102 101 104 102 104 103 92 105 104 105 103 104 105 106 103 106 107 103 102 103 107 108 110 107 110 98 107 106 108 107 108 109 110 109 116 110 114 110 116 99 110 111 114 111 110 143 111 113 99 111 143 144 113 112 114 112 113 114 113 111 114 115 112 114 116 115 109 117 116 117 115 116 117 118 115 118 119 115 121 122 119 118 121 119 126 119 122 126 115 119 120 122 121 120 123 122 123 125 124 123 124 122 126 122 124 126 124 130 125 130 124 126 112 115 126 130 127 126 127 112 128 127 130 128 135 127 144 127 135 125 129 130 129 131 130 128 130 131 129 132 131 132 133 131 128 131 133 16 136 133 134 16 133 132 134 133 128 136 135 128 133 136 137 136 16 137 135 136 138 135 137 138 137 20 138 145 135 138 141 145 138 20 19 138 19 140 139 73 140 139 140 19 141 140 73 138 140 141 141 143 145 79 142 141 141 142 143 99 143 142 144 145 143 144 143 113 144 112 127 144 135 145 
</DataArray>
<DataArray type="UInt32" Name="offsets" format="ascii">
3 6 9 12 15 18 21 24 27 30 33 36 39 42 45 48 51 54 57 60 63 66 69 72 75 78 81 84 87 90 93 96 99 102 105 108 111 114 117 120 123 126 129 132 135 138 141 144 147 150 153 156 159 162 165 168 171 174 177 180 183 186 189 192 195 198 201 204 207 210 213 216 219 222 225 228 231 234 237 240 243 246 249 252 255 258 261 264 267 270 273 276 279 282 285 288 291 294 297 300 303 306 309 312 315 318 321 324 327 330 333 336 339 342 345 348 351 354 357 360 363 366 369 372 375 378 381 384 387 390 393 396 399 402 405 408 411 414 417 420 423 426 429 432 435 438 441 444 447 450 453 456 459 462 465 468 471 474 477 480 483 486 489 492 495 498 501 504 507 510 513 516 519 522 525 528 531 534 537 540 543 546 549 552 555 558 561 564 567 570 573 576 579 582 585 588 591 594 597 600 603 606 609 612 615 618 621 624 627 630 633 636 639 642 645 648 651 654 657 660 663 666 669 672 675 678 681 684 687 690 693 696 699 702 705 708 711 714 717 720 723 726 729 732 735 738 741 744 747 750 
</DataArray>
<DataArray type="UInt32" Name="types" format="ascii">
5 5 5 5 5 5 5 5 5 5 5 5 5 5 5 5 5 5 5 5 5 5 5 5 5 5 5 5 5 5 5 5 5 5 5 5 5 5 5 5 5 5 5 5 5 5 5 5 5 5 5 5 5 5 5 5 5 5 5 5 5 5 5 5 5 5 5 5 5 5 5 5 5 5 5 5 5 5 5 5 5 5 5 5 5 5 5 5 5 5 5 5 5 5 5 5 5 5 5 5 5 5 5 5 5 5 5 5 5 5 5 5 5 5 5 5 5 5 5 5 5 5 5 5 5 5 5 5 5 5 5 5 5 5 5 5 5 5 5 5 5 5 5 5 5 5 5 5 5 5 5 5 5 5 5 5 5 5 5 5 5 5 5 5 5 5 5 5 5 5 5 5 5 5 5 5 5 5 5 5 5 5 5 5 5 5 5 5 5 5 5 5 5 5 5 5 5 5 5 5 5 5 5 5 5 5 5 5 5 5 5 5 5 5 5 5 5 5 5 5 5 5 5 5 5 5 5 5 5 5 5 5 5 5 5 5 5 5 5 5 5 5 5 5 5 5 5 5 5 5 
</DataArray>
</Cells>
<CellData Scalars="A_conc," Vectors="" Tensors="">
<DataArray type="Float64" Name="A_conc" format="ascii">
0 0 0 0 0 0 0 0 0 0 0 0 0 0 0 0 0 0 0 0 0 0 0 0 0 0 0 0 0 0 0 0 0 0 0 0 0 0 0 0 0 0 0 0 0 0 0 0 0 0 0 0 0 0 0 0 0 0 0 0 0 0 0 0 0 0 0 0 0 0 0 0 0 0 0 0 0 0 0 0 0 0 0 0 0 0 0 0 0 0 0 0 0 0 0 0 0 0 0 0 0 0 0 0 0 3.39413460091946e-05 0 0 0 0 0 0 0 0 0 0 0 1.25238702721499e-05 0 0 0 0 0 0 7.87104334720327e-06 0.0006126903921636 0.00944736435000828 6.6100318370195e-05 5.97255189350784e-05 0.0017717949285431 0.0155572437521622 0.0942338007751147 0.113394208474258 1.03900973175273 0.472461557829158 0.275078517262863 0.0138469607289064 1.07033219267027 0.338066761965796 0.0594829171092318 0.0106925874198939 0.000888412318851628 0.0153634189624198 0.00192991945696081 0.000118979223804699 0.00119803180767639 0.0119431025388035 0.136070175659345 0.474105058681414 0.477286887130155 0.023934092088815 0.108244538798032 0.417747821121083 1.09974931927786 0.0939831313627294 2.49502816887984 2.83361263421625 2.25743670064316 2.60692411356937 3.0531455836149 1.35690455090571 2.22933133460061 2.87573900114062 2.45659313166235 1.15153515367182 1.17613088809911 0.155708225764107 2.43726188716896 0.359088619337222 1.44025772050637 3.17045025828912 2.96627073208998 2.28679477238833 2.86239680328841 1.25185887988248 2.38838961565079 3.07165276674743 2.2912050330911 0.339234817525888 0.949929843373442 0.0589547213383471 0.761998934042909 2.10862010491398 1.37946555132196 2.44865491628654 0.211773371350715 0.468086972310241 1.15980901961105 2.32217511621728 2.62254051864985 3.09616980293479 2.08465649007581 1.49369746495617 1.95330252054805 2.9258699739913 3.02233107279993 3.02024308049138 2.27841184600434 0.0794982295826447 1.00435348340256 0.34092839618632 1.15366158666974 1.17613088807734 0.155708225762644 2.43726188716169 2.45772416289037 0.359088619339746 1.44025772049877 2.83361263422588 2.4950281688831 3.05314558362474 2.59572655899763 2.24634961875665 2.88049760999719 1.28029247785479 2.1588072362106 0.465314344792559 0.0878324810151558 0.328166812610934 1.09250807167582 0.435492734308035 0.110535885200543 0.0985214544407529 0.0149645197103955 0.0197341492215178 7.59965426275058e-05 3.84856725606887e-05 0.00127023808637141 0.0156749427639352 0.00201745972260621 3.31422072756392e-05 0.00139805136864219 0.000522899957418902 2.09486777589558e-05 0.0105268928047648 0.00585899492361812 0 0 7.25070863877142e-05 0 0.00145103472578913 0.000264093394378156 0.0573251647109678 0.0929598544399499 0.183619279337325 0.652325736217197 0.384607781132498 1.11729653379637 1.09160745151964 0.0796604846546174 
</DataArray>
</CellData>
</Piece>
</UnstructuredGrid>
</VTKFile>
