<?xml version="1.0"?>
<VTKFile type="UnstructuredGrid" version="0.1" byte_order="LittleEndian">
<UnstructuredGrid>
<Piece NumberOfPoints="714" NumberOfCells="1306">
<Points>
<DataArray type="Float64" NumberOfComponents="3" format="ascii">
0 0 0 0 0.10000000000041601 0 0.082799035591426873 0.082799035591510806 0 0.099999999999928008 0 0 0.19999999999983389 0 0 0.20669143849501961 0.085546078947938975 0 0.29145143692666958 0.13500804559578439 0 0.29999999999973409 0 0 0.24783073444672249 0.24783073444648379 0 0.21725788110387281 0.17316968768743621 0 0.17318221359491059 0.27409688392309489 0 0.089078158003765312 0.2493007687782936 0 0.140351188660986 0.16130415108589741 0 0 0.20000000000083221 0 0.066361468125430589 0.15903440181097661 0 0 0.30000000000124832 0 0.0632094674441709 0.3449112819864934 0 0 0.40000000000166441 0 0.083393126324559225 0.42307471369029392 0 0.13897501191807771 0.34545639364066222 0 0.070553891733833127 0.57745844360881338 0 0 0.60000000000138687 0 0 0.50000000000205869 0 0.12353277228144981 0.51086097771927308 0 0.16324260003398389 0.62262730759772122 0 0.1946526892501724 0.54636184660733622 0 0.27220668248394869 0.50912429725145214 0 0.27661118526457179 0.58730386222759956 0 0.16486701364709541 0.41592657376307979 0 0.21928696632013719 0.4676461135047027 0 0.29987747321592639 0.43430880093746571 0 0.2371857680100064 0.35865548441110112 0 0.34318159319555042 0.3314386771104964 0 0.38593969585746768 0.44843324941957241 0 0.42544665781957403 0.3726599289372452 0 0.38240158409674341 0.60644575028138747 0 0.34793494568226019 0.52426775179830853 0 0.45232393232070839 0.53082724112931345 0 0.46433624429412901 0.61260020600107856 0 0.55763912874459476 0.49619993861770217 0 0.56379254693201075 0.58472273515948836 0 0.49272830291620878 0.32528628960011152 0 0.47711113382803011 0.43513410852522788 0 0.56509579243166053 0.39588847936247551 0 0.58612580217118482 0.27813894450229909 0 0.49255105193724569 0.22337579986912359 0 0.5565830077206213 0.19095699352548859 0 0.59999999999951659 0 0 0.57505385014294308 0.072457888465917331 0 0.49999999999959438 0 0 0.50264032148191051 0.12292784096123539 0 0.43504744109702559 0.077628892606360606 0 0.39999999999966429 0 0 0.35933948296838258 0.073809900849860513 0 0.33604819894646598 0.23280286076243209 0 0.41589935411558732 0.26752529264016389 0 0.40428440976105728 0.1643886070295453 0 0 1 0 0.099999999999999645 1 0 0.14716362552681639 0.93861610753355362 0 0.19999999999999929 1 0 0.30000000000000071 1 0 0.29792158491427922 0.79537096033156995 0 0.2235202862591317 0.88873896332704583 0 0.1332109546178302 0.87498377138822103 0 0.075231054453351903 0.92314074346405706 0 0 0.89999999999958358 0 0 0.79999999999999982 0 0.074918724681641777 0.83311952320732263 0 0.1533088418661793 0.80370257472597129 0 0.089684836063650353 0.74720097194875412 0 0 0.7000000000006934 0 0.079752623936563252 0.65630726580969023 0 0.16551550920047911 0.70947866912672319 0 0.22047232289835689 0.77501739045979867 0 0.25446499951716589 0.69023946426646743 0 0.32437633398017029 0.65970549827478953 0 0.33985912385126898 0.73174041004507751 0 0.42824324229177341 0.6924957961634054 0 0.5174764925733939 0.65338828204098198 0 0.59670004617370476 0.65981579440137683 0 0.62152629835360762 0.73285157302339954 0 0.52912171753951986 0.73993242892488531 0 0.51076728641122882 0.81691863363193817 0 0.62017612851329729 0.81451802170669263 0 0.56701461556202259 0.86335846433862784 0 0.45907587517201498 0.90165918271477563 0 0.43819239467549531 0.79296936871720936 0 0.36912581253574028 0.83088590731704637 0 0.37337282601342481 0.92616598444216514 0 0.31535921456193688 0.88154045330654418 0 0.39999999999999952 1 0 0.49999999999999911 1 0 0.59999999999999964 1 0 0.5499999999999996 0.93976792513729512 0 0.70000000000000018 1 0 0.79999999999999982 1 0 0.89999999999999947 1 0 0.8793859710393791 0.93083561064221121 0 0.93540888248908083 0.88281232945237675 0 0.91372311269140116 0.80486176357476358 0 0.82192606283926717 0.87651855948129354 0 0.73937541854631073 0.9288754054780668 0 0.64588148000090029 0.91512139508160772 0 0.76404828705430583 0.78174230667165401 0 0.71722872346306721 0.85096302760907838 0 0.69085763855200755 0.76120667115691065 0 0.6754414170471299 0.67700559910555169 0 0.74547688787239819 0.70026419381674654 0 0.81910554849723838 0.69100245438023977 0 0.84477163403336131 0.77519844632340484 0 0.90192269692920224 0.70295054578552552 0 0.9749171938312049 0.68304286407835557 0 0.98491966670915287 0.745702719141624 0 1.0785590511537511 0.75365885686631617 0 1.05 0.67063679245255348 0 1.1595355377629719 0.69612720023346242 0 1.2316049928421089 0.71268197388690568 0 1.130022579458912 0.80264790230838934 0 1.2104878010462079 0.79638517641579154 0 1.246238897717278 0.90016207822659 0 1.1492841477515361 0.89495863909300122 0 1.035017143854235 0.92577305964649748 0 1.039491394416145 0.83402983011495258 0 0.99999999999999911 1 0 0.94997493298435887 0.94717135651053852 0 1.1000000000000001 1 0 1.1999999999999991 1 0 0.8520969719592798 0.19112077159544111 0 0.81051762114363357 0.25355176211442859 0 0.91043121937362004 0.26518856856736223 0 0.87151744524583186 0.1145610820769897 0 0.89999999999870417 0 0 0.8072276847200428 0.07509171132446453 0 0.79999999999899607 0 0 0.75434135135171976 0.12888799631625769 0 0.73796379772146625 0.059893436010741673 0 0.69999999999928797 0 0 0.66267222434682926 0.078497159578092612 0 0.64669101990832323 0.1799054750174742 0 0.75284581776561577 0.20455093921856349 0 0.7545004114404561 0.31098089234202853 0 0.68811979868824935 0.26566684131589419 0 0.65823561246403328 0.35502292901158627 0 0.64897033023755402 0.45530630145656431 0 0.71094001953927277 0.41472992215547572 0 0.65500944633069913 0.60601350811213128 0 0.66278242936710119 0.53985356489900171 0 0.74775703275407246 0.49059679564787018 0 0.74991769371388628 0.60451627361984739 0 0.85383906663538056 0.62014574817393608 0 0.82099888937423493 0.54529350322201742 0 0.89730215834238125 0.56352362508531118 0 0.79315209058920677 0.38802315963964318 0 0.83603391221093415 0.31708941802047369 0 0.84897848255088726 0.46000674997733482 0 0.9184189969982266 0.43608586792060411 0 0.89716106756302072 0.36571612550017968 0 0.97284972811175952 0.32057650487681749 0 0.97803218086495292 0.39957666910545891 0 1.049999999998295 0.45311778235774403 0 1.0499999999982661 0.33749999999944968 0 0.95554667482020261 0.61387123313571723 0 0.95438428234324713 0.50021891445525024 0 1.0610070115193291 0.56187728740506249 0 1.160572984923127 0.60155304747043781 0 1.1544259370261769 0.49580194535795907 0 1.11366617971111 0.39530889117858181 0 1.1787318575418491 0.43180077319900678 0 1.2482752740169289 0.44264463249545388 0 1.193211192060164 0.36417169501775798 0 1.2189485028845071 0.28846717556219142 0 1.225209211892335 0.20648826945283069 0 1.14543293599463 0.16096823716187 0 1.1317936052402791 0.27327200211975772 0 1.0273907165533489 0.25089655084417212 0 1.0673059847957449 0.1861726764986896 0 0.96758455917765662 0.17206502793490561 0 0.99999999999841238 0 0 0.95940036225003311 0.0802667348803804 0 1.0527907183502181 0.1005001786211816 0 1.1494214575391031 0.075340014825429069 0 1.09999999999812 0 0 1.199999999997829 0 0 1.2999999999975369 0 0 1.254652873386052 0.105753482544517 0 1.3681535985071449 0.13698083382674339 0 1.399999999997245 0 0 1.349999999997392 0.060567969661089648 0 1.291408388555241 0.26372433042992383 0 1.316869459340541 0.18778020585802921 0 1.3878996413210389 0.26723502210068018 0 1.473286192129879 0.27883707652097373 0 1.4156792278190771 0.19574754335211339 0 1.4905184776249101 0.20629734327603311 0 1.545236949037224 0.29434567071731399 0 1.456639397274391 0.1016053838939758 0 1.53341268746562 0.14194251306413061 0 1.542152768646126 0.073248247890105089 0 1.4999999999969531 0 0 1.599999999996661 0 0 1.6999999999963691 0 0 1.6799832100487111 0.082202015566833181 0 1.609545399082946 0.1308291592921435 0 1.567491488875842 0.20218805454405439 0 1.6351951680630969 0.23707571199064051 0 1.714493154391862 0.28897291620938281 0 1.7304700827703301 0.17386188770806579 0 1.799219293849516 0.26438879273789773 0 1.8480644103363271 0.19193194889233381 0 1.8299024103288899 0.1151394713368583 0 1.799999999996077 0 0 1.75369588639865 0.074917217572982864 0 1.7537858687071439 0.50406839622489796 0 1.742806034420483 0.6006074591026016 0 1.8544400981153091 0.62488101477716596 0 1.8316048184152021 0.54157006606434721 0 1.850967139686138 0.45738417241574703 0 1.8620515405159661 0.32644761881501039 0 1.787749129254824 0.36176402170097799 0 1.7808296409871709 0.43587276890434401 0 1.71976181471802 0.39635806210359681 0 1.645895854313963 0.45222881216869149 0 1.6419306970571019 0.3436055112169133 0 1.645263810758179 0.55814977621663464 0 1.5386621965636409 0.60828218080060537 0 1.550364457075788 0.50467902559054656 0 1.4795754400412069 0.53983964974648579 0 1.445918816848357 0.6075709531782556 0 1.551956040519719 0.40384519109247291 0 1.4491802319415681 0.4666714614197911 0 1.4507225717793131 0.3561247496431208 0 1.347125314110625 0.32447518420453242 0 1.385017785528226 0.40713366384701549 0 1.3198129865007471 0.39133224900025881 0 1.2615469736996101 0.34090999671933891 0 1.3860523322451299 0.56073196187600105 0 1.3462106466432811 0.48060664220838062 0 1.2709684905841181 0.55537862536316829 0 1.2546738886072291 0.63615646469940468 0 1.3545060270195819 0.65002758689694418 0 1.4000454837723419 0.73943313674757749 0 1.3035852436207409 0.73866974635260263 0 1.2914654457895349 0.81843301378315825 0 1.3255948392482531 0.88328132587465524 0 1.3864786876100039 0.92208751032957958 0 1.386174597084219 0.82350876346868962 0 1.482119963281066 0.782586299849238 0 1.463012078585596 0.89209645917012148 0 1.546104640467868 0.9195568013001878 0 1.535346256113697 0.70153336654872078 0 1.4534042830965781 0.68426123045930609 0 1.2999999999999989 1 0 1.399999999999999 1 0 1.5 1 0 1.599999999999999 1 0 1.6999999999999991 1 0 1.7999999999999989 1 0 1.6597641702579149 0.778
[...]
<CellData Scalars="A_conc,As-lin_conc,B_conc,Bs-lang_conc,C_conc,Cs-freund_conc," Vectors="" Tensors="">
<DataArray type="Float64" Name="A_conc" format="ascii">
0.051524076199328014 0.055616796186025858 0.051511349248513388 0.054227086661533773 0.057953709802954792 0.061403768974799572 0.060343931062962597 0.066122956156651355 0.067522639605429494 0.071205394919551246 0.075887414311989781 0.070985672912299638 0.079414691059275733 0.074013298687873208 0.076940330060438891 0.066139787159537111 0.069975578095082605 0.070395633255220053 0.061708346925065202 0.062422400192197684 0.058792209232712167 0.055158976676335417 0.054530147819572022 0.050689898380228512 0.053842335628129831 0.051196348717561728 0.051534744336164298 0.061134990228341568 0.061542885568229677 0.057499557390930968 0.058096328136703783 0.054202540922613771 0.051427048955127189 0.055910908220079859 0.054869815541455286 0.0609478059378636 0.057656676409731364 0.064639382887133778 0.067549400113463609 0.071345653357334921 0.067331935976052124 0.076791419016449397 0.079484151198871589 0.07611364998017664 0.072874558305556225 0.065151347416439076 0.06609601695707662 0.070523591510819883 0.065326575808399373 0.073612176312848582 0.077841536670253578 0.073934524768619808 0.086533875678879796 0.082518435438736853 0.090984283552312487 0.095763557962080526 0.091746311272449629 0.087838920853024277 0.080729835297554564 0.080532800415493183 0.082833139624726826 0.092442665377743399 0.087513510147727874 0.085571828440042935 0.090890639613856405 0.094925474751332006 0.10001760211082958 0.096813859715711131 0.10012412688540108 0.11042660316338831 0.1055002156106753 0.10785855007263639 0.098783721627029836 0.10246786656786204 0.11160771910382938 0.10671558263270418 0.10313466222033607 0.1073783396802894 0.098769845133039672 0.10012959246268849 0.10369311613638926 0.10743915088884352 0.10613218261068572 0.10975636831993171 0.10476390522911605 0.10033487218904895 0.097012339316420795 0.10290983262176938 0.09209116159933646 0.088262212961795677 0.092033087617137327 0.08835339703245218 0.083393829889441135 0.080222016528484125 0.083387646630423889 0.08125507918116176 0.08738205065238086 0.08383718640609486 0.094943783004654225 0.095433543158264328 0.091158790906042259 0.05133204196455661 0.05506464170232004 0.059793290499988175 0.063737221557674223 0.068580223850735783 0.071797181991924391 0.076706476137456556 0.071319516868522753 0.075274563335260586 0.067999065104066975 0.064166122168930778 0.063399589114331606 0.060106342558637629 0.057645991946708441 0.054097401288567479 0.050884637337458724 0.054947654593295189 0.060788006593442585 0.058767932973642301 0.059197460325982623 0.063063093943144827 0.050881002010352158 0.055191875353259659 0.050918136282965695 0.063011157021371583 0.071788111156400214 0.067093833765665523 0.070292420559485744 0.06650026038938997 0.074276797794316118 0.077679132743493501 0.079111789318174197 0.076982375070205944 0.08673464289919651 0.082896843145846916 0.09309997739089268 0.088508584718525379 0.091030781454870674 0.097590826282775378 0.095260980429931974 0.10230545474535331 0.10404297937971624 0.10762098338551884 0.10639243748105132 0.094429488110422233 0.098164082533772803 0.10207014455456599 0.10386748969748491 0.10456199960397258 0.10920032692096959 0.099601090486057781 0.097720152070104399 0.086133726700492519 0.090627579206112363 0.085331069649847768 0.08231884922706792 0.079756735291139469 0.081194813635113661 0.083353198493005043 0.084962715221797339 0.089927369977707783 0.093460383069590647 0.098442349716394845 0.10382380025185739 0.10881547178071854 0.11793622737275515 0.11293997013719026 0.12309362800581 0.13543558431800601 0.14043487239819807 0.13469358582418278 0.1406220986042423 0.13241140003520541 0.13555124886408326 0.12844943685384969 0.13175420213399702 0.12809190476194421 0.12187774652840247 0.11740010759624485 0.11247985527810403 0.11592132366318018 0.12023690037651685 0.12399565571325336 0.12566465251551831 0.11854605828768018 0.12223978894494432 0.11534028617060869 0.11223144931578949 0.11610408574510216 0.11100941679566352 0.11241647101030323 0.1207707276262847 0.12432556954139984 0.12823337369626026 0.13395829207376536 0.13324800551702254 0.12906465851834464 0.14101943121301244 0.13774370396591595 0.13775202262442537 0.14264835543644619 0.1462026950727317 0.14775656017035327 0.14394800638947652 0.15097287545233323 0.15101258479528412 0.1611405489025019 0.16663128890887435 0.17100234779606657 0.17090015256393271 0.16773422595583171 0.15551796497834186 0.16354924287980055 0.16029742222747279 0.16350773059149926 0.15865377742279327 0.17209466493743827 0.16841664579730714 0.16733656350643478 0.15293916474028676 0.1558918199463413 0.14562530196463719 0.14113754965497555 0.14396660205292958 0.14785405067370383 0.14467897911105998 0.14967889750553071 0.15342623595673305 0.15842620547620892 0.16341665452165657 0.17344117179936885 0.12461964904082731 0.12999286516545311 0.13172151086327602 0.12776787386511546 0.13450777896584565 0.1390449584608395 0.13515281242586821 0.14122873999376553 0.13955588442522235 0.1358509320249115 0.13085183931914143 0.12746222217188735 0.12947634045488773 0.12899931204648268 0.12139409598366963 0.12537846211102002 0.12246414719317691 0.11389289766161179 0.1188893562947583 0.11086587651790729 0.115357116092943 0.11698335977009308 0.11928930580376487 0.12594712768656102 0.12266389576119713 0.11160004771203176 0.11658686931934194 0.11169837456016821 0.11607361280706677 0.11954399685353014 0.12362605104679411 0.1224906022027408 0.11860292445130564 0.11545144421381032 0.11076868378149571 0.11532393201813187 0.12028058578756701 0.12457493627513824 0.12756954921416758 0.13242215655372352 0.13340932919201984 0.12885048622815259 0.13679878125400857 0.14192566526777092 0.13661883332807076 0.13106086308577847 0.12687672679867654 0.13266701290527655 0.12714513343141454 0.13729726555763777 0.13987817719849144 0.1402531486835224 0.13692615093847421 0.14030335103546079 0.14353109674085621 0.14746352945895874 0.14402082715391168 0.14657251535676735 0.155402665570822 0.1518042970420857 0.14481206943394537 0.15467720569400978 0.1496581289649751 0.15565915923760937 0.15064929716339445 0.16031174140359861 0.16994641286116347 0.16517470915888643 0.1719670053699249 0.16207618746165015 0.15846354193951778 0.16306402815083776 0.1587083774993272 0.1648157614115654 0.16601143857004161 0.16845968129787603 0.17155639208634327 0.17043504610310212 0.17231595548536688 0.16790019469776868 0.16616691314670026 0.16941371704132219 0.16424844168687075 0.16049515856728896 0.14928913437048796 0.1529257074004815 0.15610336109940168 0.15066679039899494 0.14423440356038308 0.14400058803037027 0.14950384770155628 0.14450405879156786 0.14577563850739597 0.1505955026615938 0.15546201936381132 0.15364191239325464 0.1641118467245064 0.15864187932790186 0.15920117800983558 0.16397410187350162 0.16911183456369835 0.17358752821252171 0.17858752197532629 0.17962861707183028 0.17880270652400226 0.18493271661705285 0.18944326105217549 0.18444326885452689 0.17744356479683032 0.17429919740839067 0.17406777249563862 0.17651247756413516 0.18554629942040202 0.18544952735366732 0.18078188341619433 0.18220018606501728 0.19129822362547633 0.19053403390601306 0.19440117301116061 0.19381934192473527 0.20146870696561026 0.20101508087364128 0.19585162888264412 0.1983530647813386 0.19363142962355123 0.19016462714001442 0.19987705110883738 0.19739060755621074 0.20397232589142064 0.20324081644282033 0.19863142710955217 0.2114003893218297 0.20824081410406153 0.21481947236051741 0.21981947291619466 0.21557334438678599 0.20494901884338404 0.20842818391296092 0.20946769803372242 0.20526774577323281 0.21414666517055825 0.21139224583098445 0.21783512524245957 0.22648905240500566 0.22216018340123961 0.22525681071258527 0.23366862202372973 0.23258849152519767 0.22805027390055729 0.23408820112128031 0.23199440179593339 0.22870637341625175 0.22370637301666199 0.22043444487388511 0.22403457900416524 0.22481991523064654 0.22875600579755156 0.22918879835455919 0.22863073108393889 0.23142650592215583 0.22934832555395113 0.22181641104631669 0.22276508549149154 0.22507935939080154 0.2253928662997868 0.21818934349341534 0.21432846091610785 0.21805425905443512 0.20492281209835725 0.20450118497872138 0.20971977114123713 0.20879044571705291 0.2135513745469603 0.21970135352948958 0.21491744961109305 0.20417261290070193 0.20967727025628197 0.20083173150070113 0.19622525498240989 0.1958244595137737 0.19101505576517447 0.19206818016387667 0.20000754057038167 0.1994119691096024 0.19132443497908777 0.19457409310601276 0.18530486538374019 0.18723677388930965 0.18240681107052534 0.18559749969380007 0.18200613007959046 0.17767061397127487 0.17482144664816085 0.17846359120237951 0.18140052396375728 0.1872904889972572 0.18633419547271862 0.18071310150276373 0.17517389683022727 0.17702105621669695 0.17485533931154887 0.17783437872953256 0.18815524377609583 0.18335167555481308 0.1835189892320703 0.17481420970786243 0.17903059399160381 0.17844116679746755 0.17601993095706164 0.18485982184897642 0.18222387799508794 0.17980166471813519 0.19200065078616502 0.1883498184710993 0.18789802896709942 0.19905979635634835 0.20088778697653212 0.1964409034324367 0.20122779417486264 0.19705014696978618 0.20119289095766768 0.19949727774374965 0.19483323491757296 0.19005539289265549 0.19357656495318937 0.18610881664035758 0.19405979758812675 0.19110881510479383 0.20337733818358295 0.21207381272397879 0.22102107694532061 0.21602107687707822 0.22433581665410079 0.22933581688937527 0.23365714606312382 0.2151891052853907 0.21997374511654968 0.20362509008800131 0.21141366510167856 0.20724258371428583 0.20941130672802125 0.20586060921683261 0.20533759031641349 0.20837733523362811 0.21465248780086679 0.21820934375759729 0.21339686716963793 0.22274278712147924 0.22679812547431205 0.21830776338040325 0.22195528253659416 0.2255080834053001 0.23057019425595124 0.2336973081968183 0.23508392439217851 0.23013869232675419 0.22617079327342551 0.2214148167905981 0.22579187537000389 0.23191159080767412 0.2405153681643325 0.23683870806536131 0.24890155687920457 0.24513853593525203 0.2480395390223252 0.25130089736126543 0.23892017858825151 0.24312105348570723 0.23818645725017257 0.24123456550495143 0.24648043137126235 0.24798195901557846 0.24425406663971222 0.25202128006134317 0.2501994435515047 0.26019432611044391 0.26275133864976424 0.25742306978251006 0.2624082816366744 0.2616748358086759 0.26316204570708562 0.25482643847205955 0.25382331896904953 0.25375118706667565 0.2576625514004306 0.25865342725886264 0.24297978188201586 0.23865706894520822 0.24797925647830701 0.25163436980623843 0.25663358190958108 0.26428917171209437 0.26928879415400042 0.273939535229903 0.28504288155774143 0.29004284701184752 0.29339363819328657 0.2818275876620544 0.27877047685480222 0.27611903347974887 0.26689229364249212 0.26726719258489579 0.27059862675738811 0.27309594671979315 0.27293874438518428 0.26697935914802295 0.28114157370496073 0.27893935149221671 0.27729353336580775 0.27713689315919859 0.28695718091567035 0.29314102310316292 0.29152897444882997 0.29703268018682261 0.29140562544851567 0.29594576011008045 0.28686887251693455 0.28456070784613574 0.28797213259857957 0.29145999254628313 0.296074536853976 0.29225569760723186 0.29613150061175986 0.29611749285933631 0.29065829817592004 0.28614675482548962 0.28335215450184204 0.28658800579423771 0.27772752983147586 0.27605651988912561 0.2823676702472635 0.27211568313468582 0.26777735522950408 0.27039876850431666 0.27381501072698688 0.26753851003709872 0.27169580957916584 0.27463351541213649 0.27844973170425957 0.27656302651005121 0.28088056715918874 0.28294221576346773 0.28677885803856562 0.29077348130420688 0.29428648436371996 0.29610301006478518 0.29514209185130569 0.29207775500638444 0.29400058159246556 0.28999569398479941 0.28590128949596016 0.28097831639070076 0.2887079480808657 0.28459584005277871 0.29356925439590309 0.29856925366077269 0.29410722808147938 0.29828318839612766 0.28976840440575735 0.28862066084493554 0.28450751774594746 0.28857082606853623 0.28357082606763573 0.2787788407067594 0.27919354857451162 0.27484385327516714 0.26949417992321634 0.26765511175195 0.27377884131536201 0.27748328376521936 0.2718411078988866 0.26757228200199001 0.26804091358493709 0.27303971432221652 0.26367423409493551 0.26042595328048529 0.25877306095352892 0.25167432614393637 0.25447319315228339 0.26265511227820509 0.26510456478674477 0.25553107953053672 0.25797628592009403 0.25297628668280858 0.2478458735474785 0.25027018833882519 0.23887503147090894 0.23371630541772484 0.23908820106986065 0.24408820037421566 0.24520919843711925 0.24750113486821557 0.24958967666443579 0.24463007038282436 0.23727589046682462 0.23958877150252492 0.2425147710807013 0.23797787746925952 0.23499214174218638 0.23825858614045309 0.24179417304421505 0.245546743080891 0.25041045579230303 0.24531943976388065 0.2381603316146973 0.23945306878765071 0.23351100795130356 0.23400504939717148 0.23838070131856279 0.2485483924936161 0.24425330336471962 0.24855530330543962 0.25311118655853426 0.25693523693926218 0.25317095836019488 0.25804758404218081 0.26585756708301733 0.26174721664216177 0.26361454139892992 0.26150021698900144 0.25678409809742547 0.25351314453891532 0.25914825945406883 0.52277775585311637 0.51913590010265132 0.52777775484601863 0.53653829547610032 0.53954191540844898 0.53153829699825916 0.54223951963410688 0.54723951974560758 0.54157928208943329 0.54118315659416194 0.54619259005962384 0.54121427905590735 0.53640842209015371 0.5366184372348195 0.53356257689211317 0.54658548953927233 0.54160718051418821 0.54502168939044682 0.53721989492752509 0.52798569330192524 0.5270036362098629 0.53200989905021667 0.53021647647174941 0.5182165082205914 0.5217609625797871 0.51981973579435115 0.52397410715136372 0.52980701680798048 0.52484131412136314 0.52639210532225689 0.52170126001978756 0.51698467299595818 0.51664496010271654 0.50661543320645963 0.5129056175235982 0.51114182722984491 0.50340776524229358 0.51592283541091732 0.51062148754451009 0.51366700750807526 0.50823625605695666 0.50356382289456914 0.50085216348955819 0.50611173344375338 0.49220899186475375 0.49749940784315883 0.49196024151593476 0.49374761528256472 0.48803398426701633 0.48860409381541436 0.49960700641790773 0.49400324253251665 0.49852226159857604 0.48844063620381883 0.48702103331502766 0.48791551043316472 0.4896571027312645 0.49465710111968203 0.49837298038492883 0.51413590265244968 0.51036486379764012 0.50680309147062685 0.50180310140778128 0.51969075225031613 0.52347506811801259 0.5247247019468837 0.53015869123550141 0.52847506740813821 0.53660325201962489 0.53678960443460133 0.53178960754408555 0.54223952003128939 0.54723952021629096 0.54177054401757196 0.54169002572789704 0.53294901150113771 0.53653862508270744 0.53580530371091795 0.5461925923871378 0.5412142854429236 0.54502169341320272 0.5414877697626358 0.53228475243879037 0.52972272302813672 0.52502295952699485 0.51891767195568161 0.52039282402107356 0.52424794348822479 0.52167648538029332 0.52047672145120327 0.52506094555067273 0.52897842773480508 0.5248295312016622 0.52913733027647314 0.52822681659202719 0.53696313565600517 0.53734371789722946 0.54646607542165715 0.54112261105025383 0.54465653086021559 0.53312795675078029 0.5344554466521495 0.53941397319911311 0.54475743827807599 0.54134292327316036 0.53681471160673988 0.53160380795208206 0.52783654563466853 0.52349768993457491 0.51940158420916283 0.52267466819055985 0.5118260048979163 0.51536064905963341 0.51109393329518382 0.50752993459625528 0.50329534781621232 0.50332112241624793 0.50823035997464694 0.4960353826004405 0.5004294191162737 0.49297173297332286 0.48854251037918123 0.48618621482620622 0.49876671932622674 0.49549079141226776 0.49892323355032553 0.4947535844934447 0.49164789711251067 0.48666821880404576 0.48928920399510933 0.48496284031840542 0.49398470437468778 0.50283393730995529 0.50752777238001445 0.5071113508727112 0.51582877608989763 0.51137435179228419 0.51189404302179764 0.51701178590155739 0.51544592791855659 0.51135226330569827 0.51572254892053115 0.50204981850822905 0.5075168329059665 0.5005747274600939 0.49634701936785408 0.48832309720402906 0.49242147113442303 0.48813656056271071 0.49260507202395765 0.49642388562127104 0.49974352321570625 0.49471479096026622 0.48675900978084397 0.48932497422457355 0.48728477969560319 0.49252716985626366 0.49752708803698581 0.50681179592935277 0.50181183008809627 0.50470050115442111 0.5095287629088453 0.51342400972521995 0.511606875729129 0.51660687345041989 0.4579243658110132 0.46110152238619201 0.46526369377922649 0.46963905120282501 0.46463905099872488 0.47407057012845738 0.48228481283880914 0.47907053852437825 0.47401129093783045 0.47025629396098251 0.47811859826835001 0.47276965156816875 0.48424753871112119 0.48264306085914588 0.48336999325596181 0.4799798442565098 0.47596365148148517 0.4691824327280707 0.46591273844029341 0.46926384166656004 0.46228507875461633 0.45428411098768656 0.45803193925807451 0.45683944464851167 0.46158378409204448 0.45417885899747629 0.46014169561443075 0.45481778017897823 0.46494142231432128 0.47047311557093541 0.47639160803995739 0.48029977148389191 0.47851774467531993 0.48318470278539594 0.47518391554269684 0.47011168322060504 0.47512226597499019 0.47856126552594602 0.48295733406201591 0.4800405594736869 0.48258844873995987 0.47651979648164561 0.47309830423684879 0.46516319166931747 0.46869015602439079 0.46456272601669346 0.45956188353666116 0.4567792089059447 0.46197988519843575 0.45059184553280729 0.447573358342508 0.45415032560157548 0.44536837735372081 0.44996749270649206 0.44058114843740009 0.44110013865786923 0.44424212227377868 0.43322533659894902 0.43679985053707965 0.43366581429728013 0.42553868729539779 0.4231768912869619 0.42882202219154325 0.42679664144744084 0.43618092200044406 0.43101553335308668 0.43246136660887574 0.42761547909864706 0.42261727549762518 0.42352417918882551 0.43516091754345532 0.43709975516682253 0.44080754687993001 0.4503244102893601 0.44454415977282008 0.44888513873350877 0.44508657939374863 0.44913677710200944 0.45223842349610305 0.45052932906547305 0.44405943778863533 0.44115241143760542 0.44214942367112825 0.44528770466790596 0.43209598395118826 0.42398681704009311 0.42828086248875918 0.42339021784753927 0.42643993201673597 0.43577242014124778 0.43547612926969614 0.43098605619157937 0.43548687459551799 0.43312270778560552 0.42871957587318799 0.42654069815667078 0.43090796257075348 0.43590796043674251 0.44008457558844893 0.44508457129628543 0.43905637376132234 0.43989802735448369 0.45347812844517055 0.44734271626249356 0.44991386298301062 0.44863166320905834 0.45292436588048601 0.46256876229486782 0.45836948117674542 0.47310225628534175 0.4846571025556925 0.47778891750717556 0.47810225027261855 0.48234810815637852 0.48377588243152736 0.47457316424841889 0.47377239190544063 0.48002859713106627 0.48369199789748835 0.47895808091278519 0.48335894154093761 0.47024840660940864 0.46926773814135603 0.47274907831387042 0.47663051330335787 0.46893369900532433 0.4663563818475141 0.45980482875503692 0.46143462090181209 0.45808410451372433 0.46849588697658229 0.46756874703729123 0.46388305440304162 0.46514305821820179 0.45605746235809852 0.45979785681688173 0.4546830296046539 0.4494097349428452 0.45187903810689828 0.44592469209246643 0.44151159210965052 0.45048891177512373 0.45433591348608321 0.44722312113089557 0.44360982937237425 0.43875812058409147 0.44746504871603132 0.44305310545851279 0.43667710174565122 0.4391043793405548 0.43337329322114915 0.434012702894497 0.42489813924834402 0.42443393650545747 0.42785651256913809 0.42877091426188085 0.43322272953947916 0.43724901201521238 0.43177228194663875 0.42875422170967226 0.4270082526327495 0.42880252987838974 0.42322256062130714 0.42822245326482999 0.4339811728534117 0.43898111882235663 0.44280964612325835 0.45336947981389197 0.44780964513662019 0.39238950050762089 0.39738946498516581 0