<?xml version="1.0"?>
<VTKFile type="UnstructuredGrid" version="0.1" byte_order="LittleEndian">
<UnstructuredGrid>
<Piece NumberOfPoints="714" NumberOfCells="1306">
<Points>
<DataArray type="Float64" NumberOfComponents="3" format="ascii">
0 0 0 0.099999999999928008 0 0 0.082799035591426873 0.082799035591510806 0 0 0.10000000000041601 0 0.066361468125430589 0.15903440181097661 0 0 0.20000000000083221 0 0 0.30000000000124832 0 0.089078158003765312 0.2493007687782936 0 0.140351188660986 0.16130415108589741 0 0.21725788110387281 0.17316968768743621 0 0.17318221359491059 0.27409688392309489 0 0.24783073444672249 0.24783073444648379 0 0.29145143692666958 0.13500804559578439 0 0.20669143849501961 0.085546078947938975 0 0.19999999999983389 0 0 0.29999999999973409 0 0 0.35933948296838258 0.073809900849860513 0 0.43504744109702559 0.077628892606360606 0 0.39999999999966429 0 0 0.49999999999959438 0 0 0.59999999999951659 0 0 0.57505385014294308 0.072457888465917331 0 0.50264032148191051 0.12292784096123539 0 0.49255105193724569 0.22337579986912359 0 0.5565830077206213 0.19095699352548859 0 0.58612580217118482 0.27813894450229909 0 0.41589935411558732 0.26752529264016389 0 0.40428440976105728 0.1643886070295453 0 0.33604819894646598 0.23280286076243209 0 0.34318159319555042 0.3314386771104964 0 0.38593969585746768 0.44843324941957241 0 0.42544665781957403 0.3726599289372452 0 0.49272830291620878 0.32528628960011152 0 0.56509579243166053 0.39588847936247551 0 0.47711113382803011 0.43513410852522788 0 0.55763912874459476 0.49619993861770217 0 0.56379254693201075 0.58472273515948836 0 0.46433624429412901 0.61260020600107856 0 0.45232393232070839 0.53082724112931345 0 0.34793494568226019 0.52426775179830853 0 0.38240158409674341 0.60644575028138747 0 0.27661118526457179 0.58730386222759956 0 0.16324260003398389 0.62262730759772122 0 0.1946526892501724 0.54636184660733622 0 0.27220668248394869 0.50912429725145214 0 0.29987747321592639 0.43430880093746571 0 0.2371857680100064 0.35865548441110112 0 0.16486701364709541 0.41592657376307979 0 0.21928696632013719 0.4676461135047027 0 0.083393126324559225 0.42307471369029392 0 0.13897501191807771 0.34545639364066222 0 0.0632094674441709 0.3449112819864934 0 0 0.40000000000166441 0 0 0.50000000000205869 0 0.12353277228144981 0.51086097771927308 0 0.070553891733833127 0.57745844360881338 0 0 0.60000000000138687 0 0 0.7000000000006934 0 0.089684836063650353 0.74720097194875412 0 0.079752623936563252 0.65630726580969023 0 0.25446499951716589 0.69023946426646743 0 0.22047232289835689 0.77501739045979867 0 0.16551550920047911 0.70947866912672319 0 0.29792158491427922 0.79537096033156995 0 0.2235202862591317 0.88873896332704583 0 0.1332109546178302 0.87498377138822103 0 0.1533088418661793 0.80370257472597129 0 0.074918724681641777 0.83311952320732263 0 0 0.79999999999999982 0 0 0.89999999999958358 0 0.075231054453351903 0.92314074346405706 0 0 1 0 0.14716362552681639 0.93861610753355362 0 0.099999999999999645 1 0 0.19999999999999929 1 0 0.30000000000000071 1 0 0.39999999999999952 1 0 0.49999999999999911 1 0 0.59999999999999964 1 0 0.5499999999999996 0.93976792513729512 0 0.56701461556202259 0.86335846433862784 0 0.62017612851329729 0.81451802170669263 0 0.51076728641122882 0.81691863363193817 0 0.45907587517201498 0.90165918271477563 0 0.37337282601342481 0.92616598444216514 0 0.31535921456193688 0.88154045330654418 0 0.36912581253574028 0.83088590731704637 0 0.43819239467549531 0.79296936871720936 0 0.33985912385126898 0.73174041004507751 0 0.32437633398017029 0.65970549827478953 0 0.42824324229177341 0.6924957961634054 0 0.5174764925733939 0.65338828204098198 0 0.52912171753951986 0.73993242892488531 0 0.62152629835360762 0.73285157302339954 0 0.59670004617370476 0.65981579440137683 0 0.6754414170471299 0.67700559910555169 0 0.69085763855200755 0.76120667115691065 0 0.74547688787239819 0.70026419381674654 0 0.81910554849723838 0.69100245438023977 0 0.90192269692920224 0.70295054578552552 0 0.84477163403336131 0.77519844632340484 0 0.91372311269140116 0.80486176357476358 0 0.93540888248908083 0.88281232945237675 0 0.8793859710393791 0.93083561064221121 0 0.82192606283926717 0.87651855948129354 0 0.73937541854631073 0.9288754054780668 0 0.76404828705430583 0.78174230667165401 0 0.71722872346306721 0.85096302760907838 0 0.64588148000090029 0.91512139508160772 0 0.70000000000000018 1 0 0.79999999999999982 1 0 0.89999999999999947 1 0 0.94997493298435887 0.94717135651053852 0 0.99999999999999911 1 0 1.1000000000000001 1 0 1.1999999999999991 1 0 1.246238897717278 0.90016207822659 0 1.2104878010462079 0.79638517641579154 0 1.130022579458912 0.80264790230838934 0 1.1492841477515361 0.89495863909300122 0 1.035017143854235 0.92577305964649748 0 1.039491394416145 0.83402983011495258 0 1.0785590511537511 0.75365885686631617 0 0.98491966670915287 0.745702719141624 0 0.9749171938312049 0.68304286407835557 0 1.05 0.67063679245255348 0 1.1595355377629719 0.69612720023346242 0 1.2316049928421089 0.71268197388690568 0 1.160572984923127 0.60155304747043781 0 1.1544259370261769 0.49580194535795907 0 1.2482752740169289 0.44264463249545388 0 1.1787318575418491 0.43180077319900678 0 1.193211192060164 0.36417169501775798 0 1.11366617971111 0.39530889117858181 0 1.049999999998295 0.45311778235774403 0 1.0499999999982661 0.33749999999944968 0 0.97284972811175952 0.32057650487681749 0 0.97803218086495292 0.39957666910545891 0 0.95438428234324713 0.50021891445525024 0 1.0610070115193291 0.56187728740506249 0 0.95554667482020261 0.61387123313571723 0 0.89730215834238125 0.56352362508531118 0 0.82099888937423493 0.54529350322201742 0 0.85383906663538056 0.62014574817393608 0 0.74991769371388628 0.60451627361984739 0 0.65500944633069913 0.60601350811213128 0 0.66278242936710119 0.53985356489900171 0 0.74775703275407246 0.49059679564787018 0 0.71094001953927277 0.41472992215547572 0 0.64897033023755402 0.45530630145656431 0 0.65823561246403328 0.35502292901158627 0 0.83603391221093415 0.31708941802047369 0 0.79315209058920677 0.38802315963964318 0 0.84897848255088726 0.46000674997733482 0 0.9184189969982266 0.43608586792060411 0 0.89716106756302072 0.36571612550017968 0 0.91043121937362004 0.26518856856736223 0 0.8520969719592798 0.19112077159544111 0 0.81051762114363357 0.25355176211442859 0 0.7545004114404561 0.31098089234202853 0 0.68811979868824935 0.26566684131589419 0 0.64669101990832323 0.1799054750174742 0 0.75284581776561577 0.20455093921856349 0 0.75434135135171976 0.12888799631625769 0 0.66267222434682926 0.078497159578092612 0 0.69999999999928797 0 0 0.73796379772146625 0.059893436010741673 0 0.79999999999899607 0 0 0.8072276847200428 0.07509171132446453 0 0.87151744524583186 0.1145610820769897 0 0.89999999999870417 0 0 0.99999999999841238 0 0 1.0527907183502181 0.1005001786211816 0 0.95940036225003311 0.0802667348803804 0 0.96758455917765662 0.17206502793490561 0 1.0273907165533489 0.25089655084417212 0 1.0673059847957449 0.1861726764986896 0 1.14543293599463 0.16096823716187 0 1.1317936052402791 0.27327200211975772 0 1.2189485028845071 0.28846717556219142 0 1.225209211892335 0.20648826945283069 0 1.09999999999812 0 0 1.1494214575391031 0.075340014825429069 0 1.199999999997829 0 0 1.2999999999975369 0 0 1.254652873386052 0.105753482544517 0 1.3681535985071449 0.13698083382674339 0 1.349999999997392 0.060567969661089648 0 1.399999999997245 0 0 1.4999999999969531 0 0 1.542152768646126 0.073248247890105089 0 1.53341268746562 0.14194251306413061 0 1.456639397274391 0.1016053838939758 0 1.4156792278190771 0.19574754335211339 0 1.4905184776249101 0.20629734327603311 0 1.545236949037224 0.29434567071731399 0 1.473286192129879 0.27883707652097373 0 1.3878996413210389 0.26723502210068018 0 1.316869459340541 0.18778020585802921 0 1.291408388555241 0.26372433042992383 0 1.2615469736996101 0.34090999671933891 0 1.347125314110625 0.32447518420453242 0 1.385017785528226 0.40713366384701549 0 1.3198129865007471 0.39133224900025881 0 1.2709684905841181 0.55537862536316829 0 1.3860523322451299 0.56073196187600105 0 1.3462106466432811 0.48060664220838062 0 1.4795754400412069 0.53983964974648579 0 1.445918816848357 0.6075709531782556 0 1.5386621965636409 0.60828218080060537 0 1.550364457075788 0.50467902559054656 0 1.551956040519719 0.40384519109247291 0 1.4491802319415681 0.4666714614197911 0 1.4507225717793131 0.3561247496431208 0 1.6419306970571019 0.3436055112169133 0 1.645895854313963 0.45222881216869149 0 1.645263810758179 0.55814977621663464 0 1.7537858687071439 0.50406839622489796 0 1.742806034420483 0.6006074591026016 0 1.8544400981153091 0.62488101477716596 0 1.8316048184152021 0.54157006606434721 0 1.850967139686138 0.45738417241574703 0 1.7808296409871709 0.43587276890434401 0 1.71976181471802 0.39635806210359681 0 1.787749129254824 0.36176402170097799 0 1.8620515405159661 0.32644761881501039 0 1.799219293849516 0.26438879273789773 0 1.8480644103363271 0.19193194889233381 0 1.7304700827703301 0.17386188770806579 0 1.714493154391862 0.28897291620938281 0 1.6351951680630969 0.23707571199064051 0 1.567491488875842 0.20218805454405439 0 1.6799832100487111 0.082202015566833181 0 1.609545399082946 0.1308291592921435 0 1.599999999996661 0 0 1.6999999999963691 0 0 1.75369588639865 0.074917217572982864 0 1.8299024103288899 0.1151394713368583 0 1.799999999996077 0 0 1.8999999999957851 0 0 1.894432874635162 0.07551835003504323 0 1.9999999999955109 0 0 1.9480526939991849 0.12898730409406539 0 1.949071218763063 0.20551835056699769 0 1.889482378851052 0.25355176211435237 0 1.9370762551310139 0.30659376302738528 0 2.0131266155023031 0.26735551396116869 0 2.0579369465445829 0.18492358211896681 0 2.109175777466048 0.28747319291998968 0 2.1529249143000921 0.20760117016104621 0 2.145863811971962 0.09449602309195497 0 2.0499999999955518 0.089783354580979427 0 2.0999999999955929 0 0 2.1999999999957449 0 0 2.2631085279260659 0.078835433122263737 0 2.2171573042311432 0.14903409558359759 0 2.2999999999958969 0 0 2.3999999999960488 0 0 2.
[...]
<CellData Scalars="A_conc,As-lin_conc,B_conc,Bs-lang_conc,C_conc,Cs-freund_conc," Vectors="" Tensors="">
<DataArray type="Float64" Name="A_conc" format="ascii">
1.9508488685958198e-06 1.7409629297431423e-06 1.9163657577046215e-06 9.1812478786282542e-07 9.0510341959410058e-07 8.908659852266157e-07 6.2257404976445609e-07 2.5702709770990781e-07 1.6601367576525806e-07 8.4535073423576595e-08 8.7885169619158096e-08 2.4928616466324754e-07 2.6149608745440094e-07 1.8151494462532822e-07 2.5353028095310903e-07 3.489279887288102e-08 4.4431620071057702e-08 2.3663742562914207e-07 2.3975750956551365e-07 9.1779597004123305e-07 9.0467025600497853e-07 1.9589796310050442e-06 1.7888027758851303e-06 1.4676368157287528e-06 1.4912615076314485e-06 2.1649491393592968e-06 7.1690886014814799e-07 7.3087869047128072e-07 6.9903109388286374e-07 1.7398029299304273e-06 1.7165092136951825e-06 1.2268474085447098e-06 1.2461034101364334e-06 2.005812889115786e-06 1.4551739715120964e-06 2.3647754434375381e-07 2.1914137491297967e-07 5.62060284952728e-08 1.5762719475254306e-07 6.9722130295753176e-08 3.4763549447957779e-08 3.1935717725504976e-08 9.599934953977923e-08 1.4985021722070399e-07 9.3579028535724744e-08 2.7481310114306687e-07 4.5671886288790606e-08 1.4519724237211052e-08 1.4005851878186563e-08 1.1616806403064704e-08 1.3919561633885172e-08 2.2451792399499034e-08 2.1500385086765298e-08 1.5654968448497639e-08 3.3769153584057826e-08 2.3840730491553258e-08 2.1525995051394576e-08 3.8530663126144201e-08 1.2920668337403933e-08 8.9931489620865201e-09 1.350150038179975e-08 2.4504681798566878e-08 4.4887288785513536e-08 6.4733014124656832e-08 1.8788575394096039e-08 4.2172089941322492e-08 1.4900496982613533e-08 1.6949260139508029e-08 6.4061346372782272e-09 7.2870768956625592e-09 7.1899471804320789e-09 4.8725867443272428e-08 1.4098271217572121e-08 1.1790834920707125e-08 3.3642018418050355e-08 2.4986029786572479e-08 8.5075981278110613e-09 8.8371117340070303e-09 6.7047060428612147e-09 1.2243612148922581e-08 6.9272585476848582e-09 1.1095302945353532e-08 1.3501736935536177e-08 3.5682638281804738e-08 3.3936128178968415e-08 1.4655737913840432e-08 1.0829918056501738e-08 9.461587996657115e-09 9.1482084023508478e-09 1.3750422776016437e-08 8.6208192370246951e-08 1.3854235657556978e-08 1.3444484335096173e-08 4.4558367983272257e-08 9.4253806631482606e-09 8.6793261856442599e-09 2.0781136682056906e-08 4.8553078854250101e-08 2.4111756834667136e-08 4.6948420683421062e-08 2.5774553566713992e-08 9.6756787423544193e-08 1.6822254668117106e-07 2.7394346456790748e-07 3.0949571087973854e-07 1.7357763549477822e-07 8.5839570899833575e-08 8.8923542753681898e-08 6.2193674917437799e-08 6.5012237020638791e-08 1.0944898235674795e-07 2.0367036457399348e-07 2.0877336373118884e-07 1.9769873631968527e-07 3.1674272022925215e-07 5.9673629983316649e-07 6.1006918444851148e-07 7.2854386461295579e-07 6.2156412511819783e-07 1.9901881661260661e-06 1.8607537857292443e-06 1.8328811203688621e-06 1.2353256359942659e-06 3.9465565368750278e-07 5.8491900344428901e-07 3.8463295546476697e-07 9.2088243631100368e-07 1.2131324526252893e-06 2.5011966211969447e-06 2.1674014057012523e-06 2.4366117056771136e-06 2.6317351535093536e-06 2.2546722395126002e-06 2.285820461673507e-06 2.7470633494205174e-06 2.1944379572349373e-06 2.2272135956436602e-06 1.7792694845389979e-06 1.6786167533803189e-06 2.4352376525715488e-06 8.5914200827414855e-07 5.2527393343768137e-07 2.4056139725694889e-07 4.8973500439049137e-07 2.3036796604924586e-07 5.2434046408365905e-07 8.2960487948239371e-07 6.2328128768924301e-07 9.2436913052140546e-07 2.0285487184749323e-06 9.1151079213103986e-07 2.8778527900475528e-07 6.4097039996145044e-07 2.8195468095992311e-07 5.1175283903898876e-07 1.618734057151501e-07 1.6803070732922524e-07 1.1283219916532231e-07 6.3871908536466638e-08 6.6453763527843465e-08 7.3447149052216028e-08 1.1427391513673289e-07 2.5405061738495137e-07 1.3954700740942497e-07 4.9977851313168106e-08 1.2191053256482114e-07 1.1183796904754898e-07 1.7231770929204484e-07 1.5296574437834007e-07 2.161132324215735e-07 2.8797335663242916e-07 2.8319379733362885e-07 4.372303534043818e-07 6.5755507771737365e-07 5.4400890343792027e-07 3.1647087773490006e-07 9.9184986065466139e-07 2.1809896532891394e-06 3.8515786859161942e-06 5.5037477363210923e-06 3.3895781678281634e-06 1.8226627537093255e-06 1.0409641791885396e-06 1.2701563003046197e-06 3.4635283986207979e-06 2.0760588505979993e-06 3.1372031103354545e-06 6.2274162305056893e-06 2.4101388234606558e-06 1.6877078974283875e-06 9.8762275360370784e-07 7.9772016574180074e-07 5.2738225680121739e-07 4.0384143951531719e-07 5.6510965503241667e-07 7.9351971081458198e-07 1.7475896627744405e-06 1.2862551759808112e-06 1.6281577406497242e-06 3.8595844744957231e-06 6.3966782315995786e-06 1.1038983030882432e-05 2.0089666127863014e-05 3.2204310195524207e-05 5.7088192795981877e-05 9.8731603031449618e-05 0.00027425927589584784 0.00014251150455439772 0.00016656503810889476 0.00023231427079313481 9.2731170997375904e-05 5.3761936176360326e-05 2.9060193029724911e-05 1.5784710716968936e-05 9.7868271818191896e-06 1.0531906223259074e-05 6.8254711875501791e-06 3.7099296536252752e-05 2.0514486428804236e-05 2.1297698540609548e-05 8.0463366502808119e-06 1.3650713092762922e-05 7.5014695276790148e-06 1.2745011755648981e-05 7.6999325352283132e-05 3.7388437122708569e-05 9.2524878845599157e-05 6.2397800390935393e-05 0.00014707855532084164 0.00020856125246469288 0.00013746189200460746 0.00021199071171554233 0.00024430505107632871 0.00012375294895827392 7.2959575698286356e-05 0.00019658135880044371 0.00012554374581116693 0.00014515543629777016 0.00020564056258083466 0.00018104989602439186 4.4718450710870252e-05 7.0062946473840228e-05 5.0639807326002268e-05 9.5516902343116932e-05 8.4288710315669866e-05 3.1413029184799684e-05 1.9412526642004992e-05 6.1499558829981261e-06 1.0816671251613297e-05 1.1097555749077655e-05 7.5105725647994472e-06 3.6044079344476907e-05 1.9635678365894671e-05 2.3155664865906909e-05 4.2117991352792747e-05 1.0990947100722606e-05 3.4940836502231139e-06 7.1771462478451017e-06 3.2213762060667746e-06 1.8886578477817315e-06 9.4376832925252113e-07 8.8326779744356908e-07 1.8179113850264987e-06 5.5482893211040671e-08 1.1553913536191468e-07 9.7443565657077847e-08 5.0024840242904032e-07 2.4802663381781142e-07 3.1136453085504246e-07 1.5379465619933957e-07 7.889912149089171e-08 2.4170085617266765e-07 1.237357784830873e-07 4.9741939503278954e-07 9.8308767785932682e-07 1.2551644907230472e-06 5.7638148460701056e-07 2.5363432387677415e-06 4.1263068624279002e-06 4.0207100498678672e-06 3.9502362591878247e-06 2.3100919086024149e-06 3.0587792826355105e-06 4.6378033917714658e-06 7.1854392571478101e-07 1.2600694544166546e-06 2.4345942417370289e-06 1.1425772719427685e-06 6.0234046727252161e-07 3.2698055553454649e-07 5.5933914231976541e-07 9.8951847456965844e-08 6.4339939685037389e-08 1.2133520027587199e-07 1.8129388646253152e-07 3.6704087038616758e-07 1.018347802553229e-06 6.4452463644435998e-07 3.143613520748703e-07 2.9802269286194908e-07 1.5338871766101605e-06 1.1420050196656717e-06 1.5733451837643781e-06 2.2474871881373779e-06 1.5093032510875346e-06 1.4473808744368473e-06 1.595336847228655e-06 6.8488807890182699e-06 6.2468846980280085e-06 3.7235701090074142e-06 2.2548306141220151e-05 1.2279848896399974e-05 3.7495613484681776e-05 2.2285335246389884e-05 4.0031658145262034e-05 1.249159984157283e-05 9.2203760215620148e-06 7.1667225523187859e-06 1.4325671669225808e-05 2.3547115976031421e-05 3.808020370301139e-05 2.0190659283174005e-05 6.4359525173375082e-05 0.00010004471795170977 0.00011358739935715868 0.00014067134070485911 0.00022433441039325302 0.00018732264976329983 0.00011112577213725515 6.5838231609703315e-05 0.00011916837525329179 6.5953123698744766e-05 0.00019815141279745408 0.00048669206428828552 0.00030799269448051188 0.00051910372649343337 0.00047382818662470232 0.00081531910313239857 0.0012116073213999904 0.00081111487190553512 0.0016757727443036134 0.0023909376797511669 0.0032754771483143449 0.0025822750792470917 0.0034019087488473742 0.0021182173085464015 0.0012045117156736771 0.0016267928699615491 0.0016144933800336771 0.0027273209363226658 0.0027433663061419596 0.0021831095846965715 0.0018090720885783197 0.0012722905391549821 0.0011920148444041784 0.00051999280023993513 0.00058837823994582956 0.00078677669500478483 0.00082314499274882004 0.0002979423846356824 0.00034613513165379363 0.0003780465701924024 0.00027301324969747072 0.0004157019912110009 0.00078957683815240659 0.00090595931241196719 0.00060274012068735122 0.00059200100727056565 0.00082260096812762434 0.00039551430486191633 0.00029136608824202365 0.00032619366711354205 0.00039505003044996805 0.00059135049508391129 0.00096024183378661605 0.0005510974932230728 0.00088380613325969386 0.0012929480651114433 0.0014094009960287459 0.0026847841633733096 0.0019367972777920297 0.0018657255127109537 0.0024072704432180759 0.0012960279940495913 0.0016843071197473812 0.0024602922560829328 0.0034270952126705212 0.0074258067416687057 0.0060653952487149665 0.0075576434942723923 0.003385930648326492 0.0046257759966993588 0.0045014447075757535 0.0033801192451036752 0.0047525056093633469 0.0082878683869589357 0.0064020364912336213 0.0059436145016209087 0.010622901045696898 0.012694739432792996 0.012980749976198563 0.012545232591613106 0.010736305974619749 0.0095397809423247194 0.010794661027182548 0.0090457365996685028 0.014189948019757969 0.012921839182796746 0.01549609079024419 0.014868682757514766 0.012514139980909958 0.011507712750562182 0.010717935853285347 0.0093361741034012624 0.006031023136970258 0.0045821029389549696 0.0035527618708085925 0.0035606513813831783 0.0044503699339952275 0.0053380182175935351 0.0074821746333493325 0.0068161484150660529 0.0044650143540515752 0.005406331953048446 0.0065729193000694588 0.0085078962695018159 0.012866500810411621 0.010292868828008788 0.0087486847290520683 0.010431169052019476 0.014796015803018155 0.016073237095445003 0.023003642256392183 0.019378212309729144 0.025944942139539851 0.027823400013711252 0.015789159702464473 0.019237797134776351 0.019635245491258488 0.017902533233489542 0.018340792388523708 0.021581245260327807 0.025479907077129341 0.023661077313055445 0.027177508637980824 0.02333281214138196 0.035087941017757328 0.028915194687176474 0.031292366071459778 0.039548235280501477 0.036613827242648639 0.040913599472975445 0.032272255756008741 0.030202133646690867 0.034521682612325112 0.038732302249495448 0.049185065700784847 0.043365576146532706 0.045070859294807961 0.054423557588442119 0.050192318743191883 0.054029622234624944 0.058725142890782289 0.063660490271887221 0.068622500272821962 0.073598347112123957 0.064843660367218559 0.073310295557824867 0.069153443555478783 0.063705108027907326 0.059637175140743723 0.056154824979707446 0.061007254554788545 0.069045397152725341 0.06506384283421017 0.070178345639771184 0.067129815213911537 0.063782515175404314 0.059711830937188015 0.052730168017006189 0.047283844395287739 0.043217964214365787 0.043642488570956775 0.048412660277744532 0.043161891929880805 0.047126536388157871 0.049968889613585879 0.053684112424112647 0.058088791443217692 0.051828723034840943 0.056053233997208032 0.06187773472673639 0.071136325421812197 0.065840642170415464 0.069332598627557029 0.061257427113576866 0.065725579855867161 0.071152041906096752 0.071161192293985376 0.067302131733361581 0.061683397258188354 0.058483063044046942 0.052969269430572077 0.057529538677166668 0.051367493271826214 0.047554888678960267 0.043421838643481828 0.049162417447514199 0.04586990316366199 0.041564898763899905 0.03437957144222005 0.030172412973591488 0.033482346595639784 0.03016204656711895 0.037804940241226388 0.039508129056397605 0.037557748805003198 0.033320153663150914 0.035429624275308019 0.030485874061145619 0.023777764876720169 0.027848481129135579 0.021121026061491237 0.023940749115902944 0.018576401285584826 0.016429404482005919 0.01947657763172321 0.018612574601526467 0.015554166847082196 0.026372482698249627 0.022946807097585786 0.026320690892030922 0.01871759075931724 0.015789550539896686 0.020060130050753362 0.017471442150852438 0.02352674194500223 0.026543603404275092 0.025855814174614782 0.028563235046970864 0.019026954642179419 0.022089064396353608 0.018726001255240793 0.020892837486233103 0.024832833023671896 0.026002963280429673 0.023071439427573011 0.029343816862631763 0.027840238373952025 0.03877936638725267 0.036461872533810877 0.033980613417916902 0.038438353081667931 0.034154638717798093 0.030732917897069681 0.034947892342346382 0.031553170096181006 0.030660975416427181 0.039059189067592343 0.037677951438897989 0.042550489618354212 0.046082672551130306 0.042950952577239368 0.056995307086699115 0.05399099265449344 0.051399540109723155 0.059674650042557148 0.063052125792041558 0.071106638735450006 0.066515623301937082 0.066463002808128752 0.070979418241580702 0.0619657077976873 0.062057674776966193 0.066587981621544723 0.07206227958174799 0.068189582793965503 0.054185765840034206 0.056334019777164929 0.052407741509548425 0.052571077216812367 0.048505604396682334 0.048342296348931613 0.042708047494222731 0.044894333695090632 0.049338821936429883 0.060169261512588987 0.065115185261254913 0.068446261106703571 0.040217663298452472 0.033279997554167468 0.02900258998580673 0.02599228315129036 0.022134266820913139 0.019023756610468841 0.0055346359028909135 0.0069501445730570533 0.0089676206260617293 0.010544401292904314 0.015742662393757562 0.01316535474703347 0.01108177486065071 0.0077580724883516174 0.0093432553232892911 0.0096792081991835012 0.011702302255546932 0.015737950624863245 0.013816439177395013 0.016421781859298018 0.013391849645793093 0.014335375998933125 0.011011149343292732 0.0089176471479569912 0.011205824258116266 0.006482854107976754 0.0083344454222527911 0.0032566337276262324 0.0040346806365410114 0.0052103168344033394 0.0046809538976649735 0.0037374717993170535 0.0059202585564345211 0.0076867988735731928 0.0063580855198221431 0.0044323405958176399 0.0036303640879133056 0.0027018673393824884 0.0024042296212385141 0.0010113246112766006 0.0014085922547355263 0.0010437133740311007 0.0019702333537934846 0.0027547917002994056 0.0027505323926404947 0.0020461730659539061 0.0024542032142224183 0.0017533316852981224 0.0012155018728658312 0.0015660364861401935 0.00069631708854226966 0.00068714354443295171 0.0010291332297886263 0.00042525280031223921 0.00031456231046303853 0.00046504606210036813 0.00031024429325077647 0.00049814734579369197 0.00077309373060141301 0.00062410359952636148 0.00043879135422266927 0.00034526043936061734 0.00089051226839531464 0.001326780550236265 0.0016817094802925362 0.0032437916480402241 0.17238938693462455 0.16738938583613422 0.17824521109643957 0.187172715838612 0.18324518610508334 0.19220069279948893 0.19217270402340642 0.18730773005406764 0.18307836921197346 0.19762860538790794 0.19601483398485126 0.19297753170119683 0.19556048011956578 0.19064153794081801 0.1855814836965578 0.18889054362279939 0.18356745373935043 0.17960120535977014 0.16996912580226717 0.17471774584252109 0.17143834561039656 0.16963516613072688 0.17454249631249658 0.17794229701620001 0.17839587763058656 0.17337558003658182 0.16114937975157911 0.1628829848698452 0.15348481770575681 0.154056540135109 0.15763776270708613 0.16593526376477402 0.16776121628459761 0.16040284052630754 0.16496162168300288 0.16509471577501272 0.16117648976843058 0.15666494035266249 0.15069261717340129 0.15265664764895154 0.15653585368330469 0.14642240002868828 0.14717637859411203 0.14778770442833428 0.14364337362042129 0.14282922403989207 0.13821355613866243 0.13601637674804418 0.13729715461904635 0.14119470890895094 0.15079595508601099 0.14927997309128666 0.14608552425838672 0.1495664911833014 0.14263443959885955 0.13659481445739777 0.13956650667330911 0.14456649364563129 0.15788298780896326 0.12785789386217547 0.11495692090266578 0.11995680444103174 0.10623701338185663 0.11123675796641774 0.077490659195603981 0.073422306450781294 0.082482027514558687 0.087353269915419432 0.092350699122586755 0.096802717247620296 0.10180196442612283 0.098476693374698138 0.10329845976863061 0.10375671015225263 0.099386203590598507 0.088988963274773819 0.093222019232282113 0.093317853190197822 0.090021282001866515 0.081325335040801999 0.08528709192578092 0.077777725685798188 0.072063437156889704 0.084798179874442492 0.079090321488453325 0.083125674795936966 0.074569621901249217 0.078443497352728209 0.075220791353092384 0.09519769356114062 0.090667459123668692 0.087975442821092834 0.093992460507208081 0.098994530485143298 0.10022454128060879 0.11019971376146893 0.10562785425547164 0.11920208124506351 0.11430545579112228 0.10945969350866561 0.10523627011705473 0.11197642582759257 0.10799217973056074 0.10747794703934921 0.11193303407693614 0.11546440065048416 0.11825512515118579 0.11599332604543747 0.11911019081801352 0.12194690001924002 0.12472553589713059 0.12338112210758694 0.13285788260541026 0.1328695120409743 0.12880444976185665 0.13175322649659843 0.12738744862129081 0.12313144240094964 0.12283574652287743 0.12656414466301757 0.13395045815475426 0.12998131989384104 0.13370889404266234 0.12760250811119089 0.13040262992429943 0.1193338021224942 0.12318546767433589 0.11897553468817236 0.12987235169111852 0.13382185039048111 0.12997208971817456 0.13227709595033588 0.13053749809259194 0.13454015251646984 0.1200772228826862 0.12540445406788334 0.12490543565488198 0.11483371494315764 0.10630939620425695 0.11049270913009522 0.10944897962667409 0.10578897761164965 0.11014064152058844 0.10471010521682313 0.11415469785586786 0.11515461869943143 0.099913235089802363 0.10064511327299343 0.091721545764061996 0.090763333370040458 0.096068378501081603 0.086320533346844974 0.082772070807049458 0.078119936931328723 0.074411629780540389 0.08069888749893446 0.074974042247199738 0.08421055558111909 0.087811262230530665 0.086890407036552542 0.08447910461290728 0.079829492346956188 0.073698121978306955 0.076633829100654624 0.074722438714664191 0.094419865911763712 0.090504876104750387 0.089466506693850617 0.09663025956992205 0.095738668887987738 0.10097017203380103 0.10202177370600415 0.098682797286467755 0.10091922682755085 0.10371900527543187 0.095408619838816516 0.092031451128491343 0.097212293654975371 0.094088849476054767 0.085239037091760075 0.08244770230390551 0.074528987460471235 0.078410130369964082 0.078878035977518024 0.083467350745699609 0.087467584632906034 0.087538254464467641 0.081935906003755846 0.076843393776973967 0.077325691166953592 0.082316524970841021 0.087701833272995577 0.092699451514458547 0.091957287507334715 0.097248136781312555 0.10190772365409778 0.10241940360165941 0.097420007233237779 0.10774767420104259 0.11274755494150004 0.11765081929719995 0.11086542190902743 0.1065783638500951 0.10835479792787556 0.11672055777701171 0.11657136589765996 0.11252402964433901 0.12025368751566651 0.12460509467204853 0.12151144116640408 0.12502927421291352 0.13528934857653019 0.13125909699596716 0.13412793146291901 0.12835197648534205 0.12906943204216809 0.1243685661551982 0.12265079511212433 0.1327568374290575 0.12775684246992455 0.14167261662190037 0.13667262282364875 0.14387592628370913 0.14822909709910156 0.15103220175588183 0.14601264122302815 0.15101263664951198 0.15956833986465685 0.15456834603414021 0.16341470748647963 0.16527745183574596 0.16285906548360676 0.15440704507889902 0.15582321974838392 0.15641228210615543 0.15957228564688994 0.16612774863507701 0.16742754702953216 0.16432498139799237 0.15716591398258703 0.16046684582960727 0.14715539796989158 0.1511138503480296 0.14640223739913197 0.15118564661681913 0.14194778164564614 0.13873230820039928 0.13913118127817373 0.14310244967631547 0.13923769400785643 0.1441149571814821 0.1398979575605348 0.13697535649175002 0.13768166405144305 0.1411579595909051 0.13656357889108162 0.14019814138677653 0.14315495143494028 0.14755683462018293 0.14672205601406024 0.15103755182330247 0.15577167985573218 0.151071