<?xml version="1.0"?>
<VTKFile type="UnstructuredGrid" version="0.1" byte_order="LittleEndian">
<UnstructuredGrid>
<Piece NumberOfPoints="714" NumberOfCells="1306">
<Points>
<DataArray type="Float64" NumberOfComponents="3" format="ascii">
0 0 0 0 0.10000000000041601 0 0.082799035591426873 0.082799035591510806 0 0.099999999999928008 0 0 0.19999999999983389 0 0 0.20669143849501961 0.085546078947938975 0 0.29145143692666958 0.13500804559578439 0 0.29999999999973409 0 0 0.24783073444672249 0.24783073444648379 0 0.21725788110387281 0.17316968768743621 0 0.17318221359491059 0.27409688392309489 0 0.089078158003765312 0.2493007687782936 0 0.140351188660986 0.16130415108589741 0 0 0.20000000000083221 0 0.066361468125430589 0.15903440181097661 0 0 0.30000000000124832 0 0.0632094674441709 0.3449112819864934 0 0 0.40000000000166441 0 0.083393126324559225 0.42307471369029392 0 0.13897501191807771 0.34545639364066222 0 0.070553891733833127 0.57745844360881338 0 0 0.60000000000138687 0 0 0.50000000000205869 0 0.12353277228144981 0.51086097771927308 0 0.16324260003398389 0.62262730759772122 0 0.1946526892501724 0.54636184660733622 0 0.27220668248394869 0.50912429725145214 0 0.27661118526457179 0.58730386222759956 0 0.16486701364709541 0.41592657376307979 0 0.21928696632013719 0.4676461135047027 0 0.29987747321592639 0.43430880093746571 0 0.2371857680100064 0.35865548441110112 0 0.34318159319555042 0.3314386771104964 0 0.38593969585746768 0.44843324941957241 0 0.42544665781957403 0.3726599289372452 0 0.38240158409674341 0.60644575028138747 0 0.34793494568226019 0.52426775179830853 0 0.45232393232070839 0.53082724112931345 0 0.46433624429412901 0.61260020600107856 0 0.55763912874459476 0.49619993861770217 0 0.56379254693201075 0.58472273515948836 0 0.49272830291620878 0.32528628960011152 0 0.47711113382803011 0.43513410852522788 0 0.56509579243166053 0.39588847936247551 0 0.58612580217118482 0.27813894450229909 0 0.49255105193724569 0.22337579986912359 0 0.5565830077206213 0.19095699352548859 0 0.59999999999951659 0 0 0.57505385014294308 0.072457888465917331 0 0.49999999999959438 0 0 0.50264032148191051 0.12292784096123539 0 0.43504744109702559 0.077628892606360606 0 0.39999999999966429 0 0 0.35933948296838258 0.073809900849860513 0 0.33604819894646598 0.23280286076243209 0 0.41589935411558732 0.26752529264016389 0 0.40428440976105728 0.1643886070295453 0 0 1 0 0.099999999999999645 1 0 0.14716362552681639 0.93861610753355362 0 0.19999999999999929 1 0 0.30000000000000071 1 0 0.29792158491427922 0.79537096033156995 0 0.2235202862591317 0.88873896332704583 0 0.1332109546178302 0.87498377138822103 0 0.075231054453351903 0.92314074346405706 0 0 0.89999999999958358 0 0 0.79999999999999982 0 0.074918724681641777 0.83311952320732263 0 0.1533088418661793 0.80370257472597129 0 0.089684836063650353 0.74720097194875412 0 0 0.7000000000006934 0 0.079752623936563252 0.65630726580969023 0 0.16551550920047911 0.70947866912672319 0 0.22047232289835689 0.77501739045979867 0 0.25446499951716589 0.69023946426646743 0 0.32437633398017029 0.65970549827478953 0 0.33985912385126898 0.73174041004507751 0 0.42824324229177341 0.6924957961634054 0 0.5174764925733939 0.65338828204098198 0 0.59670004617370476 0.65981579440137683 0 0.62152629835360762 0.73285157302339954 0 0.52912171753951986 0.73993242892488531 0 0.51076728641122882 0.81691863363193817 0 0.62017612851329729 0.81451802170669263 0 0.56701461556202259 0.86335846433862784 0 0.45907587517201498 0.90165918271477563 0 0.43819239467549531 0.79296936871720936 0 0.36912581253574028 0.83088590731704637 0 0.37337282601342481 0.92616598444216514 0 0.31535921456193688 0.88154045330654418 0 0.39999999999999952 1 0 0.49999999999999911 1 0 0.59999999999999964 1 0 0.5499999999999996 0.93976792513729512 0 0.70000000000000018 1 0 0.79999999999999982 1 0 0.89999999999999947 1 0 0.8793859710393791 0.93083561064221121 0 0.93540888248908083 0.88281232945237675 0 0.91372311269140116 0.80486176357476358 0 0.82192606283926717 0.87651855948129354 0 0.73937541854631073 0.9288754054780668 0 0.64588148000090029 0.91512139508160772 0 0.76404828705430583 0.78174230667165401 0 0.71722872346306721 0.85096302760907838 0 0.69085763855200755 0.76120667115691065 0 0.6754414170471299 0.67700559910555169 0 0.74547688787239819 0.70026419381674654 0 0.81910554849723838 0.69100245438023977 0 0.84477163403336131 0.77519844632340484 0 0.90192269692920224 0.70295054578552552 0 0.9749171938312049 0.68304286407835557 0 0.98491966670915287 0.745702719141624 0 1.0785590511537511 0.75365885686631617 0 1.05 0.67063679245255348 0 1.1595355377629719 0.69612720023346242 0 1.2316049928421089 0.71268197388690568 0 1.130022579458912 0.80264790230838934 0 1.2104878010462079 0.79638517641579154 0 1.246238897717278 0.90016207822659 0 1.1492841477515361 0.89495863909300122 0 1.035017143854235 0.92577305964649748 0 1.039491394416145 0.83402983011495258 0 0.99999999999999911 1 0 0.94997493298435887 0.94717135651053852 0 1.1000000000000001 1 0 1.1999999999999991 1 0 0.8520969719592798 0.19112077159544111 0 0.81051762114363357 0.25355176211442859 0 0.91043121937362004 0.26518856856736223 0 0.87151744524583186 0.1145610820769897 0 0.89999999999870417 0 0 0.8072276847200428 0.07509171132446453 0 0.79999999999899607 0 0 0.75434135135171976 0.12888799631625769 0 0.73796379772146625 0.059893436010741673 0 0.69999999999928797 0 0 0.66267222434682926 0.078497159578092612 0 0.64669101990832323 0.1799054750174742 0 0.75284581776561577 0.20455093921856349 0 0.7545004114404561 0.31098089234202853 0 0.68811979868824935 0.26566684131589419 0 0.65823561246403328 0.35502292901158627 0 0.64897033023755402 0.45530630145656431 0 0.71094001953927277 0.41472992215547572 0 0.65500944633069913 0.60601350811213128 0 0.66278242936710119 0.53985356489900171 0 0.74775703275407246 0.49059679564787018 0 0.74991769371388628 0.60451627361984739 0 0.85383906663538056 0.62014574817393608 0 0.82099888937423493 0.54529350322201742 0 0.89730215834238125 0.56352362508531118 0 0.79315209058920677 0.38802315963964318 0 0.83603391221093415 0.31708941802047369 0 0.84897848255088726 0.46000674997733482 0 0.9184189969982266 0.43608586792060411 0 0.89716106756302072 0.36571612550017968 0 0.97284972811175952 0.32057650487681749 0 0.97803218086495292 0.39957666910545891 0 1.049999999998295 0.45311778235774403 0 1.0499999999982661 0.33749999999944968 0 0.95554667482020261 0.61387123313571723 0 0.95438428234324713 0.50021891445525024 0 1.0610070115193291 0.56187728740506249 0 1.160572984923127 0.60155304747043781 0 1.1544259370261769 0.49580194535795907 0 1.11366617971111 0.39530889117858181 0 1.1787318575418491 0.43180077319900678 0 1.2482752740169289 0.44264463249545388 0 1.193211192060164 0.36417169501775798 0 1.2189485028845071 0.28846717556219142 0 1.225209211892335 0.20648826945283069 0 1.14543293599463 0.16096823716187 0 1.1317936052402791 0.27327200211975772 0 1.0273907165533489 0.25089655084417212 0 1.0673059847957449 0.1861726764986896 0 0.96758455917765662 0.17206502793490561 0 0.99999999999841238 0 0 0.95940036225003311 0.0802667348803804 0 1.0527907183502181 0.1005001786211816 0 1.1494214575391031 0.075340014825429069 0 1.09999999999812 0 0 1.199999999997829 0 0 1.2999999999975369 0 0 1.254652873386052 0.105753482544517 0 1.3681535985071449 0.13698083382674339 0 1.399999999997245 0 0 1.349999999997392 0.060567969661089648 0 1.291408388555241 0.26372433042992383 0 1.316869459340541 0.18778020585802921 0 1.3878996413210389 0.26723502210068018 0 1.473286192129879 0.27883707652097373 0 1.4156792278190771 0.19574754335211339 0 1.4905184776249101 0.20629734327603311 0 1.545236949037224 0.29434567071731399 0 1.456639397274391 0.1016053838939758 0 1.53341268746562 0.14194251306413061 0 1.542152768646126 0.073248247890105089 0 1.4999999999969531 0 0 1.599999999996661 0 0 1.6999999999963691 0 0 1.6799832100487111 0.082202015566833181 0 1.609545399082946 0.1308291592921435 0 1.567491488875842 0.20218805454405439 0 1.6351951680630969 0.23707571199064051 0 1.714493154391862 0.28897291620938281 0 1.7304700827703301 0.17386188770806579 0 1.799219293849516 0.26438879273789773 0 1.8480644103363271 0.19193194889233381 0 1.8299024103288899 0.1151394713368583 0 1.799999999996077 0 0 1.75369588639865 0.074917217572982864 0 1.7537858687071439 0.50406839622489796 0 1.742806034420483 0.6006074591026016 0 1.8544400981153091 0.62488101477716596 0 1.8316048184152021 0.54157006606434721 0 1.850967139686138 0.45738417241574703 0 1.8620515405159661 0.32644761881501039 0 1.787749129254824 0.36176402170097799 0 1.7808296409871709 0.43587276890434401 0 1.71976181471802 0.39635806210359681 0 1.645895854313963 0.45222881216869149 0 1.6419306970571019 0.3436055112169133 0 1.645263810758179 0.55814977621663464 0 1.5386621965636409 0.60828218080060537 0 1.550364457075788 0.50467902559054656 0 1.4795754400412069 0.53983964974648579 0 1.445918816848357 0.6075709531782556 0 1.551956040519719 0.40384519109247291 0 1.4491802319415681 0.4666714614197911 0 1.4507225717793131 0.3561247496431208 0 1.347125314110625 0.32447518420453242 0 1.385017785528226 0.40713366384701549 0 1.3198129865007471 0.39133224900025881 0 1.2615469736996101 0.34090999671933891 0 1.3860523322451299 0.56073196187600105 0 1.3462106466432811 0.48060664220838062 0 1.2709684905841181 0.55537862536316829 0 1.2546738886072291 0.63615646469940468 0 1.3545060270195819 0.65002758689694418 0 1.4000454837723419 0.73943313674757749 0 1.3035852436207409 0.73866974635260263 0 1.2914654457895349 0.81843301378315825 0 1.3255948392482531 0.88328132587465524 0 1.3864786876100039 0.92208751032957958 0 1.386174597084219 0.82350876346868962 0 1.482119963281066 0.782586299849238 0 1.463012078585596 0.89209645917012148 0 1.546104640467868 0.9195568013001878 0 1.535346256113697 0.70153336654872078 0 1.4534042830965781 0.68426123045930609 0 1.2999999999999989 1 0 1.399999999999999 1 0 1.5 1 0 1.599999999999999 1 0 1.6999999999999991 1 0 1.7999999999999989 1 0 1.6597641702579149 0.778
[...]
<CellData Scalars="A_conc,As-lin_conc,B_conc,Bs-lang_conc,C_conc,Cs-freund_conc," Vectors="" Tensors="">
<DataArray type="Float64" Name="A_conc" format="ascii">
8.3948183938665799e-08 1.1894132244002734e-07 1.0225820333600032e-08 2.1162538134542277e-08 2.8101234869775064e-08 3.5444552578715945e-08 1.3186365176233391e-07 1.66430598357154e-07 4.6341177775863146e-08 5.6058294797944112e-08 1.1519648226068029e-07 1.5675524411805145e-07 1.4400609898752036e-10 4.7337979591843076e-09 6.019416608813485e-09 5.5876244137890838e-09 2.6333661596245024e-09 3.0054666197991148e-11 7.9378647992140785e-10 4.1536956815853971e-09 3.5014807799690659e-09 2.4611399053529864e-09 3.7423025603512297e-10 8.8660294554742958e-10 1.6761419354553615e-12 1.1582085121819572e-10 2.2093735012063559e-13 2.9235509234814361e-13 0 2.6930023540300596e-12 5.5546402015694261e-10 1.19144542440287e-12 8.7317977499262739e-14 0 1.4372783604753181e-17 2.217409877443263e-16 3.1258374412524258e-12 1.3179569155905726e-15 6.9073268017875848e-15 0 0 0 0 0 0 9.0600265913477259e-13 1.3208536510918686e-11 0 0 0 0 5.4960559112621994e-11 0 0 0 0 0 0 0 0 0 0 0 0 0 0 0 0 0 0 0 0 0 0 0 0 0 0 0 4.3291499777085712e-09 0 0 8.7262239655563169e-09 1.5272205228303456e-07 2.3989559183862669e-07 1.2907347817214753e-07 1.1526175990804914e-07 7.5055049879853146e-09 5.2484961620955248e-08 4.9444704702626934e-08 2.0555705152171167e-07 1.8210951641102605e-07 2.4971692804918404e-07 1.3717650427581588e-07 3.8897361593128462e-08 9.2298949082956126e-09 1.002906455291691e-09 2.403075654411841e-10 0 3.255940942025503e-09 1.3862002214693356e-09 9.9420201397330517e-08 1.4447735676345491e-07 1.5748493642319848e-07 2.0403281584958003e-07 1.6373027778608432e-07 1.871591452000392e-07 1.5831285149795295e-07 1.8773837982535485e-08 2.8246020685433987e-08 1.5146570027932869e-08 1.1455871741731769e-08 1.0745934746672405e-07 9.0414544334817294e-08 4.4219356780873581e-08 3.4897056460605614e-08 1.8425291518745021e-08 2.2277037241226679e-09 8.6116640928360949e-09 3.4278512598615748e-09 8.2069652529936917e-10 2.8533141590957268e-09 8.1601356280141061e-10 5.2047482295471792e-10 1.3743061291091836e-10 1.8259445906799977e-11 6.307465018295753e-14 3.8541213780479106e-11 3.3444365686072168e-10 3.8250637823963608e-09 5.5550782560264596e-10 8.0841017837895149e-10 1.5989511396421712e-12 2.2313930924059083e-13 0 3.3199222270438283e-12 2.2351184262636744e-11 1.2595468022584685e-11 0 0 0 0 0 0 0 1.0328421106104555e-08 6.858673905366659e-11 9.504172275955719e-11 4.3572354628027851e-09 4.494253806195719e-08 5.7573099645101362e-09 3.7344751560998224e-08 1.5858391084621143e-08 5.3562582161196968e-08 8.1867766806261784e-09 2.3642691501230037e-09 1.8393436599773743e-09 2.4609599213009891e-08 1.8807854728206218e-07 4.750441625217632e-08 3.0808510022861664e-07 2.2236373732138375e-07 2.4884208396788584e-07 1.7115753034313738e-07 2.8866287478524575e-07 1.4909030903315772e-07 7.9783943347204059e-08 1.668478228092164e-07 1.0366284601244915e-07 5.1338440488639067e-08 0 0 0 0 0 0 2.6611654319030575e-08 2.427118226232897e-08 1.4218690656882769e-08 1.2297528592448103e-08 6.6468487608141562e-09 0 0 0 0 0 0 0 0 0 0 0 0 0 0 0 0 0 0 0 0 0 0 0 0 3.317280548742278e-17 2.0155442395500669e-16 4.361175001776661e-16 5.5054350347373352e-15 6.1898748708026674e-14 1.8124725563579866e-12 4.4145627118594814e-13 8.1566757047537098e-16 8.9061075222862246e-14 1.5312245513633065e-14 7.2232620487861557e-13 9.4139466570864431e-14 1.4792517417592659e-11 1.4019656854005032e-11 3.3600246950914738e-12 2.2135935666610109e-14 4.9130342197536223e-15 0 2.7180244114470595e-17 1.2406066363960004e-16 1.5261700432244136e-15 2.3280139951341186e-16 6.0259640720236845e-15 5.83884254519225e-14 4.8458788695626461e-13 2.9428079166598687e-12 5.4876006836747406e-11 0 0 0 0 0 0 0 0 8.1003649188934424e-09 7.3689378271981499e-09 5.5934879064391778e-08 5.1533299764667961e-08 0 4.6602214060738229e-09 1.2089395472012419e-08 1.3676547220712302e-08 1.3105344895726427e-07 1.7140767745708454e-07 9.4416693489370932e-08 1.1509938310926567e-08 5.028101230651197e-09 0 0 0 0 0 0 0 0 0 0 0 0 0 0 0 0 0 0 0 0 0 0 0 0 0 0 0 0 0 0 0 0 0 0 0 0 0 0 0 0 0 0 1.120878636012949e-17 0 0 0 0 2.1821459725242458e-19 0 0 0 0 0 0 0 0 0 0 0 0 0 0 0 0 0 0 0 0 0 0 1.2679249529684337e-08 0 0 0 0 0 0 0 0 0 0 0 0 0 0 0 0 0 0 0 0 0 0 0 0 0 0 0 0 0 0 0 0 0 0 0 0 0 0 0 0 0 3.3505370297952354e-17 9.5283309995851378e-16 2.3865650952354954e-17 0 0 0 0 0 0 1.5426442178231673e-18 6.2923080310500506e-16 4.0551573296419611e-17 0 3.3701154013542158e-16 2.2416378420426085e-15 2.2455506876481842e-14 7.7282067467022779e-13 4.3004915794072167e-13 9.384866873213899e-14 1.0533803412332484e-14 6.5647682004682693e-16 6.6290892012777866e-15 0 0 2.8384079843022275e-20 0 1.8326015930944286e-18 1.1918521328474753e-17 0 0 0 0 0 0 0 0 0 0 0 0 0 0 0 0 0 0 0 0 0 0 0 0 0 0 0 0 0 0 0 0 0 6.1076657715178165e-17 5.8206540461146751e-16 0 0 0 5.5520592102683443e-18 2.7639360701063009e-13 8.3067544285455967e-13 1.0174586193886647e-11 3.3588876685540516e-12 7.3633185192106886e-11 8.7764317343962372e-12 2.6680307856739225e-11 1.8008138017405747e-10 5.4261778584969218e-11 3.6164010525480493e-10 4.2831418787015488e-10 1.2659603275470792e-10 7.9473852614280847e-10 1.880013301948911e-10 6.8009756986245846e-10 7.4463393010892057e-09 4.0221471487897919e-09 1.5429380233741116e-09 9.1574516895667757e-10 7.68634232064512e-11 1.7666874375885635e-10 1.0949622099404785e-13 2.8339428468927713e-14 5.9968712732730302e-15 3.9170257755589221e-11 1.130906155298224e-09 4.0083345161487387e-09 2.5220566461604774e-09 1.3741981813960703e-08 2.9163593603914882e-08 6.4150358940568351e-08 4.7945346737413697e-08 7.6111356050267203e-08 9.5080052472273058e-08 1.1244970220805401e-07 1.487407767165174e-11 0 3.3085378650622617e-13 7.3029826164584962e-12 3.0801878510303459e-12 3.744377660544886e-09 1.6063267309513153e-09 6.5486193268363065e-09 2.1660135229764434e-08 1.9084554991453744e-08 2.5256650734413983e-09 5.4352519991385473e-09 4.2139849602725442e-09 2.7388861348783317e-09 2.4436651032091948e-08 2.472899917699561e-08 2.9919362852468676e-08 3.7629972546289344e-09 4.7339989432108854e-09 1.1110798483057845e-10 5.5629104954475449e-11 8.830503274243387e-11 4.659772651831002e-11 0 0 1.0839945429387747e-17 0 3.3054715820595649e-16 2.7624842637085052e-16 7.4386060440503522e-15 4.2115483812293129e-14 1.6964741332342532e-10 2.5676563439008151e-10 7.0825774275315558e-09 2.3202327045648912e-08 2.8933008416339641e-08 1.1953810471113221e-09 9.3592181060888331e-10 2.5932571985514328e-09 2.9128922491237509e-08 5.861215111534151e-08 5.9069436509695357e-09 3.3110410828009767e-09 6.1326594076209114e-12 9.5739602120509535e-14 4.6705781243109034e-13 2.5050751624168261e-14 3.8240486786865203e-15 4.3610526309456125e-13 1.669844373924999e-12 1.1456067583177701e-13 2.0685350431395052e-07 1.206174590751319e-07 1.500306652645294e-07 1.6554876662773092e-07 5.2869848711250364e-08 8.6616324815673151e-08 3.1334881399773638e-08 3.6056566418527711e-08 1.3464650949761294e-08 1.1746922096131878e-08 1.9928886975608108e-08 9.5709722879796931e-11 1.886836108219114e-11 1.1553337837515936e-11 1.3561605494985267e-12 1.8734709000161469e-11 4.2542138960986634e-12 2.9641126564332376e-10 5.5666221875468066e-11 6.8654414007837527e-09 9.2166076976777392e-10 8.7680047721063359e-09 5.5778833776967389e-10 7.6103213229460795e-11 1.668677960340636e-09 5.4358708729374661e-09 6.1985192392211788e-10 9.5385307223967112e-10 7.9508246026369162e-11 1.2134645215806932e-10 1.7247500871831007e-10 5.4083873963622213e-13 9.4228606860003653e-13 1.8581873376574166e-12 2.069625920130564e-15 5.5607253222769068e-19 1.1386297263140521e-17 2.8074243183265339e-18 9.8554757843799718e-20 9.3762767950205048e-15 7.0216131672000438e-14 0 2.352831145956452e-14 2.0459637987148181e-15 4.1189175315404922e-15 2.0867673439614467e-15 5.2437884342347062e-16 8.5600292686854866e-13 1.9417735565474025e-12 1.7837945900188358e-14 5.4975120449305786e-14 2.5027332881070849e-14 6.1292966387398173e-14 2.7954844199193935e-13 6.4647459188118089e-13 2.665629375620174e-13 5.1698273266195626e-13 4.801842609502732e-14 8.4543822838396616e-14 4.6323130507691883e-13 2.803384569293229e-11 5.0495196423557173e-12 1.3025458453916388e-09 2.245253683885992e-10 1.5078111697409336e-10 6.8721734042899721e-11 3.1990453745813642e-12 1.7351802351323975e-12 1.6745279137750402e-08 2.1639245793370566e-08 8.1228519122854189e-09 1.749467456457889e-09 6.2311881431152874e-09 2.5226622785327105e-09 1.7294619199761782e-09 1.0327313283610544e-08 7.2627097487847951e-09 4.8792690349318422e-09 1.2459879949670214e-09 7.6134270442175322e-10 3.8627031673832467e-10 1.3990385908858371e-09 3.0089087593239134e-09 4.3027725392532386e-11 1.6699984322809566e-10 8.6051446854227503e-11 1.1489642738917022e-11 1.1512338930092156e-11 4.7762721762017507e-12 5.7066543433106655e-11 6.5794361225328295e-12 1.6125153802078115e-13 2.2598521284291886e-12 7.1663038078027572e-10 1.3108518398931675e-10 2.7558613718633391e-11 3.4249111670723133e-10 1.3973932412077765e-10 3.8980838665065177e-11 8.589775650049803e-12 3.6025264743531742e-12 1.6516560187785219e-13 3.7243065497068775e-12 1.4504972205177859e-11 1.0344605442308834e-13 3.8592837857062313e-14 5.9551416443782945e-13 1.6249693100231467e-12 1.7828270631528347e-14 3.5710357765504262e-13 2.8415607264453709e-14 3.6407080220242797e-15 3.4973579709283858e-17 7.4025059962819796e-16 4.631565507346834e-15 5.0028044530953111e-16 3.3132049982593742e-15 2.39734018200583e-16 3.3360752320201979e-17 2.206043751610033e-17 7.5338015575975991e-19 0 0 1.426655051238508e-16 4.5847957963503428e-18 2.6057561100129364e-17 2.9127178007841403e-16 3.9975227112741995e-15 1.5739365638336762e-15 2.2629319103165566e-14 2.6610045207330827e-13 2.1759938037889348e-14 2.0570751244577469e-15 4.7861678706570958e-13 1.3998965059346311e-13 1.2003257104232624e-14 4.0085884617892973e-16 0.022815444931894857 0.019228905161936032 0.027783693853462584 0.036538502997327665 0.039542003451272512 0.031540583390773411 0.042239537683857707 0.047239519745579571 0.041579362417921803 0.041183191509999773 0.046192590067557521 0.041214310622279773 0.036408812387280207 0.036618757079924152 0.033563254716538198 0.046585489539320367 0.041607204168726659 0.045021696820846266 0.037220078563450942 0.027995949466638359 0.02702089174620477 0.032012901440222764 0.030225745864605979 0.01837806109240675 0.021834094805832434 0.019930294474717752 0.024006300111552921 0.029809413271364035 0.024866304121728952 0.026417023471666051 0.021752693050268751 0.01717637174353559 0.016830478537310914 0.0082755957039214682 0.013320469423200018 0.011928726247888329 0.0059099554344743113 0.016185540039985284 0.011452063448099417 0.014122419197331478 0.0095261182119776508 0.0062078851091842847 0.0046284845293133739 0.007899672707115897 0.001325882364947639 0.002978024418349704 0.0013289747714919282 0.001818385521063702 0.00062311954865073476 0.00065182286095224226 0.0037151786697871185 0.0017229309273876453 0.0035267475774608159 0.00066744434339946154 0.00057677556115271877 0.00052950318889308451 0.00064603538944985799 0.0016477465835081976 0.0030349654242760693 0.014487280550455721 0.011073003438753497 0.0081323853494124042 0.0048273803390488385 0.019804662344153803 0.023519020197781983 0.024755243271534236 0.030161811904533847 0.028483291193094007 0.03660380264885247 0.036790299150260962 0.031794610984624536 0.042239538081015673 0.047239520216206421 0.041770548037820487 0.041690045519589297 0.032950510090596304 0.036539048821878396 0.035806143438825704 0.046192592394945914 0.041214317009020479 0.045021700843653929 0.041487795371588546 0.032286976679804055 0.029733787539378435 0.025066395387485216 0.019142691591765734 0.020501096998599359 0.024274264026904451 0.021720383892341627 0.020580090481671233 0.025078005421473266 0.028989341060453162 0.024862324764251348 0.029141984686248651 0.028234930998817839 0.036963492625936255 0.037343867185284457 0.046466075422249647 0.041122691460160885 0.044656558091027643 0.033129202719404241 0.034458324338386206 0.039414402877269029 0.044757457762891521 0.041342979152368467 0.036815065272373673 0.03160804086157272 0.027865927222510488 0.023579965537119461 0.019597755061360848 0.022739428714599441 0.01254418196907753 0.015789862697862991 0.01197338336907368 0.0090476772860796223 0.0060619117939571263 0.0060443357106819574 0.0095224051921871632 0.0023835601014462432 0.0042981849577542024 0.0014274366824980256 0.00061852036030637762 0.00039312935543275033 0.0036186656409649409 0.0022493996179618744 0.0035693757567619167 0.0020167975706093652 0.0011580711489384936 0.00044732700544219072 0.00080444830285519723 0.00032432165800055771 0.0018003928905753227 0.0057043836929733024 0.0089265937016277455 0.008645152533526438 0.01614281557795557 0.012113736856249193 0.012535377804359088 0.017181518739349685 0.01580505569539779 0.012168369159834736 0.016116538589295459 0.0053716976588878409 0.0089675130720266085 0.0046521945845250379 0.0027328259463866526 0.0007100114837561742 0.0014959424167245749 0.00067697251880297624 0.0014965275414014292 0.0027076222230483626 0.0040047809610866229 0.0020173595884864777 0.00053587804667207034 0.00084294477791083035 0.00055588312198701507 0.0014468876916746321 0.0030163969636181577 0.0083974741407373352 0.0051353103961409132 0.006877873914008379 0.01050424231998397 0.013909740025818854 0.012273198616618975 0.016820861416703359 2.7056531128805053e-08 7.8514683816340735e-08 5.599215718436386e-07 3.1833495415627819e-06 4.3469941435368754e-07 1.6546568013470068e-05 0.00018877857007524484 7.2544802661745624e-05 1.705176037820742e-05 3.9727507494918283e-06 6.3495432082465619e-05 1.2146050149949066e-05 0.00028702819547683837 0.00020434373332827891 0.00024677553786141938 9.6546165767091629e-05 2.8112330391146412e-05 3.9100465756662862e-06 7.4729742940664264e-07 2.927169885730175e-06 2.4232706712023932e-07 4.6076398293493144e-09 2.8763540926251437e-08 5.431097098925032e-09 8.5027445901168236e-08 2.2207931609430957e-09 5.0982255080686451e-08 1.4148539221429648e-09 5.2101567549131328e-07 5.2664162778119155e-06 3.1135039711790469e-05 0.00010421359315359371 5.2348123840870983e-05 0.00018512545923885947 1.4813816034287901e-05 2.379313439616305e-06 1.6074732786224281e-05 4.8435271048174539e-05 0.00016709996225437322 7.8592197672670396e-05 0.00018006318358687568 2.3213700267324748e-05 5.5443075423944574e-06 9.1368552207803313e-08 7.7318266689341179e-07 1.8441034131291405e-07 1.2369246915048716e-08 1.9702655072244342e-10 5.5175489599839744e-09 6.2578171785357409e-21 0 1.9846389163857044e-19 1.5717733708889204e-18 1.0103190498596417e-20 6.691150639519733e-20 0 0 0 0 0 0 5.2249758583116571e-18 0 4.7054082318729853e-17 2.0607006205822054e-15 1.5850232365075648e-13 4.6598552333834331e-16 5.1279689229173858e-14 8.8661964354804118e-15 2.8789586848576679e-13 5.3061889135085814e-13 7.9603035096369497e-12 2.3855151230941593e-14 3.1675248766826721e-11 6.8257387373531547e-14 5.019111151870907e-11 1.751033037000275e-11 1.3786453214130647e-10 3.7100618775149767e-10 1.9098477437339101e-09 2.9016980005316991e-09 6.0505046453958196e-10 1.9515384669945952e-11 8.0178068710644769e-11 4.9853523525823231e-12 1.9943958314732027e-11 1.9920726539746096e-12 2.6430433837588971e-10 8.9465693831801803e-11 3.9283691994725125e-10 1.0752547405978595e-09 1.9472927908957408e-10 2.9022825901701955e-09 1.5360815320188314e-09 8.2011205710461376e-10 9.1562094716940395e-10 1.9162051936982937e-09 3.5557697429354399e-09 5.7266127292885096e-09 9.1033628197921527e-09 4.3511460741752275e-09 1.8540157722412828e-09 1.5963696443466772e-08 3.9828953794304862e-09 1.2392285498088254e-08 1.2227590468887132e-08 1.7219196637101873e-08 7.2492955642968716e-08 1.2472411819978963e-08 6.1222455659712203e-06 0.00020648372865909493 6.6035225495498739e-05 3.3810219530519546e-05 0.0001253651166611135 0.00027092764189130239 2.265377790874831e-05 1.9556073238242735e-05 8.3744401597028029e-05 0.0002270225839780061 8.1680091397481642e-05 0.00022592760173911774 3.9082433080778543e-06 4.2691117087291751e-06 5.5432695194813375e-06 2.6191149198204884e-05 9.0455952615065828e-07 5.5734924997505697e-07 7.0553339006512302e-08 4.5930827516799581e-08 1.3018631306187542e-09 3.8003864668669381e-06 7.4759201220687825e-07 6.275349642635792e-07 7.6395425293085117e-07 6.9123134593273225e-09 8.6214999670807059e-08 7.2124594225422644e-09 2.1727441337178903e-09 2.853070641861776e-10 9.3692462929542643e-10 7.6817062482942113e-10 0 0 0 0 1.3141766072038903e-10 0 0 0 0 8.8308674671835965e-11 0 3.9182929777721046e-11 0 0 0 1.9742960078737396e-09 6.1161846025553901e-10 4.1383147279273069e-10 6.1239193570297159e-11 6.0252053472396384e-10 1.4718256316280935e-09 5.0128594629585966e-08 1.383344682889868e-08 2.362284462316366e-08 3.8174311780081615e-09 4.538885355152714e-09 8.1656768029739853e-09 5.4987605009202267e-09 3.3991475995701112e-08 2.9826559226831864e-08 4.57179379236282e-08 4.4507869730948358e-08 5.0125043049908668e-08 3.886788521647099e-08 2.1344821595204948e-10 3.8652796113272766e-10 4.7969748099935968e-11 9.6582756164740779e-11 0 0 1.248670722482306e-11 2.5180564958498724e-11 6.5873628937951578e-12 2.1149608835274686e-12 0 8.6425843157797297e-13 2.5619229395624444e-13 1.4370537382330389e-12 1.760186815158944e-14 1.5576387788762941e-08 1.5603221074128516e-11 6.7517579479292595e-12 6.9285583339439357e-09 1.275096411826962e-08 4.8542392910930748e-09 2.8007431639226346e-08 4.5145400558610337e-09 3.8251923620981919e-09 3.6667772786787836e-08 2.9015275922291829e-09 7.226891475545554e-15 3.1933648061843747e-15 4.2197614752576939e-13 1.2221323779702705e-13 5.270221887662402e-10 3.7723386981209654e-10 2.4224049378029727e-11 5.6601211084418032e-12 3.7459058939897624e-11 3.7932357649965212e-12 2.1332559553508769e-12 2.4939646847951814e-10 3.7757881456903033e-11 1.0834145464571082e-11 6.3057713398031328e-11 2.0662674013933265e-11 3.133802669959842e-08 1.2040309717010586e-08 1.925814806469769e-09 4.0292044456889281e-10 6.7713293069670733e-09 1.3539687840128789e-10 1.0151672905304606e-08 4.4717966648209664e-08 2.9040421456089138e-08 4.4030614648162802e-08 5.0066135292422408e-08 2.9928640578807491e-08 1.6642022092428591e-08 1.0679712618489284e-09 9.4514749790291167e-10 3.1260757233464812e-12 1.9059060706993465e-08 1.6562583206879493e-10 1.1081611677492873e-10 3.9771866465775438e-10 1.7669502410374946e-10 4.3876131642054312e-11 1.4324678199391637e-11 8.499547591145754e-12 2.3046102482195234e-11 1.0216085302412863e-10 8.6372413018538822e-12 2.9041758040670898e-12 4.7161762517248211e-13 7.2159349728692833e-13 1.4473100624944884e-13 1.6035053756695537e-12 3.0798553092897534e-13 2.1956505589776733e-11 1.9153735905970688e-14 3.8470743101496216e-16 6.8037267628280238e-17 1.8230413107210657e-15 1.3411572444549339e-14 1.3482764418275621e-13 7.3103603481063486e-14 6.5308215264951676e-13 1.6349205382970399e-16 1.6437114557849925e-15 1.1132329846780887e-17 0 2.4277784481730011e-19 0 0 0 0 9.9909076899173629e-21 2.6074504521016277e-19 0 1.6526682414306306e-16 0 0 0 7.1113253531275439e-19 0 2.0215968910286962e-17 3.7426082048274687e-13 1.9644818136620201e-13 7.1915048873385994e-13 3.8884889145145897e-13 3.3482790704866507e-14 1.6255535477878154e-14 0 3.3638118255257799e-15 1.668061276243818e-15 9.2548822429732626e-14 1.6131505578810978e-14 3.3880082970363348e-14 3.4994995639764256e-13 0 3.5768076319021628e-18 0 3.8088839816427023e-13 1.4896402828006528e-17 2.4317788916869125e-12 2.0452206348799818e-12 1.8780720472223473e-11 2.0664770154360603e-10 5.1701498410325882e-11 1.589669524372388e-12 5.5374720570933633e-13 9.6694938525565431e-13 5.6114115798148393e-12 5.601117561365015e-13 1.4579973483652149e-09 2.0002079415321036e-11 4.8084272110586973e-11 3.2101734053413977e-11 1.2529882835845582e-10 3.7713775644338946e-09 8.3000186112710431e-09 3.0318006690811737e-09 8.2184551561536363e-09 1.0595114908096773e-08 1.8848583456512432e-08 1.5651088747788089e-08 2.259127011694215e-08 1.5778040475672121e-08 1.6901176896802265