<?xml version="1.0"?>
<VTKFile type="UnstructuredGrid" version="0.1" byte_order="LittleEndian">
<UnstructuredGrid>
<Piece NumberOfPoints="714" NumberOfCells="1306">
<Points>
<DataArray type="Float64" NumberOfComponents="3" format="ascii">
0 0 0 0 0.10000000000041601 0 0.082799035591426873 0.082799035591510806 0 0.099999999999928008 0 0 0.19999999999983389 0 0 0.20669143849501961 0.085546078947938975 0 0.29145143692666958 0.13500804559578439 0 0.29999999999973409 0 0 0.24783073444672249 0.24783073444648379 0 0.21725788110387281 0.17316968768743621 0 0.17318221359491059 0.27409688392309489 0 0.089078158003765312 0.2493007687782936 0 0.140351188660986 0.16130415108589741 0 0 0.20000000000083221 0 0.066361468125430589 0.15903440181097661 0 0 0.30000000000124832 0 0.0632094674441709 0.3449112819864934 0 0 0.40000000000166441 0 0.083393126324559225 0.42307471369029392 0 0.13897501191807771 0.34545639364066222 0 0.070553891733833127 0.57745844360881338 0 0 0.60000000000138687 0 0 0.50000000000205869 0 0.12353277228144981 0.51086097771927308 0 0.16324260003398389 0.62262730759772122 0 0.1946526892501724 0.54636184660733622 0 0.27220668248394869 0.50912429725145214 0 0.27661118526457179 0.58730386222759956 0 0.16486701364709541 0.41592657376307979 0 0.21928696632013719 0.4676461135047027 0 0.29987747321592639 0.43430880093746571 0 0.2371857680100064 0.35865548441110112 0 0.34318159319555042 0.3314386771104964 0 0.38593969585746768 0.44843324941957241 0 0.42544665781957403 0.3726599289372452 0 0.38240158409674341 0.60644575028138747 0 0.34793494568226019 0.52426775179830853 0 0.45232393232070839 0.53082724112931345 0 0.46433624429412901 0.61260020600107856 0 0.55763912874459476 0.49619993861770217 0 0.56379254693201075 0.58472273515948836 0 0.49272830291620878 0.32528628960011152 0 0.47711113382803011 0.43513410852522788 0 0.56509579243166053 0.39588847936247551 0 0.58612580217118482 0.27813894450229909 0 0.49255105193724569 0.22337579986912359 0 0.5565830077206213 0.19095699352548859 0 0.59999999999951659 0 0 0.57505385014294308 0.072457888465917331 0 0.49999999999959438 0 0 0.50264032148191051 0.12292784096123539 0 0.43504744109702559 0.077628892606360606 0 0.39999999999966429 0 0 0.35933948296838258 0.073809900849860513 0 0.33604819894646598 0.23280286076243209 0 0.41589935411558732 0.26752529264016389 0 0.40428440976105728 0.1643886070295453 0 0 1 0 0.099999999999999645 1 0 0.14716362552681639 0.93861610753355362 0 0.19999999999999929 1 0 0.30000000000000071 1 0 0.29792158491427922 0.79537096033156995 0 0.2235202862591317 0.88873896332704583 0 0.1332109546178302 0.87498377138822103 0 0.075231054453351903 0.92314074346405706 0 0 0.89999999999958358 0 0 0.79999999999999982 0 0.074918724681641777 0.83311952320732263 0 0.1533088418661793 0.80370257472597129 0 0.089684836063650353 0.74720097194875412 0 0 0.7000000000006934 0 0.079752623936563252 0.65630726580969023 0 0.16551550920047911 0.70947866912672319 0 0.22047232289835689 0.77501739045979867 0 0.25446499951716589 0.69023946426646743 0 0.32437633398017029 0.65970549827478953 0 0.33985912385126898 0.73174041004507751 0 0.42824324229177341 0.6924957961634054 0 0.5174764925733939 0.65338828204098198 0 0.59670004617370476 0.65981579440137683 0 0.62152629835360762 0.73285157302339954 0 0.52912171753951986 0.73993242892488531 0 0.51076728641122882 0.81691863363193817 0 0.62017612851329729 0.81451802170669263 0 0.56701461556202259 0.86335846433862784 0 0.45907587517201498 0.90165918271477563 0 0.43819239467549531 0.79296936871720936 0 0.36912581253574028 0.83088590731704637 0 0.37337282601342481 0.92616598444216514 0 0.31535921456193688 0.88154045330654418 0 0.39999999999999952 1 0 0.49999999999999911 1 0 0.59999999999999964 1 0 0.5499999999999996 0.93976792513729512 0 0.70000000000000018 1 0 0.79999999999999982 1 0 0.89999999999999947 1 0 0.8793859710393791 0.93083561064221121 0 0.93540888248908083 0.88281232945237675 0 0.91372311269140116 0.80486176357476358 0 0.82192606283926717 0.87651855948129354 0 0.73937541854631073 0.9288754054780668 0 0.64588148000090029 0.91512139508160772 0 0.76404828705430583 0.78174230667165401 0 0.71722872346306721 0.85096302760907838 0 0.69085763855200755 0.76120667115691065 0 0.6754414170471299 0.67700559910555169 0 0.74547688787239819 0.70026419381674654 0 0.81910554849723838 0.69100245438023977 0 0.84477163403336131 0.77519844632340484 0 0.90192269692920224 0.70295054578552552 0 0.9749171938312049 0.68304286407835557 0 0.98491966670915287 0.745702719141624 0 1.0785590511537511 0.75365885686631617 0 1.05 0.67063679245255348 0 1.1595355377629719 0.69612720023346242 0 1.2316049928421089 0.71268197388690568 0 1.130022579458912 0.80264790230838934 0 1.2104878010462079 0.79638517641579154 0 1.246238897717278 0.90016207822659 0 1.1492841477515361 0.89495863909300122 0 1.035017143854235 0.92577305964649748 0 1.039491394416145 0.83402983011495258 0 0.99999999999999911 1 0 0.94997493298435887 0.94717135651053852 0 1.1000000000000001 1 0 1.1999999999999991 1 0 0.8520969719592798 0.19112077159544111 0 0.81051762114363357 0.25355176211442859 0 0.91043121937362004 0.26518856856736223 0 0.87151744524583186 0.1145610820769897 0 0.89999999999870417 0 0 0.8072276847200428 0.07509171132446453 0 0.79999999999899607 0 0 0.75434135135171976 0.12888799631625769 0 0.73796379772146625 0.059893436010741673 0 0.69999999999928797 0 0 0.66267222434682926 0.078497159578092612 0 0.64669101990832323 0.1799054750174742 0 0.75284581776561577 0.20455093921856349 0 0.7545004114404561 0.31098089234202853 0 0.68811979868824935 0.26566684131589419 0 0.65823561246403328 0.35502292901158627 0 0.64897033023755402 0.45530630145656431 0 0.71094001953927277 0.41472992215547572 0 0.65500944633069913 0.60601350811213128 0 0.66278242936710119 0.53985356489900171 0 0.74775703275407246 0.49059679564787018 0 0.74991769371388628 0.60451627361984739 0 0.85383906663538056 0.62014574817393608 0 0.82099888937423493 0.54529350322201742 0 0.89730215834238125 0.56352362508531118 0 0.79315209058920677 0.38802315963964318 0 0.83603391221093415 0.31708941802047369 0 0.84897848255088726 0.46000674997733482 0 0.9184189969982266 0.43608586792060411 0 0.89716106756302072 0.36571612550017968 0 0.97284972811175952 0.32057650487681749 0 0.97803218086495292 0.39957666910545891 0 1.049999999998295 0.45311778235774403 0 1.0499999999982661 0.33749999999944968 0 0.95554667482020261 0.61387123313571723 0 0.95438428234324713 0.50021891445525024 0 1.0610070115193291 0.56187728740506249 0 1.160572984923127 0.60155304747043781 0 1.1544259370261769 0.49580194535795907 0 1.11366617971111 0.39530889117858181 0 1.1787318575418491 0.43180077319900678 0 1.2482752740169289 0.44264463249545388 0 1.193211192060164 0.36417169501775798 0 1.2189485028845071 0.28846717556219142 0 1.225209211892335 0.20648826945283069 0 1.14543293599463 0.16096823716187 0 1.1317936052402791 0.27327200211975772 0 1.0273907165533489 0.25089655084417212 0 1.0673059847957449 0.1861726764986896 0 0.96758455917765662 0.17206502793490561 0 0.99999999999841238 0 0 0.95940036225003311 0.0802667348803804 0 1.0527907183502181 0.1005001786211816 0 1.1494214575391031 0.075340014825429069 0 1.09999999999812 0 0 1.199999999997829 0 0 1.2999999999975369 0 0 1.254652873386052 0.105753482544517 0 1.3681535985071449 0.13698083382674339 0 1.399999999997245 0 0 1.349999999997392 0.060567969661089648 0 1.291408388555241 0.26372433042992383 0 1.316869459340541 0.18778020585802921 0 1.3878996413210389 0.26723502210068018 0 1.473286192129879 0.27883707652097373 0 1.4156792278190771 0.19574754335211339 0 1.4905184776249101 0.20629734327603311 0 1.545236949037224 0.29434567071731399 0 1.456639397274391 0.1016053838939758 0 1.53341268746562 0.14194251306413061 0 1.542152768646126 0.073248247890105089 0 1.4999999999969531 0 0 1.599999999996661 0 0 1.6999999999963691 0 0 1.6799832100487111 0.082202015566833181 0 1.609545399082946 0.1308291592921435 0 1.567491488875842 0.20218805454405439 0 1.6351951680630969 0.23707571199064051 0 1.714493154391862 0.28897291620938281 0 1.7304700827703301 0.17386188770806579 0 1.799219293849516 0.26438879273789773 0 1.8480644103363271 0.19193194889233381 0 1.8299024103288899 0.1151394713368583 0 1.799999999996077 0 0 1.75369588639865 0.074917217572982864 0 1.7537858687071439 0.50406839622489796 0 1.742806034420483 0.6006074591026016 0 1.8544400981153091 0.62488101477716596 0 1.8316048184152021 0.54157006606434721 0 1.850967139686138 0.45738417241574703 0 1.8620515405159661 0.32644761881501039 0 1.787749129254824 0.36176402170097799 0 1.7808296409871709 0.43587276890434401 0 1.71976181471802 0.39635806210359681 0 1.645895854313963 0.45222881216869149 0 1.6419306970571019 0.3436055112169133 0 1.645263810758179 0.55814977621663464 0 1.5386621965636409 0.60828218080060537 0 1.550364457075788 0.50467902559054656 0 1.4795754400412069 0.53983964974648579 0 1.445918816848357 0.6075709531782556 0 1.551956040519719 0.40384519109247291 0 1.4491802319415681 0.4666714614197911 0 1.4507225717793131 0.3561247496431208 0 1.347125314110625 0.32447518420453242 0 1.385017785528226 0.40713366384701549 0 1.3198129865007471 0.39133224900025881 0 1.2615469736996101 0.34090999671933891 0 1.3860523322451299 0.56073196187600105 0 1.3462106466432811 0.48060664220838062 0 1.2709684905841181 0.55537862536316829 0 1.2546738886072291 0.63615646469940468 0 1.3545060270195819 0.65002758689694418 0 1.4000454837723419 0.73943313674757749 0 1.3035852436207409 0.73866974635260263 0 1.2914654457895349 0.81843301378315825 0 1.3255948392482531 0.88328132587465524 0 1.3864786876100039 0.92208751032957958 0 1.386174597084219 0.82350876346868962 0 1.482119963281066 0.782586299849238 0 1.463012078585596 0.89209645917012148 0 1.546104640467868 0.9195568013001878 0 1.535346256113697 0.70153336654872078 0 1.4534042830965781 0.68426123045930609 0 1.2999999999999989 1 0 1.399999999999999 1 0 1.5 1 0 1.599999999999999 1 0 1.6999999999999991 1 0 1.7999999999999989 1 0 1.6597641702579149 0.778
[...]
<CellData Scalars="A_conc,As-lin_conc,B_conc,Bs-lang_conc,C_conc,Cs-freund_conc," Vectors="" Tensors="">
<DataArray type="Float64" Name="A_conc" format="ascii">
0.029813192303249397 0.033301634560960192 0.029716773261336107 0.032055590301171971 0.035284107844435225 0.038341560101093811 0.037428001737141767 0.042611183516953796 0.043862576472647838 0.047280991688820523 0.051698534849474634 0.047094634301259444 0.055014267055862973 0.049904264500890277 0.052683151385631691 0.042567714280201591 0.046109483319967247 0.046476445111378807 0.038529737476012474 0.039189463474670685 0.03595350685535538 0.03278154315273471 0.03221545413623314 0.028980061322163228 0.031609754328414008 0.029368146623899881 0.02968992419757558 0.038001467243426207 0.038373773742756717 0.034778935453779018 0.035318395584529885 0.03197948422314445 0.029642283864891816 0.033433007815216076 0.032577934025302083 0.037877776546639277 0.034975374590560264 0.04120749537554115 0.043886955252477738 0.047386532568286094 0.043659948178515685 0.052541517924234324 0.055091085339856252 0.051869305547278269 0.048836221389160842 0.041631869520855389 0.042501250725429159 0.046580241750891885 0.041800578808148331 0.049485607526726982 0.053498968463709468 0.049801995418572678 0.061889423529202486 0.057992219040500073 0.066239819494785357 0.070936234434788858 0.066987660645820846 0.063162056389112722 0.0563148290987453 0.056117663823703687 0.058318249198035618 0.067682491128321282 0.062862921700773761 0.0609878326482685 0.066170601271743901 0.070132133195464963 0.075150698064738924 0.071984288404834104 0.075260677770374526 0.085480449191984331 0.080585826646103337 0.082927991739196502 0.073920414367972823 0.077569765021245726 0.086651136456214778 0.081786347976896476 0.078229171749002541 0.08244373329874384 0.073912892807996039 0.075268029364993411 0.078791442438252313 0.082511108690302287 0.081220921947975838 0.084819347893281424 0.079861601168744939 0.075474988334336759 0.072192991453128214 0.078024464106991903 0.067353037235029722 0.063608217999559444 0.067300098413157025 0.063701379284807846 0.058891635130817861 0.055831875945664258 0.058879610019858572 0.056817347887958849 0.062736945309468328 0.059277034903220137 0.070136989450857543 0.070635333815790707 0.066428525437525587 0.029568419100367321 0.032756607293481552 0.036876543465110594 0.040413279545748609 0.044836342374709535 0.047834682550005406 0.052461154463036661 0.047356011124535247 0.05108410641581658 0.04426417598048183 0.040751069596044076 0.040098155898219676 0.037142206319420987 0.034942020133114843 0.031864887103432563 0.029136062509584535 0.032573783619072802 0.037704053693750406 0.035906663249266529 0.036310112588528703 0.039742764252484922 0.029140110474331717 0.032812398607838106 0.029192000169844686 0.039736070107134466 0.047815935686904495 0.043455038198031593 0.046389999511245575 0.042878221157720761 0.050131438736086123 0.053366713569639616 0.054738664562974639 0.05271310126568924 0.062100142776737817 0.058382200388024025 0.068327298179396562 0.063831141854446077 0.066296535449447858 0.072747811213072638 0.070452016198029765 0.07741128300809022 0.079138628601941985 0.082688441512867444 0.081467081881520048 0.069640365522550068 0.073316740137650716 0.077181569915684173 0.078966462361720294 0.079654836071776453 0.08426157247642807 0.074742588395069171 0.072886156098504101 0.061526463955746867 0.065907843209920824 0.060739525239575952 0.057819844038129925 0.055355740650515739 0.056752985444503225 0.058827032993426322 0.060401287911088342 0.065231491167525052 0.068695394542931998 0.073600139623880484 0.078925760944933199 0.083881220138186191 0.092964681437563521 0.087985725177341295 0.098110543164704106 0.11044032037653798 0.11543755281059297 0.10969890658481583 0.11562469201452774 0.10741808467886596 0.1105562953440116 0.10345941168283682 0.10676118982890474 0.10310197196386962 0.096897240200382276 0.092430052692704739 0.087526162358136178 0.090953956470114145 0.095258574072708144 0.099011278655585455 0.10067666815933302 0.093570369999407849 0.097256461389959664 0.09037273482832052 0.087275856928973244 0.09113743773804317 0.086058756161722108 0.087462760277393775 0.095792028652192079 0.099340834524347901 0.10324396379569499 0.10896384784173675 0.10825351528010979 0.10407328357245543 0.11602177561922351 0.11274700923270338 0.11275576756627133 0.117650496148617 0.12120421387624106 0.12275765411087501 0.11894968340020531 0.12597364280353374 0.12601329562546729 0.13614079557111039 0.14163140384134104 0.14600240911577664 0.14590021059388522 0.14273431250973981 0.13051840451589719 0.13854939100119287 0.13529764052221643 0.13850787278349466 0.13365404925355207 0.14709471000095839 0.14341672612201878 0.14233665099626222 0.12793977817366681 0.13089219701243807 0.12062671008639272 0.11614017331838215 0.11896841967520883 0.12285520823584933 0.11968065676753464 0.12467981106789032 0.128426829362353 0.13342651703278624 0.1384168146929344 0.14844121103810359 0.099635901098427626 0.10500148846252118 0.10672754094225989 0.10277693568097418 0.10951313630526704 0.11404822587461202 0.11015814269350445 0.11623138890658893 0.11455923204972189 0.11085585218252839 0.10586030543828545 0.1024739685188157 0.10448637903423236 0.10401020709287143 0.096416124561626834 0.100393548862106 0.097483697423406582 0.088936663224704615 0.093916566395693027 0.085925459918184899 0.090397078363677816 0.092013786159869076 0.094317024466566327 0.10095873487159446 0.097679767227030201 0.086650059720732697 0.091615011111819356 0.086743373114027467 0.091102089128126895 0.094565260990470482 0.098640337525868912 0.097505956097346025 0.093625270504947858 0.090486673529295847 0.085822921231132332 0.090357968779756936 0.095302689896318085 0.099589486867067867 0.10258080255529142 0.1074289035703575 0.10841501300154367 0.10385968475858876 0.11180280942714532 0.11692814520159123 0.11162333744527167 0.1060671164332064 0.10188641540371018 0.10767226060184931 0.10215528499541218 0.11230039541546863 0.11488072261748937 0.11525540525327604 0.11192929632566835 0.11530554385592032 0.11853255991248528 0.12246445888723904 0.11902242673392723 0.12157374164916362 0.13040302169379761 0.12680484216177385 0.11981391347118479 0.1296777289791595 0.1246591069951976 0.13065967089102412 0.12565024866172647 0.13531202740615228 0.14494648555585829 0.14017486074442431 0.14696706485408276 0.13707633750435089 0.13346377593665504 0.13806417482221545 0.13370863419007289 0.13981586479758795 0.14101155192739195 0.14345974631841529 0.14655643633845494 0.14543509664337578 0.14731599682233182 0.14290027019563292 0.14116700322145254 0.14441379482820077 0.13924857536273544 0.13549537128716088 0.1242899163403418 0.12792621974338964 0.13110373209067838 0.12566758210144965 0.11923617780389965 0.11900211261829646 0.12450493976479954 0.1195060406035679 0.12077721689250123 0.12559637539819252 0.13046249593785969 0.1286425877945932 0.13911202235400638 0.13364223755765386 0.13420149881415011 0.13897427462044437 0.14411192342112233 0.14858757685435611 0.15358754557496296 0.15462863670315374 0.15380272885631874 0.15993272523681079 0.16444326570825524 0.15944327894549648 0.15244358515971473 0.14929922784347943 0.14906781348981107 0.15151250183239257 0.16054630637747325 0.16044953401304374 0.15578189674526283 0.15720019641179378 0.16629822618131462 0.16553403683050133 0.16940117467624149 0.16881934397700571 0.17646870753494831 0.17601508160310841 0.17085163011518917 0.17335306566484235 0.16863143213616066 0.16516463059181558 0.17487705198677289 0.17239060878677728 0.178972326358908 0.17824081700281666 0.17363142822214656 0.1864003894715634 0.18324081434181991 0.18981947244757397 0.19481947295135249 0.19057334446656413 0.17994901925376872 0.18342818415879025 0.18446769817183942 0.18026774609387741 0.18914666523215673 0.18639224599211182 0.19283512528385333 0.20148905241561246 0.19716018342109198 0.20025681072046975 0.20866862202530878 0.2075884915274136 0.20305027391096869 0.20908820112410006 0.206994401800149 0.20370637342340053 0.19870637303513683 0.1954344449075256 0.19903457902316879 0.19981991524312773 0.20375600580380004 0.20418879836069581 0.20363073108881569 0.20642650592532857 0.20434832555781449 0.19681641106031683 0.19776508550578703 0.20007935940191879 0.20039286630794265 0.1931893435255253 0.18932846096985284 0.19305425908039917 0.17992281238083821 0.17950118533903581 0.18471977126034228 0.1837904459199414 0.18855137463706248 0.19470135356204993 0.18991744968475793 0.17917261336626569 0.18467727044536814 0.17583173225148979 0.17122525653371903 0.17082446106038202 0.16601505904551736 0.16706818303571536 0.17500754122061746 0.17441196996517799 0.16632443777831785 0.16957409489413611 0.16030487219277459 0.16223677852129703 0.15740682099124831 0.16059750702112671 0.15700614161629889 0.15267063527819275 0.14982147585279992 0.15346360834484207 0.15640053969440909 0.16229049496490941 0.16133420214212554 0.15571311795542181 0.15017393092592524 0.15202108510343715 0.1498553765147822 0.15283440446888491 0.16315524900600742 0.15835168632675556 0.15851899903314276 0.14981424316712438 0.15403061270635118 0.15344118557129061 0.15101995731755657 0.15985982912262264 0.15722388920084529 0.15480168077804154 0.16700065345641307 0.16334982315707713 0.16289803382816012 0.17405979728374371 0.17588778763337157 0.17144090478073137 0.17622779481247802 0.17205014826880627 0.17619289164608309 0.17449727870290205 0.16983323690868779 0.16505539706401867 0.16857656707571225 0.16110882352055933 0.16905979969404267 0.16610881823779938 0.17837733868073605 0.18707381284325086 0.19602107697365409 0.19102107694720899 0.19933581667105527 0.2043358168959869 0.20865714606619504 0.19018910535318589 0.19497374514559887 0.17862509059983439 0.18641366522380262 0.18224258395188114 0.18441130689496826 0.18086060951543376 0.18033759063728633 0.18337733544423401 0.18965248787262834 0.19320934379682472 0.18839686725814153 0.19774278714020324 0.20179812548349221 0.19330776342078787 0.19695528255901776 0.20050808341802898 0.20557019426085757 0.20869730819981397 0.21008392439364354 0.20513869233040369 0.20117079328078696 0.19641481680826564 0.2007918753786882 0.20691159080954832 0.21551536816468858 0.21183870806605085 0.2239015568792653 0.2201385359353854 0.22303953902240223 0.2263008973613041 0.21392017858899939 0.21812105348606539 0.21318645725164853 0.21623456550578476 0.22148043137153431 0.222981959015774 0.21925406664009603 0.22702128006143774 0.22519944355164845 0.23519432611045765 0.23775133864977066 0.23242306978253441 0.23740828163666894 0.23667483580866638 0.23816204570708038 0.2298264384720731 0.22882331896905603 0.22875118706670761 0.23266255140043973 0.23365342725886415 0.21797978188248818 0.2136570689463537 0.22297925647847125 0.22663436980632329 0.23163358190960875 0.23928917171209935 0.24428879415400401 0.24893953522990689 0.26004288155774558 0.26504284701185127 0.26839363819329476 0.25682758766204333 0.25377047685479559 0.25111903347974363 0.24189229364248765 0.24226719258488616 0.2455986267573825 0.24809594671979041 0.24793874438517344 0.24197935914802182 0.25614157370495416 0.25393935149222102 0.25229353336580368 0.25213689315918775 0.26195718091566439 0.26814102310316057 0.26652897444882373 0.27203268018681587 0.26640562544850632 0.27094576011007343 0.26186887251692542 0.25956070784613194 0.26297213259857455 0.26645999254627667 0.27107453685396921 0.26725569760722601 0.27113150061175595 0.2711174928593354 0.26565829817591835 0.26114675482548932 0.25835215450183263 0.26158800579422709 0.25272752983146574 0.2510565198891232 0.25736767024726415 0.24711568313468313 0.24277735522950386 0.24539876850430623 0.24881501072697812 0.24253851003709587 0.24669580957916171 0.2496335154121351 0.25344973170425766 0.25156302651004314 0.25588056715918184 0.25794221576346393 0.26177885803856099 0.26577348130420431 0.26928648436371738 0.27110301006478033 0.27014209185129456 0.26707775500638042 0.26900058159245571 0.26499569398478734 0.26090128949594865 0.25597831639068974 0.26370794808085929 0.25959584005277314 0.26856925439589929 0.27356925366076701 0.26910722808147214 0.27328318839611876 0.26476840440575222 0.2636206608449273 0.25950751774594027 0.26357082606853022 0.25857082606762732 0.25377884070674889 0.25419354857450371 0.24984385327515971 0.24449417992320915 0.24265511175194157 0.24877884131535002 0.25248328376520662 0.24684110789887459 0.24257228200197853 0.24304091358492758 0.24803971432220637 0.23867423409492866 0.23542595328048221 0.2337730609535271 0.22667432614398217 0.22947319315229869 0.23765511227820352 0.24010456478673517 0.23053107953055182 0.23297628592010594 0.22797628668287601 0.2228458735476577 0.2252701883389033 0.21387503147202405 0.20871630542090164 0.21408820107089299 0.21908820037457766 0.22020919843728096 0.22250113486832426 0.22458967666449889 0.21963007038310944 0.2122758904677759 0.21458877150335479 0.2175147710809594 0.21297787746996355 0.20999214174393832 0.21325858614121268 0.21679417304462453 0.22054674308107136 0.22541045579236452 0.22031943976408408 0.213160331615911 0.21445306878847933 0.20851100795415847 0.20900504939935993 0.2133807013195575 0.2235483924937082 0.21925330336496357 0.22355530330555862 0.2281111865585787 0.23193523693927776 0.2281709583602245 0.2330475840421746 0.2408575670830061 0.2367472166421617 0.23861454139893293 0.23650021698900164 0.23178409809743816 0.22851314453895094 0.23414825945407866 0.4977777558530847 0.49413590010262354 0.50277775484598097 0.51153829547604812 0.51454191540839467 0.5065382969982124 0.5172395196340529 0.52223951974554739 0.51657928208937964 0.5161831565941134 0.52119259005956764 0.51621427905585426 0.51140842209009929 0.51161843723477984 0.50856257689207196 0.52158548953921224 0.51660718051414301 0.5200216893903874 0.51221989492747766 0.50298569330188481 0.50200363620981636 0.50700989905017513 0.50521647647170198 0.49321650822055052 0.49676096257974767 0.4948197357943156 0.49897410715132323 0.50480701680794127 0.49984131412132504 0.5013921053222159 0.49670126001975201 0.49198467299592902 0.49164496010267805 0.48161543320642769 0.48790561752355927 0.48614182722981969 0.4784077652422648 0.49092283541088982 0.48562148754448109 0.48866700750803427 0.48323625605692538 0.47856382289454164 0.47585216348953729 0.48111173344373037 0.46720899186474146 0.47249940784314121 0.46696024151591731 0.46874761528254283 0.46303398426699666 0.46360409381539958 0.47460700641788084 0.46900324253249243 0.4735222615985496 0.46344063620379783 0.46202103331501049 0.46291551043314871 0.4646571027312526 0.46965710111966075 0.47337298038490988 0.48913590265242257 0.48536486379761468 0.48180309147060441 0.47680310140776405 0.49469075225027337 0.4984750681179706 0.49972470194684149 0.50515869123544999 0.50347506740809378 0.51160325201958179 0.51178960443455168 0.50678960754403879 0.51723952003123408 0.5222395202162281 0.51677054401751776 0.51669002572784772 0.50794901150108973 0.51153862508265324 0.51080530371087618 0.52119259238707549 0.51621428544288062 0.52002169341315163 0.51648776976259447 0.50728475243875026 0.50472272302810062 0.50002295952696452 0.49391767195564784 0.49539282402104107 0.49924794348818097 0.49667648538024339 0.49547672145117683 0.50006094555061598 0.50397842773476254 0.49982953120162665 0.50413733027641561 0.50322681659198709 0.51196313565595131 0.51234371789718702 0.52146607542160495 0.51612261105020096 0.51965653086015295 0.5081279567507252 0.50945544665210563 0.51441397319906734 0.51975743827802545 0.5163429232731096 0.5118147116066929 0.50660380795203552 0.50283654563462521 0.49849768993454135 0.49440158420913166 0.49767466819052203 0.48682600489789524 0.49036064905960625 0.48609393329516137 0.48252993459623317 0.47829534781619398 0.47832112241622476 0.48323035997462033 0.47103538260042266 0.47542941911625164 0.46797173297330641 0.46354251037916533 0.46118621482619671 0.473766719326214 0.47049079141225059 0.47392323355030774 0.46975358449343296 0.4666478971124996 0.46166821880403142 0.46428920399510459 0.45996284031840351 0.46898470437467615 0.47783393730993451 0.48252777237998135 0.48211135087269275 0.49082877608987885 0.48637435179225413 0.48689404302176431 0.4920117859015084 0.49044592791853303 0.48635226330566739 0.49072254892049727 0.47704981850820327 0.48251683290593761 0.47557472746007112 0.47134701936783047 0.46332309720400588 0.46742147113440119 0.46313656056269231 0.46760507202393409 0.47142388562124427 0.47474352321567448 0.46971479096023461 0.46175900978082413 0.46432497422455105 0.46228477969558246 0.46752716985623821 0.47252708803695115 0.48181179592930823 0.47681183008805894 0.4797005011543844 0.48452876290880853 0.48842400972518252 0.4866068757290809 0.49160687345037496 0.43292436581101174 0.43610152238618771 0.44026369377922336 0.44463905120281466 0.43963905099871547 0.44907057012844087 0.45728481283878947 0.45407053852436063 0.44901129093782088 0.4452562939609761 0.45311859826833728 0.44776965156815468 0.45924753871109997 0.45764306085912959 0.45836999325593958 0.45497984425648785 0.45096365148146894 0.44418243272806307 0.4409127384402865 0.44426384166654853 0.43728507875461808 0.42928411098769365 0.43303193925808109 0.43183944464850499 0.4365837840920358 0.42917885899748509 0.43514169561444194 0.42981778017898853 0.43994142231432765 0.44547311557094177 0.45139160803995759 0.45529977148389145 0.45351774467531342 0.45818470278538526 0.4501839155426931 0.44511168322060424 0.45012226597498162 0.4535612655259415 0.45795733406201139 0.45504055947367322 0.4575884487399462 0.45151979648163659 0.4480983042368426 0.44016319166931095 0.44369015602439066 0.43956272601669133 0.43456188353666125 0.43177920890594179 0.43697988519842967 0.42559184553280949 0.42257335834251331 0.42915032560157679 0.42036837735374044 0.4249674927065043 0.41558114843742244 0.41610013865787771 0.41924212227378571 0.40822533659896298 0.41179985053709978 0.40866581429730187 0.40053868729541564 0.3981768912869757 0.40382202219156527 0.4017966414474583 0.41118092200046441 0.40601553335310703 0.40746136660889198 0.40261547909866785 0.39761727549764697 0.39852417918883948 0.41016091754347439 0.41209975516682884 0.41580754687994803 0.42532441028937668 0.41954415977283643 0.42388513873351719 0.42008657939375182 0.42413677710200548 0.42723842349610208 0.42552932906548518 0.4190594377886479 0.41615241143760379 0.4171494236711345 0.42028770466790694 0.40709598395119695 0.39898681704009625 0.40328086248876632 0.39839021784754192 0.40143993201673978 0.41077242014124593 0.41047612926970511 0.40598605619157618 0.41048687459552891 0.40812270778561333 0.40371957587319629 0.40154069815668403 0.40590796257076545 0.41090796043675532 0.41508457558846179 0.42008457129628957 0.41405637376133164 0.41489802735449433 0.42847812844517058 0.42234271626250375 0.42491386298301176 0.42363166320906143 0.4279243658804851 0.43756876229486219 0.43336948117674035 0.44810225628533151 0.45965710255568887 0.45278891750716543 0.45310225027260825 0.45734810815637006 0.45877588243151063 0.44957316424840865 0.4487723919054295 0.45502859713105548 0.45869199789747928 0.45395808091276679 0.45835894154091972 0.44524840660940401 0.4442677381413504 0.44774907831386102 0.45163051330334703 0.44393369900531154 0.44135638184750486 0.43480482875503024 0.43643462090180046 0.43308410451371526 0.44349588697657627 0.44256874703728255 0.43888305440303982 0.4401430582181961 0.43105746235809633 0.43479785681688787 0.42968302960465904 0.42440973494285195 0.42687903810689459 0.42092469209246747 0.4165115921096505 0.4254889117751165 0.42933591348607458 0.422223121130887 0.41860982937236424 0.4137581205840849 0.4224650487160273 0.4180531054585076 0.41167710174565741 0.41410437934055377 0.40837329322114685 0.40901270289449959 0.39989813924834439 0.3994339365054666 0.40285651256914601 0.40377091426189404 0.40822272953948413 0.4122490120152158 0.40677228194664156 0.40375422170967007 0.40200825263275336 0.40380252987839332 0.39822256062131722 0.40322245326483697 0.40898117285342039 0.41398111882235861 0.41780964612325899 0.42836947