<?xml version="1.0"?>
<VTKFile type="UnstructuredGrid" version="0.1" byte_order="LittleEndian">
<UnstructuredGrid>
<Piece NumberOfPoints="714" NumberOfCells="1306">
<Points>
<DataArray type="Float64" NumberOfComponents="3" format="ascii">
0 0 0 0.099999999999928008 0 0 0.082799035591426873 0.082799035591510806 0 0 0.10000000000041601 0 0.066361468125430589 0.15903440181097661 0 0 0.20000000000083221 0 0 0.30000000000124832 0 0.089078158003765312 0.2493007687782936 0 0.140351188660986 0.16130415108589741 0 0.21725788110387281 0.17316968768743621 0 0.17318221359491059 0.27409688392309489 0 0.24783073444672249 0.24783073444648379 0 0.29145143692666958 0.13500804559578439 0 0.20669143849501961 0.085546078947938975 0 0.19999999999983389 0 0 0.29999999999973409 0 0 0.35933948296838258 0.073809900849860513 0 0.43504744109702559 0.077628892606360606 0 0.39999999999966429 0 0 0.49999999999959438 0 0 0.59999999999951659 0 0 0.57505385014294308 0.072457888465917331 0 0.50264032148191051 0.12292784096123539 0 0.49255105193724569 0.22337579986912359 0 0.5565830077206213 0.19095699352548859 0 0.58612580217118482 0.27813894450229909 0 0.41589935411558732 0.26752529264016389 0 0.40428440976105728 0.1643886070295453 0 0.33604819894646598 0.23280286076243209 0 0.34318159319555042 0.3314386771104964 0 0.38593969585746768 0.44843324941957241 0 0.42544665781957403 0.3726599289372452 0 0.49272830291620878 0.32528628960011152 0 0.56509579243166053 0.39588847936247551 0 0.47711113382803011 0.43513410852522788 0 0.55763912874459476 0.49619993861770217 0 0.56379254693201075 0.58472273515948836 0 0.46433624429412901 0.61260020600107856 0 0.45232393232070839 0.53082724112931345 0 0.34793494568226019 0.52426775179830853 0 0.38240158409674341 0.60644575028138747 0 0.27661118526457179 0.58730386222759956 0 0.16324260003398389 0.62262730759772122 0 0.1946526892501724 0.54636184660733622 0 0.27220668248394869 0.50912429725145214 0 0.29987747321592639 0.43430880093746571 0 0.2371857680100064 0.35865548441110112 0 0.16486701364709541 0.41592657376307979 0 0.21928696632013719 0.4676461135047027 0 0.083393126324559225 0.42307471369029392 0 0.13897501191807771 0.34545639364066222 0 0.0632094674441709 0.3449112819864934 0 0 0.40000000000166441 0 0 0.50000000000205869 0 0.12353277228144981 0.51086097771927308 0 0.070553891733833127 0.57745844360881338 0 0 0.60000000000138687 0 0 0.7000000000006934 0 0.089684836063650353 0.74720097194875412 0 0.079752623936563252 0.65630726580969023 0 0.25446499951716589 0.69023946426646743 0 0.22047232289835689 0.77501739045979867 0 0.16551550920047911 0.70947866912672319 0 0.29792158491427922 0.79537096033156995 0 0.2235202862591317 0.88873896332704583 0 0.1332109546178302 0.87498377138822103 0 0.1533088418661793 0.80370257472597129 0 0.074918724681641777 0.83311952320732263 0 0 0.79999999999999982 0 0 0.89999999999958358 0 0.075231054453351903 0.92314074346405706 0 0 1 0 0.14716362552681639 0.93861610753355362 0 0.099999999999999645 1 0 0.19999999999999929 1 0 0.30000000000000071 1 0 0.39999999999999952 1 0 0.49999999999999911 1 0 0.59999999999999964 1 0 0.5499999999999996 0.93976792513729512 0 0.56701461556202259 0.86335846433862784 0 0.62017612851329729 0.81451802170669263 0 0.51076728641122882 0.81691863363193817 0 0.45907587517201498 0.90165918271477563 0 0.37337282601342481 0.92616598444216514 0 0.31535921456193688 0.88154045330654418 0 0.36912581253574028 0.83088590731704637 0 0.43819239467549531 0.79296936871720936 0 0.33985912385126898 0.73174041004507751 0 0.32437633398017029 0.65970549827478953 0 0.42824324229177341 0.6924957961634054 0 0.5174764925733939 0.65338828204098198 0 0.52912171753951986 0.73993242892488531 0 0.62152629835360762 0.73285157302339954 0 0.59670004617370476 0.65981579440137683 0 0.6754414170471299 0.67700559910555169 0 0.69085763855200755 0.76120667115691065 0 0.74547688787239819 0.70026419381674654 0 0.81910554849723838 0.69100245438023977 0 0.90192269692920224 0.70295054578552552 0 0.84477163403336131 0.77519844632340484 0 0.91372311269140116 0.80486176357476358 0 0.93540888248908083 0.88281232945237675 0 0.8793859710393791 0.93083561064221121 0 0.82192606283926717 0.87651855948129354 0 0.73937541854631073 0.9288754054780668 0 0.76404828705430583 0.78174230667165401 0 0.71722872346306721 0.85096302760907838 0 0.64588148000090029 0.91512139508160772 0 0.70000000000000018 1 0 0.79999999999999982 1 0 0.89999999999999947 1 0 0.94997493298435887 0.94717135651053852 0 0.99999999999999911 1 0 1.1000000000000001 1 0 1.1999999999999991 1 0 1.246238897717278 0.90016207822659 0 1.2104878010462079 0.79638517641579154 0 1.130022579458912 0.80264790230838934 0 1.1492841477515361 0.89495863909300122 0 1.035017143854235 0.92577305964649748 0 1.039491394416145 0.83402983011495258 0 1.0785590511537511 0.75365885686631617 0 0.98491966670915287 0.745702719141624 0 0.9749171938312049 0.68304286407835557 0 1.05 0.67063679245255348 0 1.1595355377629719 0.69612720023346242 0 1.2316049928421089 0.71268197388690568 0 1.160572984923127 0.60155304747043781 0 1.1544259370261769 0.49580194535795907 0 1.2482752740169289 0.44264463249545388 0 1.1787318575418491 0.43180077319900678 0 1.193211192060164 0.36417169501775798 0 1.11366617971111 0.39530889117858181 0 1.049999999998295 0.45311778235774403 0 1.0499999999982661 0.33749999999944968 0 0.97284972811175952 0.32057650487681749 0 0.97803218086495292 0.39957666910545891 0 0.95438428234324713 0.50021891445525024 0 1.0610070115193291 0.56187728740506249 0 0.95554667482020261 0.61387123313571723 0 0.89730215834238125 0.56352362508531118 0 0.82099888937423493 0.54529350322201742 0 0.85383906663538056 0.62014574817393608 0 0.74991769371388628 0.60451627361984739 0 0.65500944633069913 0.60601350811213128 0 0.66278242936710119 0.53985356489900171 0 0.74775703275407246 0.49059679564787018 0 0.71094001953927277 0.41472992215547572 0 0.64897033023755402 0.45530630145656431 0 0.65823561246403328 0.35502292901158627 0 0.83603391221093415 0.31708941802047369 0 0.79315209058920677 0.38802315963964318 0 0.84897848255088726 0.46000674997733482 0 0.9184189969982266 0.43608586792060411 0 0.89716106756302072 0.36571612550017968 0 0.91043121937362004 0.26518856856736223 0 0.8520969719592798 0.19112077159544111 0 0.81051762114363357 0.25355176211442859 0 0.7545004114404561 0.31098089234202853 0 0.68811979868824935 0.26566684131589419 0 0.64669101990832323 0.1799054750174742 0 0.75284581776561577 0.20455093921856349 0 0.75434135135171976 0.12888799631625769 0 0.66267222434682926 0.078497159578092612 0 0.69999999999928797 0 0 0.73796379772146625 0.059893436010741673 0 0.79999999999899607 0 0 0.8072276847200428 0.07509171132446453 0 0.87151744524583186 0.1145610820769897 0 0.89999999999870417 0 0 0.99999999999841238 0 0 1.0527907183502181 0.1005001786211816 0 0.95940036225003311 0.0802667348803804 0 0.96758455917765662 0.17206502793490561 0 1.0273907165533489 0.25089655084417212 0 1.0673059847957449 0.1861726764986896 0 1.14543293599463 0.16096823716187 0 1.1317936052402791 0.27327200211975772 0 1.2189485028845071 0.28846717556219142 0 1.225209211892335 0.20648826945283069 0 1.09999999999812 0 0 1.1494214575391031 0.075340014825429069 0 1.199999999997829 0 0 1.2999999999975369 0 0 1.254652873386052 0.105753482544517 0 1.3681535985071449 0.13698083382674339 0 1.349999999997392 0.060567969661089648 0 1.399999999997245 0 0 1.4999999999969531 0 0 1.542152768646126 0.073248247890105089 0 1.53341268746562 0.14194251306413061 0 1.456639397274391 0.1016053838939758 0 1.4156792278190771 0.19574754335211339 0 1.4905184776249101 0.20629734327603311 0 1.545236949037224 0.29434567071731399 0 1.473286192129879 0.27883707652097373 0 1.3878996413210389 0.26723502210068018 0 1.316869459340541 0.18778020585802921 0 1.291408388555241 0.26372433042992383 0 1.2615469736996101 0.34090999671933891 0 1.347125314110625 0.32447518420453242 0 1.385017785528226 0.40713366384701549 0 1.3198129865007471 0.39133224900025881 0 1.2709684905841181 0.55537862536316829 0 1.3860523322451299 0.56073196187600105 0 1.3462106466432811 0.48060664220838062 0 1.4795754400412069 0.53983964974648579 0 1.445918816848357 0.6075709531782556 0 1.5386621965636409 0.60828218080060537 0 1.550364457075788 0.50467902559054656 0 1.551956040519719 0.40384519109247291 0 1.4491802319415681 0.4666714614197911 0 1.4507225717793131 0.3561247496431208 0 1.6419306970571019 0.3436055112169133 0 1.645895854313963 0.45222881216869149 0 1.645263810758179 0.55814977621663464 0 1.7537858687071439 0.50406839622489796 0 1.742806034420483 0.6006074591026016 0 1.8544400981153091 0.62488101477716596 0 1.8316048184152021 0.54157006606434721 0 1.850967139686138 0.45738417241574703 0 1.7808296409871709 0.43587276890434401 0 1.71976181471802 0.39635806210359681 0 1.787749129254824 0.36176402170097799 0 1.8620515405159661 0.32644761881501039 0 1.799219293849516 0.26438879273789773 0 1.8480644103363271 0.19193194889233381 0 1.7304700827703301 0.17386188770806579 0 1.714493154391862 0.28897291620938281 0 1.6351951680630969 0.23707571199064051 0 1.567491488875842 0.20218805454405439 0 1.6799832100487111 0.082202015566833181 0 1.609545399082946 0.1308291592921435 0 1.599999999996661 0 0 1.6999999999963691 0 0 1.75369588639865 0.074917217572982864 0 1.8299024103288899 0.1151394713368583 0 1.799999999996077 0 0 1.8999999999957851 0 0 1.894432874635162 0.07551835003504323 0 1.9999999999955109 0 0 1.9480526939991849 0.12898730409406539 0 1.949071218763063 0.20551835056699769 0 1.889482378851052 0.25355176211435237 0 1.9370762551310139 0.30659376302738528 0 2.0131266155023031 0.26735551396116869 0 2.0579369465445829 0.18492358211896681 0 2.109175777466048 0.28747319291998968 0 2.1529249143000921 0.20760117016104621 0 2.145863811971962 0.09449602309195497 0 2.0499999999955518 0.089783354580979427 0 2.0999999999955929 0 0 2.1999999999957449 0 0 2.2631085279260659 0.078835433122263737 0 2.2171573042311432 0.14903409558359759 0 2.2999999999958969 0 0 2.3999999999960488 0 0 2.
[...]
<CellData Scalars="A_conc,As-lin_conc,B_conc,Bs-lang_conc,C_conc,Cs-freund_conc," Vectors="" Tensors="">
<DataArray type="Float64" Name="A_conc" format="ascii">
0.015955690345435095 0.01360188687926905 0.018864199512781787 0.019489381272854635 0.017278771827199439 0.015042213820075334 0.013444726331072535 0.015448892541566004 0.012914524708595169 0.015032356075351624 0.019507849021428311 0.020023663354755267 0.017667140435369946 0.025358055731961843 0.022582032738577701 0.025606347376668712 0.032690883796647197 0.02845432510038139 0.030780655519406661 0.026342290173797387 0.023627104259482258 0.022709510103614383 0.026225759480477551 0.029988445049429414 0.033492192469657442 0.036166600845917996 0.036141422480023624 0.040340204815875899 0.043748212482420064 0.043711643972300797 0.04043601863752895 0.048235906187465823 0.051326527762186804 0.055500498607935468 0.060269648837873932 0.056809589311372991 0.053748695017360543 0.054443063686177635 0.051115500812300901 0.058017469112555994 0.049797413780784602 0.046258789107913707 0.042868806034668173 0.046774418063838384 0.039518795945328922 0.034325447002763146 0.036397294906639073 0.038700452155885814 0.035246382283203939 0.042642760577133058 0.046975078674225311 0.043330106704602592 0.03984524983773241 0.04978254793094386 0.05792323294107117 0.053873376849622283 0.057294270544390256 0.061997036827798266 0.053250054799750902 0.047994251809088694 0.051101018949706353 0.056167632307004223 0.060883517492460154 0.058420685642611485 0.046296332422110335 0.050981293243314678 0.037984470976966389 0.042646465492320734 0.039623992146382347 0.044001787366828693 0.035584908204148863 0.033706399127390402 0.03389598740304936 0.027585860694707379 0.023642298538551702 0.021553795444988477 0.023420624927432215 0.026377295462876888 0.030038773711729645 0.030661177476296861 0.032778934586652445 0.028030512247855188 0.031377250708861291 0.028315354580572803 0.022487134788330518 0.021811073019148829 0.025660428210258848 0.021952340144287895 0.019379790315788171 0.019097848771105805 0.017185056799138412 0.016783006842368591 0.014603456436216782 0.01312500638587431 0.013373594824885683 0.015892311720899822 0.015360568973257986 0.016997689289874537 0.019069215716336848 0.014925297758024952 0.013390209743088964 0.013072713032177545 0.015471215383354841 0.013017594785607932 0.02039867016912153 0.017918698758227703 0.020451692216150896 0.023285209873898181 0.026752318292864667 0.030783602324196215 0.032487786760220211 0.028599947209945926 0.031315270480388749 0.025555402446449643 0.022788516263120735 0.021170337631415154 0.023876958499296472 0.029407361604380455 0.026344309183296333 0.030596337111773578 0.020743512197492438 0.01855771204080536 0.016945874049291147 0.017599399584837042 0.018901297374332007 0.01527558610302061 0.013008361602134016 0.014821634977549427 0.015500175204217504 0.013352638442791049 0.018381177947604903 0.02099306445201508 0.024386120698853726 0.026789563557525306 0.037475976142259157 0.041801906587610793 0.044978836616380156 0.049541703299947906 0.059350196067968881 0.054590563687260021 0.055276347260992481 0.059707928041521738 0.052903764384676658 0.054619673410809449 0.049244643974821201 0.045829203446697345 0.05060947027383756 0.048867574699604399 0.038447275492587252 0.034256862335242125 0.036047924266677606 0.037727513062345869 0.033015142035280623 0.035146019640652587 0.042392796194611088 0.04049185629815133 0.0445951091683853 0.03564756587893797 0.03893079393854329 0.042728863157844174 0.046560930466081729 0.048700010821383949 0.058174744919762364 0.056994848244107811 0.054776651423636614 0.053109092003277444 0.062817689982669761 0.066408525637304427 0.061436890557641781 0.065642752134863008 0.062622989931234357 0.068782823113777522 0.072412688230468342 0.075795364071542387 0.074482947906650637 0.070979773802476775 0.078348244295103717 0.084025115612830562 0.087799558859363191 0.091051744258481615 0.087787279057912143 0.083315229963818294 0.07916301382871993 0.078559292400338307 0.085612137201629801 0.082489366587776142 0.084757743889426695 0.090657180982425839 0.081835774090234847 0.07820346433313953 0.072071368656267745 0.074156386528006185 0.07045026757045858 0.066222303775634123 0.062881099075348668 0.067677910499712113 0.063335003853416255 0.068202360257420172 0.07326604526617142 0.085494155185850226 0.090471010930858436 0.094703112820021348 0.099693163554673725 0.10343601588005863 0.10843180585041728 0.11341979738752091 0.12344209597150849 0.11733840208632115 0.11841836889142235 0.12209568226232145 0.1135105687269171 0.10865878757690453 0.10294922980985023 0.097871456407666563 0.093992340155385226 0.095646053685441365 0.091172518475721748 0.10589848931498172 0.10102412263915851 0.1009850565839214 0.093972181775757543 0.097773209911856881 0.092677784670276903 0.09622435319860323 0.11114496359710753 0.10552544836572544 0.11355213691435978 0.11030152293361056 0.11773600878957648 0.12090138893556503 0.11663354871738812 0.12100363404686014 0.12196826124711965 0.1151775861824321 0.11031676556350781 0.11994794282921944 0.11601372555931365 0.11846112432847894 0.12155741510954239 0.12043619957600282 0.10846803065893973 0.11207921514571277 0.10871315268865833 0.11481794184509996 0.11306694518963305 0.10540911148201917 0.1018136770723115 0.093553218216408413 0.097478435793190696 0.09659091207569527 0.094044086123982185 0.10468584742436329 0.099672997667532459 0.10066360054508589 0.1056674993587883 0.094837550635793383 0.086673978973966115 0.091958717408116813 0.086849567671476752 0.083477763557815735 0.078953631802210961 0.077690702390663086 0.082500652626469342 0.06122556602412281 0.065770401276840959 0.065636101110954845 0.074726564308927101 0.070496556974303681 0.07377782420608707 0.069756543716314512 0.066347435919381137 0.072653254182142163 0.068826401839545456 0.076987263724276778 0.081137008357913071 0.082732521292338324 0.077258435653868002 0.087339390019951307 0.089912965610615569 0.090284940206111636 0.09033454774644889 0.08696882070507661 0.085216650081123294 0.08908727148692773 0.074783280854272313 0.080089850849153654 0.084572407421134782 0.0817948406940954 0.077871770376147093 0.072830000546963369 0.076074233344520403 0.062027056219828909 0.062096947349293885 0.066856769848532172 0.067264870722287429 0.069545026242555583 0.075532520149786009 0.071606505792656344 0.065704938273898714 0.06135169777046607 0.06427160284882133 0.069144404521924843 0.072656942298093885 0.08094670688588837 0.077587874756674502 0.079585058184742333 0.079115472633402295 0.091264048807302309 0.089598881659918778 0.085910867249675518 0.099520274489557276 0.094531378350957498 0.10365275484708147 0.10060909798570145 0.1054700910663631 0.095798261565610693 0.094259524070413492 0.094023174088079031 0.099301883001614563 0.10293450745648648 0.10610996930380083 0.10067937044838701 0.11049922606162782 0.11425114479796059 0.11616883581909726 0.11790183108614136 0.12231691748325671 0.11941540418881011 0.11397745512094072 0.10920688475711871 0.11411529924269706 0.10864818359714055 0.11911379417144029 0.12858821607185206 0.12358872962912298 0.12962920014918161 0.12880331151003283 0.13493304926913041 0.13944354053292801 0.13444367988286551 0.14363164940781747 0.14863160803575767 0.15324098477094775 0.14987720858060133 0.15397246880391441 0.14739069572458369 0.14016477676327377 0.14440122724039314 0.14381945553308451 0.15101510026958143 0.15146872007137402 0.14835308715155332 0.14585166510204128 0.1412983006321572 0.14053412218777256 0.13078223752507664 0.13220046669182883 0.13544971970360895 0.13554653945495465 0.12406875581353481 0.12651307846937598 0.12744407731585358 0.12429993238015435 0.12846403377419258 0.13530505650997479 0.13723690915166645 0.13240708162017334 0.13200643573947357 0.13559770238560692 0.12767114069501917 0.12482215136182853 0.12517468261177364 0.12702171440149396 0.13140089917895673 0.13729064389049828 0.1307135067844353 0.13633438086457958 0.14101515252097582 0.14206826543224643 0.15083175136007293 0.14622530333317751 0.14582450649119788 0.14941199549356707 0.14132451866048998 0.14457414505449642 0.15000755543479152 0.15492280971759823 0.16805424557970605 0.16432845389798487 0.16818933837097938 0.15450119338430157 0.15971976827470794 0.1587904473635442 0.15417262204180274 0.15967726817603023 0.16970135037435846 0.16491744251306739 0.16355137161367284 0.17481991126792501 0.17875599796880876 0.17918879970304441 0.17863072768912622 0.17507935866931529 0.1727650795376558 0.17539286062992418 0.17181639470608295 0.18142650439708013 0.17934831406784277 0.1836686105848741 0.18258846780403917 0.1780502213728572 0.17648902081022469 0.17525679568963543 0.1721601558701239 0.16414664611102006 0.15946768296679265 0.15526774689797485 0.15494902582028963 0.15842818487981877 0.16139224494826565 0.16783509912177619 0.16557337304370592 0.15824097297029327 0.16140054480963192 0.16481969931180107 0.16981969817156942 0.17870651414923722 0.17370661620565325 0.17043447184618865 0.17403460697224013 0.18199454180060815 0.18408842682629709 0.19408817696926695 0.18908831556600952 0.19784585094147597 0.20027011530740152 0.18371625318401447 0.18887501059948664 0.18958871342379308 0.18727586729010429 0.18797786788082094 0.19251475821319383 0.19750113171357045 0.19520918473125479 0.19958965461034872 0.19463001136187014 0.20877303805320577 0.20167432120827827 0.20447316997060008 0.2136742223426748 0.21042588402873608 0.21510449403894233 0.20553100726579648 0.20297628604547516 0.20797617430154114 0.2126549988012138 0.22377862077941724 0.21765491188586217 0.21949407822829786 0.22919344313997103 0.22484374867905482 0.22877859164687259 0.23357057834452422 0.2385705781795856 0.24356895382265492 0.24856895177415711 0.23976824737467176 0.2482831350211725 0.24410707007272697 0.23862056590060365 0.23450742512234279 0.23097830029894575 0.23590127356284696 0.24400052817675386 0.23999567610878861 0.24514208296276313 0.24207774802796378 0.23870794173841131 0.23459583479161564 0.22748326625608328 0.2218410622876443 0.21757223850475707 0.21804090175468993 0.22303970514273211 0.21753850218632692 0.22169580274188083 0.22463350863823117 0.22844972648446346 0.23294221131814422 0.22656302169161871 0.23088056271472562 0.23677885253382741 0.24610300261067572 0.24077347503883387 0.24428647776598933 0.23614675118633083 0.24065829859631277 0.2461174926943096 0.24613149585055139 0.24225569409223782 0.23658800313794223 0.23335215040750326 0.22772752191170764 0.23236766660134778 0.22605651503755664 0.22211567656787373 0.2177773492883939 0.22381500024564011 0.22039875902422318 0.21585755789755809 0.20804757289944373 0.20317094830162907 0.20693522996688701 0.20311118237686959 0.21174721068930244 0.21361453285914273 0.21150020896622723 0.20678409434671058 0.2091482542999667 0.20351314389960395 0.19531943984047229 0.20041045652231274 0.19179417409740851 0.19554674830765942 0.18825858709963644 0.18499214220676524 0.18945307067369566 0.18816033318121714 0.18351100745281437 0.19855530248561715 0.19425329709531874 0.19854838342649589 0.1883806943228839 0.18400503850695016 0.19051534487623509 0.18683868610905319 0.19513851582635794 0.1989015430994952 0.19803951199846426 0.20130087423093229 0.18892012525685398 0.19312100132571647 0.18818637300093949 0.19123448273495991 0.19648035239046585 0.19798187509087015 0.19425398037507019 0.2020211831971038 0.20019936706349617 0.21275121909045691 0.21019425898306454 0.20742297356746592 0.21240823444367049 0.20766250714428125 0.20375114011185036 0.20865342097995157 0.20482643174773218 0.2038233147479267 0.21316203803766953 0.21167482875191512 0.21689228524003251 0.22059861412754483 0.217267144675173 0.23182754590241075 0.22877045927368034 0.22611901653096089 0.23456070201455631 0.2379721266835888 0.24607453054990133 0.24145998617901299 0.24140559993005289 0.24594573498435526 0.23686882992328204 0.2369570712413645 0.24152889884452067 0.24703260614752681 0.2431408647057452 0.22893914502220158 0.2311414631620157 0.22713684502545209 0.2272934230463633 0.22309583977600511 0.22293869095702482 0.2169792384793835 0.2192886477090262 0.22393938583699716 0.23504266765727583 0.24004261338042571 0.24339336754685609 0.21428912446033158 0.20663351468937743 0.20163431267521098 0.19797919986359092 0.19297972178280279 0.18865700085709064 0.16207386051457495 0.16602115659350392 0.17102115534724349 0.17433589295070129 0.18365717375700766 0.17933584387122331 0.17550804633905057 0.1683077470670436 0.17195524716088711 0.17274271870508551 0.17679805108328198 0.18369722911786796 0.18057011696542707 0.18508387108940083 0.1801386448291224 0.18191156910702769 0.17579186070790595 0.17141477411230222 0.17617074904606195 0.16518907261669771 0.16997373399129562 0.15362509406432087 0.15724255722889335 0.16141363444500922 0.15941126217709178 0.15586057500254324 0.16339681974139983 0.16820928147294706 0.1646524748046207 0.15837738651230313 0.1553375809392242 0.15088778898567706 0.1490598546003446 0.13789815782603748 0.14200070332969561 0.13834991957535692 0.1464409174257883 0.15122777113176153 0.1511928760503517 0.14705015537957175 0.14949729520698699 0.14483327714843858 0.14005549132000594 0.14357659513300658 0.13351921554848495 0.13335192320997108 0.1381553588100255 0.12783495075396126 0.12485615053665156 0.12903102604048358 0.12481495698606525 0.12980205997274447 0.1348600135447322 0.13222418997460048 0.12844165510203251 0.12602056234074838 0.13610903384878992 0.14110893666689944 0.14405989021319948 0.15337739799634395 0.34738938693385835 0.34238938583354361 0.35324521109618479 0.36217271583853194 0.35824518610497202 0.3672006927994842 0.36717270402334318 0.36230773005407724 0.35807836921196745 0.3726286053878895 0.37101483398489066 0.36797753170123743 0.3705604801195535 0.36564153794084187 0.36058148369659904 0.36389054362283402 0.35856745373937893 0.3546012053597995 0.34496912580196248 0.34971774584250725 0.34643834561024139 0.34463516612987805 0.34954249631241163 0.35294229701615876 0.35339587763045677 0.34837558003614533 0.33614937974616482 0.33788298486266788 0.32848481765698379 0.32905654011327323 0.33263776269628276 0.34093526376332833 0.34276121628420481 0.33540284052162239 0.33996162168229754 0.34009471577376815 0.33617648976590031 0.33166494034441213 0.32569261713550357 0.3276566476296548 0.33153585367281968 0.32142239989823901 0.32217637849646341 0.3227877043644336 0.31864337347048599 0.31782922380943862 0.31321355553654495 0.31101637553431105 0.31229715367487448 0.31619470847598996 0.32579595503354125 0.32427997302640421 0.32108552410911539 0.32456649107800895 0.31763443931801011 0.31159481295553337 0.31456650573652445 0.31956649332505116 0.33288298778528913 0.30285788601207209 0.28995684896936452 0.29495677554585475 0.28123672618309498 0.28623663605164673 0.25247284253042362 0.24839336748894134 0.25747282882171063 0.26234844856526773 0.26734836972590281 0.27180149608405968 0.2768014121213066 0.27347594565492228 0.2782981072007828 0.27875642065742934 0.274385625929427 0.263985819284977 0.26822028331652942 0.26831605294616623 0.26501850428181278 0.25631643263064141 0.2602816390335525 0.25276396091406145 0.24703210063266462 0.25979262045779894 0.25407769924503554 0.25811828130641845 0.24954725470972916 0.25342974146603753 0.25020076367395694 0.27019647601511865 0.26566508763894869 0.26297170378319035 0.26899087756960655 0.2739938093213663 0.27522401728574752 0.28519962132284471 0.28062765333668821 0.29420206163183416 0.28930540678895533 0.28445957848237557 0.28023604191325147 0.28697634871015104 0.28299203312463289 0.28247776479991216 0.28693294440376216 0.29046434900620388 0.29325509553002871 0.29099328639395938 0.29411016661476175 0.29694688390479407 0.29972552538438002 0.29838110536028228 0.30785787970507639 0.30786950958906545 0.30380444465470557 0.30675322369345442 0.30238744307995719 0.29813143044972223 0.29783573805691249 0.30156414025586797 0.30895045692166001 0.30498131732390427 0.30870889293931092 0.3026025037775204 0.3054026279611628 0.2943337849765838 0.29818545781511407 0.2939755036859677 0.30487234815497 0.30882184836904381 0.30497208466549486 0.30727709201063802 0.3055374935441687 0.30954015013942915 0.29507718896070972 0.30040444151979773 0.29990542213721361 0.2898336265372663 0.28130906404073952 0.28549253413179959 0.28444878550632763 0.28078864555736172 0.28514052353425801 0.27970979289036096 0.28915462495127764 0.29015458307600217 0.27491258265168217 0.27564442817434864 0.26671899499343155 0.26576065236879443 0.27106724755160272 0.26131608321647282 0.25776505212404766 0.25310686891155854 0.2493911703095576 0.25568874506736811 0.24995162599893284 0.25920397995490002 0.26280738448882174 0.2618853444468508 0.25947187612445632 0.25481621867415211 0.24866820382844096 0.25161507204689698 0.24970036051644534 0.26941807165192161 0.26550182823722412 0.26446332058005856 0.27162891822490498 0.27073720222448927 0.27596946039133896 0.27702114078656459 0.27368180058234487 0.27591865856952486 0.27871861614145177 0.27040728910676415 0.26702938809047844 0.27221126974924204 0.26908729947164634 0.2602333960383359 0.2574398306087588 0.24950758074613644 0.25339700169113266 0.2538655978711406 0.25846060171963559 0.2624636069141385 0.26253407409380175 0.25692630372966968 0.25182536910355868 0.25230660418775058 0.25730660161805163 0.26269723603272183 0.26769723734859052 0.26695504110177776 0.27224718798914316 0.27690726811602817 0.27741891276631458 0.27241891351751518 0.2827474726630792 0.28774747144922536 0.29265078511841081 0.28586531410832589 0.28157815195134922 0.28335464059389892 0.29172050933167382 0.29157133168137273 0.28752394985818419 0.29525366895410299 0.29960508626339577 0.29651142072613446 0.30002926170698474 0.31028934739672903 0.30625909449813216 0.3091279302164302 0.30335197210988885 0.30406942848544682 0.29936855722307787 0.2976507820496474 0.30775683568152445 0.30275683750995525 0.31667261634566168 0.31167262198347306 0.31887592614687177 0.32322909704530689 0.32603220172275316 0.32101264109297101 0.32601263660939855 0.3345683398585812 0.32956834601326429 0.33841470748377644 0.34027745183385016 0.33785906548112765 0.3294070450616568 0.33082321973796325 0.33141228209485041 0.33457228564210473 0.34112774863392892 0.34242754702828015 0.33932498139567063 0.33216591396717932 0.33546684582430536 0.32215539782037073 0.3261138503096494 0.32140223728825601 0.32618564658616267 0.31694778136216417 0.31373230772015526 0.3141311806995542 0.31810244934789944 0.31423769306694599 0.31911495677642676 0.31489795656161873 0.31197535488865891 0.31268166304102485 0.31615795912965017 0.31156357820852232 0.31519814103773491 0.31815495118754333 0.3225568345203772 0.32172205584820113 0.32603755175431071 0.33077167983149125 0.32607155338073446 0.3317248729356857 0.33497592347809452 0.33608285099336133 0.34013561506797058 0.33482201982063392 0.34062168686397404 0.33003197917715288 0.3271716630007046 0.32440000060765922 0.3349207873777893 0.3385805748389063 0.3436642320779405 0.35438036100302556 0.3495594796457584 0.3444954708879695 0.34509735110372602 0.35548866711056409 0.35056030802267579 0.34975371780248543 0.355107208398795 0.35989542041053613 0.37043532368636434 0.36479669351577365 0.36891454196032691 0.3649129712184227 0.36793697676949483 0.35994997242552529 0.35952597983484269 0.36538954779555549 0.36886824591213496 0.3705733563427257 0.36830297964678793 0.36289673915198167 0.35949325867510951 0.36651483645487803 0.35926339346697123 0.35172017940578182 0.35599741073632857 0.34693390508052102 0.34891853468941936 0.34487538718163363 0.3531465782806707 0.35396236801969516 0.34780429799845486 0.34394376969541379 0.34279928786468028 0.34779928539614202 0.35349389902358097 0.36264053748156655 0.35849389869077553 0.36313344291732524 0.35914132959406392 0.36764053815533165 0.37154071818576795 0.37654071739240746 0.38090798592230701 0.38590798574307117 0.3854868879603226 0.38312271491451894 0.3787195820511251 0.3764399313600133 0.37339022244892639 0.37398681975310827 0.37828087223513107 0.38209599189059351 0.38577242027165187 0.380986056