<?xml version="1.0"?>
<VTKFile type="UnstructuredGrid" version="0.1" byte_order="LittleEndian">
<UnstructuredGrid>
<Piece NumberOfPoints="714" NumberOfCells="1306">
<Points>
<DataArray type="Float64" NumberOfComponents="3" format="ascii">
0 0 0 0 0.10000000000041601 0 0.082799035591426873 0.082799035591510806 0 0.099999999999928008 0 0 0.19999999999983389 0 0 0.20669143849501961 0.085546078947938975 0 0.29145143692666958 0.13500804559578439 0 0.29999999999973409 0 0 0.24783073444672249 0.24783073444648379 0 0.21725788110387281 0.17316968768743621 0 0.17318221359491059 0.27409688392309489 0 0.089078158003765312 0.2493007687782936 0 0.140351188660986 0.16130415108589741 0 0 0.20000000000083221 0 0.066361468125430589 0.15903440181097661 0 0 0.30000000000124832 0 0.0632094674441709 0.3449112819864934 0 0 0.40000000000166441 0 0.083393126324559225 0.42307471369029392 0 0.13897501191807771 0.34545639364066222 0 0.070553891733833127 0.57745844360881338 0 0 0.60000000000138687 0 0 0.50000000000205869 0 0.12353277228144981 0.51086097771927308 0 0.16324260003398389 0.62262730759772122 0 0.1946526892501724 0.54636184660733622 0 0.27220668248394869 0.50912429725145214 0 0.27661118526457179 0.58730386222759956 0 0.16486701364709541 0.41592657376307979 0 0.21928696632013719 0.4676461135047027 0 0.29987747321592639 0.43430880093746571 0 0.2371857680100064 0.35865548441110112 0 0.34318159319555042 0.3314386771104964 0 0.38593969585746768 0.44843324941957241 0 0.42544665781957403 0.3726599289372452 0 0.38240158409674341 0.60644575028138747 0 0.34793494568226019 0.52426775179830853 0 0.45232393232070839 0.53082724112931345 0 0.46433624429412901 0.61260020600107856 0 0.55763912874459476 0.49619993861770217 0 0.56379254693201075 0.58472273515948836 0 0.49272830291620878 0.32528628960011152 0 0.47711113382803011 0.43513410852522788 0 0.56509579243166053 0.39588847936247551 0 0.58612580217118482 0.27813894450229909 0 0.49255105193724569 0.22337579986912359 0 0.5565830077206213 0.19095699352548859 0 0.59999999999951659 0 0 0.57505385014294308 0.072457888465917331 0 0.49999999999959438 0 0 0.50264032148191051 0.12292784096123539 0 0.43504744109702559 0.077628892606360606 0 0.39999999999966429 0 0 0.35933948296838258 0.073809900849860513 0 0.33604819894646598 0.23280286076243209 0 0.41589935411558732 0.26752529264016389 0 0.40428440976105728 0.1643886070295453 0 0 1 0 0.099999999999999645 1 0 0.14716362552681639 0.93861610753355362 0 0.19999999999999929 1 0 0.30000000000000071 1 0 0.29792158491427922 0.79537096033156995 0 0.2235202862591317 0.88873896332704583 0 0.1332109546178302 0.87498377138822103 0 0.075231054453351903 0.92314074346405706 0 0 0.89999999999958358 0 0 0.79999999999999982 0 0.074918724681641777 0.83311952320732263 0 0.1533088418661793 0.80370257472597129 0 0.089684836063650353 0.74720097194875412 0 0 0.7000000000006934 0 0.079752623936563252 0.65630726580969023 0 0.16551550920047911 0.70947866912672319 0 0.22047232289835689 0.77501739045979867 0 0.25446499951716589 0.69023946426646743 0 0.32437633398017029 0.65970549827478953 0 0.33985912385126898 0.73174041004507751 0 0.42824324229177341 0.6924957961634054 0 0.5174764925733939 0.65338828204098198 0 0.59670004617370476 0.65981579440137683 0 0.62152629835360762 0.73285157302339954 0 0.52912171753951986 0.73993242892488531 0 0.51076728641122882 0.81691863363193817 0 0.62017612851329729 0.81451802170669263 0 0.56701461556202259 0.86335846433862784 0 0.45907587517201498 0.90165918271477563 0 0.43819239467549531 0.79296936871720936 0 0.36912581253574028 0.83088590731704637 0 0.37337282601342481 0.92616598444216514 0 0.31535921456193688 0.88154045330654418 0 0.39999999999999952 1 0 0.49999999999999911 1 0 0.59999999999999964 1 0 0.5499999999999996 0.93976792513729512 0 0.70000000000000018 1 0 0.79999999999999982 1 0 0.89999999999999947 1 0 0.8793859710393791 0.93083561064221121 0 0.93540888248908083 0.88281232945237675 0 0.91372311269140116 0.80486176357476358 0 0.82192606283926717 0.87651855948129354 0 0.73937541854631073 0.9288754054780668 0 0.64588148000090029 0.91512139508160772 0 0.76404828705430583 0.78174230667165401 0 0.71722872346306721 0.85096302760907838 0 0.69085763855200755 0.76120667115691065 0 0.6754414170471299 0.67700559910555169 0 0.74547688787239819 0.70026419381674654 0 0.81910554849723838 0.69100245438023977 0 0.84477163403336131 0.77519844632340484 0 0.90192269692920224 0.70295054578552552 0 0.9749171938312049 0.68304286407835557 0 0.98491966670915287 0.745702719141624 0 1.0785590511537511 0.75365885686631617 0 1.05 0.67063679245255348 0 1.1595355377629719 0.69612720023346242 0 1.2316049928421089 0.71268197388690568 0 1.130022579458912 0.80264790230838934 0 1.2104878010462079 0.79638517641579154 0 1.246238897717278 0.90016207822659 0 1.1492841477515361 0.89495863909300122 0 1.035017143854235 0.92577305964649748 0 1.039491394416145 0.83402983011495258 0 0.99999999999999911 1 0 0.94997493298435887 0.94717135651053852 0 1.1000000000000001 1 0 1.1999999999999991 1 0 0.8520969719592798 0.19112077159544111 0 0.81051762114363357 0.25355176211442859 0 0.91043121937362004 0.26518856856736223 0 0.87151744524583186 0.1145610820769897 0 0.89999999999870417 0 0 0.8072276847200428 0.07509171132446453 0 0.79999999999899607 0 0 0.75434135135171976 0.12888799631625769 0 0.73796379772146625 0.059893436010741673 0 0.69999999999928797 0 0 0.66267222434682926 0.078497159578092612 0 0.64669101990832323 0.1799054750174742 0 0.75284581776561577 0.20455093921856349 0 0.7545004114404561 0.31098089234202853 0 0.68811979868824935 0.26566684131589419 0 0.65823561246403328 0.35502292901158627 0 0.64897033023755402 0.45530630145656431 0 0.71094001953927277 0.41472992215547572 0 0.65500944633069913 0.60601350811213128 0 0.66278242936710119 0.53985356489900171 0 0.74775703275407246 0.49059679564787018 0 0.74991769371388628 0.60451627361984739 0 0.85383906663538056 0.62014574817393608 0 0.82099888937423493 0.54529350322201742 0 0.89730215834238125 0.56352362508531118 0 0.79315209058920677 0.38802315963964318 0 0.83603391221093415 0.31708941802047369 0 0.84897848255088726 0.46000674997733482 0 0.9184189969982266 0.43608586792060411 0 0.89716106756302072 0.36571612550017968 0 0.97284972811175952 0.32057650487681749 0 0.97803218086495292 0.39957666910545891 0 1.049999999998295 0.45311778235774403 0 1.0499999999982661 0.33749999999944968 0 0.95554667482020261 0.61387123313571723 0 0.95438428234324713 0.50021891445525024 0 1.0610070115193291 0.56187728740506249 0 1.160572984923127 0.60155304747043781 0 1.1544259370261769 0.49580194535795907 0 1.11366617971111 0.39530889117858181 0 1.1787318575418491 0.43180077319900678 0 1.2482752740169289 0.44264463249545388 0 1.193211192060164 0.36417169501775798 0 1.2189485028845071 0.28846717556219142 0 1.225209211892335 0.20648826945283069 0 1.14543293599463 0.16096823716187 0 1.1317936052402791 0.27327200211975772 0 1.0273907165533489 0.25089655084417212 0 1.0673059847957449 0.1861726764986896 0 0.96758455917765662 0.17206502793490561 0 0.99999999999841238 0 0 0.95940036225003311 0.0802667348803804 0 1.0527907183502181 0.1005001786211816 0 1.1494214575391031 0.075340014825429069 0 1.09999999999812 0 0 1.199999999997829 0 0 1.2999999999975369 0 0 1.254652873386052 0.105753482544517 0 1.3681535985071449 0.13698083382674339 0 1.399999999997245 0 0 1.349999999997392 0.060567969661089648 0 1.291408388555241 0.26372433042992383 0 1.316869459340541 0.18778020585802921 0 1.3878996413210389 0.26723502210068018 0 1.473286192129879 0.27883707652097373 0 1.4156792278190771 0.19574754335211339 0 1.4905184776249101 0.20629734327603311 0 1.545236949037224 0.29434567071731399 0 1.456639397274391 0.1016053838939758 0 1.53341268746562 0.14194251306413061 0 1.542152768646126 0.073248247890105089 0 1.4999999999969531 0 0 1.599999999996661 0 0 1.6999999999963691 0 0 1.6799832100487111 0.082202015566833181 0 1.609545399082946 0.1308291592921435 0 1.567491488875842 0.20218805454405439 0 1.6351951680630969 0.23707571199064051 0 1.714493154391862 0.28897291620938281 0 1.7304700827703301 0.17386188770806579 0 1.799219293849516 0.26438879273789773 0 1.8480644103363271 0.19193194889233381 0 1.8299024103288899 0.1151394713368583 0 1.799999999996077 0 0 1.75369588639865 0.074917217572982864 0 1.7537858687071439 0.50406839622489796 0 1.742806034420483 0.6006074591026016 0 1.8544400981153091 0.62488101477716596 0 1.8316048184152021 0.54157006606434721 0 1.850967139686138 0.45738417241574703 0 1.8620515405159661 0.32644761881501039 0 1.787749129254824 0.36176402170097799 0 1.7808296409871709 0.43587276890434401 0 1.71976181471802 0.39635806210359681 0 1.645895854313963 0.45222881216869149 0 1.6419306970571019 0.3436055112169133 0 1.645263810758179 0.55814977621663464 0 1.5386621965636409 0.60828218080060537 0 1.550364457075788 0.50467902559054656 0 1.4795754400412069 0.53983964974648579 0 1.445918816848357 0.6075709531782556 0 1.551956040519719 0.40384519109247291 0 1.4491802319415681 0.4666714614197911 0 1.4507225717793131 0.3561247496431208 0 1.347125314110625 0.32447518420453242 0 1.385017785528226 0.40713366384701549 0 1.3198129865007471 0.39133224900025881 0 1.2615469736996101 0.34090999671933891 0 1.3860523322451299 0.56073196187600105 0 1.3462106466432811 0.48060664220838062 0 1.2709684905841181 0.55537862536316829 0 1.2546738886072291 0.63615646469940468 0 1.3545060270195819 0.65002758689694418 0 1.4000454837723419 0.73943313674757749 0 1.3035852436207409 0.73866974635260263 0 1.2914654457895349 0.81843301378315825 0 1.3255948392482531 0.88328132587465524 0 1.3864786876100039 0.92208751032957958 0 1.386174597084219 0.82350876346868962 0 1.482119963281066 0.782586299849238 0 1.463012078585596 0.89209645917012148 0 1.546104640467868 0.9195568013001878 0 1.535346256113697 0.70153336654872078 0 1.4534042830965781 0.68426123045930609 0 1.2999999999999989 1 0 1.399999999999999 1 0 1.5 1 0 1.599999999999999 1 0 1.6999999999999991 1 0 1.7999999999999989 1 0 1.6597641702579149 0.778
[...]
<CellData Scalars="A_conc,As-lin_conc,B_conc,Bs-lang_conc,C_conc,Cs-freund_conc," Vectors="" Tensors="">
<DataArray type="Float64" Name="A_conc" format="ascii">
1.9642114597659197e-06 2.2132857028299649e-06 6.550570847793646e-07 9.5990384900177792e-07 9.7645574647845468e-07 9.9165113042005776e-07 2.1712389109941452e-06 2.2233785993633087e-06 9.7550206758047951e-07 9.9089617615537804e-07 1.6270996099921045e-06 2.0175953568953071e-06 2.1892966442415094e-08 2.0332165634060295e-07 2.0646001311301882e-07 2.3433123898765556e-07 1.5194387180070391e-07 1.5914584458711543e-08 6.8945687375072638e-08 2.2992473161239483e-07 2.442464913607136e-07 2.3964420696085915e-07 6.5797061798316085e-08 1.4799076034224429e-07 4.5927452591776508e-09 3.1353315501601259e-08 3.2260299357149861e-09 4.8727646872806798e-09 3.6912299603172586e-09 4.9448971607297147e-09 6.7354178151190675e-08 3.1699227734523349e-08 1.6278505547224746e-08 3.2284249149197535e-09 1.2865318696610075e-08 1.5723221639923097e-08 3.3185459864504669e-08 1.6583468297832779e-08 2.2939631653383564e-08 5.4453222264844706e-09 5.0588572037573686e-09 8.6288087918473436e-09 3.9382217561983032e-09 3.6640833315739301e-09 8.1181893117593446e-09 5.4087170263855021e-09 1.5071578412852212e-08 3.7902656032334736e-09 4.0237108991583129e-09 4.0860588131301107e-09 4.8021476368022048e-09 1.6632717326098754e-08 5.8170579773549029e-09 5.3348085168556848e-09 5.5245814836420307e-09 6.2473591786520251e-09 8.1707214649207258e-09 7.5464669577674106e-09 1.0377367487970387e-08 3.5151931967448412e-08 4.2232385764870081e-09 4.8656400373742615e-09 4.427612490291572e-09 1.1124056567866329e-08 1.2592983793541814e-08 1.330906892518364e-08 2.9218940930604079e-08 5.2813694721983436e-09 6.5305637969544143e-09 6.7382864219053176e-09 7.1537194393213165e-09 3.2041852425285782e-08 6.6267666306766742e-09 5.335494114089028e-09 5.9881405922812863e-09 5.7840689199240375e-09 8.1782704538115604e-09 8.8382407785434876e-09 1.1631605866643819e-08 9.6410801165674968e-08 1.6498630772520771e-08 1.7596210927556057e-08 1.4057483261603047e-07 1.3278939546598339e-06 2.0202051972062875e-06 1.2295141461378048e-06 1.2134548502531625e-06 1.3762984485016489e-07 6.6627610245491546e-07 7.066427554686697e-07 1.9131283735175501e-06 1.8863480627778154e-06 2.4922752958868229e-06 1.6554883549916009e-06 6.9198622993249796e-07 2.3988153400722562e-07 5.427464901052257e-08 2.3001776839654544e-08 1.0826779617038092e-08 9.319432140606739e-08 5.6019466052225064e-08 2.4455605847890117e-06 2.8361950631404724e-06 2.7752689879469758e-06 3.0035347310661889e-06 2.582779908889867e-06 2.6206684842478725e-06 2.2820048984718385e-06 6.1451180475006583e-07 7.3172435103176823e-07 6.0210788756331814e-07 5.8781524093553627e-07 2.1089153695163974e-06 2.0755635908537782e-06 1.3579142124340898e-06 1.3322977322429121e-06 9.89284048824588e-07 3.5732348196320775e-07 5.7522311177120539e-07 3.675420013708221e-07 1.4421000924593541e-07 2.7370729845892925e-07 2.4580785983436088e-07 1.3902810081759242e-07 7.5601236999708385e-08 6.0854509621894611e-08 4.3351165289853886e-08 6.3795804777636572e-08 1.5003319700741183e-07 2.8103551415650989e-07 1.5585721666404544e-07 1.6088886098520446e-07 7.8050816644665801e-08 4.6148021209299109e-08 4.6731273075288147e-08 8.1394904085848024e-08 1.2396590555608612e-07 1.1828689615842891e-07 4.9055031885537634e-08 8.4640194009246077e-08 5.4207124509640034e-08 8.8817939227758569e-08 3.0638781861615295e-08 1.8015588440428956e-07 9.7334448589307768e-08 4.400599230504456e-07 1.7060916415619447e-07 1.7707412981267735e-07 3.7494122857453663e-07 7.7449159374916258e-07 3.9096147869418338e-07 7.5206668243725833e-07 5.300133404943169e-07 9.3574366933918016e-07 4.2811223376493315e-07 2.2903793374280222e-07 2.2325064316443281e-07 6.2180788957236986e-07 2.328718134934336e-06 9.2156891071161427e-07 3.2320395528345223e-06 2.4875563294724479e-06 2.5262660767913329e-06 1.8878944101957504e-06 2.6598053896662472e-06 1.644000640714189e-06 1.0649689597845614e-06 1.6766674139382214e-06 1.2014424847459895e-06 9.1532134352701942e-07 6.2828202648659015e-07 4.9463832126972704e-07 5.6087342382101447e-07 3.1245593969787883e-07 3.8915812279662415e-07 2.9762216650504123e-07 7.05877039307077e-07 6.8470686699362884e-07 5.3325791756159604e-07 5.1594828530802886e-07 4.0102983207484411e-07 2.3659365488963899e-07 2.459438315599888e-07 2.8463810290124473e-07 1.5526649275414712e-07 1.1767634144448254e-07 1.4976664698459203e-07 1.1401581257916989e-07 1.8795079606078561e-07 4.5360674980320133e-08 9.3945153697173864e-08 4.3426674097586379e-08 4.8150819006084553e-08 5.0959500898344549e-08 4.4422430278745034e-08 6.1145234737198725e-08 1.6186757540502378e-07 1.6180990317422807e-07 2.2246180003204348e-07 1.9714666769771059e-07 7.8124147068955889e-08 1.2125420970097839e-07 1.8180355104602543e-07 2.6206251052487165e-07 1.8190800335097009e-07 3.9327666891915703e-07 5.0363484814477352e-07 1.7150487457209883e-06 3.7686604456971009e-06 6.8110410849434762e-06 6.7900297716141886e-06 4.1449350889817215e-06 7.2066106699450429e-07 2.2433615638084409e-06 1.3467858899204139e-06 2.5635158640374584e-06 1.4362260093066807e-06 8.1672393405488057e-06 5.6442410150967256e-06 4.3375137032161135e-06 9.38293965365597e-07 8.4486929094947357e-07 3.427321973085285e-07 4.4043923204729754e-07 6.1851631105626646e-07 6.769690374304694e-07 7.2627899770469317e-07 8.9434801454137831e-07 1.1551517787603245e-06 1.7844853266592673e-06 3.0712806075084584e-06 1.0668079813756724e-05 3.9432243719501463e-08 3.4057168824028842e-08 1.8994379235350976e-08 1.5438722434297622e-08 4.4551986644504117e-08 6.7126465188763576e-08 6.5617606601350193e-08 1.1557655681117821e-07 1.7718616678403506e-07 1.4371771245053267e-07 4.4720316266645576e-07 4.3474375679445148e-07 4.9067727464474039e-08 1.0060377259635853e-07 1.6034333371589058e-07 1.6668682699332593e-07 9.8539591417378906e-07 1.3494826878143404e-06 7.7820873433095022e-07 1.5777791531375258e-07 9.2753404268941371e-08 2.1804515479637965e-08 3.5061194891946778e-08 2.1335386422098636e-08 1.9410762719603489e-08 1.8882901646516584e-08 1.2521801894449925e-08 1.1449653574272708e-08 6.5651219300758193e-09 6.0307513662856416e-09 6.9828000394779925e-09 8.5864204497104594e-09 7.7384536810951877e-09 9.6810448458356231e-09 8.8700354051560425e-09 7.4344639647157851e-09 1.0019493345175174e-08 1.1751751682838532e-08 1.6472772408273254e-08 2.3795708771381407e-08 1.9656215673556285e-08 1.2556028370330096e-08 3.1706276820786329e-08 7.8733049818535172e-08 4.0907450966305987e-08 1.3404257854364237e-08 1.0820582811529183e-08 1.1899914097142208e-08 8.4925661944358863e-09 2.1018848849702612e-08 3.4740762621859744e-08 3.4167384365677432e-08 2.387568673955295e-08 3.7634296717742956e-08 5.5354107292036233e-08 1.1009570609045748e-07 7.1155603273700295e-08 1.1892289081977931e-07 4.5068567332491093e-07 2.3354024073109974e-07 1.3331445451700078e-07 6.0736140670448596e-07 2.6934350826054656e-07 7.6538063835417791e-07 3.5048461260730044e-07 1.6084019751158523e-06 6.2670406368032014e-06 3.3349434880635476e-06 8.522059100475994e-06 1.3427634370407464e-06 7.156605854516918e-07 1.8242365347928563e-06 9.0018885491132919e-07 2.059783741250645e-06 3.2938416417183427e-06 3.7416197131959959e-06 6.200252642309996e-06 5.1403164420391887e-06 7.0312264287921065e-06 3.6386953204904024e-06 2.6588798982242823e-06 5.9098131300654779e-06 2.3817437937545915e-06 1.2950613578764606e-06 1.6476569446611149e-07 3.1387872398952091e-07 6.4353016056250388e-07 2.9525065225066954e-07 1.2363433359934087e-07 7.3854431555639911e-08 4.1250907499540724e-07 2.9988287293816559e-07 1.9832501509670985e-07 3.6391752203733764e-07 7.4714717962438118e-07 7.6062276724397373e-07 3.4237183773612265e-06 1.5602377144708532e-06 1.4798303037617114e-06 2.9836181901443575e-06 6.8370621785868549e-06 1.2631762361695909e-05 2.3946487205223204e-05 2.5548195460471552e-05 2.1994148745744766e-05 4.8413281965179895e-05 8.7885234899359908e-05 4.9468979898768459e-05 1.4942319965200236e-05 9.2823323072303663e-06 1.1314717550542086e-05 1.3127992175277519e-05 4.7370655918025435e-05 4.2904704338386092e-05 2.3592211481967579e-05 2.81892058639037e-05 8.6612515817665087e-05 7.8243234464101837e-05 0.00012441645498620566 0.00012736114347187377 0.00027377006856371038 0.00027763639269339261 0.00014563725286163452 0.00019290866497918103 0.00014124062671759752 8.2366376024527844e-05 0.00026365369636944738 0.00019139246998653469 0.00039852149190793679 0.00037983129953524276 0.0002372840622575666 0.00080961873291477793 0.00060270689984612291 0.0010970714902471157 0.0016257597944996818 0.0011507780449407324 0.0004162447172792305 0.00058643883061300058 0.00059252127340672428 0.00040605524435329102 0.00090330973639739676 0.00077851333840170476 0.0012812704517304115 0.0025312402577853067 0.0018118626369685695 0.002220328660500297 0.0040032781660066337 0.0037642228344556619 0.002956212268477189 0.004402883524752042 0.0038695742522974622 0.0030960690682801306 0.0021896874096375453 0.0016872894195805121 0.0022245467426394274 0.0022271956194711592 0.0029485662363146091 0.0030727583505254711 0.0028660937455632575 0.0035036776505993905 0.0029941316200057114 0.0016927568482943815 0.0018566654545034984 0.0022608391689561912 0.0022484594916748015 0.001289813406288452 0.00090739747633281249 0.0012380739686370602 0.00038011344058000017 0.00037919700804299277 0.00059820421564513496 0.00059218958276233797 0.00090414309782130243 0.0015148037314472033 0.001009370445776464 0.00038507491032070896 0.00064201538711904614 0.0002708779354689138 0.00016674152416474105 0.0001569184429561277 9.1552505477414706e-05 0.0001040821535802771 0.00023139282540987144 0.00022823682946883987 9.0183090155256836e-05 0.00013376819675220663 4.3962893180389252e-05 5.2466539763296595e-05 2.9415280380299827e-05 4.6977810448032978e-05 2.8939064381015193e-05 1.6187615489718382e-05 1.0284424698196173e-05 1.7152483965459242e-05 2.9892526841640671e-05 5.9424876871444628e-05 5.2643676062727235e-05 2.6914042518851436e-05 1.2722182991529591e-05 1.6760776732025387e-05 1.1961294459754868e-05 1.8579204192411134e-05 6.5534229504887926e-05 3.6579197363552615e-05 3.7568889527467462e-05 1.1919781153244078e-05 2.1119721217629084e-05 2.0051931111475677e-05 1.4141704758939728e-05 4.3825494084846151e-05 3.2944171427411886e-05 2.3620809126694361e-05 0.00010529836523632036 6.7215437922300473e-05 6.5081746819845504e-05 0.0002347113514141033 0.00027607067831251445 0.00017241124332892529 0.00028213570944064781 0.00017993791281392248 0.00028048458809167557 0.00023740851734832652 0.00014431967405740534 8.4444340873906148e-05 0.00012034596668916478 5.5381355460596793e-05 0.00013933416893013845 9.7832559135358356e-05 0.00036845007526025933 0.00082553799387154788 0.0017450854940346278 0.0011808541771326881 0.0022540228614386188 0.0031857556434801279 0.0042294924914189902 0.0010261029893824745 0.0015091620012097349 0.00036347390211016175 0.00073039208779026102 0.00049338080338500747 0.00063152764830711242 0.00044577304428618507 0.00042975889634976256 0.00058704801076553035 0.0010123366390727001 0.0013539257298122052 0.00090602293045327804 0.001943871485059354 0.0026199881551698945 0.0013806315857097663 0.0018474120547150735 0.0024198485049215864 0.0034137863321649048 0.0042122185200475833 0.004405650936740212 0.0031782914337212895 0.0023901857920093526 0.0016692265985964821 0.0023226165297129155 0.0035025219885894548 0.006041104294053681 0.0048143654933441409 0.0095651334599334888 0.0078369525843199235 0.0091759328825631904 0.010824423686276482 0.005598907270440173 0.0071389694638151558 0.0055772100407491575 0.0066602611898106297 0.0087755489381785914 0.0094305919761061147 0.0077609033743251286 0.011493964005907544 0.010569851471454839 0.016324126387965057 0.018013176569963311 0.014550997474905333 0.017716171754463123 0.017006647535100713 0.018058939330141584 0.012717836730235219 0.012103715825238457 0.012307030052043781 0.014624595399814339 0.015054065653382905 0.0072818940861427775 0.0057100657387887301 0.009424462276476208 0.011268290642206642 0.014067144819059787 0.019143949279367696 0.022822859607401998 0.026517197992523264 0.036115224441888999 0.040735113485873511 0.043925103759061834 0.033178175037711088 0.030453776659545698 0.02815557600102328 0.020774851504910263 0.021188139351511634 0.023663006661394724 0.025755413631383076 0.025588037960453537 0.021048136596617695 0.032619727992395105 0.030722133756822475 0.02926341678879529 0.029089863670084277 0.03785404496261497 0.043647458531575423 0.042119088035565203 0.047374383064856765 0.041987955717660216 0.046324705440202958 0.037749109254766967 0.035581032175519917 0.038739985375459619 0.042031114488686891 0.046441619615951252 0.04275716581897776 0.046479557482309558 0.046498461982191971 0.041305519699170179 0.037109448298692685 0.034483908417996159 0.037462207816922125 0.029535928307624484 0.028206567330887243 0.033671266164543225 0.024931955104344979 0.021542259051441952 0.023435365792395579 0.026216024517029587 0.021263258003804547 0.024511495278818018 0.02694714583629872 0.030200441483155611 0.028518984726480959 0.032280023154298711 0.034160995416236732 0.037669434018782401 0.041420225745328339 0.044762032234278021 0.046475575493293834 0.045545736368920384 0.042616064393747717 0.044473731211201281 0.040661457670367135 0.036848756836328905 0.032394090185227833 0.039429304268813553 0.035621904013304631 0.044101736115429696 0.048898179397181316 0.044589017307116938 0.048597705751237605 0.04048071081909739 0.039402265373317188 0.035607719665234211 0.039383782849097139 0.034813442080598812 0.030589055534500809 0.030900548327571706 0.027196441320676439 0.022926051060010652 0.021622568827053778 0.026393268491302947 0.029326794173094035 0.024687708496974728 0.021358878893899064 0.021658083679988553 0.025577198202283886 0.01845260206770484 0.016347833389205618 0.015195624648510032 0.011082128527102091 0.012595860528745929 0.018051427938944341 0.01957015321954321 0.013326674848993039 0.015003988080292137 0.012108032270417714 0.0094512641271649461 0.010487082504200163 0.0058536438286645766 0.0042479170610164501 0.0059176602645833361 0.0077773098092394303 0.0079721918585801011 0.0090071541584969602 0.010008633666637595 0.0078838708972095144 0.0050772785313990022 0.0059776393290324201 0.0068413035161703772 0.0052584933914540822 0.004442403153672711 0.0053945566242482954 0.0066555918094608445 0.0081421172309458986 0.010412500537606138 0.0080629186535532728 0.0054672557684826203 0.005861889627901698 0.0040995055712381807 0.0041632235862502972 0.0054931408603940933 0.0094956496122447082 0.0076034347803166317 0.0095685614356933388 0.011907998356604121 0.01412069576340335 0.011868976018162227 0.014617640152545628 0.019972945583555654 0.017199997742528561 0.018450865926648598 0.016980942129843461 0.013969157516782005 0.012095222211054735 0.015448279374792696 0.27277775585316633 0.26913590010271116 0.27777775484604689 0.2865382954760316 0.28954191540835583 0.28153829699821598 0.29223951963402894 0.29723951974555995 0.29157928208936024 0.29118315659414007 0.29619259005959492 0.29121427905583597 0.28640842209005263 0.28661843723487729 0.2835625768921427 0.29658548953920616 0.29160718051418871 0.29502168939036388 0.28721989492749389 0.27798569330191558 0.27700363620979584 0.282009899050222 0.2802164764716884 0.26821650822051224 0.27176096257974947 0.26981973579433072 0.27397410715132364 0.27980701680800424 0.27484131412136747 0.2763921053222384 0.27170126001979289 0.26698467299599005 0.26664496010265154 0.25661543320639824 0.26290561752350489 0.261141827229879 0.25340776524224579 0.26592283541094874 0.2606214875444996 0.26366700750796279 0.25823625605690864 0.25356382289453278 0.25085216348957268 0.25611173344377802 0.24220899186480144 0.24749940784318544 0.24196024151593068 0.24374761528252703 0.23803398426696951 0.23860409381541545 0.24960700641785827 0.2440032425324562 0.24852226159852239 0.23844063620375677 0.23702103331499325 0.23791551043315201 0.23965710273130489 0.24465710111965938 0.24837298038495251 0.26413590265248188 0.26036486379766499 0.25680309147066327 0.25180310140784173 0.26969075225023237 0.27347506811796041 0.2747247019468424 0.28015869123540893 0.27847506740809913 0.28660325201964532 0.28678960443455176 0.28178960754404347 0.29223952003119869 0.29723952021621514 0.29177054401749303 0.29169002572786784 0.28294901150109514 0.28653862508261668 0.28580530371095303 0.29619259238704621 0.29121428544295341 0.29502169341320406 0.29148776976267704 0.28228475243881646 0.27972272302819456 0.275022959527078 0.2689176719556825 0.2703928240210951 0.27424794348815584 0.27167648538014638 0.27047672145127499 0.27506094555048222 0.27897842773478349 0.27482953120167297 0.27913733027630544 0.27822681659202442 0.28696313565591119 0.2873437178972531 0.2964660754216687 0.2911226110501855 0.29465653086009758 0.28312795675066238 0.28445544665214734 0.28941397319910911 0.2947574382780821 0.29134292327311406 0.28681471160672406 0.28160380795204731 0.27783654563463395 0.27349768993460666 0.26940158420918747 0.27267466819054959 0.26182600489798974 0.26536064905967094 0.26109393329524155 0.25752993459629409 0.25329534781626101 0.25332112241625482 0.25823035997464505 0.24603538260045862 0.25042941911627425 0.24297173297332184 0.23854251037916036 0.23618621482624674 0.24876671932630534 0.2454907914122765 0.24892323355035906 0.2447535844935089 0.24164789711256307 0.23666821880403469 0.23928920399520778 0.23496284031851383 0.24398470437474545 0.2528339373099816 0.2575277723799384 0.25711135087278081 0.26582877609001326 0.26137435179226337 0.26189404302174335 0.26701178590138419 0.26544592791863236 0.26135226330567346 0.26572254892050984 0.25204981850820324 0.25751683290594146 0.25057472746007947 0.24634701936780731 0.23832309720393816 0.24242147113436863 0.23813656056268007 0.24260507202390469 0.2464238856212089 0.24974352321561416 0.24471479096014506 0.23675900978079653 0.23932497422451207 0.23728477969554063 0.24252716985618911 0.24752708803684931 0.25681179592916847 0.25181183008795671 0.25470050115430692 0.25952876290875682 0.26342400972514729 0.26160687572893571 0.26660687345029194 0.20792436581099608 0.21110152238616164 0.21526369377923482 0.21963905120277333 0.21463905099865782 0.22407057012836593 0.23228481283872898 0.22907053852430026 0.22401129093781863 0.22025629396098328 0.22811859826833239 0.22276965156810369 0.23424753871104062 0.23264306085911551 0.23336999325586122 0.22997984425639342 0.22596365148140479 0.21918243272804575 0.21591273844026032 0.21926384166650176 0.21228507875465563 0.20428411098773847 0.2080319392581387 0.20683944464843815 0.21158378409197354 0.20417885899754301 0.2101416956145431 0.20481778017905969 0.21494142231440905 0.22047311557104821 0.22639160804003877 0.23029977148399167 0.22851774467534963 0.23318470278540546 0.22518391554273973 0.22011168322065089 0.22512226597498097 0.22856126552599579 0.23295733406208827 0.23004055947364671 0.23258844873993348 0.22651979648163331 0.22309830423684371 0.21516319166927361 0.21869015602442454 0.21456272601669468 0.20956188353666072 0.20677920890590229 0.21197988519838204 0.20059184553278891 0.19757335834251105 0.20415032560156277 0.19536837735385668 0.1999674927065711 0.1905811484375427 0.19110013865787714 0.19424212227378543 0.18322533659897877 0.18679985053718401 0.18366581429738815 0.17553868729544281 0.17317689128698166 0.17882202219163856 0.17679664144749352 0.1861809220005495 0.18101553335317988 0.18246136660892764 0.17761547909874226 0.17261727549773795 0.17352417918886909 0.18516091754354549 0.18709975516679006 0.19080754688002871 0.20032441028948531 0.19454415977291703 0.19888513873354718 0.1950865793937154 0.19913677710192931 0.20223842349606572 0.20052932906555818 0.19405943778869583 0.19115241143750955 0.19214942367111484 0.19528770466785741 0.18209598395116414 0.17398681704001515 0.17828086248871541 0.17339021784744638 0.17643993201665381 0.18577242014113324 0.18547612926968549 0.18098605619143529 0.1854868745955266 0.18312270778557566 0.17871957587314757 