<?xml version="1.0"?>
<VTKFile type="UnstructuredGrid" version="0.1" byte_order="LittleEndian">
<UnstructuredGrid>
<Piece NumberOfPoints="714" NumberOfCells="1306">
<Points>
<DataArray type="Float64" NumberOfComponents="3" format="ascii">
0 0 0 0 0.10000000000041601 0 0.082799035591426873 0.082799035591510806 0 0.099999999999928008 0 0 0.19999999999983389 0 0 0.20669143849501961 0.085546078947938975 0 0.29145143692666958 0.13500804559578439 0 0.29999999999973409 0 0 0.24783073444672249 0.24783073444648379 0 0.21725788110387281 0.17316968768743621 0 0.17318221359491059 0.27409688392309489 0 0.089078158003765312 0.2493007687782936 0 0.140351188660986 0.16130415108589741 0 0 0.20000000000083221 0 0.066361468125430589 0.15903440181097661 0 0 0.30000000000124832 0 0.0632094674441709 0.3449112819864934 0 0 0.40000000000166441 0 0.083393126324559225 0.42307471369029392 0 0.13897501191807771 0.34545639364066222 0 0.070553891733833127 0.57745844360881338 0 0 0.60000000000138687 0 0 0.50000000000205869 0 0.12353277228144981 0.51086097771927308 0 0.16324260003398389 0.62262730759772122 0 0.1946526892501724 0.54636184660733622 0 0.27220668248394869 0.50912429725145214 0 0.27661118526457179 0.58730386222759956 0 0.16486701364709541 0.41592657376307979 0 0.21928696632013719 0.4676461135047027 0 0.29987747321592639 0.43430880093746571 0 0.2371857680100064 0.35865548441110112 0 0.34318159319555042 0.3314386771104964 0 0.38593969585746768 0.44843324941957241 0 0.42544665781957403 0.3726599289372452 0 0.38240158409674341 0.60644575028138747 0 0.34793494568226019 0.52426775179830853 0 0.45232393232070839 0.53082724112931345 0 0.46433624429412901 0.61260020600107856 0 0.55763912874459476 0.49619993861770217 0 0.56379254693201075 0.58472273515948836 0 0.49272830291620878 0.32528628960011152 0 0.47711113382803011 0.43513410852522788 0 0.56509579243166053 0.39588847936247551 0 0.58612580217118482 0.27813894450229909 0 0.49255105193724569 0.22337579986912359 0 0.5565830077206213 0.19095699352548859 0 0.59999999999951659 0 0 0.57505385014294308 0.072457888465917331 0 0.49999999999959438 0 0 0.50264032148191051 0.12292784096123539 0 0.43504744109702559 0.077628892606360606 0 0.39999999999966429 0 0 0.35933948296838258 0.073809900849860513 0 0.33604819894646598 0.23280286076243209 0 0.41589935411558732 0.26752529264016389 0 0.40428440976105728 0.1643886070295453 0 0 1 0 0.099999999999999645 1 0 0.14716362552681639 0.93861610753355362 0 0.19999999999999929 1 0 0.30000000000000071 1 0 0.29792158491427922 0.79537096033156995 0 0.2235202862591317 0.88873896332704583 0 0.1332109546178302 0.87498377138822103 0 0.075231054453351903 0.92314074346405706 0 0 0.89999999999958358 0 0 0.79999999999999982 0 0.074918724681641777 0.83311952320732263 0 0.1533088418661793 0.80370257472597129 0 0.089684836063650353 0.74720097194875412 0 0 0.7000000000006934 0 0.079752623936563252 0.65630726580969023 0 0.16551550920047911 0.70947866912672319 0 0.22047232289835689 0.77501739045979867 0 0.25446499951716589 0.69023946426646743 0 0.32437633398017029 0.65970549827478953 0 0.33985912385126898 0.73174041004507751 0 0.42824324229177341 0.6924957961634054 0 0.5174764925733939 0.65338828204098198 0 0.59670004617370476 0.65981579440137683 0 0.62152629835360762 0.73285157302339954 0 0.52912171753951986 0.73993242892488531 0 0.51076728641122882 0.81691863363193817 0 0.62017612851329729 0.81451802170669263 0 0.56701461556202259 0.86335846433862784 0 0.45907587517201498 0.90165918271477563 0 0.43819239467549531 0.79296936871720936 0 0.36912581253574028 0.83088590731704637 0 0.37337282601342481 0.92616598444216514 0 0.31535921456193688 0.88154045330654418 0 0.39999999999999952 1 0 0.49999999999999911 1 0 0.59999999999999964 1 0 0.5499999999999996 0.93976792513729512 0 0.70000000000000018 1 0 0.79999999999999982 1 0 0.89999999999999947 1 0 0.8793859710393791 0.93083561064221121 0 0.93540888248908083 0.88281232945237675 0 0.91372311269140116 0.80486176357476358 0 0.82192606283926717 0.87651855948129354 0 0.73937541854631073 0.9288754054780668 0 0.64588148000090029 0.91512139508160772 0 0.76404828705430583 0.78174230667165401 0 0.71722872346306721 0.85096302760907838 0 0.69085763855200755 0.76120667115691065 0 0.6754414170471299 0.67700559910555169 0 0.74547688787239819 0.70026419381674654 0 0.81910554849723838 0.69100245438023977 0 0.84477163403336131 0.77519844632340484 0 0.90192269692920224 0.70295054578552552 0 0.9749171938312049 0.68304286407835557 0 0.98491966670915287 0.745702719141624 0 1.0785590511537511 0.75365885686631617 0 1.05 0.67063679245255348 0 1.1595355377629719 0.69612720023346242 0 1.2316049928421089 0.71268197388690568 0 1.130022579458912 0.80264790230838934 0 1.2104878010462079 0.79638517641579154 0 1.246238897717278 0.90016207822659 0 1.1492841477515361 0.89495863909300122 0 1.035017143854235 0.92577305964649748 0 1.039491394416145 0.83402983011495258 0 0.99999999999999911 1 0 0.94997493298435887 0.94717135651053852 0 1.1000000000000001 1 0 1.1999999999999991 1 0 0.8520969719592798 0.19112077159544111 0 0.81051762114363357 0.25355176211442859 0 0.91043121937362004 0.26518856856736223 0 0.87151744524583186 0.1145610820769897 0 0.89999999999870417 0 0 0.8072276847200428 0.07509171132446453 0 0.79999999999899607 0 0 0.75434135135171976 0.12888799631625769 0 0.73796379772146625 0.059893436010741673 0 0.69999999999928797 0 0 0.66267222434682926 0.078497159578092612 0 0.64669101990832323 0.1799054750174742 0 0.75284581776561577 0.20455093921856349 0 0.7545004114404561 0.31098089234202853 0 0.68811979868824935 0.26566684131589419 0 0.65823561246403328 0.35502292901158627 0 0.64897033023755402 0.45530630145656431 0 0.71094001953927277 0.41472992215547572 0 0.65500944633069913 0.60601350811213128 0 0.66278242936710119 0.53985356489900171 0 0.74775703275407246 0.49059679564787018 0 0.74991769371388628 0.60451627361984739 0 0.85383906663538056 0.62014574817393608 0 0.82099888937423493 0.54529350322201742 0 0.89730215834238125 0.56352362508531118 0 0.79315209058920677 0.38802315963964318 0 0.83603391221093415 0.31708941802047369 0 0.84897848255088726 0.46000674997733482 0 0.9184189969982266 0.43608586792060411 0 0.89716106756302072 0.36571612550017968 0 0.97284972811175952 0.32057650487681749 0 0.97803218086495292 0.39957666910545891 0 1.049999999998295 0.45311778235774403 0 1.0499999999982661 0.33749999999944968 0 0.95554667482020261 0.61387123313571723 0 0.95438428234324713 0.50021891445525024 0 1.0610070115193291 0.56187728740506249 0 1.160572984923127 0.60155304747043781 0 1.1544259370261769 0.49580194535795907 0 1.11366617971111 0.39530889117858181 0 1.1787318575418491 0.43180077319900678 0 1.2482752740169289 0.44264463249545388 0 1.193211192060164 0.36417169501775798 0 1.2189485028845071 0.28846717556219142 0 1.225209211892335 0.20648826945283069 0 1.14543293599463 0.16096823716187 0 1.1317936052402791 0.27327200211975772 0 1.0273907165533489 0.25089655084417212 0 1.0673059847957449 0.1861726764986896 0 0.96758455917765662 0.17206502793490561 0 0.99999999999841238 0 0 0.95940036225003311 0.0802667348803804 0 1.0527907183502181 0.1005001786211816 0 1.1494214575391031 0.075340014825429069 0 1.09999999999812 0 0 1.199999999997829 0 0 1.2999999999975369 0 0 1.254652873386052 0.105753482544517 0 1.3681535985071449 0.13698083382674339 0 1.399999999997245 0 0 1.349999999997392 0.060567969661089648 0 1.291408388555241 0.26372433042992383 0 1.316869459340541 0.18778020585802921 0 1.3878996413210389 0.26723502210068018 0 1.473286192129879 0.27883707652097373 0 1.4156792278190771 0.19574754335211339 0 1.4905184776249101 0.20629734327603311 0 1.545236949037224 0.29434567071731399 0 1.456639397274391 0.1016053838939758 0 1.53341268746562 0.14194251306413061 0 1.542152768646126 0.073248247890105089 0 1.4999999999969531 0 0 1.599999999996661 0 0 1.6999999999963691 0 0 1.6799832100487111 0.082202015566833181 0 1.609545399082946 0.1308291592921435 0 1.567491488875842 0.20218805454405439 0 1.6351951680630969 0.23707571199064051 0 1.714493154391862 0.28897291620938281 0 1.7304700827703301 0.17386188770806579 0 1.799219293849516 0.26438879273789773 0 1.8480644103363271 0.19193194889233381 0 1.8299024103288899 0.1151394713368583 0 1.799999999996077 0 0 1.75369588639865 0.074917217572982864 0 1.7537858687071439 0.50406839622489796 0 1.742806034420483 0.6006074591026016 0 1.8544400981153091 0.62488101477716596 0 1.8316048184152021 0.54157006606434721 0 1.850967139686138 0.45738417241574703 0 1.8620515405159661 0.32644761881501039 0 1.787749129254824 0.36176402170097799 0 1.7808296409871709 0.43587276890434401 0 1.71976181471802 0.39635806210359681 0 1.645895854313963 0.45222881216869149 0 1.6419306970571019 0.3436055112169133 0 1.645263810758179 0.55814977621663464 0 1.5386621965636409 0.60828218080060537 0 1.550364457075788 0.50467902559054656 0 1.4795754400412069 0.53983964974648579 0 1.445918816848357 0.6075709531782556 0 1.551956040519719 0.40384519109247291 0 1.4491802319415681 0.4666714614197911 0 1.4507225717793131 0.3561247496431208 0 1.347125314110625 0.32447518420453242 0 1.385017785528226 0.40713366384701549 0 1.3198129865007471 0.39133224900025881 0 1.2615469736996101 0.34090999671933891 0 1.3860523322451299 0.56073196187600105 0 1.3462106466432811 0.48060664220838062 0 1.2709684905841181 0.55537862536316829 0 1.2546738886072291 0.63615646469940468 0 1.3545060270195819 0.65002758689694418 0 1.4000454837723419 0.73943313674757749 0 1.3035852436207409 0.73866974635260263 0 1.2914654457895349 0.81843301378315825 0 1.3255948392482531 0.88328132587465524 0 1.3864786876100039 0.92208751032957958 0 1.386174597084219 0.82350876346868962 0 1.482119963281066 0.782586299849238 0 1.463012078585596 0.89209645917012148 0 1.546104640467868 0.9195568013001878 0 1.535346256113697 0.70153336654872078 0 1.4534042830965781 0.68426123045930609 0 1.2999999999999989 1 0 1.399999999999999 1 0 1.5 1 0 1.599999999999999 1 0 1.6999999999999991 1 0 1.7999999999999989 1 0 1.6597641702579149 0.778
[...]
<CellData Scalars="A_conc,As-lin_conc,B_conc,Bs-lang_conc,C_conc,Cs-freund_conc," Vectors="" Tensors="">
<DataArray type="Float64" Name="A_conc" format="ascii">
1.204571015409194e-08 2.2610402064267137e-08 7.876962706915442e-11 3.7676488133862874e-10 1.0191233171131527e-09 2.2063365814761097e-09 2.7689678931247158e-08 4.4455880538119859e-08 4.6868844476668184e-09 8.0227817591478194e-09 2.2215205580841832e-08 4.1370876773007483e-08 0 4.3870954169142868e-11 1.1775159738945332e-10 2.551870671016356e-10 9.3510900234707405e-12 0 8.9746844889655743e-12 1.047875364824722e-10 4.3107076901214679e-11 1.0134831656693309e-11 2.0360677620810297e-13 6.8485066316452404e-13 0 0 0 0 0 1.4150401762096858e-15 1.9203649156215188e-12 0 0 0 0 0 0 0 0 0 0 0 0 0 0 0 0 0 0 0 0 0 0 0 0 0 0 0 0 0 0 0 0 0 0 0 0 0 0 0 0 0 0 0 0 0 0 0 0 2.4654564275622573e-10 0 0 1.0999924725955289e-09 4.5617615464401217e-08 7.800413078856619e-08 3.4918002653594639e-08 2.5803757697926296e-08 6.5781363505959587e-10 8.5961035245188208e-09 6.4812193258338885e-09 6.4216882577728279e-08 4.905964572571304e-08 7.5645379402551043e-08 3.3186540807969571e-08 3.1218278259321493e-09 3.7205955304553195e-10 3.0908937406667431e-12 1.0934621603021931e-13 0 8.798082630813888e-11 1.4870963659357101e-11 1.6154166728278614e-08 2.9809140139151357e-08 3.3824925119288668e-08 5.2585410481381618e-08 3.2674087330888064e-08 4.3717002152367967e-08 3.0451218568375343e-08 1.1296440349354085e-09 2.7255739380860603e-09 5.2347120396448066e-10 1.8155788852210202e-10 1.6730570562653879e-08 1.1215933446242954e-08 4.0181496771567958e-09 2.1801209224824866e-09 6.6335717683341502e-10 6.3032482304453669e-13 5.3515437525471947e-11 6.3105349251806354e-12 1.5207402310989666e-12 1.9176000168854844e-11 0 1.4553162174017159e-13 0 0 0 0 0 6.4477565811065147e-11 0 4.5161338728824567e-13 0 0 0 0 0 0 0 0 0 0 0 0 0 6.022712458082605e-10 3.2499566963980954e-14 3.481435600056353e-13 7.6308472756595316e-11 1.0246928214174571e-08 3.143027967270329e-10 5.9632876309561385e-09 1.4792920407506165e-09 1.036127235478463e-08 2.4258257869093821e-10 2.7067442708755601e-11 6.6297121379585582e-12 2.8495559163313781e-09 4.6487635942067925e-08 7.5068851952117149e-09 9.1999190682946601e-08 5.9458932706346679e-08 7.8061473015104181e-08 4.9219467415954295e-08 1.0186557126737794e-07 4.6431629942722457e-08 2.7192869289141501e-08 6.1707616524102267e-08 4.2116689887548197e-08 2.2824337662970171e-08 0 0 0 0 0 0 1.0648593509648093e-08 8.340315189772476e-09 3.671098148082459e-09 2.1503687348418068e-09 6.7247932029930663e-10 0 0 0 0 0 0 0 0 0 0 0 0 0 0 0 0 0 0 0 0 0 0 0 0 0 0 0 0 0 0 0 0 0 0 0 0 0 0 0 0 0 0 0 0 0 0 0 0 0 0 0 0 0 0 0 0 0 0 0 3.1708078781787222e-09 2.4539336124428296e-09 2.3594285616175895e-08 1.9337206573635556e-08 0 1.131270611449007e-09 2.6848557943053777e-09 3.9626362824716048e-09 5.1685483860231528e-08 6.144691295731299e-08 3.2246540878874792e-08 2.1068662501454322e-09 7.2107218286943047e-10 0 0 0 0 0 0 0 0 0 0 0 0 0 0 0 0 0 0 0 0 0 0 0 0 0 0 0 0 0 0 0 0 0 0 0 0 0 0 0 0 0 0 0 0 0 0 0 0 0 0 0 0 0 0 0 0 0 0 0 0 0 0 0 0 0 0 0 0 0 0 5.6370129260906466e-09 0 0 0 0 0 0 0 0 0 0 0 0 0 0 0 0 0 0 0 0 0 0 0 0 0 0 0 0 0 0 0 0 0 0 0 0 0 0 0 0 0 0 0 0 0 0 0 0 0 0 0 0 0 0 0 0 0 0 0 0 0 0 0 0 0 0 0 0 0 0 0 0 0 0 0 0 0 0 0 0 0 0 0 0 0 0 0 0 0 0 0 0 0 0 0 0 0 0 0 0 0 0 0 0 0 0 0 0 0 0 0 0 0 0 0 0 0 0 0 0 0 0 0 6.5985434577973335e-12 3.2334962396594799e-12 1.4402989918774571e-13 1.6659031874484421e-13 0 0 0 0 0 0 0 4.693273200087778e-13 0 4.6472376150409066e-11 6.2030458855770565e-10 4.8316337401568168e-09 1.9829148155241208e-09 8.335600368765532e-09 1.5701814064700222e-08 2.4866393824350959e-08 0 0 0 0 0 1.6700778364870849e-11 2.0091593216505315e-12 2.0975249521199107e-11 2.1703966473201025e-10 4.8839558773925116e-10 3.8969466666229248e-11 6.1605275575529006e-11 1.1679022421338723e-10 1.0292452429123651e-11 1.1208535237710569e-09 1.7890406523873186e-09 3.1813831419741397e-09 3.9902353103306096e-11 1.0803553957722628e-10 0 0 5.9796609440614087e-14 4.8192133202370802e-15 0 0 0 0 0 0 0 0 5.7054327266867685e-14 6.6249325406279491e-13 3.3388510850897769e-10 2.2261776755712914e-09 4.6960850023443913e-09 3.2052122751753029e-11 9.2228790084309796e-12 1.6339261131349802e-10 5.8441156444423998e-09 1.9725858209528133e-08 1.2051166761974774e-09 4.1541500255777548e-10 0 0 0 0 0 0 0 0 6.7998438083243816e-08 3.1777406354560809e-08 4.9435471586134544e-08 6.2675670035809832e-08 1.4850152345244574e-08 3.4013848140738661e-08 1.090737874801957e-08 1.4398360699038821e-08 2.5840453917162463e-09 9.8410550820548621e-11 4.4941286228658387e-10 0 0 0 0 0 0 0 0 1.8616681615994994e-09 1.4272208149239511e-13 1.7230263172831438e-09 0 0 2.5392500873353791e-12 4.3551688340169102e-11 1.5787171301774653e-12 1.1149907177702131e-11 3.0107429498716842e-14 3.6916006431079085e-13 4.4205087386390713e-14 0 0 0 0 0 0 0 0 0 0 0 0 0 0 0 0 0 0 0 0 0 0 0 0 0 0 0 0 0 4.8144947690739082e-14 1.2108281997348326e-15 2.6804818989320998e-11 1.7816055520989068e-12 4.3109878964789831e-13 4.9100324839992533e-14 0 0 1.1643657695057252e-09 2.490862826773454e-09 5.5582338212151862e-10 7.1726428383807203e-11 2.3781463177314992e-10 4.2966985338815343e-11 1.1308626076301745e-11 3.8837601617446907e-10 1.1859954651033659e-10 2.7231158369085019e-11 1.9133967544726662e-12 1.5543323321537295e-13 0 2.0054322784816649e-13 3.8608024192177406e-12 4.9066493827754441e-15 0 0 0 0 0 0 0 0 0 0 0 0 0 0 0 0 0 0 0 0 0 0 0 0 0 0 0 0 0 0 0 0 0 0 0 0 0 0 0 0 0 0 0 0 0 0 0 0 0 0 0 0 0 0.0016685776160570496 0.00060090001302664738 0.0041948403269862567 0.011640810227763884 0.014586662792578298 0.0071468422924568682 0.017253714420711077 0.022239519760047472 0.016615436394093228 0.016209614698582054 0.02119276380293688 0.016239573127586591 0.011591708996148944 0.011781001011936975 0.0088752166178605058 0.021585509498057653 0.016626498934273461 0.02002777144294492 0.012335249211743896 0.0046397412085067095 0.0041091445951609113 0.0076978439473737916 0.0064282561784180115 0.00066621369451543445 0.0016278374086276381 0.00095778566019803367 0.0023634704879934763 0.0056656079287267201 0.0026412420200558119 0.0038173531162170602 0.0012573678749160122 0.00034177289896216182 0.00028036527235557134 2.858290436336335e-06 5.161759422641855e-05 4.5074332515264295e-05 0 0.00029400270412415679 4.3219356929371734e-05 0.00016690375248592005 1.6978266004873391e-05 1.1235075351251479e-06 0 3.5064497101668406e-06 0 0 0 0 0 0 0 0 0 0 0 0 0 0 0 0.00010767518882874485 1.0537248419083997e-05 0 0 0.00092415924495818267 0.0021741469535524662 0.0027311348605049326 0.0060499429651511838 0.0048915100401239562 0.011806066197795229 0.01198665363815651 0.0075977043098886064 0.017253714816747336 0.022239520230671366 0.016780846181189329 0.01671298790295855 0.0084342505586823269 0.011714625978397793 0.011067288746952422 0.021192766128482893 0.016239579322037651 0.020027775415549162 0.016508628968016872 0.0078944981538961873 0.0060848010189973297 0.0031914050025833229 0.0010356289920570067 0.0012303485115786486 0.0024457632866533899 0.0012963244524761934 0.0012436316704644785 0.0027513141440729449 0.0054489421083465574 0.0029156419783648324 0.0053062966179330019 0.0047598099376241427 0.012107790810110614 0.012447149016079326 0.021466117692565477 0.01615814864172364 0.019668593527556195 0.0085584193644956275 0.009943245114188504 0.014527644414611216 0.019767545205055505 0.016371871184646627 0.011969948095521689 0.0074059004486515707 0.0049673086788280425 0.0026069063008164134 0.0011700403350157268 0.0019690257941386703 9.5145107703599604e-05 0.00041865269690851651 9.5813860625885335e-05 1.7328513926190477e-05 1.1517011472675677e-06 8.0765260734073376e-07 1.6117370308145477e-05 0 0 0 0 0 0 0 0 0 0 0 0 0 2.2476273058652339e-16 3.997968460893702e-07 8.6251314709562695e-06 8.6387620197870814e-06 0.00038727436729732098 6.968694107450368e-05 7.3892033362119711e-05 0.00035960279252855222 0.0003641018179640611 9.2802102165359123e-05 0.00041854934394295088 7.0084695926504679e-07 1.3004865792389008e-05 2.1712106450453962e-07 1.2042917223796998e-14 0 1.1996004564419568e-15 6.6877614819336663e-15 9.7092908128765904e-14 4.5950454526424096e-13 3.1046818372555309e-12 1.5977407819451862e-09 1.9241100243414937e-10 9.5522831487605325e-10 1.7384029803110644e-08 3.8501241222294065e-08 1.0866505712658671e-08 4.17113328997975e-06 1.3805330692088676e-08 7.7612269774449615e-07 1.6855325495234261e-05 0.0001177306164043094 5.3949672220724405e-05 0.00033587251804256184 1.6924728823034205e-09 2.8451343988735341e-09 1.1755905699232942e-09 1.1777526471500125e-08 7.0267499356552964e-09 1.9472226455981099e-08 2.1287973412677211e-08 1.6405554176941892e-08 3.87292823306761e-09 2.4398352567231373e-09 2.7085260371895496e-11 4.2197110786856008e-12 0 7.5047013274372723e-11 0 0 0 0 2.2455093572960476e-14 8.7744585336295639e-13 2.0715931685529284e-10 2.0501695055122928e-11 6.9693022873783161e-11 0 0 0 0 0 0 0 0 0 0 0 0 0 0 0 0 0 0 0 0 0 0 0 0 0 0 0 0 0 0 0 0 0 0 0 0 0 0 0 0 0 0 0 0 0 0 0 0 0 0 0 0 0 0 0 6.5643630269181506e-14 4.0741368868889891e-12 8.2048920191457025e-12 2.6820622320648115e-13 0 0 0 0 0 0 0 0 0 0 8.5383343949466857e-13 0 0 0 0 9.6841011967054537e-13 1.0934428554852326e-11 7.1486713347632901e-11 8.3039364631289935e-12 8.1414531532605038e-13 6.8653479458714202e-10 3.3983332959793646e-11 2.8752495937021562e-10 2.3155086423809773e-10 6.8674266121687027e-10 4.2729843500917174e-09 3.2872849297094364e-09 1.4567152838508161e-09 0 0 0 0 0 0 0 0 0 0 0 0 0 0 0 0 0 0 0 0 0 1.0092290476102818e-09 0 0 0 0 6.5773917041798664e-10 3.8338426311939314e-10 0 1.1337813644940217e-10 5.1017124170596142e-11 0 0 0 0 3.9161059150736093e-12 0 0 0 0 8.363921857237836e-13 0 1.1828332455535807e-14 0 0 0 5.3162417752418252e-11 1.8509098652193635e-11 4.1274325957221553e-12 1.3086875818883246e-13 1.4667329252436021e-12 1.3430040203175813e-11 2.0369594325539153e-08 4.7299500886658652e-09 9.2872714252445195e-09 2.6000179388583188e-10 5.3262020369507042e-10 2.2138962502394138e-09 1.0518372683971624e-09 7.2026591270221904e-09 4.9565682783776583e-09 1.0658369275478296e-08 1.1554804768086357e-08 1.5992986814963249e-08 1.2970926072461783e-08 0 1.2065255410234634e-13 0 0 0 0 0 0 0 0 0 0 0 0 0 2.9495891228134077e-09 0 0 5.3804515704833137e-10 1.5813908531383573e-09 3.0946504145677616e-10 4.9073112984153673e-09 2.1242707845280429e-10 1.8174145158821739e-10 1.0105980955075174e-08 1.0145934776222977e-10 0 0 0 0 1.8803300336013671e-11 9.2722459580755849e-12 1.7020898044997504e-13 1.2198146680302396e-14 5.5775541839701443e-13 1.6072285296981759e-15 0 1.4798533680992848e-12 7.1742588356992875e-14 0 1.4566749591456683e-14 6.1093840771263761e-15 7.4025309206335666e-09 2.2169224691988589e-09 4.3535693412643276e-11 5.3767923139903414e-12 5.6585739256725574e-10 2.2192873976237515e-13 1.4419858658144945e-09 1.2180116620241048e-08 6.1977416350819613e-09 1.2828293953822174e-08 1.553983694160486e-08 1.1001630469467509e-08 6.0997641701206507e-09 2.9477757463539584e-10 1.9616384019222234e-10 0 8.4608727562823181e-09 4.7906469873802208e-11 3.6356177698950338e-11 0 0 0 0 0 0 0 0 0 0 0 0 0 0 3.0614754119074117e-12 0 0 0 0 0 0 0 0 0 0 0 0 0 0 0 0 0 0 0 0 0 0 0 0 0 0 0 0 0 0 0 0 0 0 0 0 0 0 0 0 0 0 0 1.7399073050113239e-15 0 1.0066366446296158e-13 3.5913689075886709e-14 1.555217366781942e-12 1.0033890115625043e-11 9.6043379219132732e-13 7.2372698590312585e-15 4.1299248098047249e-16 0 0 0 2.4085492962108259e-11 0 1.5292933683288442e-13 1.1584328766522592e-14 5.5517916162765038e-13 3.2936637304551289e-10 1.082213564107615e-09 1.3176859221371347e-10 6.9386464337513183e-10 1.3604434418855184e-09 4.4290924191015881e-09 2.7761770418285364e-09 6.4188743885522099e-09 3.9247534218188602e-09 3.2062221353752126e-12 1.7329748441494226e-09 1.1850668513369907e-10 2.1854149985226017e-11 5.5062448065440145e-09 9.7760532989080519e-09 1.5871193676686717e-10 2.8843623484148652e-10 2.3310773938040369e-09 3.0795349729122552e-09 2.6025302460491568e-11 3.4605313464199666e-10 1.1872942389567975e-10 3.7751637402178264e-11 9.793227498616057e-12 1.0285953220569986e-12 0 2.2719735705870899e-13 4.3748356547627548e-12 0 0 0 0 0 1.234074457716021e-15 1.0991780722584407e-13 1.079221124281389e-16 0 0 0 0 0 0 0 0 0 0 0 0 0 0 0 0 0 0 0 0 0 0 0 0 0 0 0 0 0 0 0 0 0 0 0 0 0 0 0 0 0 3.3502851550486005e-16 1.5064575320735308e-15 0 0 0 0 0 0 0 0 0 0 3.5818158970158597e-12 9.32741374742069e-13 0 0 5.0749973843340823e-14 1.8922050422363323e-14 2.8643999332291574e-13 3.616215146539505e-15 1.3488090873968192e-12 8.6577585390187824e-12 3.9740842314670483e-12 4.1455208419984417e-10 3.705473167380349e-10 1.4645107037667733e-10 4.0691206951686601e-09 6.832473161320199e-09 1.0739776102887832e-08 8.5234299037391452e-09 6.9921188371050714e-10 8.693788784133609e-11 3.8956792575053031e-11 6.4807433219028173e-09 1.2026439897313547e-08 5.2607284422851819e-10 1.1575673356184808e-08 8.2275684756573789e-09 1.8606346073018812e-08 2.2858440521150438e-09 6.9652765433451486e-10 4.1946406179905067e-09 3.290188592042855e-10 4.76393794431366e-12 4.7865324086901466e-12 5.8733105841776191e-11 1.3385235671069559e-10 1.0690248675067816e-09 0 0 1.2490722917736611e-12 3.0931492115363493e-13 0 0 2.9083794840729071e-14 1.9406517039748971e-15 0 0 0 0 1.6915345521412287e-11 9.4789883034885858e-11 1.7215867593248031e-12 1.5024755825709882e-13 0 4.1874790037649393e-12 2.7586361052241081e-11 0 3.297181343387165e-13 0 0 0 1.086564714315446e-10 1.4893715810584076e-09 1.0257183513758602e-09 0 0 0 0 0 0 0 1.1550136262549517e-11 3.05351008303833e-12 0 0 5.4073185252664999e-10 1.7437706444428019e-10 5.2635139001614667e-11 1.5867230902078988e-10 7.4043557067915705e-11 3.10565757405261e-09 1.4226062777927106e-09 6.3504720948522786e-09 1.1896597434560827e-08 1.8593379700120897e-08 2.5681462720089772e-08 1.2748797202780758e-08 
</DataArray>
<DataArray type="Float64" Name="As-lin_conc" format="ascii">