<?xml version="1.0"?>
<VTKFile type="UnstructuredGrid" version="0.1" byte_order="LittleEndian">
<UnstructuredGrid>
<Piece NumberOfPoints="714" NumberOfCells="1306">
<Points>
<DataArray type="Float64" NumberOfComponents="3" format="ascii">
0 0 0 0 0.10000000000041601 0 0.082799035591426873 0.082799035591510806 0 0.099999999999928008 0 0 0.19999999999983389 0 0 0.20669143849501961 0.085546078947938975 0 0.29145143692666958 0.13500804559578439 0 0.29999999999973409 0 0 0.24783073444672249 0.24783073444648379 0 0.21725788110387281 0.17316968768743621 0 0.17318221359491059 0.27409688392309489 0 0.089078158003765312 0.2493007687782936 0 0.140351188660986 0.16130415108589741 0 0 0.20000000000083221 0 0.066361468125430589 0.15903440181097661 0 0 0.30000000000124832 0 0.0632094674441709 0.3449112819864934 0 0 0.40000000000166441 0 0.083393126324559225 0.42307471369029392 0 0.13897501191807771 0.34545639364066222 0 0.070553891733833127 0.57745844360881338 0 0 0.60000000000138687 0 0 0.50000000000205869 0 0.12353277228144981 0.51086097771927308 0 0.16324260003398389 0.62262730759772122 0 0.1946526892501724 0.54636184660733622 0 0.27220668248394869 0.50912429725145214 0 0.27661118526457179 0.58730386222759956 0 0.16486701364709541 0.41592657376307979 0 0.21928696632013719 0.4676461135047027 0 0.29987747321592639 0.43430880093746571 0 0.2371857680100064 0.35865548441110112 0 0.34318159319555042 0.3314386771104964 0 0.38593969585746768 0.44843324941957241 0 0.42544665781957403 0.3726599289372452 0 0.38240158409674341 0.60644575028138747 0 0.34793494568226019 0.52426775179830853 0 0.45232393232070839 0.53082724112931345 0 0.46433624429412901 0.61260020600107856 0 0.55763912874459476 0.49619993861770217 0 0.56379254693201075 0.58472273515948836 0 0.49272830291620878 0.32528628960011152 0 0.47711113382803011 0.43513410852522788 0 0.56509579243166053 0.39588847936247551 0 0.58612580217118482 0.27813894450229909 0 0.49255105193724569 0.22337579986912359 0 0.5565830077206213 0.19095699352548859 0 0.59999999999951659 0 0 0.57505385014294308 0.072457888465917331 0 0.49999999999959438 0 0 0.50264032148191051 0.12292784096123539 0 0.43504744109702559 0.077628892606360606 0 0.39999999999966429 0 0 0.35933948296838258 0.073809900849860513 0 0.33604819894646598 0.23280286076243209 0 0.41589935411558732 0.26752529264016389 0 0.40428440976105728 0.1643886070295453 0 0 1 0 0.099999999999999645 1 0 0.14716362552681639 0.93861610753355362 0 0.19999999999999929 1 0 0.30000000000000071 1 0 0.29792158491427922 0.79537096033156995 0 0.2235202862591317 0.88873896332704583 0 0.1332109546178302 0.87498377138822103 0 0.075231054453351903 0.92314074346405706 0 0 0.89999999999958358 0 0 0.79999999999999982 0 0.074918724681641777 0.83311952320732263 0 0.1533088418661793 0.80370257472597129 0 0.089684836063650353 0.74720097194875412 0 0 0.7000000000006934 0 0.079752623936563252 0.65630726580969023 0 0.16551550920047911 0.70947866912672319 0 0.22047232289835689 0.77501739045979867 0 0.25446499951716589 0.69023946426646743 0 0.32437633398017029 0.65970549827478953 0 0.33985912385126898 0.73174041004507751 0 0.42824324229177341 0.6924957961634054 0 0.5174764925733939 0.65338828204098198 0 0.59670004617370476 0.65981579440137683 0 0.62152629835360762 0.73285157302339954 0 0.52912171753951986 0.73993242892488531 0 0.51076728641122882 0.81691863363193817 0 0.62017612851329729 0.81451802170669263 0 0.56701461556202259 0.86335846433862784 0 0.45907587517201498 0.90165918271477563 0 0.43819239467549531 0.79296936871720936 0 0.36912581253574028 0.83088590731704637 0 0.37337282601342481 0.92616598444216514 0 0.31535921456193688 0.88154045330654418 0 0.39999999999999952 1 0 0.49999999999999911 1 0 0.59999999999999964 1 0 0.5499999999999996 0.93976792513729512 0 0.70000000000000018 1 0 0.79999999999999982 1 0 0.89999999999999947 1 0 0.8793859710393791 0.93083561064221121 0 0.93540888248908083 0.88281232945237675 0 0.91372311269140116 0.80486176357476358 0 0.82192606283926717 0.87651855948129354 0 0.73937541854631073 0.9288754054780668 0 0.64588148000090029 0.91512139508160772 0 0.76404828705430583 0.78174230667165401 0 0.71722872346306721 0.85096302760907838 0 0.69085763855200755 0.76120667115691065 0 0.6754414170471299 0.67700559910555169 0 0.74547688787239819 0.70026419381674654 0 0.81910554849723838 0.69100245438023977 0 0.84477163403336131 0.77519844632340484 0 0.90192269692920224 0.70295054578552552 0 0.9749171938312049 0.68304286407835557 0 0.98491966670915287 0.745702719141624 0 1.0785590511537511 0.75365885686631617 0 1.05 0.67063679245255348 0 1.1595355377629719 0.69612720023346242 0 1.2316049928421089 0.71268197388690568 0 1.130022579458912 0.80264790230838934 0 1.2104878010462079 0.79638517641579154 0 1.246238897717278 0.90016207822659 0 1.1492841477515361 0.89495863909300122 0 1.035017143854235 0.92577305964649748 0 1.039491394416145 0.83402983011495258 0 0.99999999999999911 1 0 0.94997493298435887 0.94717135651053852 0 1.1000000000000001 1 0 1.1999999999999991 1 0 0.8520969719592798 0.19112077159544111 0 0.81051762114363357 0.25355176211442859 0 0.91043121937362004 0.26518856856736223 0 0.87151744524583186 0.1145610820769897 0 0.89999999999870417 0 0 0.8072276847200428 0.07509171132446453 0 0.79999999999899607 0 0 0.75434135135171976 0.12888799631625769 0 0.73796379772146625 0.059893436010741673 0 0.69999999999928797 0 0 0.66267222434682926 0.078497159578092612 0 0.64669101990832323 0.1799054750174742 0 0.75284581776561577 0.20455093921856349 0 0.7545004114404561 0.31098089234202853 0 0.68811979868824935 0.26566684131589419 0 0.65823561246403328 0.35502292901158627 0 0.64897033023755402 0.45530630145656431 0 0.71094001953927277 0.41472992215547572 0 0.65500944633069913 0.60601350811213128 0 0.66278242936710119 0.53985356489900171 0 0.74775703275407246 0.49059679564787018 0 0.74991769371388628 0.60451627361984739 0 0.85383906663538056 0.62014574817393608 0 0.82099888937423493 0.54529350322201742 0 0.89730215834238125 0.56352362508531118 0 0.79315209058920677 0.38802315963964318 0 0.83603391221093415 0.31708941802047369 0 0.84897848255088726 0.46000674997733482 0 0.9184189969982266 0.43608586792060411 0 0.89716106756302072 0.36571612550017968 0 0.97284972811175952 0.32057650487681749 0 0.97803218086495292 0.39957666910545891 0 1.049999999998295 0.45311778235774403 0 1.0499999999982661 0.33749999999944968 0 0.95554667482020261 0.61387123313571723 0 0.95438428234324713 0.50021891445525024 0 1.0610070115193291 0.56187728740506249 0 1.160572984923127 0.60155304747043781 0 1.1544259370261769 0.49580194535795907 0 1.11366617971111 0.39530889117858181 0 1.1787318575418491 0.43180077319900678 0 1.2482752740169289 0.44264463249545388 0 1.193211192060164 0.36417169501775798 0 1.2189485028845071 0.28846717556219142 0 1.225209211892335 0.20648826945283069 0 1.14543293599463 0.16096823716187 0 1.1317936052402791 0.27327200211975772 0 1.0273907165533489 0.25089655084417212 0 1.0673059847957449 0.1861726764986896 0 0.96758455917765662 0.17206502793490561 0 0.99999999999841238 0 0 0.95940036225003311 0.0802667348803804 0 1.0527907183502181 0.1005001786211816 0 1.1494214575391031 0.075340014825429069 0 1.09999999999812 0 0 1.199999999997829 0 0 1.2999999999975369 0 0 1.254652873386052 0.105753482544517 0 1.3681535985071449 0.13698083382674339 0 1.399999999997245 0 0 1.349999999997392 0.060567969661089648 0 1.291408388555241 0.26372433042992383 0 1.316869459340541 0.18778020585802921 0 1.3878996413210389 0.26723502210068018 0 1.473286192129879 0.27883707652097373 0 1.4156792278190771 0.19574754335211339 0 1.4905184776249101 0.20629734327603311 0 1.545236949037224 0.29434567071731399 0 1.456639397274391 0.1016053838939758 0 1.53341268746562 0.14194251306413061 0 1.542152768646126 0.073248247890105089 0 1.4999999999969531 0 0 1.599999999996661 0 0 1.6999999999963691 0 0 1.6799832100487111 0.082202015566833181 0 1.609545399082946 0.1308291592921435 0 1.567491488875842 0.20218805454405439 0 1.6351951680630969 0.23707571199064051 0 1.714493154391862 0.28897291620938281 0 1.7304700827703301 0.17386188770806579 0 1.799219293849516 0.26438879273789773 0 1.8480644103363271 0.19193194889233381 0 1.8299024103288899 0.1151394713368583 0 1.799999999996077 0 0 1.75369588639865 0.074917217572982864 0 1.7537858687071439 0.50406839622489796 0 1.742806034420483 0.6006074591026016 0 1.8544400981153091 0.62488101477716596 0 1.8316048184152021 0.54157006606434721 0 1.850967139686138 0.45738417241574703 0 1.8620515405159661 0.32644761881501039 0 1.787749129254824 0.36176402170097799 0 1.7808296409871709 0.43587276890434401 0 1.71976181471802 0.39635806210359681 0 1.645895854313963 0.45222881216869149 0 1.6419306970571019 0.3436055112169133 0 1.645263810758179 0.55814977621663464 0 1.5386621965636409 0.60828218080060537 0 1.550364457075788 0.50467902559054656 0 1.4795754400412069 0.53983964974648579 0 1.445918816848357 0.6075709531782556 0 1.551956040519719 0.40384519109247291 0 1.4491802319415681 0.4666714614197911 0 1.4507225717793131 0.3561247496431208 0 1.347125314110625 0.32447518420453242 0 1.385017785528226 0.40713366384701549 0 1.3198129865007471 0.39133224900025881 0 1.2615469736996101 0.34090999671933891 0 1.3860523322451299 0.56073196187600105 0 1.3462106466432811 0.48060664220838062 0 1.2709684905841181 0.55537862536316829 0 1.2546738886072291 0.63615646469940468 0 1.3545060270195819 0.65002758689694418 0 1.4000454837723419 0.73943313674757749 0 1.3035852436207409 0.73866974635260263 0 1.2914654457895349 0.81843301378315825 0 1.3255948392482531 0.88328132587465524 0 1.3864786876100039 0.92208751032957958 0 1.386174597084219 0.82350876346868962 0 1.482119963281066 0.782586299849238 0 1.463012078585596 0.89209645917012148 0 1.546104640467868 0.9195568013001878 0 1.535346256113697 0.70153336654872078 0 1.4534042830965781 0.68426123045930609 0 1.2999999999999989 1 0 1.399999999999999 1 0 1.5 1 0 1.599999999999999 1 0 1.6999999999999991 1 0 1.7999999999999989 1 0 1.6597641702579149 0.778
[...]
<CellData Scalars="A_conc,As-lin_conc,B_conc,Bs-lang_conc,C_conc,Cs-freund_conc," Vectors="" Tensors="">
<DataArray type="Float64" Name="A_conc" format="ascii">
0.25027462205236645 0.25466300374528233 0.25033000520895948 0.25321872883087126 0.25717324293364152 0.26078953147794082 0.25966286215620277 0.26568617535567096 0.26714529139504772 0.27091908480131227 0.27568509485843207 0.27068577392942 0.27927887856943889 0.27378795368484654 0.27675991195895833 0.26573422446655903 0.26967275902342158 0.27011339419054159 0.261157386558317 0.26188989373620053 0.25810036243623746 0.25426680965760495 0.25361520308437757 0.24948253662122177 0.2528934523272694 0.25005712192191232 0.25039069958991278 0.2605686527421392 0.2609887170106262 0.25676519231473877 0.25738324867119794 0.25323318323635946 0.25024083890333426 0.25506037393393899 0.25392433627140126 0.26034771744532226 0.25689237234851348 0.26417974963726021 0.26717184148358669 0.27107319223110771 0.26696168678112764 0.27660873879328163 0.27934522158598196 0.27593218854837465 0.27262613937313729 0.26473106153260356 0.26570238200945373 0.27025110771749783 0.2649068044127737 0.27339678733268302 0.27769035330540587 0.27371967819685694 0.28646229990514271 0.2824172911305563 0.2909359729943683 0.29573341121337515 0.29170121528749621 0.28777512618848811 0.28059448127266251 0.28039800220909522 0.28272714458348724 0.29239710246030737 0.28744189923893104 0.28548258589769993 0.29083534748676965 0.29488687802715929 0.29999488515291262 0.29678343449782868 0.30010043352289539 0.31041865958976045 0.30548654370744699 0.3078478543873272 0.29876073723708912 0.30245146287569247 0.31160166610575113 0.30670482853670222 0.30311975419103998 0.30736860423930767 0.29874527964534997 0.30010546662885007 0.30367709996643788 0.30742797314351594 0.30611765990261264 0.30974671669800968 0.30474779804200691 0.30031030981415968 0.2969793143918088 0.30289032898866519 0.29203988426302052 0.28819075956692708 0.29198042911230432 0.28828124252037918 0.28328225335917656 0.28007969055007498 0.28327804159680636 0.28112635945051589 0.2873091812766459 0.28374409698903946 0.29490885491997754 0.29539589300622737 0.29110622318643453 0.25013762160135738 0.25412738852779715 0.25912718463734097 0.26323373599369282 0.26823295280637238 0.27152359094079292 0.27652296509554353 0.27105009154258652 0.27507617755642733 0.26765347386881599 0.26370585988218997 0.26288968937654711 0.25946272215988264 0.2568987334058957 0.25314119187948442 0.24969980493563296 0.25406074932444228 0.26020105991195142 0.2580912892729012 0.25852575057108707 0.2625686315713231 0.24968914225921243 0.25429939107734756 0.2497114005173548 0.26249129659988407 0.27151797325736859 0.26670987306528371 0.27000368527556423 0.26611582407767642 0.27406545370533508 0.27751726016084721 0.27896703191418615 0.27680642493153329 0.28665964067942717 0.28279074203783933 0.29305740460929186 0.28844389235691759 0.29097956827007215 0.29756345669092321 0.29522642615731315 0.30228823167950902 0.30402750905028531 0.30761076711973634 0.306380950820899 0.29439028055081495 0.29813747590090312 0.30205170899046474 0.30385132798057612 0.30454703172108633 0.30919111049395831 0.29957653204000845 0.2976904467157192 0.28605123677946626 0.29057268993917618 0.28524505850860593 0.28220902425809413 0.27962010033730722 0.2810682449127343 0.28325001168375602 0.2848675954483435 0.28986634045199089 0.29341539523954596 0.29841434545093692 0.30380697789233291 0.30880539021930314 0.3179323762482924 0.31293332056871281 0.32309150578503609 0.33543507700098146 0.34043460383965818 0.33469300167422406 0.34062183974157034 0.33241064567254736 0.33555069382462971 0.32844825824683688 0.3317534173128619 0.32809072625968994 0.32187523744884933 0.3173960208546861 0.31247315210208482 0.31591685839913974 0.32023409540932812 0.32399370274017303 0.32566322572891637 0.31854288962266786 0.32223773136164169 0.31533590008317774 0.31222514139860752 0.31609946682395451 0.31100229343696256 0.31240976742059062 0.32076795673278907 0.32432366290710241 0.32823210342621278 0.33395768114734287 0.33324740907151906 0.32906367197017528 0.34101920069740937 0.33774336792588172 0.3377516277187661 0.34264814339600569 0.34620254840058406 0.34775646027524748 0.34394784694528235 0.35097280749348542 0.35101252311000747 0.36114052882264214 0.36663128020498725 0.37100234340187976 0.37090014848391961 0.36773421968333581 0.35551792803455701 0.3635492316937402 0.36029740525408099 0.36350772000980058 0.35865375597208182 0.37209466187837259 0.36841664005395525 0.36733655723497161 0.35293911178518961 0.35589178930022725 0.34562517033376283 0.34113728350681999 0.34396642671007632 0.34785394393501368 0.34467881887098695 0.34967881572939841 0.35342618485945976 0.3584261802865461 0.36341664234778376 0.37344116915770237 0.32461756964500321 0.32999186392417057 0.33172085713756982 0.32776684492827457 0.33450719106512322 0.33904461938678454 0.33515222282138274 0.34122847128030409 0.33955553477732597 0.33585039675602024 0.33085085388766461 0.32746080298833896 0.32947513210736246 0.32899798248945283 0.32139117966427405 0.32537655859563869 0.32246161543083374 0.31388654172053465 0.31888567592095513 0.31085669639897162 0.31535130761657704 0.31697918229376421 0.31928547623280434 0.32594575684707799 0.32266195205810388 0.31159268855897049 0.31658316526997876 0.31169202470059643 0.31606987458638963 0.31954128557369499 0.32362431850730128 0.32248874301026231 0.318600087901874 0.31544652900237991 0.31076061493571711 0.31531924647135601 0.32027769941235218 0.3245731359166581 0.32756819165373829 0.33242139287327221 0.33340870451016447 0.32884941575838955 0.33679835394071911 0.34192541267763865 0.33661834287693981 0.33106018766919643 0.32687562472406989 0.3326664563442262 0.32714394987352946 0.3372969524463737 0.33987792446018605 0.34025293074511059 0.33692583967785578 0.34030314155501695 0.34353096336306121 0.34746344829763937 0.34402067554796667 0.34657240171167941 0.35540263706715569 0.35180425182803499 0.34481188660094003 0.3546771604841491 0.34965803901878922 0.35565911450423099 0.35064920868418203 0.36031171773378129 0.36994640758509062 0.36517469730094987 0.37196700106970743 0.36207617634696654 0.35846352399334225 0.36306401713486952 0.35870835729298317 0.36481575398543253 0.36601143011560161 0.36845967678287495 0.37155638909148536 0.37043504265880722 0.37231595269764384 0.36790018936248425 0.36616690672378943 0.36941371141670709 0.36424843171363552 0.36049514210360867 0.34928906681135913 0.35292566473695214 0.35610333094481617 0.35066672017614747 0.34423423186752022 0.34400044640705851 0.34950374632539927 0.34450386253587606 0.34577548696557259 0.35059542392983678 0.35546197887569975 0.35364185248781499 0.3641118330497804 0.35864184948829297 0.35920115157531363 0.36397408841704654 0.36911182805488929 0.37358752481770963 0.37858752042300364 0.37962861579812113 0.37880270505292457 0.38493271609365642 0.38944326078144342 0.38444326823300679 0.37744356349199826 0.37429919540775375 0.37406776968043332 0.37651247598216303 0.38554629900692994 0.38544952695747053 0.38078188258319301 0.3822001854317697 0.39129822348358889 0.39053403374198103 0.39440117292079202 0.3938193418119626 0.40146870693654252 0.40101508083557746 0.39585162881743896 0.39835306473522042 0.39363142948310004 0.39016462694448484 0.39987705106312943 0.39739060749051897 0.40397232586797172 0.40324081641441112 0.39863142705076543 0.41140038931484435 0.40824081409267621 0.41481947235662098 0.41981947291473909 0.41557334438320226 0.40494901882262613 0.40842818390086938 0.40946769802731825 0.40526774575735586 0.41414666516785181 0.41139224582325284 0.41783512524069588 0.42648905240465779 0.42216018340045736 0.42525681071230503 0.4336686220237207 0.43258849152518647 0.42805027390022338 0.43408820112126817 0.43199440179587245 0.42870637341606327 0.42370637301596858 0.4204344448725002 0.42403457900345315 0.4248199152301767 0.42875600579735573 0.42918879835437013 0.42863073108376137 0.43142650592204429 0.42934832555383839 0.42181641104576384 0.42276508549092934 0.42507935939037556 0.42539286629948236 0.41818934349206227 0.41432846091379116 0.41805425905337396 0.40492281208470365 0.4045011849607319 0.40971977113580921 0.40879044570716982 0.41355137454278917 0.41970135352809612 0.41491744960772714 0.40417261287667239 0.40967727024702394 0.40083173146098283 0.39622525489665317 0.39582445942885064 0.39101505557602034 0.39206817999921428 0.40000754053725152 0.3994119690644185 0.39132443482101753 0.39457409300744267 0.38530486497816413 0.3872367736226644 0.38240681046678654 0.38559749924795833 0.3820061293614066 0.37767061258722934 0.37482144472495343 0.37846359012094705 0.38140052293601873 0.38729048863740229 0.38633419506949385 0.38071310043267204 0.37517389450862193 0.37702105424665477 0.37485533673816462 0.37783437698980382 0.38815524346378472 0.38335167487819166 0.3835189886300957 0.37481420746487371 0.37903059278817097 0.37844116560616953 0.3760199292387163 0.38485982141760344 0.3822238773078363 0.37980166370346652 0.39200065063700362 0.38834981819811926 0.38789802868538814 0.39905979630785737 0.40088778694301413 0.39644090336028381 0.40122779414214838 0.39705014689938184 0.40119289092179089 0.39949727769204546 0.39483323480526605 0.39005539264566047 0.39357656483503856 0.3861088162294069 0.39405979747175646 0.39110881492792859 0.40337733815840793 0.4120738127184298 0.42102107694410718 0.4160210768738794 0.42433581665339171 0.42933581688911215 0.43365714606299904 0.41518910528230646 0.41997374511534258 0.40362509006137492 0.41141366509591254 0.4072425837026229 0.40941130672016113 0.40586060920221556 0.40533759030072652 0.40837733522354375 0.41465248779765213 0.41820934375592911 0.41339686716563501 0.42274278712074792 0.42679812547401336 0.41830776337867137 0.42195528253569475 0.42550808340481405 0.43057019425580889 0.43369730819674601 0.4350839243921843 0.4301386923266648 0.42617079327319213 0.42141481678991422 0.42579187536972685 0.4319115908076952 0.4405153681643984 0.43683870806541902 0.44890155687929079 0.44513853593533159 0.4480395390223933 0.45130089736133705 0.43892017858827065 0.44312105348573694 0.43818645725015232 0.44123456550493267 0.44648043137128712 0.44798195901562299 0.44425406663975142 0.45202128006137654 0.45019944355150626 0.46019432611044747 0.46275133864977686 0.45742306978253772 0.46240828163676956 0.46167483580877389 0.46316204570714259 0.45482643847209092 0.45382331896915384 0.45375118706676304 0.45766255140051421 0.45865342725891034 0.44297978188200998 0.43865706894517142 0.44797925647832171 0.45163436980624566 0.45663358190958458 0.46428917171210404 0.46928879415398539 0.47393953522987842 0.48504288155772141 0.49004284701183515 0.49339363819324067 0.48182758766214756 0.47877047685485302 0.47611903347978651 0.46689229364252993 0.46726719258498395 0.47059862675743025 0.47309594671981642 0.47293874438526756 0.46697935914805638 0.48114157370501914 0.47893935149218869 0.47729353336584251 0.4771368931592827 0.48695718091572937 0.49314102310320312 0.49152897444889337 0.49703268018689678 0.49140562544860461 0.4959457601101569 0.48686887251701716 0.48456070784616639 0.48797213259862349 0.49145999254634198 0.4960745368540444 0.49225569760728721 0.49613150061180356 0.49611749285935769 0.49065829817594064 0.48614675482550013 0.48335215450191987 0.48658800579432981 0.47772752983155498 0.4760565198891451 0.48236767024726324 0.47211568313470825 0.46777735522951364 0.47039876850439799 0.47381501072705506 0.46753851003712898 0.47169580957920254 0.47463351541214827 0.47844973170427785 0.47656302651011861 0.48088056715924943 0.48294221576350421 0.48677885803861287 0.49077348130424575 0.49428648436376221 0.49610301006484481 0.49514209185141211 0.49207775500643508 0.4940005815925676 0.48999569398490894 0.48590128949606232 0.48097831639079447 0.48870794808093149 0.4845958400528329 0.4935692543959499 0.49856925366083998 0.49410722808156199 0.49828318839622637 0.48976840440581809 0.48862066084502054 0.48450751774602224 0.48857082606859786 0.48357082606771107 0.47877884070684751 0.47919354857458496 0.47484385327523471 0.46949417992328579 0.46765511175203889 0.47377884131546089 0.47748328376532412 0.47184110789898626 0.46757228200208911 0.46804091358501665 0.4730397143222988 0.46367423409500752 0.46042595328056896 0.45877306095361764 0.45167432614396896 0.45447319315235568 0.46265511227829037 0.46510456478683831 0.45553107953061994 0.45797628592020662 0.45297628668290213 0.44784587354756533 0.45027018833890586 0.43887503147096396 0.43371630541769113 0.43908820106992807 0.44408820037430613 0.44520919843717999 0.44750113486825444 0.44958967666451577 0.44463007038290892 0.43727589046684306 0.43958877150259795 0.44251477108074283 0.43797787746928607 0.43499214174212669 0.43825858614042784 0.4417941730442283 0.44554674308089542 0.45041045579232414 0.4453194397639143 0.43816033161466095 0.43945306878765061 0.43351100795123243 0.43400504939714857 0.43838070131859014 0.44854839249369421 0.44425330336478208 0.44855530330546101 0.45311118655856075 0.45693523693930271 0.453170958360265 0.45804758404228701 0.46585756708311188 0.46174721664221235 0.46361454139893216 0.46150021698904004 0.45678409809745341 0.45351314453892477 0.45914825945407034 0.72277775585300397 0.71913590010253725 0.72777775484591545 0.73653829547606409 0.7395419154084335 0.73153829699820849 0.74223951963407686 0.74723951974553193 0.74157928208939905 0.74118315659408673 0.74619259005953831 0.74121427905587245 0.73640842209014579 0.73661843723468245 0.73356257689200099 0.74658548953921611 0.74160718051409713 0.74502168939040936 0.73721989492746109 0.72798569330185403 0.72700363620983721 0.73200989905012781 0.73021647647171561 0.71821650822059036 0.72176096257974698 0.7198197357943017 0.72397410715132315 0.72980701680787829 0.72484131412128339 0.72639210532219423 0.72170126001971235 0.71698467299586965 0.71664496010270651 0.70661543320645992 0.71290561752361614 0.71114182722976271 0.70340776524228665 0.71592283541083268 0.71062148754446508 0.71366700750810774 0.70823625605694462 0.70356382289455333 0.70085216348950508 0.70611173344368561 0.69220899186468499 0.69749940784310038 0.69196024151590763 0.69374761528256212 0.68803398426702778 0.68860409381538723 0.69960700641790652 0.69400324253253209 0.69852226159858 0.68844063620384266 0.6870210333150315 0.68791551043314947 0.68965710273120417 0.6946571011196655 0.69837298038487039 0.71413590265236548 0.71036486379756703 0.70680309147054832 0.70180310140768931 0.71969075225031587 0.72347506811798135 0.72472470194684135 0.73015869123549137 0.72847506740808865 0.73660325201951837 0.73678960443455144 0.73178960754403399 0.74223952003126958 0.7472395202162383 0.74177054401754261 0.74169002572782772 0.73294901150108427 0.73653862508268975 0.73580530371079944 0.74619259238710278 0.74121428544280776 0.74502169341309776 0.74148776976251141 0.73228475243868385 0.72972272302800689 0.72502295952685181 0.71891767195561451 0.72039282402098825 0.72424794348820631 0.72167648538034102 0.72047672145107955 0.72506094555074996 0.72897842773474153 0.72482953120158045 0.72913733027652583 0.72822681659194943 0.73696313565599114 0.73734371789712061 0.74646607542153909 0.74112261105021626 0.74465653086020689 0.73312795675078779 0.73445544665206397 0.73941397319902569 0.74475743827796781 0.74134292327310525 0.7368147116066619 0.73160380795202395 0.72783654563461686 0.72349768993447683 0.71940158420907707 0.72267466819049564 0.7118260048978029 0.71536064905954344 0.71109393329508364 0.70752993459617508 0.7032953478161299 0.7033211224161976 0.70823035997459827 0.69603538260039022 0.70042941911623202 0.6929717329732944 0.68854251037917402 0.68618621482615083 0.69876671932612577 0.69549079141222792 0.69892323355025954 0.69475358449336055 0.69164789711243979 0.68666821880403206 0.68928920399500515 0.68496284031829735 0.69398470437461013 0.70283393730989019 0.70752777238002673 0.70711135087260701 0.71582877608974571 0.71137435179224695 0.71189404302178727 0.71701178590163384 0.71544592791843553 0.71135226330566359 0.71572254892048659 0.70204981850820625 0.70751683290593637 0.70057472746006544 0.69634701936785681 0.68832309720407725 0.69242147113443719 0.68813656056270855 0.69260507202396715 0.6964238856212831 0.69974352321573807 0.69471479096032773 0.68675900978085602 0.68932497422459404 0.68728477969562851 0.69252716985629137 0.69752708803705676 0.70681179592945076 0.70181183008816439 0.70470050115446481 0.70952876290886291 0.71342400972522013 0.71160687572922865 0.71660687345045981 0.65792436581103164 0.66110152238621822 0.66526369377921668 0.66963905120286027 0.66463905099877751 0.67407057012852034 0.68228481283885434 0.67907053852442545 0.67401129093782797 0.67025629396097386 0.67811859826834686 0.67276965156821045 0.68424753871116351 0.68264306085914828 0.6833699932560221 0.67997984425658642 0.67596365148153748 0.66918243272808486 0.66591273844031729 0.66926384166660013 0.66228507875458509 0.65428411098765338 0.65803193925802794 0.65683944464857635 0.66158378409210272 0.65417885899743178 0.66014169561434555 0.65481778017892178 0.66494142231425102 0.67047311557083988 0.67639160803988085 0.68029977148379572 0.67851774467528148 0.68318470278536925 0.67518391554265111 0.67011168322056225 0.6751222659749867 0.67856126552589169 0.6829573340619387 0.68004055947370368 0.68258844873996294 0.67651979648164406 0.6730983042368458 0.66516319166935289 0.66869015602436122 0.66456272601669275 0.65956188353666656 0.65677920890598596 0.66197988519848205 0.65059184553283422 0.64757335834251961 0.65415032560159536 0.64536837735362818 0.64996749270644183 0.64058114843730585 0.64110013865788162 0.64424212227378952 0.63322533659895042 0.63679985053701882 0.63366581429721869 0.62553868729539519 0.62317689128699683 0.62882202219149685 0.62679664144743619 0.63618092200038356 0.63101553335304406 0.63246136660886176 0.62761547909861171 0.62261727549760171 0.62352417918885983 0.63516091754340931 0.63709975516687223 0.64080754687987129 0.65032441028927224 0.64454415977275981 0.6488851387334913 0.64508657939379221 0.64913677710208595 0.65223842349614281 0.65052932906541661 0.64405943778860375 0.64115241143770163 0.64214942367115824 0.64528770466796037 0.63209598395123845 0.6239868170402082 0.62828086248883463 0.62339021784765936 0.62643993201683879 0.63577242014136226 0.63547612926972796 0.63098605619172254 0.63548687459553466 0.63312270778565449 0.62871957587324978 0.62654069815670299 0.63090796257077808 0.63590796043674191 0.64008457558843213 0.64508457129631869 0.63905637376133717 0.63989802735448453 0.65347812844519892 0.64734271626246742 0.64991386298304588 0.64863166320908427 0.65292436588052372 0.6625687622949038 0.65836948117679805 0.6731022562853598 0.68465710255559409 0.67778891750717296 0.67810225027261084 0.68234810815633407 0.68377588243154697 0.67457316424843661 0.67377239190546701 0.68002859713105024 0.68369199789744273 0.67895808091284182 0.68335894154096111 0.67024840660939455 0.66926773814136387 0.67274907831388719 0.67663051330336055 0.66893369900538824 0.66635638184755808 0.65980482875510038 0.66143462090189975 0.65808410451381105 0.6684958869765949 0.66756874703732616 0.66388305440304596 0.66514305821823161 0.65605746235814244 0.65979785681684322 0.65468302960464864 0.6494097349428507 0.6518790381069729 0.64592469209253156 0.64151159210974251 0.65048891177522972 0.65433591348618347 0.6472231211310342 0.64360982937254019 0.6387581205842533 0.64746504871612454 0.64305310545863759 0.63667710174570336 0.63910437934066278 0.63337329322129532 0.63401270289459544 0.62489813924849913 0.62443393650553092 0.62785651256921038 0.62877091426190324 0.63322272953956127 0.6372490120152936 0.63177228194674684 0.62875422170983342 0.62700825263286664 0.6288025298784985 0.62322256062137671 0.62822245326490911 0.63398117285346045 0.63898111882243991 0.64280964612333735 0.65336947981396132 0.64780964513668338 0.59238950050777794 0.59738946498526924 0.60324531281481364 0.60824528654082888 0.61217281742586804 0.61717276945070343 0.6172006686461089 0.6226285820643315