<?xml version="1.0"?>
<VTKFile type="UnstructuredGrid" version="0.1" byte_order="LittleEndian">
<UnstructuredGrid>
<Piece NumberOfPoints="714" NumberOfCells="1306">
<Points>
<DataArray type="Float64" NumberOfComponents="3" format="ascii">
0 0 0 0.099999999999928008 0 0 0.082799035591426873 0.082799035591510806 0 0 0.10000000000041601 0 0.066361468125430589 0.15903440181097661 0 0 0.20000000000083221 0 0 0.30000000000124832 0 0.089078158003765312 0.2493007687782936 0 0.140351188660986 0.16130415108589741 0 0.21725788110387281 0.17316968768743621 0 0.17318221359491059 0.27409688392309489 0 0.24783073444672249 0.24783073444648379 0 0.29145143692666958 0.13500804559578439 0 0.20669143849501961 0.085546078947938975 0 0.19999999999983389 0 0 0.29999999999973409 0 0 0.35933948296838258 0.073809900849860513 0 0.43504744109702559 0.077628892606360606 0 0.39999999999966429 0 0 0.49999999999959438 0 0 0.59999999999951659 0 0 0.57505385014294308 0.072457888465917331 0 0.50264032148191051 0.12292784096123539 0 0.49255105193724569 0.22337579986912359 0 0.5565830077206213 0.19095699352548859 0 0.58612580217118482 0.27813894450229909 0 0.41589935411558732 0.26752529264016389 0 0.40428440976105728 0.1643886070295453 0 0.33604819894646598 0.23280286076243209 0 0.34318159319555042 0.3314386771104964 0 0.38593969585746768 0.44843324941957241 0 0.42544665781957403 0.3726599289372452 0 0.49272830291620878 0.32528628960011152 0 0.56509579243166053 0.39588847936247551 0 0.47711113382803011 0.43513410852522788 0 0.55763912874459476 0.49619993861770217 0 0.56379254693201075 0.58472273515948836 0 0.46433624429412901 0.61260020600107856 0 0.45232393232070839 0.53082724112931345 0 0.34793494568226019 0.52426775179830853 0 0.38240158409674341 0.60644575028138747 0 0.27661118526457179 0.58730386222759956 0 0.16324260003398389 0.62262730759772122 0 0.1946526892501724 0.54636184660733622 0 0.27220668248394869 0.50912429725145214 0 0.29987747321592639 0.43430880093746571 0 0.2371857680100064 0.35865548441110112 0 0.16486701364709541 0.41592657376307979 0 0.21928696632013719 0.4676461135047027 0 0.083393126324559225 0.42307471369029392 0 0.13897501191807771 0.34545639364066222 0 0.0632094674441709 0.3449112819864934 0 0 0.40000000000166441 0 0 0.50000000000205869 0 0.12353277228144981 0.51086097771927308 0 0.070553891733833127 0.57745844360881338 0 0 0.60000000000138687 0 0 0.7000000000006934 0 0.089684836063650353 0.74720097194875412 0 0.079752623936563252 0.65630726580969023 0 0.25446499951716589 0.69023946426646743 0 0.22047232289835689 0.77501739045979867 0 0.16551550920047911 0.70947866912672319 0 0.29792158491427922 0.79537096033156995 0 0.2235202862591317 0.88873896332704583 0 0.1332109546178302 0.87498377138822103 0 0.1533088418661793 0.80370257472597129 0 0.074918724681641777 0.83311952320732263 0 0 0.79999999999999982 0 0 0.89999999999958358 0 0.075231054453351903 0.92314074346405706 0 0 1 0 0.14716362552681639 0.93861610753355362 0 0.099999999999999645 1 0 0.19999999999999929 1 0 0.30000000000000071 1 0 0.39999999999999952 1 0 0.49999999999999911 1 0 0.59999999999999964 1 0 0.5499999999999996 0.93976792513729512 0 0.56701461556202259 0.86335846433862784 0 0.62017612851329729 0.81451802170669263 0 0.51076728641122882 0.81691863363193817 0 0.45907587517201498 0.90165918271477563 0 0.37337282601342481 0.92616598444216514 0 0.31535921456193688 0.88154045330654418 0 0.36912581253574028 0.83088590731704637 0 0.43819239467549531 0.79296936871720936 0 0.33985912385126898 0.73174041004507751 0 0.32437633398017029 0.65970549827478953 0 0.42824324229177341 0.6924957961634054 0 0.5174764925733939 0.65338828204098198 0 0.52912171753951986 0.73993242892488531 0 0.62152629835360762 0.73285157302339954 0 0.59670004617370476 0.65981579440137683 0 0.6754414170471299 0.67700559910555169 0 0.69085763855200755 0.76120667115691065 0 0.74547688787239819 0.70026419381674654 0 0.81910554849723838 0.69100245438023977 0 0.90192269692920224 0.70295054578552552 0 0.84477163403336131 0.77519844632340484 0 0.91372311269140116 0.80486176357476358 0 0.93540888248908083 0.88281232945237675 0 0.8793859710393791 0.93083561064221121 0 0.82192606283926717 0.87651855948129354 0 0.73937541854631073 0.9288754054780668 0 0.76404828705430583 0.78174230667165401 0 0.71722872346306721 0.85096302760907838 0 0.64588148000090029 0.91512139508160772 0 0.70000000000000018 1 0 0.79999999999999982 1 0 0.89999999999999947 1 0 0.94997493298435887 0.94717135651053852 0 0.99999999999999911 1 0 1.1000000000000001 1 0 1.1999999999999991 1 0 1.246238897717278 0.90016207822659 0 1.2104878010462079 0.79638517641579154 0 1.130022579458912 0.80264790230838934 0 1.1492841477515361 0.89495863909300122 0 1.035017143854235 0.92577305964649748 0 1.039491394416145 0.83402983011495258 0 1.0785590511537511 0.75365885686631617 0 0.98491966670915287 0.745702719141624 0 0.9749171938312049 0.68304286407835557 0 1.05 0.67063679245255348 0 1.1595355377629719 0.69612720023346242 0 1.2316049928421089 0.71268197388690568 0 1.160572984923127 0.60155304747043781 0 1.1544259370261769 0.49580194535795907 0 1.2482752740169289 0.44264463249545388 0 1.1787318575418491 0.43180077319900678 0 1.193211192060164 0.36417169501775798 0 1.11366617971111 0.39530889117858181 0 1.049999999998295 0.45311778235774403 0 1.0499999999982661 0.33749999999944968 0 0.97284972811175952 0.32057650487681749 0 0.97803218086495292 0.39957666910545891 0 0.95438428234324713 0.50021891445525024 0 1.0610070115193291 0.56187728740506249 0 0.95554667482020261 0.61387123313571723 0 0.89730215834238125 0.56352362508531118 0 0.82099888937423493 0.54529350322201742 0 0.85383906663538056 0.62014574817393608 0 0.74991769371388628 0.60451627361984739 0 0.65500944633069913 0.60601350811213128 0 0.66278242936710119 0.53985356489900171 0 0.74775703275407246 0.49059679564787018 0 0.71094001953927277 0.41472992215547572 0 0.64897033023755402 0.45530630145656431 0 0.65823561246403328 0.35502292901158627 0 0.83603391221093415 0.31708941802047369 0 0.79315209058920677 0.38802315963964318 0 0.84897848255088726 0.46000674997733482 0 0.9184189969982266 0.43608586792060411 0 0.89716106756302072 0.36571612550017968 0 0.91043121937362004 0.26518856856736223 0 0.8520969719592798 0.19112077159544111 0 0.81051762114363357 0.25355176211442859 0 0.7545004114404561 0.31098089234202853 0 0.68811979868824935 0.26566684131589419 0 0.64669101990832323 0.1799054750174742 0 0.75284581776561577 0.20455093921856349 0 0.75434135135171976 0.12888799631625769 0 0.66267222434682926 0.078497159578092612 0 0.69999999999928797 0 0 0.73796379772146625 0.059893436010741673 0 0.79999999999899607 0 0 0.8072276847200428 0.07509171132446453 0 0.87151744524583186 0.1145610820769897 0 0.89999999999870417 0 0 0.99999999999841238 0 0 1.0527907183502181 0.1005001786211816 0 0.95940036225003311 0.0802667348803804 0 0.96758455917765662 0.17206502793490561 0 1.0273907165533489 0.25089655084417212 0 1.0673059847957449 0.1861726764986896 0 1.14543293599463 0.16096823716187 0 1.1317936052402791 0.27327200211975772 0 1.2189485028845071 0.28846717556219142 0 1.225209211892335 0.20648826945283069 0 1.09999999999812 0 0 1.1494214575391031 0.075340014825429069 0 1.199999999997829 0 0 1.2999999999975369 0 0 1.254652873386052 0.105753482544517 0 1.3681535985071449 0.13698083382674339 0 1.349999999997392 0.060567969661089648 0 1.399999999997245 0 0 1.4999999999969531 0 0 1.542152768646126 0.073248247890105089 0 1.53341268746562 0.14194251306413061 0 1.456639397274391 0.1016053838939758 0 1.4156792278190771 0.19574754335211339 0 1.4905184776249101 0.20629734327603311 0 1.545236949037224 0.29434567071731399 0 1.473286192129879 0.27883707652097373 0 1.3878996413210389 0.26723502210068018 0 1.316869459340541 0.18778020585802921 0 1.291408388555241 0.26372433042992383 0 1.2615469736996101 0.34090999671933891 0 1.347125314110625 0.32447518420453242 0 1.385017785528226 0.40713366384701549 0 1.3198129865007471 0.39133224900025881 0 1.2709684905841181 0.55537862536316829 0 1.3860523322451299 0.56073196187600105 0 1.3462106466432811 0.48060664220838062 0 1.4795754400412069 0.53983964974648579 0 1.445918816848357 0.6075709531782556 0 1.5386621965636409 0.60828218080060537 0 1.550364457075788 0.50467902559054656 0 1.551956040519719 0.40384519109247291 0 1.4491802319415681 0.4666714614197911 0 1.4507225717793131 0.3561247496431208 0 1.6419306970571019 0.3436055112169133 0 1.645895854313963 0.45222881216869149 0 1.645263810758179 0.55814977621663464 0 1.7537858687071439 0.50406839622489796 0 1.742806034420483 0.6006074591026016 0 1.8544400981153091 0.62488101477716596 0 1.8316048184152021 0.54157006606434721 0 1.850967139686138 0.45738417241574703 0 1.7808296409871709 0.43587276890434401 0 1.71976181471802 0.39635806210359681 0 1.787749129254824 0.36176402170097799 0 1.8620515405159661 0.32644761881501039 0 1.799219293849516 0.26438879273789773 0 1.8480644103363271 0.19193194889233381 0 1.7304700827703301 0.17386188770806579 0 1.714493154391862 0.28897291620938281 0 1.6351951680630969 0.23707571199064051 0 1.567491488875842 0.20218805454405439 0 1.6799832100487111 0.082202015566833181 0 1.609545399082946 0.1308291592921435 0 1.599999999996661 0 0 1.6999999999963691 0 0 1.75369588639865 0.074917217572982864 0 1.8299024103288899 0.1151394713368583 0 1.799999999996077 0 0 1.8999999999957851 0 0 1.894432874635162 0.07551835003504323 0 1.9999999999955109 0 0 1.9480526939991849 0.12898730409406539 0 1.949071218763063 0.20551835056699769 0 1.889482378851052 0.25355176211435237 0 1.9370762551310139 0.30659376302738528 0 2.0131266155023031 0.26735551396116869 0 2.0579369465445829 0.18492358211896681 0 2.109175777466048 0.28747319291998968 0 2.1529249143000921 0.20760117016104621 0 2.145863811971962 0.09449602309195497 0 2.0499999999955518 0.089783354580979427 0 2.0999999999955929 0 0 2.1999999999957449 0 0 2.2631085279260659 0.078835433122263737 0 2.2171573042311432 0.14903409558359759 0 2.2999999999958969 0 0 2.3999999999960488 0 0 2.
[...]
<CellData Scalars="A_conc,As-lin_conc,B_conc,Bs-lang_conc,C_conc,Cs-freund_conc," Vectors="" Tensors="">
<DataArray type="Float64" Name="A_conc" format="ascii">
0.0001282961032542635 8.3361235420351904e-05 0.0001999547617078748 0.00021033502207156159 0.00014977677383743186 0.00010238901664298522 7.2347268986388776e-05 0.00010107019321312639 6.0985567991906275e-05 9.0240524248711828e-05 0.0001898623201673881 0.00021064961603711805 0.00014741528621693061 0.00041900970922695014 0.00029865807282204856 0.00041534547753604084 0.00086739667286079517 0.00059605221654981954 0.00076010600883271438 0.00048577013659210699 0.00035271410140148043 0.00032806054528625953 0.00049174317128326003 0.00072312136458862434 0.0010050653766992192 0.0012826282397270642 0.0012643528183164626 0.0017625456978007156 0.0022710306479378933 0.0022872407537123333 0.0017928073358527386 0.0030941687332963382 0.003773082630261524 0.0048316995438186247 0.0062429086626938262 0.0052135953784236159 0.0043659377301061408 0.0044063268331589293 0.0036718513022089049 0.0054110393347080663 0.0032798222226059276 0.002585972407188681 0.0020791342757578027 0.002782543972874914 0.0016079106859850632 0.0010640182161024837 0.0012071220455956288 0.001441727012033535 0.0010736215056560507 0.0019625974137291464 0.0026583656048863695 0.0020707122337806439 0.0015835008500351918 0.0032215918086687988 0.005257559167172042 0.0041565108774944482 0.0050898404879940228 0.0065030429841801268 0.0040158221471227624 0.0029259623928637271 0.0036448247133677044 0.0048946055504108833 0.0062794482578341394 0.0055437916035652257 0.002671439602133203 0.0035784692329069766 0.0014476930491278033 0.0020618352152180237 0.0016048238858346639 0.0022212547296502857 0.0011478994134808938 0.00099310285372796511 0.0010268503486880001 0.00054569045680986916 0.00034854839097116035 0.00026115858020223537 0.00032742465895754477 0.00046537499417239779 0.00067560418744659666 0.00074988805010737744 0.00088667275402903693 0.00053621310536615418 0.00075226346347548193 0.00056399981781180995 0.00028379750179417871 0.00025648560993711604 0.00040779285593859976 0.00026336409904201567 0.00018299072948516017 0.00017450006633545033 0.00013184395654985726 0.00012024751345151933 8.1094321352199198e-05 6.0537975534182853e-05 6.6049865157687763e-05 0.00010701852962730223 0.00010287471618233946 0.00013372373143972675 0.00018319316753048938 9.264929350316257e-05 6.977524073645337e-05 6.3854700884978015e-05 0.00010060496621833277 6.2047202008451522e-05 0.00021424824813358472 0.00015168528412722973 0.00022553088982354294 0.00032803927223218755 0.00049474943483115801 0.00074512259757291961 0.00086935348834010122 0.00058602528775007811 0.00077542810247113053 0.00041805984311756484 0.00029731329314242511 0.00024201001065503363 0.00034424744387744522 0.00064665963600509164 0.00046310709133480564 0.00075126053140403407 0.00024335131723579785 0.00017692809836468903 0.00013151776006032275 0.00014077943114263852 0.00017376339254326605 9.4552802379468151e-05 6.2567902915239645e-05 9.067086700578643e-05 0.00011141213376411796 7.3567087557075585e-05 0.00017490546087408287 0.00025436659510038445 0.00038604933701645502 0.00051108191896790745 0.0014078696842141749 0.0019599181260521398 0.0024708438265025005 0.0033307910912847051 0.005880035505394815 0.0045261658007468399 0.0046629612858611422 0.0059382455343537375 0.0040095327128919171 0.004493273362443052 0.0031830553930788227 0.0025706648675419899 0.0035357533525814874 0.0031763880416918254 0.0014892939992089738 0.0010537157945180624 0.0012120656804443218 0.00138359899203129 0.00091455066528580938 0.0011037210162139176 0.0020069378256155979 0.0017147174271574463 0.0023196922980580669 0.0011594959727811783 0.0015140471852555471 0.0020274428413547575 0.0026582493420019438 0.0030459532964845462 0.0054002352093456621 0.0050401000992490522 0.0045051865715960687 0.0040142225616126535 0.0069847250880104017 0.0083477216260392298 0.0064110307298973056 0.0079075264314197834 0.0068348103908329946 0.009205630280875907 0.010820019298581859 0.012513139588758434 0.01197833993457465 0.010288026572100329 0.014033437550341319 0.017300078257884072 0.019738076705651808 0.021872442021677017 0.019616624393812315 0.016774257837039619 0.01434581529846166 0.014104596967823362 0.018375411769283839 0.016380053080995487 0.017800408044104463 0.021657117694673721 0.015984531864557013 0.013898433261499588 0.010825004721908508 0.011800969425466146 0.010003921929671769 0.008221502239840521 0.0070228421983460484 0.0088891675011913696 0.0072291060021072804 0.0091105523964945413 0.0113726703894483 0.018244978880927472 0.021543509803958041 0.024593024699059756 0.028399125180056238 0.031429157362428246 0.035626372891543974 0.039997566278655167 0.049204808846087161 0.043517882057061183 0.044528330736469932 0.047927301171510998 0.040040776011682502 0.035773685485848632 0.031009305951753816 0.026981568991690068 0.024063173410258924 0.025231116784266636 0.02206628985390241 0.033398542349046351 0.029391269005290745 0.029396731706810529 0.023968309729706486 0.026847128751195007 0.023102199853413965 0.025763575452983335 0.038011238058274319 0.033127146053840123 0.040085803326625334 0.037191713187433278 0.04388676481232652 0.046824383344005224 0.042910607640569733 0.046928855926541405 0.047851462308857305 0.041617699567804242 0.037306613532262639 0.045957842765851797 0.042323566902258893 0.044506682451131312 0.047397735972852635 0.046345264267530564 0.035526473260661558 0.038708519926448512 0.035788551047136144 0.041164692951544637 0.0396243446282123 0.032922400694798015 0.029930263371323807 0.023522109850485973 0.026489102033384011 0.0259087878433766 0.023975384174800083 0.032459781597598131 0.028404360991413042 0.029239342877292431 0.033324399116728319 0.024750427297127803 0.019053453771795844 0.022636229396536364 0.019077571815866549 0.016920451245589978 0.014278308427459981 0.013673252520407589 0.016404464830672351 0.0064501877833992556 0.0080879460640253427 0.0079680191808671804 0.012070011553465831 0.010055609594907354 0.011441579132767294 0.0095676915135686144 0.0080976683758861717 0.010855677353803174 0.0091200265108488839 0.013030876442759527 0.015353217823055838 0.016294841105679646 0.013245432411815378 0.019207902543491754 0.021019229916539595 0.021218765154494577 0.02124142430661765 0.018941115605880431 0.018141295645626145 0.020607963359388824 0.012244412607234644 0.014982962068308748 0.01766318398620326 0.015768906850779675 0.013528554735659252 0.011013525550077265 0.012654439968223888 0.0067018073143315822 0.0066114939623229813 0.0083665588095672774 0.0086560421996113197 0.0098072910412177229 0.012648570024695559 0.010721639706086571 0.0082318280808465726 0.0066454442965432981 0.0076455199545739927 0.0095888618768717581 0.011202420266146561 0.015588282968792281 0.013687055388478407 0.014812591801410068 0.014604901589870982 0.022154133194386839 0.021061335902766751 0.018603298603478455 0.028372613612600503 0.024588536342162081 0.031700250909144238 0.029153640409574796 0.033124455966897393 0.025449515607014344 0.024249161923770572 0.023935269904156217 0.02794374516781133 0.030886372660232076 0.033580062997346158 0.02914542483883116 0.037366442338537732 0.040711131770606715 0.042405637941426474 0.044009027820647861 0.048117536319954315 0.045468528758114135 0.040542951889997313 0.036346139694027349 0.040687820772897683 0.035892031783662098 0.045223948141208545 0.05413323474833058 0.049392013329035936 0.055123543706436046 0.054329301486059273 0.060248900030397019 0.064663234383268792 0.059783308427203037 0.068783615271373125 0.073725911536095257 0.078302123529876172 0.074959380999940095 0.079027804603484963 0.072491617864198957 0.065356376318098472 0.069526185063354118 0.068958558866593356 0.076086627521813943 0.076532729061381505 0.073438384570720161 0.070958668504727374 0.066462851027752207 0.065710868845563181 0.05620011136774488 0.057567862708077677 0.060731304415399458 0.060834184547975595 0.049815799343434018 0.052099998932436858 0.052984921174771479 0.049983945646083959 0.053959903829890812 0.060591817707985884 0.062472247718714811 0.057768229512421769 0.057388100415571179 0.060884902538280383 0.053212325805954863 0.050484096339423537 0.050852997310096182 0.052620702874621325 0.056824975613425942 0.0625421294842394 0.056156716472148607 0.061605807215357244 0.066194432795659924 0.067232450802994059 0.075903881236245474 0.071337823181721882 0.070939183959801352 0.074492525020077749 0.066493105623591203 0.069701154625447848 0.075079590674793126 0.079966095273099835 0.093064007255163603 0.089343745331019964 0.093199745572761866 0.079548889603701892 0.084745295992448927 0.083822495278974188 0.079225354426963213 0.084706917370957674 0.094711055422026208 0.089933868742124584 0.088570463365411106 0.099825112556560194 0.10375922368446169 0.10419196875995713 0.10363369774008206 0.10008428681449277 0.097771153123626303 0.10039715320224782 0.096822782689912165 0.10642867288165624 0.10435094280971136 0.10867009416863618 0.10759027338884723 0.1030545082931828 0.1014935084902404 0.10026110399224135 0.097167272181358705 0.089162790981155551 0.084494789268494311 0.080311917495539981 0.079998235081981478 0.083463284068116914 0.086418598088632073 0.092846749599035966 0.090590623960514705 0.083277290524588043 0.086427209631718752 0.089838498758475077 0.09483029560638008 0.10371023714714769 0.098713511065479542 0.095444381476919665 0.099041297176114096 0.10699710397109019 0.10909037916501062 0.11908867732802474 0.1140893174664815 0.12284615792946148 0.12527030243496873 0.10871826860997418 0.1138760545241583 0.11458957257270369 0.11227686054754536 0.11297871365135925 0.11751519892236353 0.12250136547557128 0.12020950135255531 0.12458982894820296 0.11963043381181432 0.1337730817649217 0.12667445117731202 0.12947325286883088 0.13867424160829328 0.13542592134979375 0.14010451176080285 0.13053108945140057 0.12797644691316251 0.13297624960846388 0.13765503570368182 0.14877862628560229 0.14265492826159118 0.14449408844296732 0.15419344502765608 0.14984375257709881 0.15377859392229143 0.15857057931296509 0.16357057855677706 0.16856895399313157 0.1735689518372085 0.16476824764618928 0.17328313507218024 0.16910707019645629 0.16362056622703738 0.15950742577691054 0.15597830136302829 0.16090127401167287 0.16900052828913997 0.16499567632901119 0.17014208303928119 0.16707774817351295 0.1637079419904833 0.15959583530560234 0.15248326810144097 0.14684106805844138 0.14257224991667022 0.14304091139339731 0.14803970893072108 0.1425385123513655 0.14669580799958232 0.14963351215932985 0.15344972841278204 0.15794221215123116 0.15156302382788819 0.15588056374040438 0.16177885297638628 0.17110300268681033 0.16577347529362435 0.16928647790960411 0.16114675177475746 0.16565829886133218 0.17111749278029681 0.17113149590514759 0.16725569420019334 0.16158800354746367 0.15835215104852848 0.15272752387762317 0.15736766768471344 0.15105651857222188 0.14711568276488912 0.14277736162117893 0.1488150037472378 0.14539876488167566 0.14085757024558099 0.13304761275095631 0.12817105131633244 0.13193529496904616 0.12811129724612236 0.13674724131471425 0.13861455410962165 0.13650023772377895 0.13178415451930714 0.13414829667525235 0.12851324576719617 0.1203197733249981 0.12541060953491351 0.11679472485451695 0.12054706170449454 0.11325944647365774 0.10999355580224676 0.11445388937128641 0.11316136175139981 0.10851286822514403 0.12355552456502873 0.1192536785593022 0.12354858649150605 0.11338162619099362 0.10900664647360352 0.11551588567610366 0.11183955288783748 0.1201387969198318 0.12390171198394459 0.12303970625275464 0.12630100050291027 0.11392092459456944 0.11812146650412751 0.11318752049897837 0.11623525936593138 0.1214807193418788 0.12298216646693085 0.11925445252373182 0.12702135667581732 0.12519959394502261 0.1377512517954973 0.13519430775426383 0.13242304788754433 0.13740826519944332 0.1326625700039599 0.12875124915956493 0.1336534605078244 0.12982650042547633 0.12882339010928112 0.13816205752567451 0.13667485231514165 0.14189229640508844 0.14559862078839264 0.1422671586963388 0.15682754694362069 0.15377046088048846 0.15111901888899046 0.15956070247910065 0.16297212695075472 0.17107453061317424 0.16645998633227085 0.16640560009559341 0.17094573505492724 0.16186883032495925 0.16195707170526191 0.16652889903129098 0.17203260620515068 0.1681408648371136 0.15393914739643574 0.15614146469413945 0.15213684749233913 0.15229342586334293 0.14809584530643971 0.14793869600828041 0.14197925577361292 0.1442886598604437 0.14893939152311292 0.16004266832278441 0.16504261363652789 0.16839336770833768 0.13928915205009035 0.13163359440296929 0.12663448303240996 0.12297947620902319 0.11798028727563384 0.11365801940321572 0.087097191557642104 0.091037135573289768 0.096030099936549776 0.099342143148628589 0.10865915571499277 0.10433920868936367 0.10051327329992629 0.093319328354305203 0.096962998777350068 0.097749633837427963 0.10180233088446193 0.10869915783466844 0.10557287372568194 0.11008516631079168 0.10514108641224366 0.106913270750495 0.10079607608640989 0.096421859813392935 0.10117470712046575 0.09020478715884292 0.094982708519621317 0.078680723683175163 0.082278635815683815 0.086436992591663778 0.084440903802029343 0.080903138349495543 0.088416354059388344 0.093220706848709589 0.089669567524928301 0.083411353857343093 0.080382683940661226 0.075958284848724286 0.074145894198335255 0.063133010222193572 0.067164496910094837 0.06357617938544613 0.071549495820727074 0.076295933777342811 0.07626232197158396 0.072153036244061788 0.074580161177877163 0.069962548170322048 0.065255865347950151 0.068716929360145632 0.05886361118372091 0.058704673198234775 0.06338839807099253 0.053396866665314562 0.050554713787094828 0.054528038813609639 0.050503795974806427 0.055265439146784778 0.060160826878630079 0.057604814380330813 0.053955129756048194 0.051639552155916091 0.061390041451293148 0.066288375451145784 0.06919946094149225 0.078434865678897805 0.2723893869338827 0.26738938583355426 0.27824521109621969 0.28717271583856518 0.28324518610500604 0.29220069279949246 0.29217270402337558 0.28730773005407745 0.28307836921196838 0.29762860538790448 0.29601483398488082 0.29297753170122709 0.29556048011956604 0.2906415379408388 0.28558148369658742 0.28889054362282601 0.28356745373937142 0.27960120535978683 0.26996912580194271 0.27471774584248954 0.27143834561023306 0.26963516612988758 0.27454249631240313 0.27794229701615869 0.27839587763047069 0.27337558003615098 0.26114937974617258 0.26288298486267947 0.25348481765700448 0.25405654011327505 0.25763776269628769 0.26593526376333493 0.26776121628419614 0.26040284052160656 0.26496162168228943 0.26509471577374932 0.26117648976588459 0.25666494034438952 0.25069261713550151 0.25265664762963191 0.25653585367281401 0.24642239989823486 0.24717637849643667 0.24778770436443123 0.24364337347048318 0.24282922380941446 0.2382135555365239 0.23601637553430421 0.23729715367487886 0.24119470847599206 0.25079595503353974 0.24927997302640376 0.2460855241091254 0.2495664910780318 0.24263443931801848 0.23659481295554796 0.23956650573653904 0.24456649332506891 0.25788298778530305 0.22785788601209334 0.2149568489694153 0.2199567755458873 0.20623672618320776 0.21123663605170911 0.17747284255879192 0.17339336754855056 0.18247282883167668 0.18734844856905947 0.19234836972718738 0.1968014960845903 0.20180141212150032 0.19847594565515328 0.20329810720089392 0.20375642065752414 0.19938562592959622 0.18898581928685595 0.1932202833173739 0.19331605294701992 0.19001850428332986 0.18131643263898306 0.18528163903766232 0.17776396092975638 0.17203210069917746 0.18479262046204981 0.17907769926097722 0.18311828131352015 0.17454725474814653 0.1784297414843056 0.17520076370538129 0.19519647601559925 0.19066508764022166 0.18797170378572783 0.19399087757032513 0.19899380932159205 0.20022401728586339 0.21019962132283204 0.20562765333670358 0.21920206163183703 0.21430540678896087 0.20945957848240274 0.20523604191329942 0.21197634871018961 0.20799203312468978 0.20747776479997648 0.21193294440381266 0.21546434900625266 0.21825509553007283 0.21599328639399798 0.21911016661479177 0.221946883904827 0.22472552538441432 0.22338110536031713 0.23285787970509425 0.23286950958907901 0.22880444465473709 0.23175322369345083 0.22738744307995423 0.22313143044972794 0.22283573805690393 0.22656414025586413 0.23395045692165045 0.22998131732390206 0.23370889293930652 0.22760250377749799 0.23040262796114566 0.21933378497656877 0.2231854578150903 0.21897550368593413 0.22987234815493474 0.23382184836901757 0.22997208466546054 0.23227709201060504 0.23053749354412803 0.23454015013939461 0.2200771889606794 0.22540444151975872 0.22490542213717518 0.21483362653724331 0.20630906404081148 0.21049253413180707 0.20944878550634549 0.20578864555743426 0.21014052353424667 0.20470979289041563 0.21415462495126011 0.21515458307598223 0.19991258265188028 0.20064442817458034 0.19171899499511874 0.19076065237057033 0.1960672475520496 0.18631608321981868 0.1827650521304571 0.17810686892798117 0.17439117034123935 0.18068874507953642 0.17495162604439896 0.18420397996145152 0.18780738449176276 0.18688534445157109 0.18447187613264357 0.17981621869476558 0.17366820390831478 0.17661507208107258 0.17470036055770499 0.19441807165293357 0.19050182823937539 0.1894633205822695 0.19662891822558726 0.19573720222525071 0.20096946039160488 0.20202114078678751 0.19868180058277574 0.20091865856968255 0.20371861614153836 0.19540728910729716 0.19202938809148568 0.19721126974965267 0.19408729947236913 0.18523339604335956 0.18243983061673621 0.17450758077978187 0.17839700170807821 0.17886559788565093 0.18346060172536222 0.18746360691679323 0.18753407409651793 0.18192630374038743 0.17682536913123179 0.17730660422054492 0.18230660162959567 0.18769723603605309 0.19269723734967925 0.19195504110285797 0.19724718798941432 0.20190726811612064 0.20241891276643964 0.19741891351790086 0.20774747266312932 0.21274747144925427 0.21765078511843633 0.21086531410833886 0.20657815195138268 0.20835464059390801 0.21672050933165171 0.21657133168137124 0.21252394985818379 0.22025366895410065 0.22460508626337716 0.22151142072610724 0.22502926170696322 0.23528934739669724 0.2312590944981032 0.23412793021643513 0.22835197210987845 0.22906942848546255 0.22436855722310056 0.22265078204966149 0.23275683568154057 0.22775683750996217 0.24167261634567902 0.23667262198349326 0.243875926146884 0.24822909704531257 0.2510322017227547 0.24601264109298732 0.25101263660941409 0.25956833985859595 0.25456834601326611 0.26341470748379037 0.26527745183387341 0.26285906548112309 0.25440704506165868 0.25582321973795674 0.25641228209482175 0.25957228564210511 0.2661277486339142 0.26742754702825638 0.26432498139564142 0.25716591396714888 0.26046684582426849 0.24715539782033369 0.25111385030963318 0.24640223728824712 0.25118564658617093 0.24194778136215156 0.23873230772015885 0.23913118069952147 0.24310244934786368 0.23923769306691534 0.24411495677640827 0.23989795656158713 0.23697535488862004 0.23768166304100241 0.24115795912963539 0.2365635782085154 0.24019814103773363 0.24315495118753033 0.24755683452036695 0.24672205584816737 0.25103755175428971 0.2557716798314818 0.25107155338072035 0.25672487293568863 0.25997592347809256 0.26108285099335282 0.26513561506797656 0.25982201982061004 0.26562168686395682 0.25503197917713594 0.25217166300067639 0.24940000060763973 0.25992078737777013 0.26358057483889014 0.26866423207792633 0.27938036100302288 0.27455947964575861 0.26949547088796605 0.27009735110372851 0.28048866711056064 0.27556030802266157 0.27475371780250191 0.28010720839880576 0.28489542041055638 0.29543532368637893 0.28979669351579046 0.29391454196034883 0.28991297121844295 0.29293697676953212 0.28494997242554765 0.28452597983483613 0.29038954779555237 0.29386824591215033 0.29557335634269838 0.29330297964680407 0.28789673915198222 0.28449325867510811 0.29151483645485377 0.28426339346694623 0.27672017940575627 0.28099741073630213 0.2719339050805003 0.27391853468941568 0.26987538718162418 0.2