<?xml version="1.0"?>
<VTKFile type="UnstructuredGrid" version="0.1" byte_order="LittleEndian">
<UnstructuredGrid>
<Piece NumberOfPoints="714" NumberOfCells="1306">
<Points>
<DataArray type="Float64" NumberOfComponents="3" format="ascii">
0 0 0 0 0.10000000000041601 0 0.082799035591426873 0.082799035591510806 0 0.099999999999928008 0 0 0.19999999999983389 0 0 0.20669143849501961 0.085546078947938975 0 0.29145143692666958 0.13500804559578439 0 0.29999999999973409 0 0 0.24783073444672249 0.24783073444648379 0 0.21725788110387281 0.17316968768743621 0 0.17318221359491059 0.27409688392309489 0 0.089078158003765312 0.2493007687782936 0 0.140351188660986 0.16130415108589741 0 0 0.20000000000083221 0 0.066361468125430589 0.15903440181097661 0 0 0.30000000000124832 0 0.0632094674441709 0.3449112819864934 0 0 0.40000000000166441 0 0.083393126324559225 0.42307471369029392 0 0.13897501191807771 0.34545639364066222 0 0.070553891733833127 0.57745844360881338 0 0 0.60000000000138687 0 0 0.50000000000205869 0 0.12353277228144981 0.51086097771927308 0 0.16324260003398389 0.62262730759772122 0 0.1946526892501724 0.54636184660733622 0 0.27220668248394869 0.50912429725145214 0 0.27661118526457179 0.58730386222759956 0 0.16486701364709541 0.41592657376307979 0 0.21928696632013719 0.4676461135047027 0 0.29987747321592639 0.43430880093746571 0 0.2371857680100064 0.35865548441110112 0 0.34318159319555042 0.3314386771104964 0 0.38593969585746768 0.44843324941957241 0 0.42544665781957403 0.3726599289372452 0 0.38240158409674341 0.60644575028138747 0 0.34793494568226019 0.52426775179830853 0 0.45232393232070839 0.53082724112931345 0 0.46433624429412901 0.61260020600107856 0 0.55763912874459476 0.49619993861770217 0 0.56379254693201075 0.58472273515948836 0 0.49272830291620878 0.32528628960011152 0 0.47711113382803011 0.43513410852522788 0 0.56509579243166053 0.39588847936247551 0 0.58612580217118482 0.27813894450229909 0 0.49255105193724569 0.22337579986912359 0 0.5565830077206213 0.19095699352548859 0 0.59999999999951659 0 0 0.57505385014294308 0.072457888465917331 0 0.49999999999959438 0 0 0.50264032148191051 0.12292784096123539 0 0.43504744109702559 0.077628892606360606 0 0.39999999999966429 0 0 0.35933948296838258 0.073809900849860513 0 0.33604819894646598 0.23280286076243209 0 0.41589935411558732 0.26752529264016389 0 0.40428440976105728 0.1643886070295453 0 0 1 0 0.099999999999999645 1 0 0.14716362552681639 0.93861610753355362 0 0.19999999999999929 1 0 0.30000000000000071 1 0 0.29792158491427922 0.79537096033156995 0 0.2235202862591317 0.88873896332704583 0 0.1332109546178302 0.87498377138822103 0 0.075231054453351903 0.92314074346405706 0 0 0.89999999999958358 0 0 0.79999999999999982 0 0.074918724681641777 0.83311952320732263 0 0.1533088418661793 0.80370257472597129 0 0.089684836063650353 0.74720097194875412 0 0 0.7000000000006934 0 0.079752623936563252 0.65630726580969023 0 0.16551550920047911 0.70947866912672319 0 0.22047232289835689 0.77501739045979867 0 0.25446499951716589 0.69023946426646743 0 0.32437633398017029 0.65970549827478953 0 0.33985912385126898 0.73174041004507751 0 0.42824324229177341 0.6924957961634054 0 0.5174764925733939 0.65338828204098198 0 0.59670004617370476 0.65981579440137683 0 0.62152629835360762 0.73285157302339954 0 0.52912171753951986 0.73993242892488531 0 0.51076728641122882 0.81691863363193817 0 0.62017612851329729 0.81451802170669263 0 0.56701461556202259 0.86335846433862784 0 0.45907587517201498 0.90165918271477563 0 0.43819239467549531 0.79296936871720936 0 0.36912581253574028 0.83088590731704637 0 0.37337282601342481 0.92616598444216514 0 0.31535921456193688 0.88154045330654418 0 0.39999999999999952 1 0 0.49999999999999911 1 0 0.59999999999999964 1 0 0.5499999999999996 0.93976792513729512 0 0.70000000000000018 1 0 0.79999999999999982 1 0 0.89999999999999947 1 0 0.8793859710393791 0.93083561064221121 0 0.93540888248908083 0.88281232945237675 0 0.91372311269140116 0.80486176357476358 0 0.82192606283926717 0.87651855948129354 0 0.73937541854631073 0.9288754054780668 0 0.64588148000090029 0.91512139508160772 0 0.76404828705430583 0.78174230667165401 0 0.71722872346306721 0.85096302760907838 0 0.69085763855200755 0.76120667115691065 0 0.6754414170471299 0.67700559910555169 0 0.74547688787239819 0.70026419381674654 0 0.81910554849723838 0.69100245438023977 0 0.84477163403336131 0.77519844632340484 0 0.90192269692920224 0.70295054578552552 0 0.9749171938312049 0.68304286407835557 0 0.98491966670915287 0.745702719141624 0 1.0785590511537511 0.75365885686631617 0 1.05 0.67063679245255348 0 1.1595355377629719 0.69612720023346242 0 1.2316049928421089 0.71268197388690568 0 1.130022579458912 0.80264790230838934 0 1.2104878010462079 0.79638517641579154 0 1.246238897717278 0.90016207822659 0 1.1492841477515361 0.89495863909300122 0 1.035017143854235 0.92577305964649748 0 1.039491394416145 0.83402983011495258 0 0.99999999999999911 1 0 0.94997493298435887 0.94717135651053852 0 1.1000000000000001 1 0 1.1999999999999991 1 0 0.8520969719592798 0.19112077159544111 0 0.81051762114363357 0.25355176211442859 0 0.91043121937362004 0.26518856856736223 0 0.87151744524583186 0.1145610820769897 0 0.89999999999870417 0 0 0.8072276847200428 0.07509171132446453 0 0.79999999999899607 0 0 0.75434135135171976 0.12888799631625769 0 0.73796379772146625 0.059893436010741673 0 0.69999999999928797 0 0 0.66267222434682926 0.078497159578092612 0 0.64669101990832323 0.1799054750174742 0 0.75284581776561577 0.20455093921856349 0 0.7545004114404561 0.31098089234202853 0 0.68811979868824935 0.26566684131589419 0 0.65823561246403328 0.35502292901158627 0 0.64897033023755402 0.45530630145656431 0 0.71094001953927277 0.41472992215547572 0 0.65500944633069913 0.60601350811213128 0 0.66278242936710119 0.53985356489900171 0 0.74775703275407246 0.49059679564787018 0 0.74991769371388628 0.60451627361984739 0 0.85383906663538056 0.62014574817393608 0 0.82099888937423493 0.54529350322201742 0 0.89730215834238125 0.56352362508531118 0 0.79315209058920677 0.38802315963964318 0 0.83603391221093415 0.31708941802047369 0 0.84897848255088726 0.46000674997733482 0 0.9184189969982266 0.43608586792060411 0 0.89716106756302072 0.36571612550017968 0 0.97284972811175952 0.32057650487681749 0 0.97803218086495292 0.39957666910545891 0 1.049999999998295 0.45311778235774403 0 1.0499999999982661 0.33749999999944968 0 0.95554667482020261 0.61387123313571723 0 0.95438428234324713 0.50021891445525024 0 1.0610070115193291 0.56187728740506249 0 1.160572984923127 0.60155304747043781 0 1.1544259370261769 0.49580194535795907 0 1.11366617971111 0.39530889117858181 0 1.1787318575418491 0.43180077319900678 0 1.2482752740169289 0.44264463249545388 0 1.193211192060164 0.36417169501775798 0 1.2189485028845071 0.28846717556219142 0 1.225209211892335 0.20648826945283069 0 1.14543293599463 0.16096823716187 0 1.1317936052402791 0.27327200211975772 0 1.0273907165533489 0.25089655084417212 0 1.0673059847957449 0.1861726764986896 0 0.96758455917765662 0.17206502793490561 0 0.99999999999841238 0 0 0.95940036225003311 0.0802667348803804 0 1.0527907183502181 0.1005001786211816 0 1.1494214575391031 0.075340014825429069 0 1.09999999999812 0 0 1.199999999997829 0 0 1.2999999999975369 0 0 1.254652873386052 0.105753482544517 0 1.3681535985071449 0.13698083382674339 0 1.399999999997245 0 0 1.349999999997392 0.060567969661089648 0 1.291408388555241 0.26372433042992383 0 1.316869459340541 0.18778020585802921 0 1.3878996413210389 0.26723502210068018 0 1.473286192129879 0.27883707652097373 0 1.4156792278190771 0.19574754335211339 0 1.4905184776249101 0.20629734327603311 0 1.545236949037224 0.29434567071731399 0 1.456639397274391 0.1016053838939758 0 1.53341268746562 0.14194251306413061 0 1.542152768646126 0.073248247890105089 0 1.4999999999969531 0 0 1.599999999996661 0 0 1.6999999999963691 0 0 1.6799832100487111 0.082202015566833181 0 1.609545399082946 0.1308291592921435 0 1.567491488875842 0.20218805454405439 0 1.6351951680630969 0.23707571199064051 0 1.714493154391862 0.28897291620938281 0 1.7304700827703301 0.17386188770806579 0 1.799219293849516 0.26438879273789773 0 1.8480644103363271 0.19193194889233381 0 1.8299024103288899 0.1151394713368583 0 1.799999999996077 0 0 1.75369588639865 0.074917217572982864 0 1.7537858687071439 0.50406839622489796 0 1.742806034420483 0.6006074591026016 0 1.8544400981153091 0.62488101477716596 0 1.8316048184152021 0.54157006606434721 0 1.850967139686138 0.45738417241574703 0 1.8620515405159661 0.32644761881501039 0 1.787749129254824 0.36176402170097799 0 1.7808296409871709 0.43587276890434401 0 1.71976181471802 0.39635806210359681 0 1.645895854313963 0.45222881216869149 0 1.6419306970571019 0.3436055112169133 0 1.645263810758179 0.55814977621663464 0 1.5386621965636409 0.60828218080060537 0 1.550364457075788 0.50467902559054656 0 1.4795754400412069 0.53983964974648579 0 1.445918816848357 0.6075709531782556 0 1.551956040519719 0.40384519109247291 0 1.4491802319415681 0.4666714614197911 0 1.4507225717793131 0.3561247496431208 0 1.347125314110625 0.32447518420453242 0 1.385017785528226 0.40713366384701549 0 1.3198129865007471 0.39133224900025881 0 1.2615469736996101 0.34090999671933891 0 1.3860523322451299 0.56073196187600105 0 1.3462106466432811 0.48060664220838062 0 1.2709684905841181 0.55537862536316829 0 1.2546738886072291 0.63615646469940468 0 1.3545060270195819 0.65002758689694418 0 1.4000454837723419 0.73943313674757749 0 1.3035852436207409 0.73866974635260263 0 1.2914654457895349 0.81843301378315825 0 1.3255948392482531 0.88328132587465524 0 1.3864786876100039 0.92208751032957958 0 1.386174597084219 0.82350876346868962 0 1.482119963281066 0.782586299849238 0 1.463012078585596 0.89209645917012148 0 1.546104640467868 0.9195568013001878 0 1.535346256113697 0.70153336654872078 0 1.4534042830965781 0.68426123045930609 0 1.2999999999999989 1 0 1.399999999999999 1 0 1.5 1 0 1.599999999999999 1 0 1.6999999999999991 1 0 1.7999999999999989 1 0 1.6597641702579149 0.778
[...]
<CellData Scalars="A_conc,As-lin_conc,B_conc,Bs-lang_conc,C_conc,Cs-freund_conc," Vectors="" Tensors="">
<DataArray type="Float64" Name="A_conc" format="ascii">
7.8950384676489965e-07 9.1609393718507811e-07 2.4273722622967347e-07 3.6709660534856196e-07 3.8248249223241383e-07 3.9655260516108636e-07 9.1563145622923458e-07 9.6553058287064959e-07 4.0229975953346312e-07 4.1638159821584035e-07 7.0469201120882934e-07 8.8235361444154927e-07 5.1559897195715582e-09 7.6451681511159326e-08 7.8722820051729723e-08 8.8785574615476402e-08 5.5653727897394336e-08 3.5278186891697829e-09 2.35355090629521e-08 8.5294982280238533e-08 8.915945846112633e-08 8.5391187826728287e-08 2.15387648043967e-08 5.0262384145438979e-08 5.9568490778874905e-10 9.6103917036741647e-09 1.2900287732589897e-10 5.0953356397357469e-10 2.1108677429849606e-13 6.298069301834913e-10 2.2536317337345942e-08 1.1640194410849347e-09 2.59296665014279e-10 7.7091442501209385e-14 1.3724597245482151e-11 1.9640187997845199e-11 1.2237096582727313e-09 2.4077832860090114e-11 4.2487031681741315e-11 2.6586524418081222e-12 1.3981034599148777e-12 1.2787435366206319e-11 2.7690575756305008e-12 1.7270971148590037e-12 7.3793596624271915e-12 5.9076007322214087e-10 3.3458789940965577e-09 3.3741909750900867e-13 4.2782512825593316e-13 5.6005847900918789e-13 6.3150946641698827e-13 3.6765996886544534e-09 1.9008871296199002e-12 1.1575784878727817e-12 3.8166582506022903e-12 4.3925829641306589e-12 1.5479119439240209e-12 9.9341169286331193e-13 2.5108004194946595e-11 1.3180851039474348e-10 4.2893155256089386e-12 1.3118285467056816e-11 7.853004175406437e-12 4.3729054622993854e-11 7.9602280799601338e-11 1.1848511332471982e-10 4.4635681653678575e-10 2.0097595864244357e-11 5.0188813444403666e-11 7.8654862142583226e-11 7.6916495955492537e-11 8.2227087747764557e-10 5.9492680781493345e-12 1.9643047735297504e-11 1.072489757632072e-11 2.7727440178698432e-11 2.4662724966222544e-12 3.5641034658923478e-12 7.779980434303473e-13 3.1287237403514975e-08 1.4057367050213845e-13 2.6641998365902215e-13 4.8708955903282756e-08 6.0618330998330533e-07 9.364941843233053e-07 5.5576572535080601e-07 5.4153135941815768e-07 4.7415056969297636e-08 2.8721042503512195e-07 3.015886791300497e-07 8.7587139912056843e-07 8.5098905005049128e-07 1.1329290392053244e-06 7.3115119853641229e-07 2.8908591846210165e-07 9.3660178366445395e-08 1.593974403825707e-08 5.4002403085046451e-09 5.1991429384890676e-13 3.0008612145464445e-08 1.6529370343096003e-08 9.2023986960093365e-07 1.1020794089038543e-06 1.0907509986895423e-06 1.2104168190933926e-06 1.0195543538919029e-06 1.0486940195355787e-06 8.9492597589971807e-07 1.8140057621266416e-07 2.257602521832885e-07 1.7550099827550625e-07 1.6870886999167455e-07 8.0382045727327223e-07 7.7889071506509867e-07 4.7873273027736115e-07 4.6116995037645233e-07 3.2434641028187982e-07 8.710452779970693e-08 1.6271374710323404e-07 9.1123072866016952e-08 2.5282857077736389e-08 5.9433556677835355e-08 5.4406087375766912e-08 2.4083167347742026e-08 1.0650360754561095e-08 3.0126528635996736e-09 1.2277149119548097e-10 3.1875558882893626e-09 1.4876801348025947e-08 6.1710973148178803e-08 1.5659518912610828e-08 1.6386352279928492e-08 5.2984037461710504e-10 1.8630212802555392e-10 2.91031158600189e-10 7.0811568561022142e-10 2.2628338520923527e-09 1.6278495877207954e-09 4.5294018776127947e-10 1.5063263106940852e-09 7.0329641074031049e-10 2.1763055211408634e-09 6.1865009100832998e-10 6.9950723851671865e-09 3.0710494818437118e-09 8.2299203568880691e-08 4.6248370019739617e-09 5.9254675285246379e-09 4.2668125107252316e-08 2.1531848454406134e-07 4.8338946334900955e-08 2.0385896509764112e-07 1.0922631778928728e-07 3.0327439880719848e-07 7.8305964898903632e-08 2.9226596339827241e-08 2.8031341518512358e-08 1.798000464068761e-07 9.2959139562947283e-07 2.956027888731956e-07 1.3522039257392816e-06 1.0001463687085926e-06 1.0294177727819316e-06 7.2468460575426524e-07 1.0923987861988748e-06 6.0071949613715943e-07 3.2672197149402652e-07 6.2378396353731834e-07 3.9289281312315219e-07 2.3636494038764215e-07 8.2535790514480796e-08 5.8286909264429001e-08 7.190946612863423e-08 3.2519638170807899e-08 4.4232451274002284e-08 2.8060092818297752e-08 1.4888361694145931e-07 1.3922363107034052e-07 9.1558631147484733e-08 8.327854238556333e-08 5.2379235036948981e-08 1.4116041647218954e-08 1.7475356137171232e-08 2.3396977420707802e-08 1.1924266994751318e-08 6.8020050979520276e-09 1.0188698557230106e-08 5.7064555416322876e-09 9.2211205611179889e-09 1.8314723302746808e-09 3.7845748887320131e-09 1.456919548644201e-09 2.371495860290491e-09 2.8444442368526316e-09 2.4606423057448647e-09 3.5470972915376216e-09 1.5027684824558403e-08 1.376735865363188e-08 2.1694305010604843e-08 1.952751583879969e-08 4.1078236151612242e-09 4.8706935187475375e-09 3.3497242353255012e-09 1.3877352915391552e-08 1.2403847385740903e-08 1.5157037958740655e-08 3.7968084601118398e-08 3.2036105056009119e-09 3.6528109014207867e-09 6.29224063985829e-09 3.2548691348533405e-08 2.6508216746624816e-08 1.7003274588816937e-08 2.8053452072194807e-08 2.6153008132978335e-08 9.2687630354738666e-08 8.4058373777784643e-08 1.0845388990525767e-07 1.5965313327718101e-07 9.9644519813697852e-08 8.8693954917346865e-08 4.4879643314145731e-08 3.2980967773948028e-08 5.2435853706401844e-08 7.89777252929689e-08 7.8535252091934146e-08 9.6192017433801307e-08 1.0901255403677617e-07 1.1885562219041006e-07 1.3219335604974457e-07 1.4577190925338287e-07 1.7687661441872137e-07 8.0728073588433664e-12 1.0579927415417125e-11 3.8846703621848164e-12 1.9887492777398932e-12 2.0584136252895811e-11 3.8323240544932964e-11 3.9816926720497572e-11 9.3753765301097021e-11 2.7947223967280584e-08 2.717403903592248e-08 1.8582501120928011e-07 1.8140926579992668e-07 1.8486781565116297e-11 1.9169337408891685e-08 5.1991368176085362e-08 5.3588310405113653e-08 4.5203943018510768e-07 6.2496325859174089e-07 3.4877450386754093e-07 5.5673115810301018e-08 2.4846377588083005e-08 1.0390998785519921e-12 3.4604110891041048e-12 3.5825346949110629e-12 1.9625988082299683e-12 5.3852820431930472e-13 3.1220358857907386e-12 2.0179150134876992e-12 1.4654528798806346e-11 3.3413530134392266e-11 4.2503925390762777e-11 9.4205730069310039e-12 7.2230896798481891e-12 1.9512383052992012e-10 1.4307257023500669e-10 1.0867724594270471e-10 2.2274746917173088e-10 2.8152894113781272e-10 4.5764496652590331e-10 5.7117551032375047e-10 2.5404671884424922e-10 2.0777448875747498e-10 2.9188705036170101e-10 5.5636818508010985e-10 7.9056919775321372e-10 2.3950862512527165e-12 1.3045497259740865e-12 3.219734885937432e-12 5.1570419872726682e-11 4.9375456200717561e-12 7.8564375639841258e-12 6.2004343276858463e-12 5.1285415504950878e-12 8.7267379783196665e-12 6.9962931321721051e-12 1.2201962373506997e-11 1.1038670195835455e-11 1.3858322251276692e-11 2.3516785735556884e-11 1.4945866671075603e-11 6.1510063949459702e-10 3.3517429194459751e-11 2.5323361294873714e-11 1.7979630492235212e-09 1.5595996077277125e-09 6.3458255696831592e-11 2.9523869608856878e-11 8.0310609502098051e-11 2.027660939798247e-10 7.9437868387395173e-11 5.3843003880147598e-11 2.4219825887562158e-11 1.4974265335776487e-11 4.4839906698755686e-11 2.4664633883950342e-11 6.4348205726121819e-11 8.600383299921685e-11 1.5886757421851485e-10 5.5510928624294349e-10 3.874756317992854e-10 1.3924137636493554e-10 1.3187952881082102e-09 5.3621905004823801e-10 3.7966645740265168e-10 3.9416631673562463e-11 6.1399184188054145e-11 2.4728810918539516e-10 1.535713347107895e-10 7.2545439872751939e-11 2.0679341538822941e-11 3.5742300988241784e-10 4.1062459607347582e-08 1.6280743438399865e-10 2.4779924532310131e-10 4.0797112049804029e-10 5.5018634303076451e-10 1.4571845024917703e-09 8.7558317045464447e-10 7.0346458551368166e-10 1.064349183204319e-09 2.140095393158858e-09 2.9391750308249102e-09 4.0384517812181996e-09 3.6893211205417266e-09 2.8210801108818918e-09 4.9796503234283506e-09 7.8250743144653287e-09 6.075631944237947e-09 3.3165416338750542e-10 2.5913181512851898e-10 1.851429962034877e-09 9.2962883821835587e-10 3.6961774433556498e-09 1.6554183410188732e-09 1.2434729153789102e-09 5.0668470643790463e-10 8.128895691409225e-10 1.9606812479373266e-09 2.3831036183913217e-09 5.6006879014228927e-09 2.7190001587725476e-09 4.9897788907837498e-09 8.4962839512198068e-10 2.3798709091069639e-09 9.4942668100844744e-09 4.7008913332420151e-09 1.1405568656584489e-08 6.5535710510974007e-09 1.3250394670958137e-08 1.4188001979047154e-08 1.1670685952180148e-08 1.8499228454738481e-08 1.6773533617392768e-08 2.3220697902460347e-08 2.6479685095076585e-08 1.6110805028706005e-08 5.9576850463843307e-09 6.7340686721116996e-09 1.7224244608972177e-09 3.155806431475682e-09 2.0235984024863414e-09 7.4241780304163076e-09 3.7442468996196876e-09 5.6315958939611189e-09 4.2459403713546904e-09 1.4670144015074685e-09 2.5648851295662367e-09 4.4402243643302158e-09 1.4338246147403219e-08 3.7525015174435545e-08 3.5955014198852172e-08 3.35183414587934e-08 2.9941852609714204e-08 1.833121205245522e-08 2.004169636923451e-08 2.7423266122393857e-10 4.4454550604578709e-10 1.4180472007347024e-10 4.4973904238514418e-10 4.9337399030160134e-10 1.6472316887388533e-09 1.0117142549945526e-09 2.5386090287696061e-10 2.0517320356400159e-10 4.0345832274745505e-10 2.1404355005564275e-10 4.7814459650046764e-10 8.9761572120987635e-10 8.3147538193414153e-10 2.1705389307950646e-10 4.0243212537352817e-10 1.3989767888248644e-10 1.7312949250696547e-10 2.1997919197222289e-10 3.6852213221682198e-10 1.6704813187630769e-10 2.9086238662430349e-10 1.4001497513109789e-10 1.0842896628035994e-10 1.2407416006045221e-10 9.0727060871572154e-11 8.418378915054153e-11 6.7420590605950602e-10 1.7095198531056606e-10 2.5374711474247624e-10 3.0313421314187402e-10 3.0753550565656933e-10 6.4456151188200236e-10 2.5221340729279667e-10 1.6456816980282485e-10 1.4639346816644953e-10 1.0708480591749685e-10 1.1407815601725021e-10 1.8959816430235578e-10 2.9715848756167455e-10 3.8838369878110914e-10 6.6952956752759056e-11 4.5082762438964239e-11 4.6113425702721508e-11 2.4874964099221565e-10 6.833989207850581e-09 7.2740983858432747e-09 1.010248338616308e-08 9.2021094402518564e-09 5.5432043121604418e-08 4.7709502518193901e-08 5.1390038456638358e-08 1.9165545983249368e-07 1.3368547804898504e-07 1.4530189432581922e-07 2.0311722505064651e-07 1.2841500393366069e-07 1.1480562675633737e-07 6.035004878450566e-08 1.5208567085202824e-07 2.9540650890101601e-07 1.7402245682912162e-07 1.2246045237193719e-07 6.5362928380648776e-08 1.8266157225538566e-08 2.3451526142594643e-08 1.1932474157137435e-09 1.0115792267675151e-09 8.5601146309323581e-10 1.7155967325406098e-08 2.4796788404545207e-07 2.7679495536226017e-07 2.6594422997549804e-07 3.5559803094368352e-07 3.9371843743862262e-07 5.3052469736506247e-07 5.0329357382093776e-07 5.4880745509642399e-07 5.7661958815612048e-07 6.0096805948515328e-07 5.2636530734196837e-09 6.0023799031300796e-10 1.3659768175991659e-09 4.7542384366655109e-09 4.2328331416869377e-09 1.0838709338924783e-07 7.0014534046379248e-08 1.844838214725895e-07 3.7737211305098232e-07 2.5087489900854196e-07 6.5618866704809753e-08 1.144247272985895e-07 7.9388639579888746e-08 6.2311013206958818e-08 2.6163808424235491e-07 2.3093683068360362e-07 2.4025582007186104e-07 6.6063192554512245e-08 6.9278362464091373e-08 9.7168237409158722e-09 8.0051637422683391e-09 8.8764604468477767e-09 7.9069060897029604e-09 7.5988949410699264e-10 1.1033776008090999e-09 1.5302862788113959e-09 1.3317252754638077e-09 1.0009586021842916e-09 1.8088177937191492e-09 4.2685621542666458e-09 4.7452270008022263e-09 1.0670821697144057e-08 1.2364831847232921e-08 8.4063848045625531e-08 1.934333812930205e-07 2.0610233461873078e-07 3.1943095126194149e-08 2.9615028206851378e-08 5.1567107448215841e-08 2.0036019156664176e-07 3.2012838557572942e-07 8.4085906601484587e-08 5.6734072862604993e-08 1.3900842039245817e-08 1.5557896194204152e-09 2.9289964753189371e-09 2.1930640567069846e-09 1.2740312364602486e-09 1.0611749548246592e-08 1.1863466726260609e-08 2.5131145699877343e-09 8.7952752538817912e-07 5.9169272178757743e-07 6.5808541186447993e-07 6.798586639112332e-07 3.0794077060408339e-07 4.2598050201872269e-07 2.4836140175162721e-07 2.6284336803733698e-07 2.0413416256677367e-07 1.9892843887763074e-07 2.5796675562172727e-07 1.4870248823706027e-08 5.7561120449650795e-09 5.3262908530017972e-09 3.3127323940558077e-09 1.5784295110434034e-08 4.5213105863255573e-09 4.6072598315339715e-08 1.8928038905147409e-08 8.9968402134898127e-08 5.4084804840911177e-08 1.7964232055187623e-07 5.0159400472738936e-08 1.6554556941107757e-08 6.0247879065516538e-08 1.1088976301864815e-07 3.4281712925415083e-08 3.8363861335333088e-08 1.0154476328572401e-08 1.1354932610063934e-08 1.6838588311009042e-08 1.4249559134251111e-09 1.6098035320892555e-09 2.1256088809210706e-09 2.1339071510906091e-09 2.9803083074855325e-10 3.5171829015610928e-10 1.0814591043299121e-10 8.3576021979135741e-11 2.1921637375624113e-10 4.2363149069162787e-10 2.0038160892800983e-10 3.3288150326532096e-10 1.757076678927207e-10 1.9376498254876155e-10 1.7973362360327633e-10 1.4920392725095195e-10 1.6068655547059838e-09 1.7983022227487469e-09 5.187473879806857e-10 6.0492565339338641e-10 3.6266018019593468e-10 4.122025214360926e-10 1.1088850051218295e-09 1.2600409866535492e-09 7.2590438032590411e-10 8.0558407928182442e-10 4.700242219065817e-10 5.1428262024716094e-10 1.5064308343558102e-09 4.729078679100917e-09 2.1834925679184206e-09 2.4965482904581789e-08 8.8162972661614356e-09 8.1727463781492879e-09 6.0421694811018925e-09 2.0194119241243763e-09 1.8233063814931131e-09 1.5124223200828323e-07 1.5930666085926693e-07 7.9044822579699364e-08 2.652748487426931e-08 7.5193642937860664e-08 4.3227932692828217e-08 3.9455726415065525e-08 1.1881674605432346e-07 1.1214923352998397e-07 1.0580760279579225e-07 4.1828792894994133e-08 3.9240926649147148e-08 3.6130188615102939e-08 8.2469868970621097e-08 9.9260251249059438e-08 5.6020688039408596e-09 1.6657896837222548e-08 1.5441558076486915e-08 4.5867729818444977e-09 2.9746262359835045e-09 4.1392137730796603e-09 2.2098283184901057e-08 7.4332694914381374e-09 2.1350482797837202e-09 6.7738285745350669e-09 7.6741247986163398e-08 2.3993808356834739e-08 2.2525510772100944e-08 7.1501007559312503e-08 6.6057947277939212e-08 4.8504182914233392e-08 2.041043677981847e-08 4.1215495207946983e-08 1.6292401884579909e-08 4.137957966721515e-08 4.5381398863173731e-08 4.0951037607620222e-09 1.9111562465647569e-09 6.0758540318729307e-09 1.4847234076908926e-08 5.3302537065517174e-09 1.3361404827723444e-08 3.833119978320576e-09 2.8665978614417187e-09 5.5361771841647767e-10 1.224719491038899e-09 1.3549034031661907e-09 3.5066374205944576e-10 4.2139092408288931e-10 2.4510800513550283e-10 2.3862408182145215e-10 1.9100433349495929e-10 1.7298219718853594e-10 5.4909675934881689e-10 2.552639529039283e-10 5.1575598129178901e-10 3.2916641784897119e-10 2.0338286564918444e-10 2.514153871453453e-10 4.1239790116174384e-10 6.1960651226224887e-10 1.365355023993718e-09 1.3788861337977482e-09 4.9670483354044134e-10 2.5376319635137058e-10 1.3871413166188255e-09 1.2054197952417148e-09 4.7374616352886354e-10 2.0630705378266739e-10 0.12277775585322148 0.1191359001027734 0.12777775484609097 0.13653829547602214 0.139541915408331 0.13153829699821937 0.14223951963401416 0.14723951974557473 0.14157928208934842 0.14118315659415887 0.14619259005961788 0.1412142790558249 0.1364084220900226 0.13661843723494305 0.13356257689219092 0.14658548953920733 0.14160718051422042 0.1450216893903522 0.137219894927506 0.1279856933019366 0.12700363620978269 0.13200989905025426 0.1302164764716808 0.11821650822051333 0.12176096257975944 0.11981973579439956 0.12397410715132458 0.12980701680804674 0.12484131412139819 0.12639210532225631 0.12170126001982633 0.1169846729960714 0.11664496010266107 0.10661543321989315 0.11290561752356168 0.1111418272325686 0.10340776526460668 0.11592283541116939 0.11062148754554021 0.11366700750808212 0.10823625606156739 0.10356382291610403 0.1008521635305166 0.10611173344855643 0.092208992364984824 0.097499407937141847 0.091960242364120384 0.09374761585837188 0.088033986399687458 0.0886040950456424 0.099607006477611712 0.094003243075033022 0.098522261727212346 0.088440640058241413 0.087021039144518295 0.087915515319359219 0.089657103405615002 0.094657101241783226 0.098372980431648549 0.11413590265260297 0.11036486379793251 0.10680309147138782 0.10180310141462048 0.11969075225022298 0.12347506811795766 0.12472470194684629 0.13015869123538215 0.12847506740810324 0.13660325201968848 0.13678960443455299 0.13178960754404767 0.14223952003117618 0.14723952021621292 0.14177054401747752 0.14169002572788231 0.1329490115010997 0.13653862508259323 0.1358053037110048 0.14619259238703153 0.14121428544300305 0.14502169341324311 0.14148776976273364 0.13228475243886159 0.12972272302825838 0.12502295952716086 0.11891767195642836 0.1203928240211519 0.12424794348813922 0.12167648538008172 0.12047672145136307 0.12506094555039304 0.12897842773479898 0.12482953120170814 0.12913733027623259 0.12822681659205004 0.13696313565588572 0.13734371789729849 0.14646607542171652 0.14112261105017621 0.14465653086006447 0.13312795675062161 0.13445544665217618 0.13941397319913795 0.14475743827812362 0.14134292327311804 0.13681471160674558 0.13160380795205573 0.12783654563466307 0.12349768993474072 0.11940158420952815 0.12267466819060475 0.11182600489990999 0.11536064906069271 0.11109393329795049 0.1075299346028644 0.10329534783590887 0.1033211224355552 0.10823035997943099 0.096035382743789574 0.10042941915402258 0.092971733290675249 0.08854251155414633 0.086186217164654313 0.098766719408701117 0.095490791602522787 0.098923233589201229 0.094753584701323335 0.091647897545907131 0.086668221404942319 0.089289205804519323 0.084962846176185144 0.093984704831842958 0.10283393732238232 0.10752777238209524 0.10711135087592397 0.11582877609024683 0.11137435179302767 0.11189404302221241 0.11701178590130992 0.11544592791890494 0.11135226330830797 0.1157225489220511 0.1020498185715166 0.10751683291275298 0.10057472762000136 0.096347019855227645 0.088323100756315415 0.092421472413897143 0.088136563765034287 0.092605072908677435 0.096423885965723141 0.099743523315319521 0.09471479134722402 0.086759015218029645 0.089324976804222481 0.087284783389471057 0.092527170426173616 0.097527088131536405 0.10681179593238352 0.1018118301130029 0.10470050117350935 0.1095287629127624 0.1134240097265585 0.11160687572932167 0.11660687345028023 0.057927922950489596 0.061103551002881902 0.065264542226510111 0.069639369506219073 0.064640106816260895 0.074070691638113473 0.082284828926154727 0.079070570132511994 0.074011403788617522 0.070256544704769303 0.078118640108275711 0.072769796529847441 0.084247546829786663 0.082643074014118051 0.083370004405941972 0.079979867488517542 0.07596371066096981 0.069182917070858316 0.06591355304988071 0.069264138982000942 0.062286935953433903 0.054292357082634655 0.058036175132328491 0.056844699756030931 0.061585766031920175 0.054189112031336722 0.060144574129031542 0.054824971059807173 0.064942452451272781 0.070473441255832714 0.076391659203694035 0.080299792265661585 0.078517766434259423 0.08318470851335677 0.075183957192976797 0.070111859583432773 0.075122314715495436 0.078561282090725701 0.082957338989475965 0.080040576561843865 0.082588458998493208 0.076519834143652155 0.073098377735083001 0.065163651069460482 0.068690374942394383 0.064563412774908582 0.059564133404619912 0.056782618937721616 0.061980745598341117 0.050602469787034331 0.04759071756322495 0.054155632996868264 0.045403324484064762 0.049979311992834917 0.040659827699085285 0.041149769435655889 0.044272485860899741 0.033403671896682932 0.036914062026043484 0.03384208648726296 0.026065645090068819 0.024013881389242063 0.029182075100725693 0.02734728971059075 0.036343948095767492 0.031372796264098592 0.032729480543104851 0.028150492200263982 0.023563051255178821 0.024398880614233533 0.035376511612127494 0.037254151407247312 0.040899208729603467 0