<?xml version="1.0"?>
<VTKFile type="UnstructuredGrid" version="0.1" byte_order="LittleEndian">
<UnstructuredGrid>
<Piece NumberOfPoints="714" NumberOfCells="1306">
<Points>
<DataArray type="Float64" NumberOfComponents="3" format="ascii">
0 0 0 0.099999999999928008 0 0 0.082799035591426873 0.082799035591510806 0 0 0.10000000000041601 0 0.066361468125430589 0.15903440181097661 0 0 0.20000000000083221 0 0 0.30000000000124832 0 0.089078158003765312 0.2493007687782936 0 0.140351188660986 0.16130415108589741 0 0.21725788110387281 0.17316968768743621 0 0.17318221359491059 0.27409688392309489 0 0.24783073444672249 0.24783073444648379 0 0.29145143692666958 0.13500804559578439 0 0.20669143849501961 0.085546078947938975 0 0.19999999999983389 0 0 0.29999999999973409 0 0 0.35933948296838258 0.073809900849860513 0 0.43504744109702559 0.077628892606360606 0 0.39999999999966429 0 0 0.49999999999959438 0 0 0.59999999999951659 0 0 0.57505385014294308 0.072457888465917331 0 0.50264032148191051 0.12292784096123539 0 0.49255105193724569 0.22337579986912359 0 0.5565830077206213 0.19095699352548859 0 0.58612580217118482 0.27813894450229909 0 0.41589935411558732 0.26752529264016389 0 0.40428440976105728 0.1643886070295453 0 0.33604819894646598 0.23280286076243209 0 0.34318159319555042 0.3314386771104964 0 0.38593969585746768 0.44843324941957241 0 0.42544665781957403 0.3726599289372452 0 0.49272830291620878 0.32528628960011152 0 0.56509579243166053 0.39588847936247551 0 0.47711113382803011 0.43513410852522788 0 0.55763912874459476 0.49619993861770217 0 0.56379254693201075 0.58472273515948836 0 0.46433624429412901 0.61260020600107856 0 0.45232393232070839 0.53082724112931345 0 0.34793494568226019 0.52426775179830853 0 0.38240158409674341 0.60644575028138747 0 0.27661118526457179 0.58730386222759956 0 0.16324260003398389 0.62262730759772122 0 0.1946526892501724 0.54636184660733622 0 0.27220668248394869 0.50912429725145214 0 0.29987747321592639 0.43430880093746571 0 0.2371857680100064 0.35865548441110112 0 0.16486701364709541 0.41592657376307979 0 0.21928696632013719 0.4676461135047027 0 0.083393126324559225 0.42307471369029392 0 0.13897501191807771 0.34545639364066222 0 0.0632094674441709 0.3449112819864934 0 0 0.40000000000166441 0 0 0.50000000000205869 0 0.12353277228144981 0.51086097771927308 0 0.070553891733833127 0.57745844360881338 0 0 0.60000000000138687 0 0 0.7000000000006934 0 0.089684836063650353 0.74720097194875412 0 0.079752623936563252 0.65630726580969023 0 0.25446499951716589 0.69023946426646743 0 0.22047232289835689 0.77501739045979867 0 0.16551550920047911 0.70947866912672319 0 0.29792158491427922 0.79537096033156995 0 0.2235202862591317 0.88873896332704583 0 0.1332109546178302 0.87498377138822103 0 0.1533088418661793 0.80370257472597129 0 0.074918724681641777 0.83311952320732263 0 0 0.79999999999999982 0 0 0.89999999999958358 0 0.075231054453351903 0.92314074346405706 0 0 1 0 0.14716362552681639 0.93861610753355362 0 0.099999999999999645 1 0 0.19999999999999929 1 0 0.30000000000000071 1 0 0.39999999999999952 1 0 0.49999999999999911 1 0 0.59999999999999964 1 0 0.5499999999999996 0.93976792513729512 0 0.56701461556202259 0.86335846433862784 0 0.62017612851329729 0.81451802170669263 0 0.51076728641122882 0.81691863363193817 0 0.45907587517201498 0.90165918271477563 0 0.37337282601342481 0.92616598444216514 0 0.31535921456193688 0.88154045330654418 0 0.36912581253574028 0.83088590731704637 0 0.43819239467549531 0.79296936871720936 0 0.33985912385126898 0.73174041004507751 0 0.32437633398017029 0.65970549827478953 0 0.42824324229177341 0.6924957961634054 0 0.5174764925733939 0.65338828204098198 0 0.52912171753951986 0.73993242892488531 0 0.62152629835360762 0.73285157302339954 0 0.59670004617370476 0.65981579440137683 0 0.6754414170471299 0.67700559910555169 0 0.69085763855200755 0.76120667115691065 0 0.74547688787239819 0.70026419381674654 0 0.81910554849723838 0.69100245438023977 0 0.90192269692920224 0.70295054578552552 0 0.84477163403336131 0.77519844632340484 0 0.91372311269140116 0.80486176357476358 0 0.93540888248908083 0.88281232945237675 0 0.8793859710393791 0.93083561064221121 0 0.82192606283926717 0.87651855948129354 0 0.73937541854631073 0.9288754054780668 0 0.76404828705430583 0.78174230667165401 0 0.71722872346306721 0.85096302760907838 0 0.64588148000090029 0.91512139508160772 0 0.70000000000000018 1 0 0.79999999999999982 1 0 0.89999999999999947 1 0 0.94997493298435887 0.94717135651053852 0 0.99999999999999911 1 0 1.1000000000000001 1 0 1.1999999999999991 1 0 1.246238897717278 0.90016207822659 0 1.2104878010462079 0.79638517641579154 0 1.130022579458912 0.80264790230838934 0 1.1492841477515361 0.89495863909300122 0 1.035017143854235 0.92577305964649748 0 1.039491394416145 0.83402983011495258 0 1.0785590511537511 0.75365885686631617 0 0.98491966670915287 0.745702719141624 0 0.9749171938312049 0.68304286407835557 0 1.05 0.67063679245255348 0 1.1595355377629719 0.69612720023346242 0 1.2316049928421089 0.71268197388690568 0 1.160572984923127 0.60155304747043781 0 1.1544259370261769 0.49580194535795907 0 1.2482752740169289 0.44264463249545388 0 1.1787318575418491 0.43180077319900678 0 1.193211192060164 0.36417169501775798 0 1.11366617971111 0.39530889117858181 0 1.049999999998295 0.45311778235774403 0 1.0499999999982661 0.33749999999944968 0 0.97284972811175952 0.32057650487681749 0 0.97803218086495292 0.39957666910545891 0 0.95438428234324713 0.50021891445525024 0 1.0610070115193291 0.56187728740506249 0 0.95554667482020261 0.61387123313571723 0 0.89730215834238125 0.56352362508531118 0 0.82099888937423493 0.54529350322201742 0 0.85383906663538056 0.62014574817393608 0 0.74991769371388628 0.60451627361984739 0 0.65500944633069913 0.60601350811213128 0 0.66278242936710119 0.53985356489900171 0 0.74775703275407246 0.49059679564787018 0 0.71094001953927277 0.41472992215547572 0 0.64897033023755402 0.45530630145656431 0 0.65823561246403328 0.35502292901158627 0 0.83603391221093415 0.31708941802047369 0 0.79315209058920677 0.38802315963964318 0 0.84897848255088726 0.46000674997733482 0 0.9184189969982266 0.43608586792060411 0 0.89716106756302072 0.36571612550017968 0 0.91043121937362004 0.26518856856736223 0 0.8520969719592798 0.19112077159544111 0 0.81051762114363357 0.25355176211442859 0 0.7545004114404561 0.31098089234202853 0 0.68811979868824935 0.26566684131589419 0 0.64669101990832323 0.1799054750174742 0 0.75284581776561577 0.20455093921856349 0 0.75434135135171976 0.12888799631625769 0 0.66267222434682926 0.078497159578092612 0 0.69999999999928797 0 0 0.73796379772146625 0.059893436010741673 0 0.79999999999899607 0 0 0.8072276847200428 0.07509171132446453 0 0.87151744524583186 0.1145610820769897 0 0.89999999999870417 0 0 0.99999999999841238 0 0 1.0527907183502181 0.1005001786211816 0 0.95940036225003311 0.0802667348803804 0 0.96758455917765662 0.17206502793490561 0 1.0273907165533489 0.25089655084417212 0 1.0673059847957449 0.1861726764986896 0 1.14543293599463 0.16096823716187 0 1.1317936052402791 0.27327200211975772 0 1.2189485028845071 0.28846717556219142 0 1.225209211892335 0.20648826945283069 0 1.09999999999812 0 0 1.1494214575391031 0.075340014825429069 0 1.199999999997829 0 0 1.2999999999975369 0 0 1.254652873386052 0.105753482544517 0 1.3681535985071449 0.13698083382674339 0 1.349999999997392 0.060567969661089648 0 1.399999999997245 0 0 1.4999999999969531 0 0 1.542152768646126 0.073248247890105089 0 1.53341268746562 0.14194251306413061 0 1.456639397274391 0.1016053838939758 0 1.4156792278190771 0.19574754335211339 0 1.4905184776249101 0.20629734327603311 0 1.545236949037224 0.29434567071731399 0 1.473286192129879 0.27883707652097373 0 1.3878996413210389 0.26723502210068018 0 1.316869459340541 0.18778020585802921 0 1.291408388555241 0.26372433042992383 0 1.2615469736996101 0.34090999671933891 0 1.347125314110625 0.32447518420453242 0 1.385017785528226 0.40713366384701549 0 1.3198129865007471 0.39133224900025881 0 1.2709684905841181 0.55537862536316829 0 1.3860523322451299 0.56073196187600105 0 1.3462106466432811 0.48060664220838062 0 1.4795754400412069 0.53983964974648579 0 1.445918816848357 0.6075709531782556 0 1.5386621965636409 0.60828218080060537 0 1.550364457075788 0.50467902559054656 0 1.551956040519719 0.40384519109247291 0 1.4491802319415681 0.4666714614197911 0 1.4507225717793131 0.3561247496431208 0 1.6419306970571019 0.3436055112169133 0 1.645895854313963 0.45222881216869149 0 1.645263810758179 0.55814977621663464 0 1.7537858687071439 0.50406839622489796 0 1.742806034420483 0.6006074591026016 0 1.8544400981153091 0.62488101477716596 0 1.8316048184152021 0.54157006606434721 0 1.850967139686138 0.45738417241574703 0 1.7808296409871709 0.43587276890434401 0 1.71976181471802 0.39635806210359681 0 1.787749129254824 0.36176402170097799 0 1.8620515405159661 0.32644761881501039 0 1.799219293849516 0.26438879273789773 0 1.8480644103363271 0.19193194889233381 0 1.7304700827703301 0.17386188770806579 0 1.714493154391862 0.28897291620938281 0 1.6351951680630969 0.23707571199064051 0 1.567491488875842 0.20218805454405439 0 1.6799832100487111 0.082202015566833181 0 1.609545399082946 0.1308291592921435 0 1.599999999996661 0 0 1.6999999999963691 0 0 1.75369588639865 0.074917217572982864 0 1.8299024103288899 0.1151394713368583 0 1.799999999996077 0 0 1.8999999999957851 0 0 1.894432874635162 0.07551835003504323 0 1.9999999999955109 0 0 1.9480526939991849 0.12898730409406539 0 1.949071218763063 0.20551835056699769 0 1.889482378851052 0.25355176211435237 0 1.9370762551310139 0.30659376302738528 0 2.0131266155023031 0.26735551396116869 0 2.0579369465445829 0.18492358211896681 0 2.109175777466048 0.28747319291998968 0 2.1529249143000921 0.20760117016104621 0 2.145863811971962 0.09449602309195497 0 2.0499999999955518 0.089783354580979427 0 2.0999999999955929 0 0 2.1999999999957449 0 0 2.2631085279260659 0.078835433122263737 0 2.2171573042311432 0.14903409558359759 0 2.2999999999958969 0 0 2.3999999999960488 0 0 2.
[...]
<CellData Scalars="A_conc,As-lin_conc,B_conc,Bs-lang_conc,C_conc,Cs-freund_conc," Vectors="" Tensors="">
<DataArray type="Float64" Name="A_conc" format="ascii">
8.8050978741855938e-08 6.2168414898610951e-08 9.7242612928796192e-08 2.5087230745355624e-08 1.9782879179052313e-08 1.4832857541235488e-08 7.1474924326750777e-09 1.7304618694872676e-09 6.1789099138259113e-10 2.6127541655291817e-10 5.6558524627440679e-10 2.9903790753600286e-09 2.4856071881590712e-09 2.0906153811901149e-09 4.0753227808461081e-09 2.6390668161850747e-11 1.2749594074600119e-10 3.7920396080944738e-09 4.8614080449221118e-09 4.0267799871920971e-08 3.3001650331538179e-08 1.2276752859885037e-07 1.1492402741769117e-07 8.3224058553516314e-08 1.0000492262898275e-07 1.8046393397639758e-07 3.1866106033681037e-08 4.0818212428157715e-08 4.415817722650521e-08 1.5550434289865369e-07 1.3694297924284261e-07 9.7195226635180839e-08 1.0908762191421548e-07 2.0294289563296475e-07 1.3796364567241143e-07 7.7393891413225212e-09 6.6629472156177858e-09 0 3.84653426105994e-09 0 0 0 1.2331226861199242e-09 2.8955984246368989e-09 8.9173174205936093e-10 7.5247053286794337e-09 2.1335865256621143e-10 0 0 0 0 0 0 0 0 0 0 0 0 0 0 0 0 0 0 0 0 0 0 0 0 0 0 0 5.7538727891873013e-15 1.0947641712060962e-15 0 0 0 0 0 0 0 4.8456063509243975e-11 1.1544017510324517e-11 7.8828554112521205e-13 0 0 0 2.534414130336056e-13 3.9135729065659892e-10 1.8944687234131374e-12 1.1656575764159344e-12 8.03576482169225e-11 1.5264155761417164e-13 0 1.1905474592223164e-17 2.6169142786132393e-12 1.8383923642739932e-16 1.0001941866145524e-12 7.3455825018276996e-14 9.3305994140989252e-11 3.5477397767912233e-10 5.5329298799010584e-10 1.9716571020393444e-09 5.6326632169552494e-10 1.523248453753159e-11 3.2022549633385741e-11 5.2772810773846494e-14 1.878367495227408e-13 1.3547543360940817e-12 4.5775474579263061e-10 6.6436340734876915e-10 2.7666314411383164e-10 2.6654283114348425e-09 7.9149591692404273e-09 1.0543070765807821e-08 1.9916221792588189e-08 1.3154954666547143e-08 1.1063249491595566e-07 7.8355743018910511e-08 6.6087897115658232e-08 3.2268524875731095e-08 2.3440666723697736e-09 5.9119895579580559e-09 1.5153969346561202e-09 1.3596005550942992e-08 2.560912787711272e-08 1.1279802139985211e-07 7.7906686277986906e-08 1.1995091820937776e-07 1.5540151180429776e-07 1.1929821242515767e-07 1.363040158855478e-07 2.1641776036790114e-07 1.5875878860858592e-07 1.7820415384263909e-07 1.2979080507700886e-07 1.2123382323100831e-07 2.1799445986687714e-07 3.6804617192521706e-08 5.2727133261053965e-09 8.4927128908355097e-11 3.9445821985067098e-09 6.0621970759469436e-11 8.4973483222392869e-09 3.0511895480903298e-08 1.308154821349243e-08 3.8574489027884125e-08 1.319842109848001e-07 3.4069805406950872e-08 1.9394315348362978e-09 1.7619943620591513e-08 1.5092376172077042e-09 6.7210643802852586e-09 1.0870703329133194e-11 1.951135149798557e-11 2.8358207708551122e-12 0 0 0 0 0 0 0 0 0 0 0 0 0 0 0 0 0 0 0 0 0 7.184806030087827e-17 0 0 0 0 3.7573115327450224e-16 1.1745482078009049e-17 8.0628774415153725e-17 2.5172496338883271e-15 2.5024179284185338e-08 2.2758430107586822e-08 1.3269801802515065e-08 0 0 0 6.1265146784079788e-09 1.141316780067958e-08 1.3579220838523767e-07 6.1849004743989802e-08 8.0256631608141611e-08 4.8382290705530054e-08 6.6546591494825071e-09 9.3987640552271664e-09 3.0861433907732434e-13 1.4362089731573397e-12 6.6992339148081976e-12 2.5548221842431434e-11 2.3365150083161857e-10 2.5685400596254822e-11 8.2571338521675686e-11 7.7212678606417111e-11 8.5685163234947395e-12 1.9976753957491069e-12 6.4926034243035793e-13 9.8945035989311132e-14 2.2185215981476206e-14 2.3510997451772905e-15 5.9574696863353295e-15 2.2190628694990024e-13 2.9608898470053564e-14 5.4022756204244654e-15 3.4960270701939822e-17 6.657128564138405e-16 0 7.6213314727745586e-18 5.7120601116680929e-15 3.968388678892767e-14 1.119523642169567e-12 3.3547867189465487e-13 3.3385184169562365e-12 9.7517765500824934e-12 3.8271443166812044e-14 2.8500682129981099e-13 2.2078049421638437e-19 5.2154606256101422e-18 2.1056299499956566e-19 1.278276423453859e-16 5.631711759203206e-17 2.2933040198123853e-15 1.1478337258240435e-14 1.53471637490554e-13 4.3147764714737327e-15 2.4355547326212819e-14 0 2.6668821778961009e-16 1.1091550121120502e-17 2.8514290037512328e-16 1.6733832967693453e-17 1.0706942160661272e-17 2.018217266524797e-16 0 0 0 0 3.5431719048132941e-17 4.2993154889946654e-16 6.3689442596845129e-19 0 0 0 0 0 0 0 0 0 0 0 0 0 0 0 0 0 0 0 0 0 0 0 0 2.2329633765687795e-17 0 8.7143404534546665e-16 1.5324060596153555e-15 0 0 6.7520910119593662e-17 0 0 0 0 0 0 0 0 0 1.162240779439685e-08 1.0282985475461645e-08 4.2830362143308224e-09 1.0196457843244684e-08 1.5486176625129392e-07 8.9570072329979972e-08 1.2457438160150901e-07 4.8494039737333505e-08 4.4691843187358725e-08 2.6422949528245576e-17 3.696449606240573e-09 1.7072245590692915e-14 6.4251641770620747e-09 5.8449801506390482e-09 1.3842155588296504e-12 1.0057304883801377e-08 5.4592590603396463e-12 6.0388604670428626e-13 2.8714282517106594e-12 1.3513723158394132e-13 1.8998835705623681e-14 6.8773940499579283e-16 8.4350132352303087e-15 4.7833558658727608e-14 9.8351434432434971e-13 1.8363858640090603e-13 3.7148664280431246e-12 1.0346118673090655e-11 1.4226834456549887e-13 2.259649755143154e-12 6.9182304622991061e-12 6.2934938937159241e-11 3.7454192218948828e-11 1.2119880418253e-11 7.0225178597287237e-11 2.0200613460549172e-11 1.8323697217837397e-10 7.9771936233289733e-10 3.9209078523186784e-10 6.6880592029646806e-10 3.5787444175903168e-10 1.2715111097214495e-09 2.9986351995389833e-09 1.7856008720770175e-09 4.4162576409571919e-09 6.5444712330158845e-09 9.2792255911456146e-09 6.452128846910316e-09 8.5099363719100045e-09 2.277027798017682e-09 1.1201786360846288e-09 2.6428996288929251e-10 1.6381666733297523e-09 7.794582226363385e-10 3.0151025869046865e-10 2.1108199448297573e-10 2.6346478015747917e-11 2.411630496733106e-11 1.5886064676001123e-10 5.097274415294103e-11 5.5772921569147008e-12 1.0905164209433263e-10 6.6011571427689218e-10 1.4769551836611761e-10 2.243046832958256e-11 1.7000839375880976e-12 6.5361276675639724e-13 2.785242339412221e-13 1.8422529723288624e-12 1.1725419863537947e-11 8.4797044374659144e-13 6.589303671004135e-14 2.5008790982201839e-14 1.6470262409948904e-14 4.5637863909975523e-14 1.0518575950559485e-15 5.6173439905840579e-18 6.2276376938599541e-17 6.0289605073388619e-16 0 0 0 0 0 0 0 0 1.11000527251136e-13 2.6174917717272584e-13 1.6523004262430598e-12 3.8113334253572475e-12 0 0 0 0 0 0 0 0 8.389470752913027e-20 0 0 2.1464620044447245e-18 3.5634588088844846e-17 0 0 0 0 0 0 0 0 0 2.7629586579081022e-11 1.5821155696075911e-09 2.4202289185400598e-10 0 1.3864300397718863e-10 3.0075224715052814e-11 1.6825951347495367e-11 4.3580576801654925e-10 1.1661481685442848e-09 1.557258063430992e-09 1.9412555202165545e-09 9.3415326175195046e-11 6.6105492752267842e-09 1.2490260559758098e-08 1.4818190048117611e-08 2.4318172342676657e-08 2.9853396051093474e-08 2.7324550003650911e-08 3.6588901728372164e-08 8.5379035766057829e-09 1.0100433868128004e-08 3.0689790259031369e-08 4.5431556194019021e-08 1.6668180857136176e-08 3.4426650785455189e-08 1.8690104006309354e-08 5.4111744445774194e-10 2.1228960043870158e-09 1.3896429992215349e-08 2.5313170214268591e-10 4.3069466296048305e-11 0 0 0 0 0 3.2029392254604918e-10 0 0 0 0 0 0 6.419447899356927e-10 2.9955542797494417e-08 1.4816214227775051e-08 1.6638205942674762e-08 4.6263491480934206e-09 3.3953395513571398e-09 0 0 0 0 0 0 0 0 0 0 0 0 0 0 0 0 0 0 0 0 0 0 0 0 0 0 0 0 0 0 0 0 0 0 0 0 2.00698031641239e-21 0 3.1059045710567339e-20 8.0559923513196147e-19 3.2712958515834636e-18 1.7524378556734011e-19 0 3.140476519657176e-14 1.0369281365708473e-14 0 4.6257353560916302e-16 1.1429732703846849e-16 2.3773920250054583e-17 8.6409854457469391e-13 3.766001608340714e-13 1.1590531917064384e-13 9.7357963966089292e-15 6.7482064810049677e-16 1.7166434456106405e-15 1.138438832095447e-16 9.3852037690310079e-15 2.2475140554335592e-18 0 0 2.15306912709649e-19 5.9822748208062301e-21 3.0212893829005936e-19 0 0 0 0 0 0 0 0 1.0175535362499227e-17 1.9462184512073055e-18 6.1089071818491494e-17 0 2.964994252844442e-16 5.3844682820454312e-15 1.1998192326415879e-15 2.3228485489028356e-14 1.4155755430714167e-16 2.1297433134702709e-13 5.278362151059337e-13 2.247059454824419e-10 3.4098602780389144e-10 8.832188518337919e-09 2.8948623354116231e-08 3.6249568482229255e-08 1.5985922323563712e-09 1.2465500384038439e-09 3.4877497597962239e-09 3.7477337435187903e-08 8.07092592867561e-09 7.5703893036478476e-08 4.4892752763428932e-09 1.6885793520427313e-11 7.1871372788325758e-12 3.1794786716674954e-12 4.9503946549656834e-14 1.0774124613658783e-14 1.6400243145695123e-15 2.0323279573694065e-13 4.1396822143685287e-14 5.9535121757500093e-13 1.8891828888906294e-12 3.5833696674860481e-11 4.4550092699728009e-11 8.6178418552696718e-12 5.2098653857777704e-12 2.4513135497513369e-13 4.340105198140605e-13 5.4002182980739341e-16 8.7123068073909975e-13 3.807293262578535e-11 5.9396357854811386e-11 8.2014749809092814e-11 1.6649570865722226e-09 3.0212871826229496e-10 4.7629294774936969e-10 5.2953642147455804e-09 1.2841361934047816e-08 1.0607649502207909e-09 6.8628474706029088e-11 7.4031241623466902e-10 4.7790958586268172e-10 7.8903268350529139e-11 9.4212988434760221e-09 4.2747697400323235e-08 4.899768100753555e-08 1.795156326022625e-08 1.2446265014053342e-08 2.0061391204380744e-08 1.1192997603779485e-07 6.8138428385655784e-08 1.7977915353773504e-07 1.6241186731043867e-07 2.1653539252717832e-07 1.2735291368450222e-07 3.8497773393269518e-08 6.2486628660440929e-08 8.166582671766566e-08 9.5814136662588642e-08 1.3077303131599462e-07 1.1077091158551871e-07 3.508218717233774e-08 2.9730205327096997e-08 2.9106911518842444e-08 5.053144824586576e-09 3.365869120507792e-09 5.8768748670458483e-09 4.6513915948433632e-09 1.4686168247261706e-10 7.3393786599697019e-11 1.5532176833889054e-16 9.7731808846087314e-18 5.7611406508929947e-11 1.1056640921664208e-10 1.8078263331598703e-11 3.3776586580791876e-19 3.7800718151161188e-13 3.6079843314027825e-12 8.7302514062641934e-12 4.815369672698482e-09 2.1540913253463467e-09 6.7926911327258045e-09 3.0383719920306731e-09 2.3555102727719934e-08 2.9558804667486236e-08 9.1938875838188319e-09 6.0421481716816352e-09 1.151858292063309e-08 1.4418014983511633e-09 1.4515054769516213e-09 3.9517106002338818e-10 2.517959670223181e-09 1.3041273297882893e-09 2.6950872670666617e-10 1.2751472106999645e-10 1.2200725881532877e-13 3.0747927004430214e-14 6.3434273042044104e-15 7.1443882181014615e-11 1.8513759268247053e-10 8.0524841105578264e-12 2.0947977434623271e-11 2.3852134306062239e-12 9.625995882931391e-13 8.2950711232476848e-11 3.5092205192574107e-11 3.8485038395986544e-10 8.8399926022655511e-10 1.124913768297634e-09 5.8110806229635028e-10 2.1189845854751802e-10 2.4869555042291835e-09 4.7356245524291305e-09 6.8689225666757753e-09 1.9880818755459708e-08 8.953972630765153e-09 7.3791107977146075e-09 1.4362802244346148e-08 9.6457279173381392e-09 8.1742646671467345e-09 5.2936633372870696e-10 7.3053663939945787e-09 2.3081713998500157e-10 1.109031443980296e-10 1.0021982814626823e-09 6.2886395790277392e-11 3.0209450113157698e-11 5.8359035088167435e-15 4.2269401388319486e-16 3.5392834304522823e-17 1.5378190472055527e-11 4.7817512913808683e-12 1.904380541096887e-12 3.7370768996661764e-14 5.5254693447091221e-13 3.0969993782724136e-12 1.1400329352325711e-09 1.4824941034730583e-11 3.5040323782824476e-11 2.7577998791226182e-09 2.1603560872697476e-09 8.6970120642198851e-10 6.074708679227673e-09 3.309813163948307e-09 5.2848121692853102e-10 6.8798898821671747e-10 7.2675656180872715e-10 8.9621980479944285e-13 9.5899584499743693e-11 2.569917332185914e-13 6.7098986801906967e-15 1.5096275726607125e-14 7.1247758889932596e-12 1.0754565420471673e-12 4.6736099285333212e-12 7.0085166556343329e-11 4.789372960440843e-11 7.1006886893444453e-12 6.9189538162653416e-13 3.4717835518551377e-13 3.6209089618463504e-12 1.6445006198841267e-12 1.0677211165489551e-11 4.0721733696839278e-10 2.5138328165647733e-11 7.6791965246850163e-11 3.5943550353390579e-10 1.0074681567133431e-09 2.6025126554189201e-09 7.5616968917214932e-10 2.3013067475727654e-09 3.7463510023403912e-09 1.8404642489704263e-09 4.7784498795090431e-09 2.772446297869904e-09 1.7552393559957567e-08 1.8770396730754521e-09 3.0946456857147293e-08 1.3951763127791562e-08 3.0536039575872289e-08 2.5624939730600579e-08 3.3840825248419205e-08 4.3506243596114935e-08 3.3590451236801514e-08 3.8290888036698185e-08 2.5068649021885076e-08 2.5933289488802735e-10 3.9101968252415103e-10 1.8034257149327252e-11 1.0339231414391539e-11 4.7363062430736904e-10 3.6675449582744201e-12 3.6109123271360291e-09 3.1628031287072631e-09 1.3927758452612611e-09 2.5527640233879166e-09 1.121360053142098e-09 6.6437869544578076e-09 3.817387687225409e-10 1.8449652571452982e-10 4.8508182025789282e-14 1.335738846308264e-10 1.2523135058204414e-14 3.3822604298435056e-15 2.2901320820813336e-14 8.7726990075056109e-15 1.5390483121119922e-13 6.5234855988077229e-13 1.457961111302209e-12 6.6848582230557149e-14 2.4478060524803254e-13 1.4233812795868518e-13 1.5488240200491756e-12 9.9823721288346122e-13 5.2315352013295711e-12 3.3388365347503595e-12 3.9752365481969844e-11 2.8182222164535662e-11 4.9759703542420132e-10 6.8181476699759535e-10 7.9936617095650844e-10 1.5375444011764821e-10 5.4043797500457108e-11 4.5258189195715213e-11 2.0450154316926854e-10 2.5862507493504197e-10 2.1411011451182099e-09 1.9006307342228133e-09 5.0826610896010967e-10 3.6248537069285068e-10 1.4094610285348551e-11 6.7022713717565685e-12 4.260876997145662e-12 1.2579175452250543e-14 4.4380294727974955e-14 4.9276935429477097e-13 1.8767014141514588e-13 1.7683722132396184e-14 1.0570394668087198e-15 5.8580176042141905e-15 1.4121223558336305e-15 1.7061777946161945e-16 7.8893675982485785e-18 1.5733360417255652e-15 3.80053045693948e-16 4.3439543706376428e-17 0 0 0 2.3722551705871171e-19 0 6.0965778246660745e-18 9.9718710186360348e-21 0 0 0 0 9.6246537739618826e-18 3.6818011285357678e-19 3.6842791090828273e-19 2.1646451991855726e-16 1.6308447197992315e-14 0 0 2.467000375294481e-15 8.0659229182775248e-15 2.4077280091497986e-15 7.5081508003080131e-16 1.4761841892599123e-16 2.5549643520067325e-17 4.8050542838954759e-17 5.915259073628115e-18 1.8627509953546906e-16 1.0629152834774789e-15 0 0 0 4.9879115762732525e-20 0 0 0 0 0 0 0 0 0 0 0 0 0 0 0 0 0 0 0 0 0 0 0 0 0 0 0 0 0 0 0 0 0 0 0 0 0 0 0 0 0 0 0 0 0 0 0 0 0 0 0 0 0 0 0 0 0 1.0354501791087896e-14 3.9030988352753116e-16 1.0067457322410895e-14 1.1534393453851437e-13 9.3903453594284086e-13 1.3260032044748606e-13 1.0652463374681659e-12 2.089179213399782e-11 4.6741996337491041e-12 6.2028023626874892e-11 6.3585883895397156e-11 1.8684370408875266e-11 3.9278014885011542e-12 1.5684837812072503e-12 7.3441196428562639e-13 6.3612592277442358e-12 3.4936834610116612e-11 1.1587304255017361e-11 4.9456020549102094e-12 2.305414813644494e-13 1.5305961835578143e-12 3.0880280588265471e-15 1.0073923822205244e-13 9.4024156322590581e-15 2.3631471262135965e-13 4.4461915493738354e-16 2.5611901175120942e-16 0 1.6555757115750538e-16 2.9712731204555356e-18 1.1885745781271374e-16 1.9215243825701619e-18 0 1.2885851093949366e-15 3.5537941578465696e-15 4.1454199446663247e-14 9.8287217999787941e-14 2.7280860067490056e-14 6.2654070851195295e-14 1.0020590368039185e-18 2.0882267285855811e-17 2.3125863814933102e-16 1.6040615851124948e-18 4.2102563065257508e-17 3.4512473666052189e-16 6.6015482664227835e-17 5.6184531991355688e-21 5.5671047373977913e-14 1.1251234683992251e-15 1.0913929909244251e-14 3.3437317552691769e-14 1.7139102561432102e-15 4.8157217462998468e-13 4.9264842890107477e-13 1.6165521971551486e-12 3.4593695779176788e-13 8.4465003652373241e-14 6.8121832176524221e-15 1.3810702715811659e-19 8.7220346055993328e-19 0 3.1894199492428828e-18 2.5661885110337192e-17 4.0418751480915743e-19 1.7421541843787445e-16 9.4717026673354907e-18 0 1.1688314876862337e-15 4.9259102572071693e-15 2.7099454479038222e-16 2.1173225682192737e-12 6.5656227499839673e-12 5.3958262988854342e-13 6.1138610638349206e-11 2.207238543039361e-09 9.2122684265972907e-10 6.319208114861887e-10 2.9268889041098557e-11 7.3461521187948887e-12 5.3618263622019985e-11 9.9276256011785723e-11 2.4257369138161666e-11 1.6719768996623542e-10 8.0383519850847058e-11 3.3641416446115317e-10 7.5002581656492161e-10 3.1500066309609127e-10 1.4882061483424883e-10 1.9421697212574e-10 4.8946857544304158e-10 1.1461409976616649e-09 3.5459967030193769e-09 2.1860426890775557e-09 2.2431313381387349e-09 1.4365677415377089e-09 5.6597458199326613e-09 7.819326543253559e-09 1.1105818529629294e-08 1.6440454126003188e-08 2.1402448532798285e-08 1.5981014909139686e-08 8.9767132368192892e-09 6.8735407920561562e-09 3.6397281614738457e-10 3.3107059740336859e-09 1.0529166474190542e-10 5.8235344419676599e-12 1.0100754082241466e-11 9.1999802966400765e-10 5.9762599572489847e-10 2.4204218435388215e-09 4.2457250783566676e-09 1.0222159744730222e-09 6.0525305921095805e-12 2.2863357492200041e-11 3.5421513505568105e-11 2.1549500050890807e-10 4.9284265287258666e-10 2.0065445098892275e-08 1.7412590767363821e-08 5.0255479162052603e-09 3.3134618123806674e-09 1.8899074939997334e-08 3.3010935375318452e-08 2.7017391473019126e-08 5.3642966039540459e-08 3.7416526780776824e-08 8.0546259347498495e-08 3.0602847810928764e-08 5.4886600136708615e-07 3.1598421825196925e-06 4.4189358861104066e-07 1.6515746614742003e-05 0.00018872316889214952 7.2494368763610699e-05 3.9588423148389278e-06 1.7035636173287754e-05 6.3494705311723291e-05 1.2145721320002385e-05 0.00020434292204728996 0.00028702822314370202 0.00024677534167103323 9.6546009789273809e-05 2.8112271819026764e-05 3.9100369858047072e-06 7.4725131788465374e-07 2.3847852190706771e-07 2.9269164895563392e-06 2.5854310950674341e-09 2.6026000907036408e-08 8.4998296107198034e-08 5.414757290804054e-09 5.0982195625907028e-08 2.2194224423533122e-09 1.4148526977965008e-09 5.2101504098731568e-07 5.2664053283234107e-06 3.1134967099092937e-05 0.00010421344157731649 5.2348033865134066e-05 0.00018512494608120719 2.3793126373851326e-06 1.481380473224962e-05 1.6074759133881494e-05 4.8435299624992792e-05 0.0001670996165803105 0.00018006313423963398 7.8592196521792108e-05 2.3213724816219105e-05 5.5443288587521651e-06 9.1368458995972159e-08 7.7318412870210369e-07 1.8441057643003089e-07 1.2369256521828111e-08 5.5175351103384111e-09 1.9702653362016574e-10 8.8776487512673744e-14 0 3.5852302491899123e-14 2.2423077472554755e-14 9.3980025563534774e-15 0 0 0 3.1675169110852061e-11 0 4.9651029718382843e-11 4.9439212573034681e-12 0 0 0 6.2328984010465197e-14 2.7321544168960158e-12 1.9601094063388053e-13 1.2822597224562036e-12 2.1149167290205874e-14 3.7851184355633032e-15 7.5516210650641933e-17 1.7317944886124093e-18 1.0373719353233268e-19 1.7766401950460541e-15 5.0994076835681301e-16 3.9085726019115198e-14 1.2864506054795045e-15 1.0411590542923295e-14 8.0934046461894171e-14 2.549807003202791e-14 1.0174859792412051e-10 3.8663930313041884e-13 2.4880508316530091e-10 1.134779665552361e-12 1.1040225129853466e-13 2.4801632382448762e-12 9.9291455291749233e-14 1.8737736235679713e-13 3.6701003176126061e-13 2.4439876335134301e-11 1.3841755965699676e-11 3.8891266354357776e-10 2.3295063416145589e-09 2.947042804149699e-09 3.3897499871328412e-10 6.6787045616523468e-09 5.698276534157949e-09 1.7878097204012267e-09 1.160204214109635e-09 1.6230149044251359e-09 1.649046904438494e-10 4.0943489100322331e-09 1.0665944181937105e-08 1.3521235932102118e-08 2.2993835150990172e-08 1.1473160433075003e-08 1.4019349871333744e-08 2.6714214181339344e-08 1.7529455477567168e-08 3.4671442038515404e-08 9.790972137069603e-08 6.1467116037413434e-06 0.000206493292236574 3.3816149385030363e-05 0.00012537200022513589 6.6037009313507232e-05 0.00027092768560982761 1.9557534215625037e-05 2.265390736579133e-05 7.6726819997685789e-07 3.8014349473749518e-06 1.2868798222723448e-08 6.9999141957054708e-09 8.67048845526