<?xml version="1.0"?>
<VTKFile type="UnstructuredGrid" version="0.1" byte_order="LittleEndian">
<UnstructuredGrid>
<Piece NumberOfPoints="714" NumberOfCells="1306">
<Points>
<DataArray type="Float64" NumberOfComponents="3" format="ascii">
0 0 0 0 0.10000000000041601 0 0.082799035591426873 0.082799035591510806 0 0.099999999999928008 0 0 0.19999999999983389 0 0 0.20669143849501961 0.085546078947938975 0 0.29145143692666958 0.13500804559578439 0 0.29999999999973409 0 0 0.24783073444672249 0.24783073444648379 0 0.21725788110387281 0.17316968768743621 0 0.17318221359491059 0.27409688392309489 0 0.089078158003765312 0.2493007687782936 0 0.140351188660986 0.16130415108589741 0 0 0.20000000000083221 0 0.066361468125430589 0.15903440181097661 0 0 0.30000000000124832 0 0.0632094674441709 0.3449112819864934 0 0 0.40000000000166441 0 0.083393126324559225 0.42307471369029392 0 0.13897501191807771 0.34545639364066222 0 0.070553891733833127 0.57745844360881338 0 0 0.60000000000138687 0 0 0.50000000000205869 0 0.12353277228144981 0.51086097771927308 0 0.16324260003398389 0.62262730759772122 0 0.1946526892501724 0.54636184660733622 0 0.27220668248394869 0.50912429725145214 0 0.27661118526457179 0.58730386222759956 0 0.16486701364709541 0.41592657376307979 0 0.21928696632013719 0.4676461135047027 0 0.29987747321592639 0.43430880093746571 0 0.2371857680100064 0.35865548441110112 0 0.34318159319555042 0.3314386771104964 0 0.38593969585746768 0.44843324941957241 0 0.42544665781957403 0.3726599289372452 0 0.38240158409674341 0.60644575028138747 0 0.34793494568226019 0.52426775179830853 0 0.45232393232070839 0.53082724112931345 0 0.46433624429412901 0.61260020600107856 0 0.55763912874459476 0.49619993861770217 0 0.56379254693201075 0.58472273515948836 0 0.49272830291620878 0.32528628960011152 0 0.47711113382803011 0.43513410852522788 0 0.56509579243166053 0.39588847936247551 0 0.58612580217118482 0.27813894450229909 0 0.49255105193724569 0.22337579986912359 0 0.5565830077206213 0.19095699352548859 0 0.59999999999951659 0 0 0.57505385014294308 0.072457888465917331 0 0.49999999999959438 0 0 0.50264032148191051 0.12292784096123539 0 0.43504744109702559 0.077628892606360606 0 0.39999999999966429 0 0 0.35933948296838258 0.073809900849860513 0 0.33604819894646598 0.23280286076243209 0 0.41589935411558732 0.26752529264016389 0 0.40428440976105728 0.1643886070295453 0 0 1 0 0.099999999999999645 1 0 0.14716362552681639 0.93861610753355362 0 0.19999999999999929 1 0 0.30000000000000071 1 0 0.29792158491427922 0.79537096033156995 0 0.2235202862591317 0.88873896332704583 0 0.1332109546178302 0.87498377138822103 0 0.075231054453351903 0.92314074346405706 0 0 0.89999999999958358 0 0 0.79999999999999982 0 0.074918724681641777 0.83311952320732263 0 0.1533088418661793 0.80370257472597129 0 0.089684836063650353 0.74720097194875412 0 0 0.7000000000006934 0 0.079752623936563252 0.65630726580969023 0 0.16551550920047911 0.70947866912672319 0 0.22047232289835689 0.77501739045979867 0 0.25446499951716589 0.69023946426646743 0 0.32437633398017029 0.65970549827478953 0 0.33985912385126898 0.73174041004507751 0 0.42824324229177341 0.6924957961634054 0 0.5174764925733939 0.65338828204098198 0 0.59670004617370476 0.65981579440137683 0 0.62152629835360762 0.73285157302339954 0 0.52912171753951986 0.73993242892488531 0 0.51076728641122882 0.81691863363193817 0 0.62017612851329729 0.81451802170669263 0 0.56701461556202259 0.86335846433862784 0 0.45907587517201498 0.90165918271477563 0 0.43819239467549531 0.79296936871720936 0 0.36912581253574028 0.83088590731704637 0 0.37337282601342481 0.92616598444216514 0 0.31535921456193688 0.88154045330654418 0 0.39999999999999952 1 0 0.49999999999999911 1 0 0.59999999999999964 1 0 0.5499999999999996 0.93976792513729512 0 0.70000000000000018 1 0 0.79999999999999982 1 0 0.89999999999999947 1 0 0.8793859710393791 0.93083561064221121 0 0.93540888248908083 0.88281232945237675 0 0.91372311269140116 0.80486176357476358 0 0.82192606283926717 0.87651855948129354 0 0.73937541854631073 0.9288754054780668 0 0.64588148000090029 0.91512139508160772 0 0.76404828705430583 0.78174230667165401 0 0.71722872346306721 0.85096302760907838 0 0.69085763855200755 0.76120667115691065 0 0.6754414170471299 0.67700559910555169 0 0.74547688787239819 0.70026419381674654 0 0.81910554849723838 0.69100245438023977 0 0.84477163403336131 0.77519844632340484 0 0.90192269692920224 0.70295054578552552 0 0.9749171938312049 0.68304286407835557 0 0.98491966670915287 0.745702719141624 0 1.0785590511537511 0.75365885686631617 0 1.05 0.67063679245255348 0 1.1595355377629719 0.69612720023346242 0 1.2316049928421089 0.71268197388690568 0 1.130022579458912 0.80264790230838934 0 1.2104878010462079 0.79638517641579154 0 1.246238897717278 0.90016207822659 0 1.1492841477515361 0.89495863909300122 0 1.035017143854235 0.92577305964649748 0 1.039491394416145 0.83402983011495258 0 0.99999999999999911 1 0 0.94997493298435887 0.94717135651053852 0 1.1000000000000001 1 0 1.1999999999999991 1 0 0.8520969719592798 0.19112077159544111 0 0.81051762114363357 0.25355176211442859 0 0.91043121937362004 0.26518856856736223 0 0.87151744524583186 0.1145610820769897 0 0.89999999999870417 0 0 0.8072276847200428 0.07509171132446453 0 0.79999999999899607 0 0 0.75434135135171976 0.12888799631625769 0 0.73796379772146625 0.059893436010741673 0 0.69999999999928797 0 0 0.66267222434682926 0.078497159578092612 0 0.64669101990832323 0.1799054750174742 0 0.75284581776561577 0.20455093921856349 0 0.7545004114404561 0.31098089234202853 0 0.68811979868824935 0.26566684131589419 0 0.65823561246403328 0.35502292901158627 0 0.64897033023755402 0.45530630145656431 0 0.71094001953927277 0.41472992215547572 0 0.65500944633069913 0.60601350811213128 0 0.66278242936710119 0.53985356489900171 0 0.74775703275407246 0.49059679564787018 0 0.74991769371388628 0.60451627361984739 0 0.85383906663538056 0.62014574817393608 0 0.82099888937423493 0.54529350322201742 0 0.89730215834238125 0.56352362508531118 0 0.79315209058920677 0.38802315963964318 0 0.83603391221093415 0.31708941802047369 0 0.84897848255088726 0.46000674997733482 0 0.9184189969982266 0.43608586792060411 0 0.89716106756302072 0.36571612550017968 0 0.97284972811175952 0.32057650487681749 0 0.97803218086495292 0.39957666910545891 0 1.049999999998295 0.45311778235774403 0 1.0499999999982661 0.33749999999944968 0 0.95554667482020261 0.61387123313571723 0 0.95438428234324713 0.50021891445525024 0 1.0610070115193291 0.56187728740506249 0 1.160572984923127 0.60155304747043781 0 1.1544259370261769 0.49580194535795907 0 1.11366617971111 0.39530889117858181 0 1.1787318575418491 0.43180077319900678 0 1.2482752740169289 0.44264463249545388 0 1.193211192060164 0.36417169501775798 0 1.2189485028845071 0.28846717556219142 0 1.225209211892335 0.20648826945283069 0 1.14543293599463 0.16096823716187 0 1.1317936052402791 0.27327200211975772 0 1.0273907165533489 0.25089655084417212 0 1.0673059847957449 0.1861726764986896 0 0.96758455917765662 0.17206502793490561 0 0.99999999999841238 0 0 0.95940036225003311 0.0802667348803804 0 1.0527907183502181 0.1005001786211816 0 1.1494214575391031 0.075340014825429069 0 1.09999999999812 0 0 1.199999999997829 0 0 1.2999999999975369 0 0 1.254652873386052 0.105753482544517 0 1.3681535985071449 0.13698083382674339 0 1.399999999997245 0 0 1.349999999997392 0.060567969661089648 0 1.291408388555241 0.26372433042992383 0 1.316869459340541 0.18778020585802921 0 1.3878996413210389 0.26723502210068018 0 1.473286192129879 0.27883707652097373 0 1.4156792278190771 0.19574754335211339 0 1.4905184776249101 0.20629734327603311 0 1.545236949037224 0.29434567071731399 0 1.456639397274391 0.1016053838939758 0 1.53341268746562 0.14194251306413061 0 1.542152768646126 0.073248247890105089 0 1.4999999999969531 0 0 1.599999999996661 0 0 1.6999999999963691 0 0 1.6799832100487111 0.082202015566833181 0 1.609545399082946 0.1308291592921435 0 1.567491488875842 0.20218805454405439 0 1.6351951680630969 0.23707571199064051 0 1.714493154391862 0.28897291620938281 0 1.7304700827703301 0.17386188770806579 0 1.799219293849516 0.26438879273789773 0 1.8480644103363271 0.19193194889233381 0 1.8299024103288899 0.1151394713368583 0 1.799999999996077 0 0 1.75369588639865 0.074917217572982864 0 1.7537858687071439 0.50406839622489796 0 1.742806034420483 0.6006074591026016 0 1.8544400981153091 0.62488101477716596 0 1.8316048184152021 0.54157006606434721 0 1.850967139686138 0.45738417241574703 0 1.8620515405159661 0.32644761881501039 0 1.787749129254824 0.36176402170097799 0 1.7808296409871709 0.43587276890434401 0 1.71976181471802 0.39635806210359681 0 1.645895854313963 0.45222881216869149 0 1.6419306970571019 0.3436055112169133 0 1.645263810758179 0.55814977621663464 0 1.5386621965636409 0.60828218080060537 0 1.550364457075788 0.50467902559054656 0 1.4795754400412069 0.53983964974648579 0 1.445918816848357 0.6075709531782556 0 1.551956040519719 0.40384519109247291 0 1.4491802319415681 0.4666714614197911 0 1.4507225717793131 0.3561247496431208 0 1.347125314110625 0.32447518420453242 0 1.385017785528226 0.40713366384701549 0 1.3198129865007471 0.39133224900025881 0 1.2615469736996101 0.34090999671933891 0 1.3860523322451299 0.56073196187600105 0 1.3462106466432811 0.48060664220838062 0 1.2709684905841181 0.55537862536316829 0 1.2546738886072291 0.63615646469940468 0 1.3545060270195819 0.65002758689694418 0 1.4000454837723419 0.73943313674757749 0 1.3035852436207409 0.73866974635260263 0 1.2914654457895349 0.81843301378315825 0 1.3255948392482531 0.88328132587465524 0 1.3864786876100039 0.92208751032957958 0 1.386174597084219 0.82350876346868962 0 1.482119963281066 0.782586299849238 0 1.463012078585596 0.89209645917012148 0 1.546104640467868 0.9195568013001878 0 1.535346256113697 0.70153336654872078 0 1.4534042830965781 0.68426123045930609 0 1.2999999999999989 1 0 1.399999999999999 1 0 1.5 1 0 1.599999999999999 1 0 1.6999999999999991 1 0 1.7999999999999989 1 0 1.6597641702579149 0.778
[...]
<CellData Scalars="A_conc,As-lin_conc,B_conc,Bs-lang_conc,C_conc,Cs-freund_conc," Vectors="" Tensors="">
<DataArray type="Float64" Name="A_conc" format="ascii">
1.7638565434551434e-06 1.9920296147945087e-06 5.8276193742092683e-07 8.5684500271651976e-07 8.7292230943887791e-07 8.8769886233772272e-07 1.9565224950657295e-06 2.0078802918470453e-06 8.7486231620495452e-07 8.8986767743773414e-07 1.4670147351123901e-06 1.8222582373863367e-06 1.6357845324477345e-08 1.7794540218039335e-07 1.808528846632405e-07 2.0642604723765893e-07 1.3226899877251681e-07 1.1572244562228769e-08 5.8981020681087623e-08 2.0233248680731799e-07 2.15058029267838e-07 2.1079418286534043e-07 5.6300108350488439e-08 1.2929652047106345e-07 2.7941142843797022e-09 2.624915383298771e-08 1.7309435070724915e-09 2.860059035278987e-09 1.9587338662319884e-09 3.0102186736855835e-09 5.7620611761279168e-08 2.2381467420158892e-08 1.09790342422271e-08 1.6635718126392143e-09 8.5383767440031393e-09 1.0688453356760528e-08 2.3645329107018239e-08 1.1388686627457752e-08 1.606440609543026e-08 3.3595111723526933e-09 3.0834279347979466e-09 5.7393564754668674e-09 2.2023347660763669e-09 2.0156446996537667e-09 5.35312818924418e-09 3.2233452467799498e-09 1.0947016319369025e-08 1.8539629831223195e-09 2.1796081599172159e-09 2.0540541625126176e-09 2.4362926200075751e-09 1.2117902545818576e-08 3.1614591802094223e-09 2.8134642261917063e-09 3.1137989720324133e-09 3.5798729632842254e-09 4.5875955191242764e-09 4.1193914102254746e-09 7.0604328168822888e-09 2.5510051758501303e-08 2.3983282931413432e-09 2.909089877268455e-09 2.6060780457219893e-09 7.6343111360027853e-09 8.7527234925599292e-09 9.3044263683806079e-09 2.1377798395390255e-08 3.1979604083186391e-09 4.1741927667207464e-09 4.231488133604765e-09 4.6024729693345327e-09 2.365204766112931e-08 3.8588331402786531e-09 3.1746910020271205e-09 3.5497640014512334e-09 3.4850426263758257e-09 4.8534362405226342e-09 5.3484558499350066e-09 6.8549855993388175e-09 8.0047285199625711e-08 1.0054684021192028e-08 1.0923546074902306e-08 1.1881372305273535e-07 1.1997537000792333e-06 1.8317772061238668e-06 1.1100121418881935e-06 1.094285662994683e-06 1.1617655565346572e-07 5.9679496073881155e-07 6.3285926522540632e-07 1.7331345340226201e-06 1.7067325705113128e-06 2.2587785179106203e-06 1.4949305537106867e-06 6.1867005217923566e-07 2.1082991239071868e-07 4.3684267403548597e-08 1.7243665893359205e-08 6.2307978978471754e-09 7.7206689455710496e-08 4.5177022856478419e-08 2.165819978226552e-06 2.5213184712822819e-06 2.469443522458148e-06 2.679985883365473e-06 2.2984302018532447e-06 2.3354653750155966e-06 2.0285479182842267e-06 5.2524868646326568e-07 6.2958312641844917e-07 5.1352545753726861e-07 5.0003023934677611e-07 1.8681467167760226e-06 1.8356596316727365e-06 1.189757351340082e-06 1.165017082303987e-06 8.5802349973988666e-07 2.9635809847422598e-07 4.8815165813599656e-07 3.0585838870837306e-07 1.146805448272635e-07 2.2425327418383194e-07 2.0059351249805853e-07 1.1000328052788879e-07 5.8015127069598266e-08 4.4644305155983917e-08 3.1173193782023343e-08 4.720956753646775e-08 1.161443108499586e-07 2.3100721735377482e-07 1.2138572362445238e-07 1.2592101876772146e-07 5.7691381090143816e-08 3.3571148012355799e-08 3.4400334762446607e-08 6.0620022162622117e-08 9.4503150880100185e-08 8.9475529057720596e-08 3.6380117115696475e-08 6.4175057791449493e-08 4.0503191556405137e-08 6.7799803454675704e-08 2.2527099723452867e-08 1.4064383736127476e-07 7.4764962805694235e-08 3.6408721581550896e-07 1.3178202558055751e-07 1.3755418211202107e-07 3.0345610740526244e-07 6.6400969918600001e-07 3.1813350223901454e-07 6.4287474880764857e-07 4.4253982374084105e-07 8.1180193051557743e-07 3.5300654955581178e-07 1.832106977833303e-07 1.7793981860048584e-07 5.3132389315747842e-07 2.0740999927957453e-06 7.9828486098145758e-07 2.8967375022431637e-06 2.2186019205102137e-06 2.2563517938320587e-06 1.6743743256941898e-06 2.3785764814488615e-06 1.4506865827266003e-06 9.2289181769909764e-07 1.4820494048540593e-06 1.0468598367344024e-06 7.6759068998313554e-07 4.79062642007816e-07 3.909702249140642e-07 4.2336363664149183e-07 2.4501591153732059e-07 2.9973018300878143e-07 2.3630592629445096e-07 5.8760584710809731e-07 5.7214540497079193e-07 4.4183489195026687e-07 4.2642224037033715e-07 3.2732072934422942e-07 1.8714291275385381e-07 1.9524080173015483e-07 2.2669500691955501e-07 1.2138301886555373e-07 9.1577898788774526e-08 1.1726325552649201e-07 8.8522238736132002e-08 1.4755955215702206e-07 3.3911445098086288e-08 7.2388205187871513e-08 3.2441487026761839e-08 3.5825055285818846e-08 3.7336003500058866e-08 3.0105784256113569e-08 3.6897001727454917e-08 1.2209526903660903e-07 1.2554708619982082e-07 1.4618518864745968e-07 1.4172592053255191e-07 3.8557890500816599e-08 4.0803926868776834e-08 2.9031062625587602e-08 9.2129737968917551e-08 8.8566430652886761e-08 9.5395404222249373e-08 2.070205319542152e-07 3.402873267202841e-08 4.8916003776896247e-08 8.7282842863727474e-08 1.948958095848659e-07 1.5163328607964005e-07 1.0065245529463479e-07 1.5011628520085933e-07 1.4152116684059932e-07 4.0648094458955564e-07 3.8627422934610737e-07 4.7618173495094643e-07 6.4328674165450132e-07 4.2973472983098281e-07 4.2810069653132001e-07 2.2779366229299441e-07 1.9719555676606532e-07 3.1455320915814392e-07 4.352856396862368e-07 4.1038684213147967e-07 5.1340336761980309e-07 5.3442118798891352e-07 5.5092113461435786e-07 5.7462764482048088e-07 6.0302509400460655e-07 7.2314699734885902e-07 2.4995566592133246e-08 1.9321713604112375e-08 9.5820314112158357e-09 8.9128912284575693e-09 2.0827083093413608e-08 2.2403417406195731e-08 3.1624450989951662e-08 3.8423949563819872e-08 9.725945959789624e-08 9.4072282011896036e-08 3.872252191175645e-07 3.8072173926671246e-07 2.8873903133004915e-08 7.2922658755334432e-08 1.3365561622020593e-07 1.3750368237036571e-07 8.8727499311670725e-07 1.220766089420826e-06 6.9829920665573493e-07 1.3395005415641397e-07 7.4491799863820348e-08 1.3972211425731119e-08 2.273604872155901e-08 1.3025638085030381e-08 1.2263347805886203e-08 1.1923740949078479e-08 7.8574750351664667e-09 7.1091865434496453e-09 3.9185871003391913e-09 3.4661555354370578e-09 3.7795583235437138e-09 5.0481479483047727e-09 4.6550667146546576e-09 6.303225312108992e-09 5.8280094356087802e-09 4.6376742279057919e-09 6.1878799622012403e-09 6.6537225101736437e-09 8.5997289848413997e-09 9.2740461079993947e-09 5.8817200276273281e-09 5.4131408516247776e-09 6.2608172448958087e-09 8.5837090874819623e-09 1.1043202127240593e-08 6.2571524154247711e-09 5.9945431205764933e-09 4.030886902803087e-09 4.0665424007888696e-09 4.4351899685334497e-09 3.971688096057408e-09 4.9585966299173695e-09 8.0862888034388676e-09 8.5902706150177351e-09 6.38836244860008e-09 6.9215867501482486e-09 4.3670571367299289e-09 4.6785701890331894e-09 7.1960584294177322e-09 6.244195207862114e-09 9.1053256581720977e-09 5.940642567966953e-09 4.3608734021610411e-09 2.0118626848329824e-08 1.7417643732354751e-08 1.1450514518994247e-08 4.5632367511339664e-08 2.3116508435653939e-08 7.1065503569704454e-08 1.3539676351346843e-08 1.0602941664346299e-08 1.1698223139194196e-08 6.9367634428262226e-09 1.3353822292111737e-08 2.1026524687919926e-08 2.3651800337877407e-08 4.2487155718542286e-08 3.7225294747466248e-08 6.5301152692556669e-08 3.8574407304581652e-08 2.2142723045045787e-08 8.775253945373448e-08 4.18007497295017e-08 3.4452609288743244e-08 1.2517152167589333e-08 1.3547001945342715e-08 3.0073614011185743e-08 2.9329890484027574e-08 2.4316808430218007e-08 1.1391282515620887e-08 5.5579452919968886e-08 1.2746492947832934e-07 4.1176282995589094e-08 4.1140590168349313e-08 4.5194900335526714e-08 6.0040844854298708e-08 8.8510396147434261e-08 6.7999430524329247e-08 5.7510545246226842e-08 7.0174593357406172e-08 1.2392551536286898e-07 1.9623955049234788e-07 3.6982189766252986e-07 3.7477688372839459e-07 2.9662702574885631e-07 8.0802902014221838e-07 1.8572883655065992e-06 8.8120918154282962e-07 1.372872254464095e-07 7.4977533228116281e-08 1.4542518648872346e-07 1.3146156163380115e-07 7.2438297960584983e-07 5.7674869933469021e-07 2.6490412152153038e-07 3.1762516857173656e-07 1.5010226624990394e-06 1.2988942201326451e-06 2.5165001821345457e-06 2.7993075565249028e-06 7.9264871986215864e-06 8.4269926084195077e-06 3.1396715718708889e-06 4.7175166274971647e-06 3.5605315217034104e-06 1.5167583723982095e-06 8.3633591212287392e-06 5.0196917388739727e-06 1.5152998113894784e-05 1.4340949070977828e-05 7.3139903162169614e-06 4.3121132103628508e-05 2.7767717222194765e-05 6.8231541252540404e-05 0.00012146624505255711 7.1850675525170983e-05 1.5246229432764782e-05 2.537402161172206e-05 2.4228141039047438e-05 1.4161386281125461e-05 4.5182711923908038e-05 3.8923131628318515e-05 7.8265209084672153e-05 0.00022141554783935489 0.00013207018367506968 0.00017510010090925759 0.00043527873451337784 0.00039959826433653056 0.0002946595060627096 0.00054806327657717186 0.0004517332830422131 0.0003197237428619221 0.00019047153092338658 0.00012641796848179263 0.00019247019112934003 0.0001824727516592475 0.00027914387438785979 0.00030124059089506268 0.00026206808755888415 0.00036046226488922533 0.00027794371674476034 0.00011514218641451078 0.00013499996712629356 0.00018617380947186831 0.00017921670935847094 7.800737151262344e-05 4.5212424256102214e-05 7.1333254186859931e-05 1.2603019702604106e-05 1.2951891697208796e-05 2.4400225674392236e-05 2.550518968834757e-05 4.7432123414840599e-05 0.00010258981649831358 5.5221647710531672e-05 1.3647675682348688e-05 2.8505413254874811e-05 8.1079320242291385e-06 4.0397650798333482e-06 3.6760941697361324e-06 1.7098608978616551e-06 2.0540956232958727e-06 6.1555154357193003e-06 6.2523574126723262e-06 1.6203581128148998e-06 2.880780674493852e-06 5.9816701092055331e-07 7.3800260169897411e-07 3.3698978459157455e-07 6.5745814532336008e-07 3.3123235397715864e-07 1.4946813623230005e-07 8.098387286841618e-08 1.6115286232516659e-07 3.6834140936348026e-07 9.3501348936841535e-07 7.8529286246929677e-07 3.135830998148665e-07 1.1373073736320899e-07 1.6845936315875227e-07 1.4187310064046634e-07 2.2864959487076266e-07 1.1077650867426179e-06 5.1773349736253539e-07 7.0213427406802982e-07 3.0214592048581163e-07 4.2735567041509141e-07 8.6130122656005852e-07 6.1298572526114586e-07 1.0952050786923528e-06 1.083777534323056e-06 7.1408624474771891e-07 2.5052603437847148e-06 1.3219947251450646e-06 1.5698183371937826e-06 7.6530312967958665e-06 8.9919820705201502e-06 4.6810811796843852e-06 8.8564288149411681e-06 4.5268446267902168e-06 8.5690642334147997e-06 6.7357122169363712e-06 3.3098812025949255e-06 1.5561934214415981e-06 2.5497009727449732e-06 1.6517607136183536e-06 4.0657647748931204e-06 2.7379346391549042e-06 1.4132458880776279e-05 4.3838312009632733e-05 0.00013281815822421245 7.5091914625935756e-05 0.00019600980226705224 0.00032894652259392526 0.00050757985537087263 5.629207526510627e-05 9.9299248831108278e-05 1.2513030246033036e-05 3.3785181517619873e-05 1.8913130951900846e-05 2.8631207555310128e-05 1.6971500374507776e-05 1.662511990317695e-05 2.6783599773765589e-05 5.7689049500164367e-05 8.7938087320210223e-05 4.8686842813115272e-05 0.00015192376195319766 0.00023891770475612746 9.1730483521508115e-05 0.00014217131258951608 0.00021465877282567539 0.00035933005439363553 0.00049977999262525998 0.00050860991311925071 0.00030701537841507109 0.00019766513004796168 0.00011483196221468827 0.00018851816931286235 0.00034810698128304488 0.00082054765509868757 0.00057051680605885223 0.0017168601126306457 0.0012417996905545693 0.0016130267038194546 0.0021172214813721547 0.00074344968569107833 0.0010933004333169931 0.00077607403723302674 0.0010298829087064549 0.0015820219603056847 0.0017611074796812472 0.0012883775397983838 0.0024292436477630704 0.0021333036992493113 0.0042797330371142136 0.0050049050331501185 0.0035376011584036539 0.0048375692248896155 0.0044096258164543481 0.0048897380931000661 0.0027374927447199266 0.0025078258387893912 0.0026675691835197773 0.0035367011283695023 0.0036196131646558487 0.0011767884459826861 0.00080415303500304056 0.0017630071380795942 0.002352060900308023 0.0033524542655913748 0.0055704722246411303 0.0074175143605065847 0.0094931277277560469 0.01575076208367324 0.019198665538519056 0.021777932263512587 0.013623028408217996 0.011765422663984062 0.010291848951013446 0.0061860394707931241 0.0064874422914770608 0.0077189344987256096 0.0089742939308319163 0.0088421502415011038 0.0064668765531733681 0.013308123112661198 0.012092401324210016 0.011101102199090579 0.010949718000023347 0.016988190038704498 0.021459958797513178 0.020242650666189507 0.024518024414298189 0.02010880322036409 0.023633918299310656 0.016870729441700188 0.015208645432141569 0.017551966854421137 0.02012594730997988 0.023713622917665246 0.02062979434627487 0.023692888787232656 0.023793005284454966 0.019610401537675178 0.016434684358537809 0.014425159542792566 0.016599084357990904 0.011152391595963861 0.010431437700898013 0.013969106786897202 0.0084738505432954067 0.0066459372073732342 0.0075352910548260252 0.00911495594129531 0.0064306269828317475 0.0081618743684390288 0.0096011071309803093 0.011629725445905219 0.010494095456061933 0.012926429971196942 0.014275040395034395 0.016813247763912256 0.019719044849276012 0.022412537062441187 0.023747942195759153 0.022968474916386754 0.020577768638969283 0.022146452768633512 0.019073123230825693 0.016188234128619739 0.013045608612570109 0.018069078993244003 0.015241010636891712 0.021937878595055815 0.025919272482384969 0.022273675225479732 0.025593877329875135 0.019004656222828802 0.018164243250111348 0.015349190655991574 0.018208074019116789 0.014871180602129561 0.012017148998996662 0.012153838712308469 0.0098282496616813771 0.0074244778329094104 0.006818184977561613 0.009430934693131842 0.011026278315103034 0.0083128815244400429 0.006528898864859415 0.0066384883461804503 0.0087442670630504121 0.0050834468517234541 0.004221893800711949 0.0037008332420538801 0.0022174969784827846 0.0027196789446708638 0.0050877220047069816 0.0056723036718785789 0.0030334198662379762 0.0037740913893257412 0.0026811249610989478 0.0017964413844970418 0.0020687371910324374 0.00084887899635077181 0.00050839738972049075 0.00086207983108004883 0.0013168808658482203 0.0012992308346661654 0.0015851706028413865 0.0018767587018175915 0.0013123865765468905 0.00063763435611660126 0.000851461982372023 0.0010106468972419821 0.00066804351514552769 0.00052374620273997114 0.00070398553644600683 0.0009852057265146842 0.0013517990783538591 0.0020019803591238483 0.001335338531242871 0.0007351060394630586 0.00081439987257171859 0.00046991025704522753 0.00047236302812111845 0.00073450320429689002 0.0017264860138918995 0.0012145121930250474 0.0017671255052060723 0.0025123919169495333 0.0033158617471204742 0.002473955560406822 0.0034227315505584101 0.0057682401538676001 0.0045738530428017128 0.005111234371346066 0.0044462167952453845 0.0032289140615808574 0.0025639070191286186 0.0038142996340987364 0.24777775585317757 0.24413590010272285 0.25277775484605663 0.26153829547603258 0.26454191540835426 0.25653829699821895 0.26723951963402903 0.27223951974556476 0.26657928208936083 0.26618315659414576 0.27119259005960117 0.26621427905583672 0.26140842209005016 0.2616184372348907 0.25856257689215323 0.27158548953920869 0.26660718051419657 0.27002168939036431 0.26221989492749842 0.25298569330192144 0.25200363620979582 0.25700989905022981 0.25521647647168944 0.24321650822050994 0.24676096257975183 0.24481973579433447 0.24897410715132601 0.25480701680801376 0.24984131412137436 0.25139210532224321 0.24670126001979953 0.24198467299599874 0.24164496010265046 0.23161543320639638 0.23790561752350051 0.23614182722988722 0.22840776524224499 0.24092283541095713 0.23562148754450329 0.23866700750795666 0.23323625605690834 0.2285638228945332 0.22585216348957787 0.23111173344378483 0.21720899186480883 0.22249940784319139 0.21696024151593285 0.21874761528252606 0.21303398426696693 0.21360409381541773 0.22460700641785694 0.21900324253245312 0.22352226159852046 0.21344063620375275 0.21202103331499175 0.21291551043315282 0.21465710273131128 0.21965710111966011 0.22337298038495834 0.23913590265249007 0.23536486379767207 0.23180309147067119 0.22680310140785154 0.24469075225022982 0.24847506811796155 0.24972470194684476 0.25515869123540691 0.25347506740810222 0.26160325201965495 0.26178960443455451 0.25678960754404662 0.2672395200311975 0.27223952021621711 0.26677054401749301 0.26669002572787281 0.25794901150109834 0.26153862508261527 0.26080530371096411 0.27119259238704618 0.26621428544296433 0.27002169341321308 0.26648776976268906 0.25728475243882643 0.25472272302820742 0.25002295952709275 0.24391767195568831 0.24539282402110307 0.24924794348815524 0.2466764853801377 0.24547672145128799 0.25006094555046965 0.25397842773478829 0.2498295312016805 0.2541373302762957 0.253226816592031 0.26196313565590951 0.26234371789726318 0.27146607542167911 0.26612261105018653 0.2696565308600945 0.25812795675065808 0.25945544665215459 0.26441397319911647 0.2697574382780914 0.26634292327311726 0.26181471160673009 0.25660380795205101 0.25283654563463731 0.24849768993461613 0.24440158420919564 0.24767466819055467 0.23682600489800193 0.24036064905967985 0.23609393329525208 0.23252993459630228 0.2282953478162697 0.22832112241625938 0.23323035997464925 0.22103538260046351 0.22542941911627787 0.21797173297332445 0.21354251037916036 0.21118621482625261 0.22376671932631653 0.2204907914122804 0.22392323355036584 0.21975358449351823 0.21664789711257082 0.21166821880403544 0.21428920399521981 0.20996284031852624 0.21898470437475401 0.22783393730998808 0.23252777237993516 0.23211135087279208 0.24082877609003012 0.2363743517922661 0.23689404302174272 0.24201178590137234 0.24044592791864516 0.23635226330567574 0.24072254892051306 0.22704981850820444 0.23251683290594335 0.22557472746008167 0.22134701936780574 0.21332309720393117 0.21742147113436577 0.21313656056267904 0.21760507202390209 0.22142388562120585 0.22474352321560848 0.21971479096013588 0.21175900978079371 0.21432497422450819 0.21228477969553633 0.21752716985618431 0.22252708803683896 0.2318117959291543 0.22681183008794653 0.2297005011542996 0.23452876290875257 0.23842400972514499 0.23660687572892108 0.24160687345028453 0.18292436581099186 0.18610152238615646 0.19026369377923408 0.19463905120276731 0.18963905099864942 0.19907057012835666 0.20728481283872216 0.20407053852429313 0.1990112909378173 0.1952562939609826 0.20311859826833123 0.19776965156809678 0.2092475387110341 0.2076430608591138 0.20836999325585256 0.20497984425638266 0.20096365148139697 0.19418243272804231 0.1909127384402555 0.19426384166649491 0.18728507875465758 0.17928411098774136 0.18303193925814276 0.18183944464842855 0.18658378409196436 0.17917885899754873 0.18514169561455213 0.17981778017906552 0.18994142231441613 0.19547311557105868 0.20139160804004716 0.20529977148400247 0.20351774467535327 0.20818470278540774 0.20018391554274412 0.19511168322065464 0.20012226597498009 0.2035612655260014 0.20795733406209682 0.20504055947364358 0.2075884487399321 0.20151979648163237 0.19809830423684291 0.19016319166926754 0.19369015602442682 0.18956272601669297 0.1845618835366582 0.18177920890589522 0.18697988519837438 0.17559184553278445 0.17257335834250914 0.17915032560155847 0.1703683773538737 0.17496749270657608 0.16558114843758226 0.16610013865788115 0.16924212227378582 0.1582253365990568 0.16179985053723314 0.15866581429747928 0.15053868729606573 0.14817689128981976 0.15382202219198909 0.15179664144877508 0.16118092200070377 0.15601553335402946 0.15746136660927401 0.15261547910047851 0.14761727550237663 0.14852417919377564 0.16016091754393644 0.16209975516696284 0.16580754688011107 0.175324410289497 0.16954415977295545 0.17388513873355968 0.17008657939373403 0.17413677710192157 0.17723842349606062 0.17552932906556523 0.16905943778870575 0.1661524114375186 0.16714942367115032 0.1702877046678585 0.15709598395185839 0.14898681704318353 0.15328086249035508 0.14839021784988377 0.15143993201799744 0.