<?xml version="1.0"?>
<VTKFile type="UnstructuredGrid" version="0.1" byte_order="LittleEndian">
<UnstructuredGrid>
<Piece NumberOfPoints="2087" NumberOfCells="4016">
<Points>
<DataArray type="Float64" NumberOfComponents="3" format="ascii">
-1 -1 0 -1 1 0 1 1 0 1 -1 0 -1 -0.94871794871809101 0 -1 -0.89743589743618213 0 -1 -0.84615384615427314 0 -1 -0.79487179487236426 0 -1 -0.74358974359045527 0 -1 -0.69230769230854627 0 -1 -0.64102564102663739 0 -1 -0.58974358974472851 0 -1 -0.53846153846281952 0 -1 -0.48717948718089282 0 -1 -0.43589743589891272 0 -1 -0.38461538461693262 0 -1 -0.33333333333495252 0 -1 -0.28205128205297242 0 -1 -0.23076923077099229 0 -1 -0.17948717948901219 0 -1 -0.128205128207032 0 -1 -0.076923076925051959 0 -1 -0.025641025643071799 0 -1 0.025641025638979409 0 -1 0.076923076921101785 0 -1 0.12820512820322441 0 -1 0.17948717948534679 0 -1 0.23076923076746911 0 -1 0.28205128204959168 0 -1 0.33333333333171411 0 -1 0.38461538461383649 0 -1 0.43589743589595908 0 -1 0.48717948717808152 0 -1 0.53846153846025735 0 -1 0.589743589742451 0 -1 0.64102564102464443 0 -1 0.69230769230683809 0 -1 0.74358974358903174 0 -1 0.79487179487122539 0 -1 0.84615384615341904 0 -1 0.8974358974356127 0 -1 0.94871794871780613 0 -0.94871794871809101 1 0 -0.89743589743618213 1 0 -0.84615384615427314 1 0 -0.79487179487236426 1 0 -0.74358974359045527 1 0 -0.69230769230854627 1 0 -0.64102564102663739 1 0 -0.58974358974472851 1 0 -0.53846153846281952 1 0 -0.48717948718089282 1 0 -0.43589743589891272 1 0 -0.38461538461693262 1 0 -0.33333333333495252 1 0 -0.28205128205297242 1 0 -0.23076923077099229 1 0 -0.17948717948901219 1 0 -0.128205128207032 1 0 -0.076923076925051959 1 0 -0.025641025643071799 1 0 0.025641025638979409 1 0 0.076923076921101785 1 0 0.12820512820322441 1 0 0.17948717948534679 1 0 0.23076923076746911 1 0 0.28205128204959168 1 0 0.33333333333171411 1 0 0.38461538461383649 1 0 0.43589743589595908 1 0 0.48717948717808152 1 0 0.53846153846025735 1 0 0.589743589742451 1 0 0.64102564102464443 1 0 0.69230769230683809 1 0 0.74358974358903174 1 0 0.79487179487122539 1 0 0.84615384615341904 1 0 0.8974358974356127 1 0 0.94871794871780613 1 0 1 0.94871794871809101 0 1 0.89743589743618213 0 1 0.84615384615427314 0 1 0.79487179487236426 0 1 0.74358974359045527 0 1 0.69230769230854627 0 1 0.64102564102663739 0 1 0.58974358974472851 0 1 0.53846153846281952 0 1 0.48717948718089282 0 1 0.43589743589891272 0 1 0.38461538461693262 0 1 0.33333333333495252 0 1 0.28205128205297242 0 1 0.23076923077099229 0 1 0.17948717948901219 0 1 0.128205128207032 0 1 0.076923076925051959 0 1 0.025641025643071799 0 1 -0.025641025638979409 0 1 -0.076923076921101785 0 1 -0.12820512820322441 0 1 -0.17948717948534679 0 1 -0.23076923076746911 0 1 -0.28205128204959168 0 1 -0.33333333333171411 0 1 -0.38461538461383649 0 1 -0.43589743589595908 0 1 -0.48717948717808152 0 1 -0.53846153846025735 0 1 -0.589743589742451 0 1 -0.64102564102464443 0 1 -0.69230769230683809 0 1 -0.74358974358903174 0 1 -0.79487179487122539 0 1 -0.84615384615341904 0 1 -0.8974358974356127 0 1 -0.94871794871780613 0 0.94871794871809101 -1 0 0.89743589743618213 -1 0 0.84615384615427314 -1 0 0.79487179487236426 -1 0 0.74358974359045527 -1 0 0.69230769230854627 -1 0 0.64102564102663739 -1 0 0.58974358974472851 -1 0 0.53846153846281952 -1 0 0.48717948718089282 -1 0 0.43589743589891272 -1 0 0.38461538461693262 -1 0 0.33333333333495252 -1 0 0.28205128205297242 -1 0 0.23076923077099229 -1 0 0.17948717948901219 -1 0 0.128205128207032 -1 0 0.076923076925051959 -1 0 0.025641025643071799 -1 0 -0.025641025638979409 -1 0 -0.076923076921101785 -1 0 -0.12820512820322441 -1 0 -0.17948717948534679 -1 0 -0.23076923076746911 -1 0 -0.28205128204959168 -1 0 -0.33333333333171411 -1 0 -0.38461538461383649 -1 0 -0.43589743589595908 -1 0 -0.48717948717808152 -1 0 -0.53846153846025735 -1 0 -0.589743589742451 -1 0 -0.64102564102464443 -1 0 -0.69230769230683809 -1 0 -0.74358974358903174 -1 0 -0.79487179487122539 -1 0 -0.84615384615341904 -1 0 -0.8974358974356127 -1 0 -0.94871794871780613 -1 0 0.0018643285506968819 -0.0061354648088435626 0 -0.42846020874735358 -0.41426814086103259 0 -0.41255997611149609 0.42872684014298668 0 0.41832268131086731 -0.42132143098264929 0 0.42164216445580421 0.41847589319742629 0 -0.56186783559074327 -0.0042642632539247336 0 -0.0042260669979353356 0.56194869954377347 0 0.0031690546737429431 -0.54990391199267963 0 0.56190879312433217 0.0040029380617983201 0 -0.65272066282380836 0.65338343392299347 0 0.65271800657178369 -0.65338356242690665 0 0.65338367663011432 0.65271824610037898 0 -0.65338230774642703 -0.6527197828474226 0 0.29033660181743831 -0.12961111902182151 0 -0.1227049955677252 -0.28906820029682528 0 0.1248722133186292 0.28561954693718622 0 -0.28885668059895991 0.1300918681784029 0 0.27654977858169999 -0.68723742340135763 0 0.6872429751974547 0.27657794127179419 0 -0.68665041174783181 -0.27638570055025902 0 -0.27638844685064162 0.6866498711918757 0 0.68607836598017435 -0.28679194205932251 0 -0.68607544664420472 0.28678993918106538 0 -0.28609995981489061 -0.68725772259081896 0 0.28679204342886733 0.68607834187807071 0 -0.15657804645528181 0.34898680422190059 0 0.36833765447161132 0.16041965153573859 0 0.15874703651507849 -0.36824259534135723 0 -0.34993925603252812 -0.1583318935894199 0 -0.066445201970320805 0.76376568398015343 0 0.763739621477458 0.066443577046859326 0 -0.76372989755861964 -0.066413184510148243 0 0.066435373361013725 -0.76380560161765265 0 -0.47341962875390109 0.78493206241886349 0 0.47328100212653551 -0.78488774143082485 0 0.7848595714912675 0.47349350638150178 0 -0.78493225858270832 -0.47341466837466128 0 0.77527373583460935 -0.47907259881869912 0 -0.77527379543962172 0.47907263381655268 0 -0.47903912223821138 -0.77526711541834525 0 0.47907295870348959 0.7752736765484558 0 -0.21024040424418841 -0.50218804716575893 0 0.48577858670974622 -0.19458948378593161 0 -0.48558829190952141 0.19439466039820519 0 0.1945699563126296 0.48571565852661641 0 0.042433285256019082 -0.19667162997583401 0 0.19944442313671459 0.051330378453737967 0 -0.049552822896425562 0.1997286633719699 0 -0.19684750390452571 -0.047599948342986233 0 -0.80083177965321017 -0.80073983143542415 0 -0.80073983145848104 0.80083177963673791 0 0.80083374182263456 0.80074189351876734 0 0.80073981707235775 -0.80083177447439102 0 -0.79272153863547912 0.13355349804005101 0 0.79272156366989444 -0.13355349325824711 0 -0.133486827758623 -0.79265576468409205 0 0.13353738164599749 0.7927544963836799 0 -0.48615368148689281 0.58334172919846816 0 0.48544896352288808 -0.58378832880612086 0 0.58378680254485649 0.48545080515846201 0 -0.58333306919881966 -0.4861625302768291 0 -0.42999734606685458 -0.58384800753811128 0 0.58609966660920387 -0.43136703762986911 0 0.43136852212445809 0.58609976657107365 0 -0.58617655218516629 0.43152549392242617 0 -0.5093213944800582 -0.27107111211946538 0 -0.27066123219990379 0.51003491298761383 0 0.50715821602094413 0.25858157473309962 0 0.25855122275733949 -0.50717764444937141 0 0.011235233299053489 0.40095615162613701 0 0.40164808795034918 -0.012431319788017771 0 -0.0061962489075977987 -0.39103447023422438 0 -0.40218825077247089 0.01159997271089188 0 -0.83694061336894499 -0.634531641348269 0 -0.6345316625303844 0.83694061177356172 0 0.83694020747904774 0.63453270882455071 0 0.63451774517862591 -0.83693560339758577 0 0.83467909775841587 -0.63361557759153198 0 -0.83467909780447647 0.63361557760535581 0 0.63363596474357398 0.83469006196615847 0 -0.63361556506837657 -0.83467909445748079 0 0.2991448565653278 0.31184830874116898 0 0.30157088531759457 -0.30111321129792512 0 -0.30212712932375563 -0.31299364435164517 0 -0.31193884870805477 0.30431094920818391 0 0.21175237557440241 -0.85572440013347817 0 -0.2117506531990283 0.85572231353945016 0 0.85575827311523156 0.2117316226831881 0 -0.8557582862762243 -0.21173137330981681 0 -0.8429818532458917 0.32454159540528182 0 0.84298185387823898 -0.32454159560693352 0 -0.32453623959727268 -0.84298833486101699 0 0.32454163368095629 0.84298190837512299 0 0.65093681023934857 -0.1318882196946021 0 -0.12593973102115341 -0.65352201655458608 0 0.13188718394878129 0.65093796770694379 0 -0.65093598124257523 0.13188713888476661 0 -0.61147056674610623 -0.13998862898878839 0 0.61198639309250658 0.1446935159606848 0 0.14438162588068121 -0.61187607033243474 0 -0.13997355755689581 0.61148004474639572 0 -0.085554800477210938 -0.14222964708382799 0 0.14863540587008731 -0.083719253496523149 0 -0.13692671587667071 0.083242239041446994 0 0.089505586561731007 0.1455764928619149 0 0.35011349537595049 -0.86051317629191648 0 -0.3501232144175383 0.86051730070568588 0 0.86052123133838043 0.35013470067846869 0 -0.86056352516123746 -0.35007398321342398 0 0.22978393259652799 0.18063278048559661 0 -0.22770302896087391 -0.17817887231964399 0 -0.17784618031350161 0.2238279610500703 0 0.18096996084752551 -0.22497550772320871 0 -0.48210017981223507 -0.1125223877382588 0 -0.1126263744513924 0.48212554566955179 0 0.47764652585250139 0.1143443459389655 0 0.1145220426690767 -0.47749095550775489 0 -0.3449396867676906 -0.53114798299926758 0 0.52192198282623803 -0.33918743615007318 0 0.33928479144297591 0.52186665049407788 0 -0.52102365308937459 0.33905656787414901 0 -0.8680633704036268 0.017237331685449709 0 0.01715117223444582 0.86819256941118716 0 0.86806343234225503 -0.017237263161890691 0 -0.017150459427640409 -0.86819263455002738 0 -0.35512342614061237 0.58900360232305904 0 0.35280466003502059 -0.58909843236764736 0 0.5890920978561186 0.35281154126613551 0 -0.58894162488002655 -0.35516999639405161 0 0.68839036757665217 -0.0078996391409352409 0 -0.0077356532696912436 -0.68931060568757618 0 0.0078906651922989665 0.68840731697687862 0 -0.68839227782435752 0.0079024289596230507 0 -0.67377230533701515 0.53570851529539776 0 0.67375980401877644 -0.53570637045568559 0 0.53570640273338199 0.67375980934488999 0 -0.53565526994518087 -0.67373328752956252 0 0.89057634741787672 -0.22137320938225061 0 -
[...]
<CellData Scalars="pressure_p0,piezo_head_p0," Vectors="velocity_p0," Tensors="">
<DataArray type="Float64" Name="pressure_p0" format="ascii">
6.7135311126440525e-19 -6.7135327884032256e-19 -3.3567657082497789e-19 2.0140874103966596e-18 -1.3465884960353273e-18 -6.7329288791973609e-19 -1.3466029469222622e-18 -6.7329276879539e-19 6.7132950243892631e-19 -3.3910046173001276e-18 2.0346055531927652e-18 6.781749297940156e-19 0 6.8382334577031822e-19 -6.8367698075816858e-19 6.8359387143071811e-19 6.8374132918300378e-19 -2.1636233851473641e-18 1.4501972014069771e-18 -7.2085706411664141e-19 1.2617640445494532e-18 6.7294085564582142e-19 1.0935287908634697e-18 -6.7319981875666644e-19 -1.3752248449712391e-18 0 -1.6821462197260979e-18 0 0 -6.6955687452627193e-19 -2.0086723460058297e-18 1.3391149518289377e-18 1.6738936217103501e-18 0 -7.5667059357720262e-19 1.0404220715314526e-18 3.7833529873379431e-19 7.7020860708331445e-19 1.1553029322755175e-18 7.7021205925321216e-19 1.9255217570462378e-18 -2.2174309889253051e-18 -1.832972254855157e-19 -1.4662851736317947e-18 -1.1084748488273255e-18 0 -1.9780106471552214e-19 7.927418338473854e-19 3.9833332799631298e-19 6.7194079294621977e-19 -1.4127534829087604e-18 -1.3917639109215269e-18 0 3.3611130931292741e-19 6.7194713299629047e-19 3.3608007670368504e-19 1.7713725547921912e-18 -1.4186201886245898e-18 2.29715307504768e-18 0 -1.3552640275429409e-18 0 1.3574058270829888e-18 -6.787054345336759e-19 -1.3596874391449632e-18 1.3598548663346623e-18 -6.7991482237783394e-19 -2.7193690611435403e-18 -6.7882117630404544e-19 -5.589065578488149e-19 0 -1.4053245837261781e-18 -1.4321683740088494e-18 -2.3726074254847225e-19 -7.614321193327171e-19 1.4422642814562064e-18 0 2.6983116305044037e-18 -6.7459404668100421e-19 6.7457785753409674e-19 5.2913911213700251e-19 0 1.4114262952777625e-18 6.7008042911371565e-19 1.3401608678825668e-18 6.700553827118402e-19 0 -1.3978990518786316e-18 -6.9897047823683741e-19 -3.495112902940499e-19 6.9902718586104634e-19 -1.2534824925912117e-18 7.4464148134014618e-19 1.7940039434260931e-18 6.8254156308438315e-19 2.7547471379732054e-18 0 -2.0769772582950829e-18 0 -1.3852890881977635e-18 1.3843456105392499e-18 1.4571129019210871e-18 0 0 -7.2916906281642145e-19 0 -1.0018752249715071e-18 -1.5107009572362427e-18 1.4200714709480464e-18 1.8847335446937973e-18 9.8064934834618592e-19 -2.1400700670820488e-18 -1.2027273938772314e-18 -1.3769141082663882e-18 0 6.9097443009803616e-19 -7.109026804659134e-19 1.3698226130485244e-18 7.513695938696736e-19 -1.5077294929442539e-18 2.2165843273150592e-18 0 0 -3.4093628236416608e-19 2.7274957758715759e-18 6.8160404324258261e-19 0 1.3474422336436995e-18 -6.8674600009125918e-19 -1.3705851775085438e-18 7.1978871390396427e-19 7.1975882441643422e-19 7.195233544332276e-19 5.3550470754705081e-19 1.7878481438643041e-19 -8.3952223306703881e-19 -6.7161170541064652e-19 -1.3432355853790595e-18 0 -2.0224774706331233e-18 -2.0231653026149687e-18 0 0 1.6833493416994386e-18 -1.3859697688077449e-18 -1.0354585016956968e-18 2.070987058068083e-18 -2.5775007691092002e-19 6.8934638863977671e-19 -5.1850750115749177e-19 -6.9135716382327289e-19 -6.8696530004981063e-19 -1.2023194926303178e-18 1.4072387091445076e-18 1.7543470143523479e-19 -1.3552032420909906e-18 -6.7878600662995047e-19 -7.094135523780036e-19 -3.3391238134858057e-19 8.7635876721981044e-19 6.8517916391108098e-19 0 -1.5262910899893575e-18 7.6291559005045232e-19 3.816632573011604e-19 -7.6314519898413643e-19 -6.7969343109232607e-19 6.8988539858369876e-19 0 1.3799002786774233e-18 0 -1.0990125153747734e-18 7.3259070101552016e-19 -7.3170710638332311e-19 -3.6583728000966049e-19 -2.967668658262923e-18 0 3.761857702796916e-19 -1.0329926474006271e-18 -1.7216388715357706e-19 6.8865850958704871e-19 0 3.5236974407945445e-19 0 2.3146127108216826e-18 7.121232471344867e-19 1.3439575935173763e-18 1.6418463672435869e-18 0 -1.3453883853234345e-18 -1.672279709173628e-18 0 -1.5001576908182008e-18 3.7488386115215795e-19 7.4725416660972407e-19 6.7019301741734838e-19 -2.5132237913593515e-19 -7.5397171483007628e-19 -6.7019301741734385e-19 -1.3675242563547054e-18 0 -1.3675558776178552e-18 1.3675568305477554e-18 -6.6805467566335619e-19 6.6805459831689229e-19 -1.3361067508633965e-18 6.6805485545717238e-19 -1.4298721402169201e-18 -2.1448219071594897e-18 0 3.3960030196603177e-18 2.0869090084057269e-18 0 1.4940793083060483e-18 3.7329279487993759e-19 -3.7355858185908884e-19 -7.7012642934246126e-19 -1.3882078006305134e-18 1.3573398115703482e-18 -1.3377732466783368e-18 7.754496629590776e-19 0 -1.3785619252671306e-18 -1.5511162419317683e-18 -1.1764087851657553e-18 0 2.0167008033988231e-18 -6.7219246373088765e-19 -7.2103755298752425e-19 -1.8027059625238783e-19 -7.3442441746185702e-19 -1.3358693060708678e-18 -6.7710080853204104e-19 5.0875268879608954e-19 1.6810162819199969e-19 6.7249403320101909e-19 7.1543941353530845e-19 5.3664849023630412e-19 6.6823427336241545e-19 0 -7.1314712772524518e-19 -2.851146189010766e-18 1.3436334522815721e-18 9.6554353926577875e-19 0 0 -2.6923135292793254e-18 0 1.0096175732737261e-18 6.7322923119282781e-19 0 -6.7405429935563926e-19 -1.3482231530192327e-18 -3.3708744120079191e-19 6.7064764452361896e-19 -7.4393570473215124e-19 1.4900412484092898e-18 2.0067459399866029e-18 -5.0278726287562514e-19 1.3407026822845236e-18 -1.8616521324414466e-18 -6.7040081851411097e-19 -6.0867991400343142e-19 -1.3913991437946382e-18 -3.3808870376857314e-19 6.9569322881446411e-19 2.7261232678582623e-18 6.8112712593684554e-19 6.7182413847130327e-19 0 1.6695425986172895e-18 6.7299354714361855e-19 1.7973333210736559e-18 1.4377206253750051e-18 -7.4357639765989123e-19 -1.3409727329547086e-18 -6.7048636597132749e-19 0 -1.3409432966892941e-18 0 -6.9116313567344734e-19 -6.9116318710189708e-19 -6.9118546515724061e-19 0 -6.7601319055809655e-19 -1.4738311579948753e-18 3.6845578928579981e-19 1.1053643064823736e-18 1.84227895260866e-18 -1.3581569233647885e-18 1.3581538904968264e-18 1.3581582113610694e-18 -3.3953847219673302e-19 1.3833865401966167e-18 -1.3394376340758063e-18 -2.0958120816417238e-18 -1.3859895422647049e-18 1.3598853933098379e-18 1.491908990629814e-18 -3.7306234558230366e-19 -7.4017365169796561e-19 0 -6.9101097234463684e-19 1.5533430236996084e-18 0 -1.0355645671552136e-18 0 6.7025018037585394e-19 6.7025560384687712e-19 0 1.3847603405667013e-18 -6.9234048710973127e-19 0 -6.9238016184065356e-19 -7.5996061371372857e-19 6.7655663322247287e-19 -3.7870394032127755e-19 0 7.5775656553214274e-19 0 6.8331965941734957e-19 1.3666690188802346e-18 -3.4166761230021418e-19 -7.3828666412762679e-19 -1.0995467683711259e-18 0 7.1556697374779694e-19 8.9433747821477499e-19 -7.09559526684817e-19 2.7065097441629313e-18 -1.3573057867684574e-18 -6.7664917826085259e-19 1.3532512265558184e-18 6.7661669747940993e-19 -6.7595249554814378e-19 -5.0765484976122693e-19 1.3536923266664876e-18 -2.1818617446649538e-18 0 6.7903805065150258e-19 0 -3.3948993481852047e-19 -1.339364509295586e-18 -6.7022506760491459e-19 3.3507484612376374e-19 0 1.7274595438738431e-18 -6.9102492902967178e-19 0 0 -1.3361697981043919e-18 -1.3361698160294063e-18 1.3361697969700321e-18 0 -7.1347996582738639e-19 -7.137400397825357e-19 1.0706235145316067e-18 1.4269601008125852e-18 7.0558630569814523e-19 -1.4567469093889912e-18 3.6417973090530158e-19 0 0 1.6763275619501998e-18 2.7786257678713108e-18 5.2100618700647287e-19 1.5630094500710407e-18 -6.9465644965455797e-19 0 -2.1679725917930959e-18 -1.0891986543238633e-18 7.2636588078888169e-19 6.7850157213758109e-19 -6.832299637217901e-19 0 -6.6918792011218416e-19 -1.3558245203372622e-18 -1.3496609489442189e-18 6.7655270415501018e-19 -3.1576413959800382e-19 -1.3842019166841536e-18 2.0544901509405031e-18 1.7705382804856835e-18 -7.0119924290024122e-19 -3.5056507019256633e-19 -1.0622472533270908e-18 3.5015677001817367e-19 1.4007849938301911e-18 7.0031381457458751e-19 7.0031338698730138e-19 3.4579758974547351e-19 -4.7629020494761258e-19 6.7916001184743191e-19 1.3765033865669885e-18 6.8112747325142098e-19 -6.7200473725338949e-19 -6.7186168240528965e-19 -1.343685932183804e-18 -1.3437813908731355e-18 0 -6.6939729531476691e-19 -6.6945777101177927e-19 6.6945953366747912e-19 1.3473137186183147e-18 -1.3473228965546156e-18 6.736849521826414e-19 1.5277290528759847e-18 -7.6386452682244158e-19 7.6321521041639621e-19 7.6386452680900235e-19 3.9535468276280452e-19 0 0 0 0 -2.621453843159084e-19 -2.2141208985889271e-18 -1.7082119658828573e-18 -6.8328543939685836e-19 -1.3665173647043389e-18 6.828913126270105e-19 -3.4171269789872959e-19 -2.0500551166478798e-18 -6.8344047876826906e-19 -6.8347717160273158e-19 7.1164198146308995e-19 5.3357355819465246e-19 1.4334138153124362e-18 -7.0931272869284132e-19 1.1030664917171025e-18 0 7.0857399246423817e-19 -7.3558038366341954e-19 0 0 -7.0911235218267399e-19 -6.6825986070329671e-19 1.0024289511668605e-18 0 6.6828599655692176e-19 6.8119642546991866e-19 6.7217820021147981e-19 1.3996815607766592e-18 -3.5121713295529378e-19 -7.0242383208487958e-19 0 -7.1830004118522373e-19 -7.1840243707660648e-19 0 -3.6004681331321388e-19 -8.4993339757404769e-19 -6.7994651618314864e-19 -1.6998906321632411e-19 -6.7994651595509012e-19 3.4833767384596501e-19 -2.8038221324558713e-18 0 -2.1309010092751903e-18 -7.103003166088744e-19 0 7.2154292449606045e-19 -7.2154293845890223e-19 -1.4430858490128347e-18 -7.2243250341937193e-19 6.7486708822562393e-19 6.8930739629983871e-19 -3.446758555577586e-19 1.0404542049487896e-18 -1.3469542671315989e-18 3.3649912185652444e-19 0 -3.3666925304697775e-19 -1.7502171119965685e-19 0 -2.8000510386025058e-18 -1.4001892882837856e-18 7.2629196286498908e-19 -1.4434720519418288e-18 -2.0435555684548139e-18 0 0 0 0 6.9115026082652385e-19 0 2.2739458616129114e-18 6.7387600033499625e-19 -6.7387583223027318e-19 6.7985947623204268e-19 -6.7018957807978072e-19 -7.3229146681719152e-19 -1.8307980404608655e-19 5.4921853633154901e-19 2.1968647137760189e-18 7.5543274017906994e-19 -1.2275782087791979e-18 0 1.8884635144595439e-19 4.2046560827794905e-19 0 9.5727843063121855e-19 0 0 3.0458859150189196e-19 -3.3541385335705413e-19 -8.3853393670995359e-19 6.7082714936786057e-19 1.3416542987359257e-18 6.7476276660757553e-19 -8.4345563221830905e-19 1.2652117650186286e-19 6.7476275991325884e-19 3.5586537138211135e-19 -5.3379798509660194e-19 7.1193616480490721e-19 2.1349485117639109e-18 -3.6275140357159598e-19 7.5691912467012787e-19 7.5674443086295735e-19 0 0 1.451177485678331e-18 -1.4518032473986919e-18 0 2.5341242982209166e-18 -6.8224360758483452e-19 7.7971210728942743e-19 1.169568115211776e-18 -6.9898455545710619e-19 1.3982125789392669e-18 -8.957218544264786e-19 -2.5500326644757225e-18 7.5590555558826011e-19 2.7678674598312326e-18 1.8181624811700754e-19 -7.1504927763717471e-19 6.7346675846848679e-19 -6.7388077212380996e-19 1.342402664881119e-18 -1.3429290937444955e-18 1.3843834508203565e-18 -6.9204261822944667e-19 6.9204156337039754e-19 6.9215486577748276e-19 -1.3415085322344775e-18 -1.678860285675569e-19 1.3673007112963898e-18 1.7091145329679941e-19 2.7345283989570876e-18 0 -1.5484375205938899e-18 6.8814593495099391e-19 6.8816749074929703e-19 -5.1615498990620676e-19 6.7330991765966008e-19 1.6830892258191285e-18 5.0493610335908711e-19 0 -6.7424499111001699e-19 6.7440000769580165e-19 1.0113863810584987e-18 0 -1.4187929683978724e-18 0 -1.4808512298084205e-18 7.4066924176515393e-19 -7.4066687793023166e-19 -9.2548954612440531e-20 0 -7.262287905457861e-19 -7.2638799079588674e-19 -1.3433677449296336e-18 6.7168387214827248e-19 -8.3960483903613474e-19 -1.0075426873819841e-18 0 -6.8279200188390345e-19 -6.9207130148150654e-19 1.3867936638687029e-18 6.9355139644095992e-19 0 0 -1.0615211834662214e-18 -7.076832033589779e-19 0 1.3613942709783636e-18 -6.8079575270245626e-19 -1.9573922521866161e-18 7.6587424280115501e-19 6.8855051314608054e-19 0 -6.6708415115182797e-19 3.6582653175065994e-19 1.3469710772729953e-18 -6.7323969561309707e-19 0 -6.4509705038749968e-19 7.3398291607951428e-19 0 6.7694568860007248e-19 -2.7113135151263128e-19 7.071691522710003e-19 -6.6969653199826316e-19 -6.6989291515614538e-19 -6.7007558648797976e-19 6.8876890156097964e-19 0 -7.2908881750198154e-19 0 2.1873126718401197e-18 7.0444042070294371e-19 7.0452172952481106e-19 4.3996700059685562e-20 0 -3.3697927442473228e-19 -1.347926242770623e-18 2.1905374321581811e-18 -1.0450504028419999e-18 -2.6965315519002308e-18 6.9157886615371935e-19 1.3831561460367282e-18 7.780253794875709e-19 -4.1062495202496147e-19 2.0631675396059077e-18 1.3754469284347261e-18 2.0631682118534072e-18 0 0 2.0144638307154003e-18 6.8765825003183993e-19 -7.3500221988496579e-19 0 1.4698255466266647e-18 -7.2480191574040072e-19 1.371676705309982e-18 -4.1793070577078513e-19 6.969478202277649e-19 0 0 1.7893363500764279e-19 7.1572762236505914e-19 -3.615303857101258e-19 1.0818647831393955e-18 3.6252032260043371e-19 -2.1752049667911477e-18 0 9.2508817200783328e-19 -6.7294351535346955e-19 5.0470758786917946e-19 0 7.2096819758480569e-19 6.8402073940090548e-19 7.3694548254375919e-19 3.7572509869804979e-18 -1.4337708048253268e-18 -1.4266982007489086e-18 -2.120223138526647e-18 7.1570648931829186e-19 1.4220673160814656e-19 -2.3245344570742222e-19 -2.8004869482644088e-18 -2.8004627475450729e-18 -3.5407636120856048e-19 0 1.4299115220561287e-18 -1.1280473431677032e-18 -8.2701322960218803e-19 0 0 0 2.1414714745678391e-18 3.499463110422951e-19 -2.099627496518139e-18 -7.0283856442937628e-19 0 -1.4388803595723492e-18 2.164203708272723e-18 0 -7.1773928377102725e-19 7.2308806146333391e-19 7.2882579151014796e-19 0 -7.2308936135378006e-19 -1.4761006270505901e-18 -2.093083360076993e-18 6.9766446712210484e-19 3.4934352402110898e-19 1.1425495087758599e-18 0 0 0 -6.9896956994100803e-19 4.6512656580646264e-20 -7.1955717948087964e-19 -7.1955781972541632e-19 -2.1586715373387599e-18 7.1956015171735138e-19 -8.4223057069401266e-19 -1.5129315778672219e-18 0 0 -1.3631560945431783e-18 -6.4919896027848326e-19 4.3279979804472525e-19 -6.9237708510105685e-19 -6.9235665548587101e-19 -1.3575758679501323e-18 -3.3931774935515469e-19 1.3575655786117976e-18 6.786289032084238e-19 0 -3.3765714937016061e-19 -1.3532463585367421e-18 0 -3.3728819931385498e-19 3.3728011280912168e-19 -6.7443128984017e-19 -6.7459908680725652e-19 6.8263975671430936e-19 -2.0479388067863168e-18 6.8263975670516745e-19 0 0 -7.3500624602125105e-19 2.2077674300144133e-18 7.3599582095345108e-19 -6.0261440804930729e-19 7.111473245955389e-19 -1.6372513801458857e-18 -1.3371483939342083e-18 1.5694695214119709e-18 0 -1.7388241464077356e-19 -1.0375320404776774e-18 -1.7292200685792028e-18 6.9168802743158549e-19 0 7.6176585871997124e-19 1.9044146467997093e-18 -9.5220732303848973e-19 0 7.5931677217893787e-19 -7.5832546441367001e-19 -7.1844055997290123e-19 -2.15535187784698e-18 7.2557690298908954e-19 -1.4512179384195403e-18 7.2623462878699648e-19 7.2544015840947822e-19 0 -1.3486652524453182e-18 -2.5301961349083491e-18 8.4292092019912647e-19 -2.6973402437024628e-18 -4.8548361138731554e-20 0 0 1.4564508347288343e-18 -1.5377386219024548e-18 1.9221750696390125e-18 0 3.8443483737694719e-19 0 -3.6558156619464657e-19 0 -6.6781395626628098e-19 1.3892855094184765e-18 6.946332512511954e-19 -2.083919507049554e-18 -6.9463938374929057e-19 -2.2719041330440161e-18 0 2.0194708648133398e-18 6.7315677840029561e-19 6.8446718410701452e-19 6.8415175838750796e-19 -2.0699901881921367e-18 -2.2080957171649687e-18 2.3001588243989059e-20 7.3603190933263783e-19 -7.5903724290014331e-19 -3.3879449394500781e-19 -3.4907767432014797e-19 1.0469881264074628e-18 0 0 6.8720526719121905e-19 -6.8712364316245751e-19 -3.4358325857200896e-19 0 -1.4990057017465457e-18 0 2.7738414721650008e-19 -8.0387401532660683e-19 -2.0096850388603908e-19 -8.0384406498825091e-19 1.4067793979151335e-18 0 6.7348793686058262e-19 2.3575930512441386e-18 0 3.3679909140073719e-19 -1.4884232392161893e-18 1.6744626591356162e-18 -3.7210535433043869e-19 7.4421616557907274e-19 1.3612986912886518e-18 0 3.4039924514346351e-19 -6.8067951797887704e-19 1.4040081782507106e-18 0 3.5118529038391711e-19 0 -6.7694210816047272e-19 -1.3522332621049848e-18 -2.0891363395098883e-18 -2.0120377237038458e-18 0 -1.6960632255763955e-18 6.7833015459061254e-19 -6.7832121353401142e-19 -1.3959084698156163e-18 -6.9765699717503089e-19 -1.3956041654540428e-18 6.9778775769177628e-19 2.3990697503587949e-18 1.8290634727055339e-19 3.6581292722478742e-19 -7.3176491385278706e-19 7.3174245541204944e-19 0 2.1813320848342542e-18 -7.2704970225523115e-19 -3.6352422436077526e-19 -1.3880277954518798e-18 -6.9304666114328512e-19 0 2.1842682870813799e-18 2.1845373318212472e-18 -6.8261476469635257e-19 -7.2628519303125881e-19 -1.3465391080882962e-18 1.676177238293666e-19 -6.7669204699783248e-19 -2.2842943795493906e-18 1.3535969494093323e-18 -6.7679761414796701e-19 -7.0002248051094744e-19 -4.3751393343515246e-20 3.7183381896707267e-19 -1.4000449565738934e-18 -1.6905498441415023e-19 6.7611408827301184e-19 -6.7611411670358775e-19 0 2.6967093005583899e-18 -6.7419882514007953e-19 -6.9100024730658581e-19 1.036447625132835e-18 -1.3805130963368802e-18 0 0 0 -6.8339982978261648e-19 -6.835237936662262e-19 -7.0588423001422796e-19 -1.215175263578497e-18 5.0306262373135065e-19 -1.276748613342556e-18 -1.335973605547275e-18 -3.3399142831699809e-19 -1.3359657055741021e-18 -6.67982852145563e-19 0 -1.4600963331341118e-18 6.8321473853210443e-19 -6.8321467083595087e-19 6.831772404162211e-19 1.366700576744098e-18 0 -3.3535785557158255e-19 1.3413963060386144e-18 -6.7071571198004059e-19 1.341431447310232e-18 6.6827497531412322e-19 7.089280369476147e-19 1.3387611287176954e-18 -6.6941037557352741e-19 -6.7244851137148445e-19 -1.3387637752787212e-18 6.7280241442438954e-19 6.757715174279613e-19 1.0091561848770041e-18 1.3455353097818814e-18 0 -8.4939728867424826e-20 5.9457968271505748e-19 -6.7926963880884588e-19 0 1.5108016603854963e-18 0 7.3165271608474922e-19 -1.7661180538372683e-18 1.4124874402951671e-18 3.5682951303013046e-19 -1.8403324722054748e-18 0 -1.8097311731512986e-18 0 -6.713792465947979e-19 0 -3.5449083727376475e-19 3.6320602213067998e-19 0 -1.3391410062993679e-18 -3.3478598946772068e-19 2.200416670861e-18 3.4051812323685861e-19 -2.006139025195755e-18 6.6871128398417763e-19 3.3435586993585017e-19 6.7262602653600223e-19 -1.6812425784999707e-19 2.0178644662765794e-18 1.0087387426115192e-18 -7.0047070454853497e-19 -7.0091888995809669e-19 0 -7.0072738587038837e-19 6.9748915593865425e-19 -6.9737128741241658e-19 1.046189059198857e-18 3.48733501152538e-19 -6.6974207406608221e-19 3.394703966514892e-19 6.7934972446529212e-19 6.8121695461896342e-19 -1.1069734953405382e-18 -6.8121694439045647e-19 3.4061028727301457e-19 -5.5342738319918731e-19 -7.3791807232089127e-19 9.2236253639327704e-19 1.4758362419749894e-18 1.357490378135957e-18 4.454265112841111e-19 -1.0393283376741944e-18 -6.7874518906201035e-19 -3.7226214813058709e-19 -3.7225138932429649e-19 3.72251749848969e-19 3.7225176310763306e-19 1.0625632019217942e-18 7.0836393761721797e-19 0 -6.8017633394220474e-19 0 -1.376912045204968e-18 -1.1183641308007149e-18 2.1452125307263199e-18 1.5025344890653132e-18 6.6783311624288025e-19 5.0088131096786875e-19 -6.6783281180926348e-19 -1.0083165268316407e-18 6.7260910390960828e-19 -1.2609941286996344e-18 6.7260924622096087e-19 -7.0794404142908964e-19 0 -7.0759424704640251e-19 -1.7317585857240876e-18 -1.539340976080035e-18 0 -9.6208897860705622e-19 -7.1177614351158164e-19 2.1352817905017395e-18 -7.1176005540094806e-19 -3.5588030516536895e-19 1.0214763188137041e-18 0 -6.8124637461067574e-19 0 0 1.5259185713604633e-18 -1.3561579804994484e-18 -1.1867970986253454e-18 3.4163247403701634e-19 0 -1.7081623699846896e-18 6.8326517816228737e-19 3.586376512982245e-19 0 -7.1726563225271913e-19 -7.1727519961005991e-19 -6.7123072354787775e-19 -1.6779703458475646e-18 -1.6727535854933463e-19 0 3.3607331096110587e-19 -1.6804324684818894e-19 6.7217347627031999e-19 1.3443481910710897e-18 -6.9191027189395048e-19 2.4221440389070779e-18 1.3837315160853411e-18 6.9216390342512994e-19 0 0 -1.3508376198264808e-18 0 0