<?xml version="1.0"?>
<VTKFile type="UnstructuredGrid" version="0.1" byte_order="LittleEndian">
<UnstructuredGrid>
<Piece NumberOfPoints="714" NumberOfCells="1306">
<Points>
<DataArray type="Float64" NumberOfComponents="3" format="ascii">
0.000000000000000e+00 0.000000000000000e+00 0.000000000000000e+00 5.000000000000000e+00 0.000000000000000e+00 0.000000000000000e+00 5.000000000000000e+00 1.000000000000000e+00 0.000000000000000e+00 0.000000000000000e+00 1.000000000000000e+00 0.000000000000000e+00 9.999999999992801e-02 0.000000000000000e+00 0.000000000000000e+00 1.999999999998339e-01 0.000000000000000e+00 0.000000000000000e+00 2.999999999997341e-01 0.000000000000000e+00 0.000000000000000e+00 3.999999999996643e-01 0.000000000000000e+00 0.000000000000000e+00 4.999999999995944e-01 0.000000000000000e+00 0.000000000000000e+00 5.999999999995166e-01 0.000000000000000e+00 0.000000000000000e+00 6.999999999992880e-01 0.000000000000000e+00 0.000000000000000e+00 7.999999999989961e-01 0.000000000000000e+00 0.000000000000000e+00 8.999999999987042e-01 0.000000000000000e+00 0.000000000000000e+00 9.999999999984124e-01 0.000000000000000e+00 0.000000000000000e+00 1.099999999998120e+00 0.000000000000000e+00 0.000000000000000e+00 1.199999999997829e+00 0.000000000000000e+00 0.000000000000000e+00 1.299999999997537e+00 0.000000000000000e+00 0.000000000000000e+00 1.399999999997245e+00 0.000000000000000e+00 0.000000000000000e+00 1.499999999996953e+00 0.000000000000000e+00 0.000000000000000e+00 1.599999999996661e+00 0.000000000000000e+00 0.000000000000000e+00 1.699999999996369e+00 0.000000000000000e+00 0.000000000000000e+00 1.799999999996077e+00 0.000000000000000e+00 0.000000000000000e+00 1.899999999995785e+00 0.000000000000000e+00 0.000000000000000e+00 1.999999999995511e+00 0.000000000000000e+00 0.000000000000000e+00 2.099999999995593e+00 0.000000000000000e+00 0.000000000000000e+00 2.199999999995745e+00 0.000000000000000e+00 0.000000000000000e+00 2.299999999995897e+00 0.000000000000000e+00 0.000000000000000e+00 2.399999999996049e+00 0.000000000000000e+00 0.000000000000000e+00 2.499999999996201e+00 0.000000000000000e+00 0.000000000000000e+00 2.599999999996353e+00 0.000000000000000e+00 0.000000000000000e+00 2.699999999996505e+00 0.000000000000000e+00 0.000000000000000e+00 2.799999999996657e+00 0.000000000000000e+00 0.000000000000000e+00 2.899999999996809e+00 0.000000000000000e+00 0.000000000000000e+00 2.999999999996961e+00 0.000000000000000e+00 0.000000000000000e+00 3.099999999997114e+00 0.000000000000000e+00 0.000000000000000e+00 3.199999999997265e+00 0.000000000000000e+00 0.000000000000000e+00 3.299999999997417e+00 0.000000000000000e+00 0.000000000000000e+00 3.399999999997569e+00 0.000000000000000e+00 0.000000000000000e+00 3.499999999997721e+00 0.000000000000000e+00 0.000000000000000e+00 3.599999999997873e+00 0.000000000000000e+00 0.000000000000000e+00 3.699999999998025e+00 0.000000000000000e+00 0.000000000000000e+00 3.799999999998176e+00 0.000000000000000e+00 0.000000000000000e+00 3.899999999998329e+00 0.000000000000000e+00 0.000000000000000e+00 3.999999999998481e+00 0.000000000000000e+00 0.000000000000000e+00 4.099999999998633e+00 0.000000000000000e+00 0.000000000000000e+00 4.199999999998784e+00 0.000000000000000e+00 0.000000000000000e+00 4.299999999998937e+00 0.000000000000000e+00 0.000000000000000e+00 4.399999999999088e+00 0.000000000000000e+00 0.000000000000000e+00 4.499999999999240e+00 0.000000000000000e+00 0.000000000000000e+00 4.599999999999393e+00 0.000000000000000e+00 0.000000000000000e+00 4.699999999999545e+00 0.000000000000000e+00 0.000000000000000e+00 4.799999999999696e+00 0.000000000000000e+00 0.000000000000000e+00 4.899999999999848e+00 0.000000000000000e+00 0.000000000000000e+00 5.000000000000000e+00 9.999999999981467e-02 0.000000000000000e+00 5.000000000000000e+00 1.999999999995579e-01 0.000000000000000e+00 5.000000000000000e+00 2.999999999992664e-01 0.000000000000000e+00 5.000000000000000e+00 3.999999999989749e-01 0.000000000000000e+00 5.000000000000000e+00 4.999999999986943e-01 0.000000000000000e+00 5.000000000000000e+00 5.999999999989468e-01 0.000000000000000e+00 5.000000000000000e+00 6.999999999992100e-01 0.000000000000000e+00 5.000000000000000e+00 7.999999999994734e-01 0.000000000000000e+00 5.000000000000000e+00 8.999999999997368e-01 0.000000000000000e+00 4.899999999999999e+00 1.000000000000000e+00 0.000000000000000e+00 4.800000000000000e+00 1.000000000000000e+00 0.000000000000000e+00 4.699999999999999e+00 1.000000000000000e+00 0.000000000000000e+00 4.600000000000000e+00 1.000000000000000e+00 0.000000000000000e+00 4.499999999999999e+00 1.000000000000000e+00 0.000000000000000e+00 4.399999999999999e+00 1.000000000000000e+00 0.000000000000000e+00 4.299999999999999e+00 1.000000000000000e+00 0.000000000000000e+00 4.199999999999998e+00 1.000000000000000e+00 0.000000000000000e+00 4.099999999999999e+00 1.000000000000000e+00 0.000000000000000e+00 3.999999999999999e+00 1.000000000000000e+00 0.000000000000000e+00 3.899999999999999e+00 1.000000000000000e+00 0.000000000000000e+00 3.799999999999999e+00 1.000000000000000e+00 0.000000000000000e+00 3.699999999999998e+00 1.000000000000000e+00 0.000000000000000e+00 3.599999999999999e+00 1.000000000000000e+00 0.000000000000000e+00 3.499999999999999e+00 1.000000000000000e+00 0.000000000000000e+00 3.399999999999999e+00 1.000000000000000e+00 0.000000000000000e+00 3.299999999999999e+00 1.000000000000000e+00 0.000000000000000e+00 3.199999999999998e+00 1.000000000000000e+00 0.000000000000000e+00 3.099999999999999e+00 1.000000000000000e+00 0.000000000000000e+00 2.999999999999999e+00 1.000000000000000e+00 0.000000000000000e+00 2.899999999999999e+00 1.000000000000000e+00 0.000000000000000e+00 2.799999999999999e+00 1.000000000000000e+00 0.000000000000000e+00 2.699999999999999e+00 1.000000000000000e+00 0.000000000000000e+00 2.599999999999999e+00 1.000000000000000e+00 0.000000000000000e+00 2.500000000000000e+00 1.000000000000000e+00 0.000000000000000e+00 2.399999999999999e+00 1.000000000000000e+00 0.000000000000000e+00 2.299999999999999e+00 1.000000000000000e+00 0.000000000000000e+00 2.199999999999999e+00 1.000000000000000e+00 0.000000000000000e+00 2.100000000000000e+00 1.000000000000000e+00 0.000000000000000e+00 2.000000000000000e+00 1.000000000000000e+00 0.000000000000000e+00 1.899999999999999e+00 1.000000000000000e+00 0.000000000000000e+00 1.799999999999999e+00 1.000000000000000e+00 0.000000000000000e+00 1.699999999999999e+00 1.000000000000000e+00 0.000000000000000e+00 1.599999999999999e+00 1.000000000000000e+00 0.000000000000000e+00 1.500000000000000e+00 1.000000000000000e+00 0.000000000000000e+00 1.399999999999999e+00 1.000000000000000e+00 0.000000000000000e+00 1.299999999999999e+00 1.000000000000000e+00 0.000000000000000e+00 1.199999999999999e+00 1.000000000000000e+00 0.000000000000000e+00 1.100000000000000e+00 1.000000000000000e+00 0.000000000000000e+00 9.999999999999991e-01 1.000000000000000e+00 0.000000000000000e+00 8.999999999999995e-01 1.000000000000000e+00 0.000000000000000e+00 7.999999999999998e-01 1.000000000000000e+00 0.000000000000000e+00 7.000000000000002e-01 1.000000000000000e+00 0.000000000000000e+00 5.999999999999996e-01 1.000000000000000e+00 0.000000000000000e+00 4.999999999999991e-01 1.000000000000000e+00 0.000000000000000e+00 3.999999999999995e-01 1.000000000000000e+00 0.000000000000000e+00 3.000000000000007e-01 1.000000000000000e+00 0.000000000000000e+00 1.999999999999993e-01 1.000000000000000e+00 0.000000000000000e+00 9.999999999999964e-02 1.000000000000000e+00 0.000000000000000e+00 0.000000000000000e+00 8.999999999995836e-01 0.000000000000000e+00 0.000000000000000e+00 7.999999999999998e-01 0.000000000000000e+00 0.000000000000000e+00 7.000000000006934e-01 0.000000000000000e+00 0.000000000000000e+00 6.000000000013869e-01 0.000000000000000e+00 0.000000000000000e+00 5.000000000020587e-01 0.000000000000000e+00 0.000000000000000e+00 4.000000000016644e-01 0.000000000000000e+00 0.000000000000000e+00 3.000000000012483e-01 0.000000000000000e+00 0.000000000000000e+00 2.000000000008322e-01 0.000000000000000e+00 0.000000000000000e+00 1.000000000004160e-01 0.000000000000000e+00 7.477570327540725e-01 4.905967956478702e-01 0.000000000000000e+00 1.346210646643281e+00 4.806066422083806e-01 0.000000000000000e+00 1.949496869330408e+00 5.032480558805372e-01 0.000000000000000e+00 4.449999999999997e+00 5.000000000000384e-01 0.000000000000000e+00 3.859142349610828e+00 5.103468031113156e-01 0.000000000000000e+00 3.246530027037640e+00 5.183101712757180e-01 0.000000000000000e+00 2.657531292711257e+00 5.037429884868682e-01 0.000000000000000e+00 3.824015840967434e-01 6.064457502813875e-01 0.000000000000000e+00 2.306343155343502e+00 6.315316747431162e-01 0.000000000000000e+00 1.049999999998266e+00 3.374999999994497e-01 0.000000000000000e+00 1.641930697057102e+00 3.436055112169133e-01 0.000000000000000e+00 4.150000000000006e+00 6.625000000000185e-01 0.000000000000000e+00 3.552784161359181e+00 6.642488388863971e-01 0.000000000000000e+00 2.940292465243163e+00 6.575992780735344e-01 0.000000000000000e+00 1.641237689750194e+00 6.703960699373966e-01 0.000000000000000e+00 1.050000000000000e+00 6.706367924525535e-01 0.000000000000000e+00 2.960517759676693e+00 3.261740577967960e-01 0.000000000000000e+00 3.551899302943298e+00 3.210887133285832e-01 0.000000000000000e+00 4.150779393876139e+00 3.209867287821391e-01 0.000000000000000e+00 2.213980362532827e+00 3.194901812685164e-01 0.000000000000000e+00 4.927283029162088e-01 3.252862896001115e-01 0.000000000000000e+00 4.696684455724628e+00 3.145438084075651e-01 0.000000000000000e+00 4.690990908683984e+00 6.962960281446974e-01 0.000000000000000e+00 2.487221901830106e+00 2.763334294511438e-01 0.000000000000000e+00 6.215262983536076e-01 7.328515730233995e-01 0.000000000000000e+00 2.065768881873406e+00 7.342557316219342e-01 0.000000000000000e+00 2.543072460766750e+00 7.257064952909391e-01 0.000000000000000e+00 8.105176211436336e-01 2.535517621144286e-01 0.0000000000000
[...]
<CellData Scalars="A_conc,As-lin_conc,Bs-lang_conc,Cs-freund_conc," Vectors="">
<DataArray type="Float64" Name="A_conc" format="ascii">
8.834544227305956e-04 3.670464221483816e-01 1.312079943502486e-02 7.492972134531684e-05 3.190819769955655e-01 1.129950818163015e-01 1.202331162052660e-01 2.630429072736606e-01 3.547728265198459e-01 1.137781417007483e-04 1.922323741019984e-02 1.354170236090530e-03 6.859671842784872e-07 2.381221771979194e-02 4.310322763708486e-06 1.310482446136898e-03 3.760429607984531e-06 3.841292653004106e-06 8.899046731963503e-02 3.619346645700677e-06 1.800309891833812e-08 6.664425461682665e-07 1.311561549207150e-04 1.675926180050363e-04 1.701782302901685e-06 1.065111283953174e-04 1.951297090337455e-03 3.048131444278508e-01 2.487405592260308e-06 4.247868926313560e-06 3.178686547651566e-07 2.432575425141678e-06 1.498937204522141e-06 8.412799501500239e-04 9.448005902961185e-02 3.417637793157337e-01 1.010731919819227e-03 9.261551839475250e-08 7.064375235023706e-05 3.242352284592558e-01 2.935619768435828e-02 6.589785033046673e-07 5.542476877251555e-04 3.269162414167936e-05 9.782820736328153e-09 1.152931459739764e-01 4.116158716319812e-06 1.970443628492471e-01 8.909391588655483e-02 1.071819306952196e-01 3.535881778308745e-01 1.330450431914543e-06 2.666438734560592e-02 3.348296748047293e-01 3.500974718838794e-01 3.769628316049016e-01 2.829016074444278e-08 2.578826963007587e-01 2.970534972574304e-01 4.444120374949975e-06 4.968320397360090e-02 2.605504090221181e-01 1.588986520504962e-01 1.236440464069312e-06 4.532350935192759e-09 1.321927301965671e-01 1.951767424327554e-01 6.701590313162698e-08 3.623778727857571e-01 2.903325885049728e-01 2.339842085274594e-08 4.729959952765840e-03 3.598018120601907e-04 4.026448357558619e-06 2.056080608520842e-01 9.835376626946854e-02 4.328757253584653e-07 1.158799962918343e-01 2.212323824902466e-01 1.056109558920106e-08 3.048164554078930e-03 9.509850906139858e-02 3.449608532849004e-03 3.558604705861979e-02 1.745185937732358e-01 4.506718441594874e-07 1.071419216242613e-01 2.131544143426995e-01 1.450230439680349e-06 2.897063217372851e-07 6.875163588731729e-02 1.761651836036371e-01 2.781471942040057e-01 1.663773445237117e-01 1.029028035439477e-01 3.129827193846667e-06 1.649239382080123e-01 2.649545434018253e-01 1.006925652961185e-02 2.969379613708839e-01 2.525617852776435e-04 1.217974564586384e-06 1.804159370619302e-06 1.675308324324465e-01 3.370611540053380e-07 2.093633093609483e-01 3.435298308065730e-06 3.080106343494116e-01 3.207678200449262e-07 2.171857366259098e-01 1.143601150273940e-08 1.175316055488711e-06 1.133417875669565e-06 3.354170160632525e-06 2.408614150405818e-06 2.697752367417336e-01 4.260987938330041e-06 9.772373667492505e-08 5.442583413301079e-09 3.043944242273560e-01 9.562551610743331e-09 2.138620711197780e-05 5.780284715853056e-03 1.793877275837712e-06 2.992922718662620e-01 2.838129126731415e-08 1.692509991687843e-02 5.833691186463530e-07 2.762123886941336e-01 2.358666544659683e-01 1.011115943255231e-01 1.219036848253682e-08 2.229841125921628e-01 2.430441297455706e-01 1.387407196945347e-01 1.320634990022788e-08 4.455046373504773e-06 3.727056063516691e-01 1.895302090505236e-01 1.343282084369632e-01 7.900886477451455e-08 2.974235948678896e-01 3.104024723643133e-06 5.939352933981652e-06 5.965520163929781e-02 5.346407307641129e-02 2.094377863637547e-01 4.245894354844020e-08 1.150996202389205e-01 2.169802290561021e-01 3.651267552397612e-08 1.097151869119007e-01 1.415953892011687e-01 1.854066933681357e-01 1.368876911833644e-07 4.973547045501952e-02 1.609719098262898e-07 2.777885748647345e-01 4.016734428486008e-05 4.259629121630187e-02 4.345754222665338e-06 2.329877262845164e-01 4.531176942752326e-03 8.176955948896059e-03 1.696848609180663e-04 1.561633501621348e-06 1.359840443237604e-06 3.293582684026267e-05 3.734921243354075e-05 4.419062198718397e-02 1.636917610978453e-06 4.176873977788747e-07 5.384786239796438e-02 4.702846058372759e-02 2.205285884622805e-08 1.538451689096058e-01 2.561067849210680e-01 7.772771468902921e-03 9.664359462444165e-04 2.969461540711655e-09 1.623919534083823e-01 2.638236750065799e-01 3.290101611916276e-01 1.318985243809368e-05 6.614813662896781e-04 2.072722296841742e-07 6.848515812330950e-07 2.109182601530142e-05 1.426761439705704e-02 8.673962721853305e-08 5.604393934097328e-04 7.397277053993142e-07 3.447327355027630e-06 2.364450662794635e-06 1.252923542911711e-06 8.015511507387790e-08 1.586676218053428e-06 1.386454920942410e-06 1.784017854379577e-03 2.322720117586193e-03 1.324342997042996e-06 2.985998912470170e-06 3.921184619928855e-01 4.725682002680049e-05 1.494604960782549e-01 2.528061832960027e-01 9.731116291396308e-06 6.031760126157677e-07 4.446343772248183e-05 3.393002206725769e-01 1.718055955518810e-08 1.043958182522758e-02 1.318920679274020e-01 7.824397613503796e-04 4.977593369546637e-06 3.611398502758971e-05 1.740167421628695e-06 1.850549021529594e-05 3.152645727361634e-06 9.561211528584349e-02 8.887021619486386e-02 3.131392970170847e-01 7.719163058755352e-08 1.402185702999133e-04 1.853047937781636e-04 3.843476131178392e-01 1.638029773711451e-06 2.234419689839763e-04 3.188708440052578e-02 1.161575604451205e-07 1.218632259914934e-07 1.216943664899330e-06 2.114360722784976e-06 3.643856493114127e-05 1.456266164841581e-01 1.807720590047785e-01 1.988929794216001e-01 1.279028697351884e-01 1.612133884511903e-06 3.818293438660608e-02 2.078618687362598e-01 8.579531842617982e-08 1.187433611093247e-01 6.970840033274331e-07 5.955453445656682e-02 1.671012222118413e-01 2.692525773442537e-01 3.809023556255837e-02 4.895771925029751e-06 3.274435939441505e-02 6.204846620795653e-07 4.814274237671223e-09 5.756005720527783e-02 1.684110506422801e-01 2.686548717521451e-01 2.687639961703775e-01 2.642843998843264e-06 1.150175144858593e-03 3.561854557350383e-06 2.597268349625287e-02 3.305386290295741e-06 6.954769981153293e-04 1.810315923069960e-01 1.736242250659641e-01 4.131421454565773e-07 5.329432767646966e-06 5.334587780902858e-05 2.870019379540506e-06 4.608618900548395e-04 3.664528070082181e-02 3.597872233785344e-08 1.620185140149491e-08 2.177166491049095e-01 1.092869669141221e-01 2.159085355013268e-02 2.348388074970636e-05 1.285606407928470e-02 3.271672884844864e-06 6.648106767109827e-07 6.884190668264665e-07 4.154279197074950e-09 2.292901303183343e-01 1.870985437564262e-05 5.086358458643397e-06 3.067966332620575e-01 2.021192559287110e-07 5.081510663367897e-07 1.735070428844068e-07 1.415282888607068e-01 1.868824810043442e-01 1.463088426644723e-07 1.671043978401166e-08 2.383713914504901e-04 3.802666529074591e-04 8.213370488768140e-02 3.276460205975556e-08 4.557124594568287e-07 4.396944212679731e-06 3.231491126687727e-02 1.445712019699834e-03 6.805592943270228e-02 7.160406241541621e-05 1.756997476291320e-01 2.760734660402425e-01 8.668079183634698e-04 4.417488073491051e-06 4.388845082306955e-06 3.006985436707994e-01 1.824909938863958e-01 7.517725463079543e-02 1.903222099845854e-01 8.188761313721546e-02 4.328534345309521e-02 1.178946792436048e-07 5.100344168821855e-02 7.036925034561113e-04 2.424836590145852e-03 3.242404940327711e-03 3.549681913264437e-01 2.581536361273502e-01 2.520367461038904e-01 5.811617558779570e-08 5.996950743110066e-08 1.041870379469346e-06 5.791249457511285e-07 1.690991676685528e-01 1.603547189687456e-01 3.161154552596353e-07 7.060023320669287e-02 2.235548844358695e-06 3.737269828889709e-01 3.698830481326846e-01 3.706240507946794e-01 3.733147257247893e-01 2.933998613548726e-01 2.109299303693668e-05 2.740163823745361e-06 2.118241285886976e-08 1.463650128157040e-01 1.731191025214848e-04 3.053674105935955e-04 2.156051853725262e-06 1.430934888945848e-02 3.318873129718920e-01 2.052228231638020e-02 3.335196737233562e-06 6.951360034108344e-04 2.472205644069332e-02 1.176505787727816e-06 4.196548500010936e-03 3.868887353706474e-01 1.108600513651904e-02 7.283800031002865e-07 1.635412597304274e-04 5.106533259038021e-06 2.654223730593538e-01 2.829431445519409e-08 4.141424763477914e-08 1.475737587116714e-06 6.207106624201997e-08 4.527482842480705e-06 2.821892297548879e-06 4.239716000468905e-06 2.412803727421683e-01 2.148922205931281e-06 2.439183127743899e-01 2.968024220769951e-07 1.780587713818717e-01 1.503381427270750e-01 3.604931698100192e-01 3.926595783584589e-01 3.926595821916443e-01 3.163580670396497e-01 3.153254612846546e-01 6.464521865012623e-02 1.815489921456209e-08 2.753073199731622e-01 9.088880196841187e-09 2.560282519060549e-01 2.137728171101711e-06 3.594468754120778e-01 3.481537626734876e-06 9.760538773906558e-07 1.914644974180796e-01 8.439266578154711e-02 5.911331417605243e-03 5.316952469822736e-08 1.614056481876479e-03 1.490875013901804e-03 3.137213804289821e-01 3.579019883872998e-01 2.261667692316107e-05 3.088386835065191e-07 1.643278305073202e-02 1.107459618293771e-04 3.569390197499414e-06 2.159830566543250e-06 2.266027410911530e-01 2.169210881608450e-01 2.895796327696381e-07 5.535410498915712e-02 3.490560284936713e-01 1.326034350588934e-02 2.720754525520493e-06 1.633332033609075e-06 2.307940904819385e-06 2.925799288770829e-07 1.157316366068917e-01 3.355906734464825e-01 2.219153969568750e-01 4.224855245150313e-02 3.922680348587881e-01 4.332092768022441e-02 5.628711410814251e-07 2.479882497346061e-01 3.525372298519121e-01 4.550890774387172e-07 5.820382946536506e-07 1.529803298525131e-01 4.039183108249328e-04 6.808328066236653e-08 1.085395978046296e-01 2.150198516984145e-01 2.991672977673075e-01 8.826846613515369e-05 1.933026351571559e-03 5.421711595800545e-06 7.441148154190369e-08 8.522090140459118e-02 1.924269423495033e-01 2.938041953927071e-01 3.804590136029522e-04 1.516572146426744e-07 7.791116351005045e-02 1.864093813619101e-01 2.876050184148616e-01 7.601358387135923e-06 2.951290248256346e-07 1.768497865478350e-01 1.505620076259064e-01 5.096133454349468e-02 1.546254999974924e-01 1.738949978744574e-01 2.367857221692180e-01 1.314440951317051e-01 2.517490291403585e-01 1.479501654848254e-01 9.700189822375338e-03 4.628092989380418e-06 3.807089954989044e-01 1.267325495902580e-02 3.050524704855804e-07 1.244682566030229e-01 3.747213806831413e-01 2.284607621705926e-01 1.222548974321973e-01 4.071275447830677e-02 2.081461169723039e-05 1.413976211759958e-03 2.596942995196147e-09 3.297597487491739e-01 3.539400017728339e-01 4.227714945145524e-06 6.758669233483817e-03 1.242219189774935e-02 4.282796485812153e-05 3.756428996253892e-01 3.705484276489033e-01 5.479536445511729e-07 2.548305082624011e-01 2.824055167666226e-02 2.960389714234547e-02 4.748047768571904e-02 3.507149159233132e-01 3.421187524878683e-01 3.483227593738247e-01 1.065913056883425e-06 1.110452705228922e-05 6.472846748321953e-08 7.695244674575040e-03 2.932978782133359e-01 4.483496778437866e-07 3.164297799474777e-01 1.553962593444673e-01 1.137753967754963e-08 1.455658121428266e-06 2.734936467560073e-01 1.653468558759693e-01 1.564047615539729e-01 1.371914414815907e-06 2.237007565226662e-01 3.700245193507475e-01 3.229677542028788e-01 2.454324281089557e-01 2.614797509774498e-01 1.585322313911809e-01 1.775716082008594e-02 3.066275211444596e-01 7.678920813495303e-02 3.240332627307230e-01 4.034518887360578e-08 1.704126059107178e-06 1.605127552134144e-06 2.207444898362300e-01 1.160188871905680e-01 1.894691470588373e-01 1.374542686692879e-01 5.049658055956287e-07 3.904344084152180e-08 8.926682306489803e-04 3.085512081461275e-01 2.671855656569662e-05 7.955372152062753e-03 3.638803152206835e-06 2.266289431265352e-03 1.105652865077830e-06 2.381606165452744e-01 2.898200000201601e-01 3.255107287353659e-01 3.277941934056193e-01 2.510737128937931e-06 4.762654247915690e-06 1.072672701940977e-03 3.374066390328296e-09 3.373156596829423e-01 3.125265240671297e-01 5.305929745328334e-07 2.609315462103817e-01 5.109116675033122e-02 3.420800998107147e-01 5.930456003654703e-02 1.678083193440990e-06 3.184880819531087e-01 2.749750026174077e-01 2.123936496695538e-02 1.124782595048097e-01 3.431200354562302e-02 2.170563610961453e-06 2.650813402071770e-04 3.079587369260646e-01 1.037322839534921e-01 2.775836241733039e-01 3.134042666494828e-07 1.769258443502419e-01 6.785094516344529e-02 1.858247127335006e-08 5.853188366371393e-06 3.223397393951399e-01 3.061364374470632e-02 3.960780435516484e-05 5.465391705434978e-06 2.845995665662737e-04 5.310912896350529e-08 2.234506849611916e-01 1.178304221924184e-01 1.446930099894111e-05 2.986522172460759e-01 3.452496955821521e-01 4.153605612042403e-06 3.750911721862706e-06 8.244748873307511e-08 4.747410505945463e-04 1.942503228395168e-07 8.654253018292743e-02 1.953791562772102e-01 2.217090437657740e-07 2.403199225446524e-01 6.536135652398884e-06 3.628184518096303e-01 4.306594958768756e-06 4.680774856996387e-07 3.301330335817009e-01 3.259478481525433e-01 5.943887514246901e-08 3.011661180930011e-01 3.058090859648163e-01 1.127501484777211e-03 4.451090999282632e-02 1.755121516964756e-01 1.414123145086044e-04 2.202521101931507e-02 3.605142846678475e-01 3.543219459905271e-01 4.255560053918392e-03 1.823829874338374e-07 1.553982961800469e-01 6.197283055498224e-03 2.182276086820407e-02 7.622331190847341e-08 2.838085596765684e-01 2.984914129696927e-08 2.004485267006126e-08 2.301891049555728e-01 1.875502834542431e-08 2.354123238008454e-01 3.749900049421462e-01 3.687697317736153e-01 3.902039707237460e-03 1.077362545254411e-01 5.432576114886991e-06 1.183337112608567e-08 9.720282584650998e-08 2.130242479078515e-01 4.995699483297743e-06 1.064170680541242e-01 3.592815271502160e-01 1.227887502241133e-05 1.076422618729030e-05 4.154308428787183e-08 1.618227513324316e-02 4.339141101814832e-07 4.989213139100294e-06 3.645997535644371e-08 4.778807245767980e-07 3.061490419183659e-01 4.713786569642731e-07 2.261062555786206e-07 3.219268596116079e-03 7.248664541561634e-02 9.577386341087349e-09 2.517369870591567e-01 2.623324358287467e-02 1.604603454579616e-03 1.995887266147354e-04 2.834280128075027e-01 4.031656981418831e-06 6.378923157759963e-03 9.093286255597643e-08 4.398983951161962e-06 2.086661116404771e-06 2.586060684870157e-01 2.525831012964480e-01 1.901193848576234e-06 6.239012349155999e-04 2.144665791750194e-01 9.584632728950669e-07 1.769702700156998e-08 1.588530832672595e-01 1.488911434044479e-07 9.364574336979686e-02 2.012346160560346e-01 2.378110518767382e-07 2.629335375188120e-07 1.814643572401706e-07 2.063811529964497e-01 1.213150262027000e-01 2.061599056123841e-03 2.419725892925176e-02 1.125308560744731e-07 2.613685909513806e-07 2.473917225369815e-06 3.221268172023014e-01 6.823736086066112e-06 2.145685211653305e-07 2.214637163238172e-01 1.156896878084672e-01 1.549418513262603e-06 2.869237305721193e-01 2.823671096989615e-01 3.519337112368227e-07 1.733341325896100e-07 2.635840200382696e-01 2.235562628757165e-06 6.329384589232590e-06 6.013969366216769e-08 6.096391996912576e-08 3.375546663819315e-03 3.195651455894761e-02 4.456305010180253e-03 2.667651173112702e-05 1.502377637087493e-06 2.696330380774865e-01 2.644907139751123e-01 5.795588572770480e-02 3.157425422849448e-08 3.264084318883332e-08 1.143283535137298e-06 1.697684034480022e-02 7.474462931641887e-02 6.204281215502470e-05 4.428623674614279e-08 1.846258505587111e-08 1.838268336034136e-01 4.481574742720656e-06 3.616424044179098e-02 3.373069185182246e-01 1.461914791265285e-05 3.878521980648419e-01 3.869793618032829e-01 9.081814688176936e-03 5.422511018465799e-06 1.497057156029328e-01 1.430377090433271e-01 6.398574586705962e-02 9.246960745243497e-03 7.409305465402903e-03 1.010186007077265e-01 8.204296815191625e-08 2.085541296081656e-01 1.875521053403027e-02 2.903440991407326e-01 1.865479045053950e-04 3.810923275925126e-01 3.874316654084593e-01 3.876089038534990e-01 3.812770924025489e-01 3.789809902816258e-01 3.798819021744801e-01 1.378304669060445e-05 2.060406988608475e-01 6.679864433615132e-02 6.382243922403577e-02 1.732205248738195e-07 6.295052662034410e-03 3.269080013635492e-06 8.786014955449583e-08 3.299012540498735e-01 7.959716532685665e-03 9.762456862502409e-03 1.002025668597807e-06 1.050868608239193e-06 1.999039198530669e-01 1.283159743268245e-01 5.831893399350064e-06 9.721723406648399e-03 2.766146498063142e-06 2.266131371031428e-02 2.674898922740797e-08 2.222646372215108e-06 6.398631524571070e-08 1.139645925263280e-08 8.212655670636901e-02 2.367680937680265e-01 4.787361736899175e-08 1.320754384763226e-01 5.695667890556359e-04 2.090216331340922e-07 3.648270309865453e-08 5.192459796035816e-07 5.243961674943052e-06 1.883711811972865e-01 5.599775700936244e-07 7.409637810745686e-06 8.386458388144796e-02 7.915214124315077e-02 5.715058185918418e-09 2.372550981729708e-01 2.213898907745522e-06 2.007530500719964e-06 6.462549756156839e-02 3.943921696417137e-01 3.943921710348129e-01 2.977486223871195e-08 2.916750605039006e-01 8.789297165532606e-02 2.789371480279298e-03 1.937757110907564e-06 2.182865695458287e-01 8.867191272407157e-08 1.085819691771555e-01 5.932777308963743e-06 1.424662251047596e-01 3.870256497736737e-01 3.870256539803091e-01 1.998571994941473e-01 3.297185206452170e-01 3.227200537116465e-01 3.039839400478945e-01 2.808105741156669e-06 2.712762585140377e-08 3.429147751375319e-01 3.362315749257689e-01 5.609080094228744e-03 1.951171487703394e-08 5.016489363010606e-06 2.008457312810876e-08 1.690640314154301e-08 3.274312700035209e-01 7.215831675339379e-02 3.800759524746313e-01 3.801953134355255e-01 3.253357672393705e-05 3.094558112874134e-07 2.434766743566577e-01 2.485679521337018e-07 1.401194967761315e-01 8.383227232007738e-08 1.541023303269895e-06 2.675416955965265e-01 2.823690680281897e-01 4.418289751733278e-06 9.888770867796499e-06 3.736618773511067e-03 4.779770374497255e-03 3.793253831301973e-02 8.499453740174064e-07 2.918558049702406e-01 1.314645542960769e-01 1.245839525266648e-01 2.350872791622933e-01 2.281568297548863e-01 7.311244749171247e-02 3.762508362299369e-06 1.413033558677976e-01 2.756774717768424e-07 1.909143952613643e-01 4.014348039464566e-06 6.188778397113050e-02 1.699658110341367e-01 2.708207579794962e-01 2.485749411846826e-01 1.457340138166514e-01 6.520445788271147e-02 1.344040543523299e-01 1.110404365080083e-07 1.953828417986899e-01 5.148408933782475e-06 1.827500413063100e-08 3.835832035748166e-06 1.591335874712139e-06 2.609230258264812e-01 6.747258346879359e-02 3.489068661663298e-01 1.645617572811965e-01 2.818264606036944e-01 9.747515849403537e-02 1.034676596133090e-07 2.020270720405621e-01 1.261340880783114e-01 2.778064951985942e-01 3.730217458834733e-02 3.094804861233345e-02 5.019917646947805e-04 5.130285394348094e-06 4.870736865716159e-08 4.608911701756167e-02 3.578216032716925e-01 3.625573194190157e-01 1.301195508973010e-03 1.816328661852352e-01 7.283486479022032e-02 3.501590043411784e-01 2.571402574229114e-08 3.569042519760685e-06 4.047089358539482e-06 3.340559057203456e-01 3.409692926289796e-01 2.003504564178105e-05 3.662414250724440e-08 9.386789696239059e-02 2.004360396087768e-01 1.130528554387999e-06 1.088354056946679e-06 1.655497344197372e-01 8.872119884688493e-06 1.274711819588405e-03 7.620631429570564e-03 2.778048357068436e-04 3.424774139046162e-01 7.061292696772015e-09 4.631462366406222e-03 5.613832333092160e-06 3.625323828843766e-01 3.804876822688036e-01 3.872160885759516e-01 2.084453708559821e-01 1.079545222350368e-05 1.138666555960444e-02 1.389092772224013e-02 2.017862781850983e-08 2.580480007768400e-01 1.574006197251442e-01 3.059497743306319e-06 7.225463441148871e-06 9.193536322650928e-02 8.405337438740776e-02 3.717350061214506e-06 1.028404594589272e-06 1.694327446702440e-06 9.494750457346724e-09 4.273835695288593e-08 1.609893367994950e-08 4.745228518334090e-03 2.954429799526659e-07 1.330919308465877e-01 2.371156098321043e-01 1.760873692325454e-03 2.498774443778995e-03 1.682903073898090e-07 2.715407966455731e-01 4.336535909847192e-04 2.094358072546271e-01 2.576924976311710e-02 7.164628405188981e-04 1.054064856071290e-03 1.820777273281196e-01 3.577838963508851e-01 2.748041765357416e-03 3.572376687918136e-03 7.145410031580679e-06 3.252992404844948e-01 3.559592529874444e-01 1.635041466263164e-0