<?xml version="1.0"?>
<VTKFile type="UnstructuredGrid" version="0.1" byte_order="LittleEndian">
<UnstructuredGrid>
<Piece NumberOfPoints="714" NumberOfCells="1306">
<Points>
<DataArray type="Float64" NumberOfComponents="3" format="ascii">
0.000000000000000e+00 0.000000000000000e+00 0.000000000000000e+00 5.000000000000000e+00 0.000000000000000e+00 0.000000000000000e+00 5.000000000000000e+00 1.000000000000000e+00 0.000000000000000e+00 0.000000000000000e+00 1.000000000000000e+00 0.000000000000000e+00 9.999999999992801e-02 0.000000000000000e+00 0.000000000000000e+00 1.999999999998339e-01 0.000000000000000e+00 0.000000000000000e+00 2.999999999997341e-01 0.000000000000000e+00 0.000000000000000e+00 3.999999999996643e-01 0.000000000000000e+00 0.000000000000000e+00 4.999999999995944e-01 0.000000000000000e+00 0.000000000000000e+00 5.999999999995166e-01 0.000000000000000e+00 0.000000000000000e+00 6.999999999992880e-01 0.000000000000000e+00 0.000000000000000e+00 7.999999999989961e-01 0.000000000000000e+00 0.000000000000000e+00 8.999999999987042e-01 0.000000000000000e+00 0.000000000000000e+00 9.999999999984124e-01 0.000000000000000e+00 0.000000000000000e+00 1.099999999998120e+00 0.000000000000000e+00 0.000000000000000e+00 1.199999999997829e+00 0.000000000000000e+00 0.000000000000000e+00 1.299999999997537e+00 0.000000000000000e+00 0.000000000000000e+00 1.399999999997245e+00 0.000000000000000e+00 0.000000000000000e+00 1.499999999996953e+00 0.000000000000000e+00 0.000000000000000e+00 1.599999999996661e+00 0.000000000000000e+00 0.000000000000000e+00 1.699999999996369e+00 0.000000000000000e+00 0.000000000000000e+00 1.799999999996077e+00 0.000000000000000e+00 0.000000000000000e+00 1.899999999995785e+00 0.000000000000000e+00 0.000000000000000e+00 1.999999999995511e+00 0.000000000000000e+00 0.000000000000000e+00 2.099999999995593e+00 0.000000000000000e+00 0.000000000000000e+00 2.199999999995745e+00 0.000000000000000e+00 0.000000000000000e+00 2.299999999995897e+00 0.000000000000000e+00 0.000000000000000e+00 2.399999999996049e+00 0.000000000000000e+00 0.000000000000000e+00 2.499999999996201e+00 0.000000000000000e+00 0.000000000000000e+00 2.599999999996353e+00 0.000000000000000e+00 0.000000000000000e+00 2.699999999996505e+00 0.000000000000000e+00 0.000000000000000e+00 2.799999999996657e+00 0.000000000000000e+00 0.000000000000000e+00 2.899999999996809e+00 0.000000000000000e+00 0.000000000000000e+00 2.999999999996961e+00 0.000000000000000e+00 0.000000000000000e+00 3.099999999997114e+00 0.000000000000000e+00 0.000000000000000e+00 3.199999999997265e+00 0.000000000000000e+00 0.000000000000000e+00 3.299999999997417e+00 0.000000000000000e+00 0.000000000000000e+00 3.399999999997569e+00 0.000000000000000e+00 0.000000000000000e+00 3.499999999997721e+00 0.000000000000000e+00 0.000000000000000e+00 3.599999999997873e+00 0.000000000000000e+00 0.000000000000000e+00 3.699999999998025e+00 0.000000000000000e+00 0.000000000000000e+00 3.799999999998176e+00 0.000000000000000e+00 0.000000000000000e+00 3.899999999998329e+00 0.000000000000000e+00 0.000000000000000e+00 3.999999999998481e+00 0.000000000000000e+00 0.000000000000000e+00 4.099999999998633e+00 0.000000000000000e+00 0.000000000000000e+00 4.199999999998784e+00 0.000000000000000e+00 0.000000000000000e+00 4.299999999998937e+00 0.000000000000000e+00 0.000000000000000e+00 4.399999999999088e+00 0.000000000000000e+00 0.000000000000000e+00 4.499999999999240e+00 0.000000000000000e+00 0.000000000000000e+00 4.599999999999393e+00 0.000000000000000e+00 0.000000000000000e+00 4.699999999999545e+00 0.000000000000000e+00 0.000000000000000e+00 4.799999999999696e+00 0.000000000000000e+00 0.000000000000000e+00 4.899999999999848e+00 0.000000000000000e+00 0.000000000000000e+00 5.000000000000000e+00 9.999999999981467e-02 0.000000000000000e+00 5.000000000000000e+00 1.999999999995579e-01 0.000000000000000e+00 5.000000000000000e+00 2.999999999992664e-01 0.000000000000000e+00 5.000000000000000e+00 3.999999999989749e-01 0.000000000000000e+00 5.000000000000000e+00 4.999999999986943e-01 0.000000000000000e+00 5.000000000000000e+00 5.999999999989468e-01 0.000000000000000e+00 5.000000000000000e+00 6.999999999992100e-01 0.000000000000000e+00 5.000000000000000e+00 7.999999999994734e-01 0.000000000000000e+00 5.000000000000000e+00 8.999999999997368e-01 0.000000000000000e+00 4.899999999999999e+00 1.000000000000000e+00 0.000000000000000e+00 4.800000000000000e+00 1.000000000000000e+00 0.000000000000000e+00 4.699999999999999e+00 1.000000000000000e+00 0.000000000000000e+00 4.600000000000000e+00 1.000000000000000e+00 0.000000000000000e+00 4.499999999999999e+00 1.000000000000000e+00 0.000000000000000e+00 4.399999999999999e+00 1.000000000000000e+00 0.000000000000000e+00 4.299999999999999e+00 1.000000000000000e+00 0.000000000000000e+00 4.199999999999998e+00 1.000000000000000e+00 0.000000000000000e+00 4.099999999999999e+00 1.000000000000000e+00 0.000000000000000e+00 3.999999999999999e+00 1.000000000000000e+00 0.000000000000000e+00 3.899999999999999e+00 1.000000000000000e+00 0.000000000000000e+00 3.799999999999999e+00 1.000000000000000e+00 0.000000000000000e+00 3.699999999999998e+00 1.000000000000000e+00 0.000000000000000e+00 3.599999999999999e+00 1.000000000000000e+00 0.000000000000000e+00 3.499999999999999e+00 1.000000000000000e+00 0.000000000000000e+00 3.399999999999999e+00 1.000000000000000e+00 0.000000000000000e+00 3.299999999999999e+00 1.000000000000000e+00 0.000000000000000e+00 3.199999999999998e+00 1.000000000000000e+00 0.000000000000000e+00 3.099999999999999e+00 1.000000000000000e+00 0.000000000000000e+00 2.999999999999999e+00 1.000000000000000e+00 0.000000000000000e+00 2.899999999999999e+00 1.000000000000000e+00 0.000000000000000e+00 2.799999999999999e+00 1.000000000000000e+00 0.000000000000000e+00 2.699999999999999e+00 1.000000000000000e+00 0.000000000000000e+00 2.599999999999999e+00 1.000000000000000e+00 0.000000000000000e+00 2.500000000000000e+00 1.000000000000000e+00 0.000000000000000e+00 2.399999999999999e+00 1.000000000000000e+00 0.000000000000000e+00 2.299999999999999e+00 1.000000000000000e+00 0.000000000000000e+00 2.199999999999999e+00 1.000000000000000e+00 0.000000000000000e+00 2.100000000000000e+00 1.000000000000000e+00 0.000000000000000e+00 2.000000000000000e+00 1.000000000000000e+00 0.000000000000000e+00 1.899999999999999e+00 1.000000000000000e+00 0.000000000000000e+00 1.799999999999999e+00 1.000000000000000e+00 0.000000000000000e+00 1.699999999999999e+00 1.000000000000000e+00 0.000000000000000e+00 1.599999999999999e+00 1.000000000000000e+00 0.000000000000000e+00 1.500000000000000e+00 1.000000000000000e+00 0.000000000000000e+00 1.399999999999999e+00 1.000000000000000e+00 0.000000000000000e+00 1.299999999999999e+00 1.000000000000000e+00 0.000000000000000e+00 1.199999999999999e+00 1.000000000000000e+00 0.000000000000000e+00 1.100000000000000e+00 1.000000000000000e+00 0.000000000000000e+00 9.999999999999991e-01 1.000000000000000e+00 0.000000000000000e+00 8.999999999999995e-01 1.000000000000000e+00 0.000000000000000e+00 7.999999999999998e-01 1.000000000000000e+00 0.000000000000000e+00 7.000000000000002e-01 1.000000000000000e+00 0.000000000000000e+00 5.999999999999996e-01 1.000000000000000e+00 0.000000000000000e+00 4.999999999999991e-01 1.000000000000000e+00 0.000000000000000e+00 3.999999999999995e-01 1.000000000000000e+00 0.000000000000000e+00 3.000000000000007e-01 1.000000000000000e+00 0.000000000000000e+00 1.999999999999993e-01 1.000000000000000e+00 0.000000000000000e+00 9.999999999999964e-02 1.000000000000000e+00 0.000000000000000e+00 0.000000000000000e+00 8.999999999995836e-01 0.000000000000000e+00 0.000000000000000e+00 7.999999999999998e-01 0.000000000000000e+00 0.000000000000000e+00 7.000000000006934e-01 0.000000000000000e+00 0.000000000000000e+00 6.000000000013869e-01 0.000000000000000e+00 0.000000000000000e+00 5.000000000020587e-01 0.000000000000000e+00 0.000000000000000e+00 4.000000000016644e-01 0.000000000000000e+00 0.000000000000000e+00 3.000000000012483e-01 0.000000000000000e+00 0.000000000000000e+00 2.000000000008322e-01 0.000000000000000e+00 0.000000000000000e+00 1.000000000004160e-01 0.000000000000000e+00 7.477570327540725e-01 4.905967956478702e-01 0.000000000000000e+00 1.346210646643281e+00 4.806066422083806e-01 0.000000000000000e+00 1.949496869330408e+00 5.032480558805372e-01 0.000000000000000e+00 4.449999999999997e+00 5.000000000000384e-01 0.000000000000000e+00 3.859142349610828e+00 5.103468031113156e-01 0.000000000000000e+00 3.246530027037640e+00 5.183101712757180e-01 0.000000000000000e+00 2.657531292711257e+00 5.037429884868682e-01 0.000000000000000e+00 3.824015840967434e-01 6.064457502813875e-01 0.000000000000000e+00 2.306343155343502e+00 6.315316747431162e-01 0.000000000000000e+00 1.049999999998266e+00 3.374999999994497e-01 0.000000000000000e+00 1.641930697057102e+00 3.436055112169133e-01 0.000000000000000e+00 4.150000000000006e+00 6.625000000000185e-01 0.000000000000000e+00 3.552784161359181e+00 6.642488388863971e-01 0.000000000000000e+00 2.940292465243163e+00 6.575992780735344e-01 0.000000000000000e+00 1.641237689750194e+00 6.703960699373966e-01 0.000000000000000e+00 1.050000000000000e+00 6.706367924525535e-01 0.000000000000000e+00 2.960517759676693e+00 3.261740577967960e-01 0.000000000000000e+00 3.551899302943298e+00 3.210887133285832e-01 0.000000000000000e+00 4.150779393876139e+00 3.209867287821391e-01 0.000000000000000e+00 2.213980362532827e+00 3.194901812685164e-01 0.000000000000000e+00 4.927283029162088e-01 3.252862896001115e-01 0.000000000000000e+00 4.696684455724628e+00 3.145438084075651e-01 0.000000000000000e+00 4.690990908683984e+00 6.962960281446974e-01 0.000000000000000e+00 2.487221901830106e+00 2.763334294511438e-01 0.000000000000000e+00 6.215262983536076e-01 7.328515730233995e-01 0.000000000000000e+00 2.065768881873406e+00 7.342557316219342e-01 0.000000000000000e+00 2.543072460766750e+00 7.257064952909391e-01 0.000000000000000e+00 8.105176211436336e-01 2.535517621144286e-01 0.0000000000000
[...]
<CellData Scalars="A_conc,As-lin_conc,Bs-lang_conc,Cs-freund_conc," Vectors="">
<DataArray type="Float64" Name="A_conc" format="ascii">
1.779807009557892e-04 3.417714096072118e-01 4.942351625353805e-03 1.032146245583880e-05 2.933550979355313e-01 8.494042913262015e-02 9.210549048443986e-02 2.366939614860665e-01 3.293889503685470e-01 1.630519056297784e-05 8.027541090899254e-03 2.937296301715269e-04 5.934153848807173e-07 1.060149288545024e-02 3.850138989451010e-06 2.871355955059927e-04 3.461811594746119e-06 3.538628236954468e-06 6.188150501298744e-02 2.356359129594825e-06 1.566834468581449e-08 5.789801227381235e-07 1.757741872896792e-05 2.388058329424250e-05 1.535922214392751e-06 1.381685697638996e-05 4.658660738063399e-04 2.789383178860034e-01 2.231348234395878e-06 3.779507267556019e-06 2.668594269770748e-07 2.209222509843540e-06 1.021638454707395e-07 1.597879962538942e-04 6.706950612506192e-02 3.162592769346313e-01 2.029762693009085e-04 7.475458721785364e-08 8.425655506977625e-06 2.985604747613548e-01 1.397946352579875e-02 5.892046672386422e-07 9.616430295230183e-05 3.322049999020276e-06 8.346480675644445e-09 8.714528451608503e-02 3.749590210769560e-06 1.698002417208128e-01 6.186935331823494e-02 7.916454287318170e-02 3.281929885871642e-01 1.178333429865609e-06 1.242453531017283e-02 3.092589463358503e-01 3.246709633987338e-01 3.517735194908410e-01 2.476008976123292e-08 2.314708130492539e-01 2.710958738630681e-01 3.971570149474028e-06 2.818503389702664e-02 2.341714378914193e-01 1.310605525083553e-01 7.138478736369342e-08 3.790412224402803e-09 1.040338886535250e-01 1.679059243849518e-01 8.276975846871049e-09 3.370622590921141e-01 2.643011437749677e-01 1.876474090981806e-08 1.368523983397981e-03 5.843490545627306e-05 3.687377913395834e-06 1.784916946120109e-01 7.061647336294896e-02 3.884690654565426e-07 8.772403704550633e-02 1.943394522054728e-01 8.271367487915682e-09 8.019116197574423e-04 6.763570761677612e-02 9.270110456270381e-04 1.802516799123942e-02 1.469245242244235e-01 4.010144491826441e-07 7.912874399155925e-02 1.861471700789188e-01 4.725098101167408e-07 1.769534454497140e-08 4.373697249309193e-02 1.485974813227027e-01 2.519768795419779e-01 1.386549021984846e-01 7.510087486843123e-02 2.285479792038024e-06 1.371794571576611e-01 2.386283988738772e-01 3.531291060763114e-03 2.709784108859028e-01 3.815406382610036e-05 5.146307004067151e-07 5.637215238694804e-07 1.398254648483458e-01 2.949746243943736e-07 1.823011193807900e-01 3.131532914519632e-06 2.821694937239074e-01 2.847577601168062e-07 1.902356512661770e-01 9.094403713699965e-09 1.018300146988738e-06 9.778688667279565e-07 2.421974832281206e-07 2.147746978709346e-06 2.435070658109739e-01 3.814638517601214e-06 7.959577540295099e-08 1.917533454311092e-09 2.785149391886148e-01 2.112867010115351e-09 2.311739095281785e-06 1.767666772261426e-03 1.565473428978816e-06 2.733583046533687e-01 2.404163734474221e-08 6.843281624208887e-03 5.178893962301895e-07 2.500195660218193e-01 2.091719970157306e-01 7.327427452728723e-02 8.089973561106014e-09 1.961168374800489e-01 2.164434210378874e-01 1.106537754983872e-01 1.063359183236178e-08 3.993223516018311e-06 3.474800970026058e-01 1.621703819573284e-01 1.061884095125606e-01 6.780455266936210e-08 2.714696057042949e-01 1.113705978767847e-06 4.319284545406922e-07 3.597503452329913e-02 3.101538210642330e-02 1.823790254447198e-01 2.744976943082139e-08 8.694448584921977e-02 1.900295093931447e-01 2.663294930912325e-08 8.162262509455565e-02 1.135208745621741e-01 1.579846548460770e-01 6.790861551824526e-09 2.809980383292765e-02 1.409143316800234e-07 2.516141805997240e-01 4.354690371490771e-06 2.303181178806990e-02 4.003521395620747e-06 2.062547836126435e-01 1.301623075710907e-03 2.712393874815621e-03 2.362298387584390e-05 1.371267930241540e-06 1.187613796466297e-06 3.367234212196563e-06 3.890234319770193e-06 2.419993675093818e-02 1.465180277307515e-06 3.547361200155339e-07 3.141180510933510e-02 2.613620846424325e-02 1.848097719974588e-08 1.259344987608424e-01 2.296725608162253e-01 2.577551315746696e-03 1.906493182752285e-04 2.192295288639179e-09 1.346086780283049e-01 2.374841299867858e-01 3.033827427036182e-01 1.123203173692985e-06 1.199603966129485e-04 1.840122800122031e-07 6.150603491785449e-07 1.963253549906352e-06 5.483655481502226e-03 6.923050159788306e-08 9.976429414954357e-05 6.201204921859483e-07 3.144223555019724e-06 2.110631839614317e-06 1.120969760145841e-06 6.609638413144547e-08 1.445745514669427e-06 1.233929527262109e-06 4.062417735798234e-04 5.663863185361538e-04 1.153031202402000e-06 1.987376215393152e-07 3.670551391991217e-01 5.095822114086718e-06 1.214893129282802e-01 2.263308435895605e-01 7.898750757714001e-07 5.609408796042227e-08 6.760669952208582e-06 3.137725136948282e-01 1.488493033650056e-08 3.693970630687101e-03 1.037505084794784e-01 1.545201929420595e-04 4.504735765210829e-06 3.606923353034006e-06 1.512995334113432e-06 1.678519688614483e-06 2.810602637604251e-06 6.796451305333430e-02 6.158957966742081e-02 2.873516660815467e-01 6.324959931016527e-08 1.857714033201111e-05 2.580375979262262e-05 3.592203887574159e-01 1.472206701864061e-06 3.308597060015807e-05 1.560570819991587e-02 9.692493978116469e-08 1.024655169508517e-07 1.085032245722115e-06 1.856031277061284e-06 4.073621781470312e-06 1.176182468943626e-01 1.532762266353934e-01 1.716757498517520e-01 9.972340515810199e-02 1.420428119604958e-06 1.979964634887615e-02 1.807790867341577e-01 6.418614869468236e-08 9.053937056696075e-02 3.617914252746707e-08 3.606237971322516e-02 1.393912957090542e-01 2.429780586831134e-01 1.986394268376319e-02 4.508271982041435e-06 1.624507480541845e-02 3.228077120910415e-08 4.039324303581463e-09 3.433266693914691e-02 1.407204258793567e-01 2.423738876132735e-01 2.424836515350372e-01 2.369093218305265e-06 2.349908143437303e-04 3.222885366459308e-06 1.202362473974119e-02 2.197805406577037e-07 1.274128167359851e-04 1.535398686550636e-01 1.460160167285083e-01 3.483795328125358e-07 3.264656824129966e-06 6.599682859993484e-06 2.549830358500254e-06 7.725016944032797e-05 1.864922517300375e-02 1.801935338840108e-09 8.531299817681437e-09 1.907759894223966e-01 8.122944733134413e-02 9.449378284948819e-03 4.267110123335526e-06 4.876171097739232e-03 2.934204453699671e-06 5.667622578188972e-07 5.897265348460396e-07 2.801286373882661e-09 2.025081613264783e-01 1.726893945156913e-06 4.612708712173867e-06 2.809432599954168e-01 1.788705212273741e-07 4.407528213350603e-07 1.473867151527363e-07 1.134490222227790e-01 1.594836909581958e-01 1.821051742729046e-08 1.086915053457498e-09 3.510167100583373e-05 6.160046110955931e-05 5.555974185561865e-02 2.422054733663544e-08 3.586883837821748e-08 3.948631766994545e-06 1.598762926051718e-02 3.104523315882968e-04 4.309353231251351e-02 8.342188728546816e-06 1.481248962211251e-01 2.498789399841512e-01 1.710515851158507e-04 3.953890096596658e-06 3.915703114701536e-06 2.747805011166048e-01 1.550226554878504e-01 4.918373373850785e-02 1.629757229006576e-01 5.521639019059863e-02 2.328636020759151e-02 9.437058147189334e-08 2.899399981322691e-02 1.336134511167263e-04 5.969747649437316e-04 8.566572145410778e-04 3.295860911782476e-01 2.317456003720546e-01 2.255526774379975e-01 5.086452380114932e-08 5.265296151415456e-08 9.059314701486530e-07 3.079652826930011e-08 1.414191314119485e-01 1.325370784698958e-01 2.838593891653071e-07 4.506887977372798e-02 2.037583685049564e-06 3.485103469513784e-01 3.446329775641546e-01 3.453804320622229e-01 3.480945070495698e-01 2.674021022694140e-01 4.027144988704810e-06 2.441133778002451e-06 1.763249865885448e-08 1.183404043872356e-01 2.405750923331017e-05 4.752166381579019e-05 1.903647972612142e-06 5.560186181034011e-03 3.062881224777152e-01 8.818788605961116e-03 2.988767067521674e-06 1.301629672473954e-04 1.123723415054327e-02 1.044664457886802e-06 1.171349795895665e-03 3.617827348439221e-01 4.019318791116479e-03 6.157200545571417e-07 2.237111282991717e-05 4.694555738722122e-06 2.391022197445604e-01 2.306612475814905e-08 3.424985301731124e-08 1.193570913125348e-06 5.224552992079671e-08 4.133083600027015e-06 1.818380518784397e-07 3.898867341780558e-06 2.146572635724960e-01 1.959629704881948e-06 2.173293612631425e-01 2.591024238212873e-08 1.505211492831663e-01 1.223719715889143e-01 3.351607676161272e-01 3.676006992879657e-01 3.676007031525840e-01 2.906044291353434e-01 2.895606145676491e-01 4.001576972595021e-02 1.556503714351983e-08 2.491050109397661e-01 7.737849803534173e-09 2.295939973156328e-01 1.323452714590747e-07 3.341053673608138e-01 3.088859766147499e-06 8.151117064930956e-07 1.641354724831262e-01 5.747984658839055e-02 1.791141577282533e-03 4.378340620363864e-08 3.568538679188691e-04 3.301546771573760e-04 2.879402098775111e-01 3.325462667353269e-01 2.061280803396638e-06 2.766867028471121e-07 6.573356809533363e-03 1.394791517671277e-05 3.279834727513442e-06 1.970385140374398e-06 1.997834123888538e-01 1.899666937314227e-01 2.399857550399075e-07 3.258888076014004e-02 3.236198452436546e-01 4.987188031342033e-03 2.396096319271048e-06 1.491744676968861e-06 2.054664826966560e-06 2.481772877687688e-07 8.761006345670919e-02 3.100272785350066e-01 1.950317750331901e-01 2.258790274267949e-02 3.672059418335391e-01 2.338008238718974e-02 5.053906040031103e-07 2.214519295728627e-01 3.271329494411002e-01 3.787977297606942e-07 5.082823952662856e-07 1.250502920295799e-01 6.708640610311014e-05 5.297391691014363e-08 8.053267410534434e-02 1.880386194965901e-01 2.732323160741273e-01 1.066402628715886e-05 4.546123341149545e-04 3.922475943935900e-07 7.017410771709413e-09 5.839181776677695e-02 1.651121272323641e-01 2.678105992499658e-01 6.455655723852996e-05 1.065431708218058e-08 5.173297027737384e-02 1.590020559242659e-01 2.615427423772460e-01 1.542937855230598e-06 1.461448579132744e-08 1.492930021300020e-01 1.226010294062504e-01 2.929299374057562e-02 1.267319616463917e-01 1.462918333531000e-01 2.101044126950540e-01 1.032815708699378e-01 2.252598376632892e-01 1.199632974745304e-01 3.336737504047236e-03 4.233541805784308e-06 3.555516257891626e-01 4.688283173488053e-03 2.546417474356286e-07 9.629856781154533e-02 3.495133052132550e-01 2.016675388747334e-01 9.407749718008593e-02 2.154993055409309e-02 2.168377253649700e-06 3.039689997836288e-04 2.062662537756860e-09 3.041396343203427e-01 3.285488670786288e-01 3.889924117662642e-06 2.131884316715709e-03 4.632439650371079e-03 5.858710582819418e-06 3.504428746536385e-01 3.453045901364029e-01 4.906175948166841e-07 2.283804030565603e-01 1.328901584087209e-02 1.408661973240885e-02 2.654375445295148e-02 3.252941843209963e-01 3.166175964753268e-01 3.228794701795769e-01 9.040301215179937e-07 1.206770866810281e-06 5.484509385861964e-08 2.484676980520556e-03 2.672987347732710e-01 3.745489559719057e-07 2.906761055691144e-01 1.275069745845093e-01 9.179355668991929e-09 8.488715166551734e-08 2.472695548808081e-01 1.376098949783159e-01 1.285338243840310e-01 1.244238880348004e-06 1.968415083516922e-01 3.447762711550144e-01 2.972804347040507e-01 2.188633899090214e-01 2.351115213981377e-01 1.306913808948214e-01 7.268248094383786e-03 2.807719208129353e-01 5.055081464419475e-02 2.983568809114673e-01 3.007106971031792e-08 1.532118112415624e-06 1.465720716823733e-06 1.938452864111562e-01 8.784529570823049e-02 1.621080099657848e-01 1.093649926057547e-01 1.825250682744809e-07 2.979106456589783e-08 1.739714513284311e-04 2.827166259776456e-01 5.165449618758987e-06 2.620048751659067e-03 3.304001710496819e-06 5.544904552737263e-04 9.989430437923964e-07 2.114965541098904e-01 2.637821838276271e-01 2.998482412372345e-01 3.021545360210777e-01 2.287355743992972e-06 4.375314331706969e-06 2.155714956493852e-04 1.774409971656677e-09 3.117688080243253e-01 2.867327864568136e-01 4.733429420577813e-07 2.345565797926600e-01 2.936750603331876e-02 3.165783785850600e-01 3.583874013509034e-02 1.452540831412707e-06 2.927555990902651e-01 2.487678490720295e-01 9.262736449089549e-03 8.436744913825986e-02 1.720689216630848e-02 1.962972548316809e-06 4.189661044205211e-05 2.821172353265153e-01 7.590846565121026e-02 2.514075312384894e-01 1.463435439542725e-08 1.493698826693044e-01 4.293171973044058e-02 1.428861165989523e-08 4.357511442091658e-07 2.966458261514046e-01 1.477838022051533e-02 5.713835209939960e-06 5.002695525695508e-06 4.481216150559319e-05 4.427526327709961e-08 1.965880162261512e-01 8.968326654361186e-02 3.262225397257738e-06 2.727113417493633e-01 3.197780642497888e-01 3.684856520902736e-06 3.311292046354458e-06 6.644855167859076e-08 8.293520413838747e-05 9.432681650715525e-08 5.949064978305306e-02 1.681098236129702e-01 1.972275584736629e-07 2.136847595097894e-01 4.263771160696548e-06 3.375063957522579e-01 3.021177740182210e-06 3.931319622269762e-07 3.045165373704809e-01 3.002900595717294e-01 4.652698489134135e-08 2.752525092207764e-01 2.799450547510449e-01 2.335144214396424e-04 2.430248508156811e-02 1.479338819225380e-01 2.000012036601284e-05 9.649835589785999e-03 3.351815531314091e-01 3.289334594176135e-01 1.206761104471736e-03 1.560900572609607e-07 1.275107905178756e-01 1.886393656568309e-03 9.492637105009256e-03 6.635336345771472e-08 2.577032660432572e-01 2.603699220320922e-08 1.626099126502557e-08 2.034210092245663e-01 1.574777416961840e-08 2.087140076014805e-01 3.497842733587350e-01 3.435101132119477e-01 1.080464852634462e-03 7.974561159772323e-02 4.912260590519395e-06 9.969219039824377e-09 7.750295138590103e-08 1.860152402820394e-01 4.608169893441253e-06 7.843502061117197e-02 3.339381532616196e-01 1.003000402205264e-06 8.911507092649961e-07 3.164609191400615e-08 6.498877038836762e-03 3.687124772038890e-07 4.577336930098818e-06 2.718607920499282e-08 4.004100793026008e-07 2.802883373128326e-01 4.046356396472548e-07 1.903912865775624e-07 8.363534920754031e-04 4.673764159426859e-02 8.121613100374388e-09 2.252493427087965e-01 1.208313046960008e-02 3.598172140697198e-04 3.139453267836812e-05 2.573184104810946e-01 2.771432986108701e-07 1.980028501054017e-03 7.838964522298559e-08 4.039938553632860e-06 1.897606297212818e-06 2.322029706072640e-01 2.261048190160437e-01 1.166048639245686e-07 1.117987863610460e-04 1.874771260498687e-01 8.594722847172466e-07 1.511454655511404e-08 1.310114120535821e-01 9.032260013436354e-08 6.615059727781772e-02 1.740530805436883e-01 2.018991854250295e-07 2.247647758091397e-07 1.512312974948209e-07 1.792749163005725e-01 9.312750232985700e-02 4.808211765954727e-04 1.087657649352432e-02 9.200670204178460e-08 2.171866338553941e-07 2.152558978830234e-06 2.964315455305222e-01 6.242647472776166e-06 1.912795973766257e-07 1.945741886869098e-01 8.754146145035449e-02 1.408737057474963e-06 2.608538012532762e-01 2.562461610049530e-01 1.708141503741147e-07 1.532112738233316e-07 2.372416633186662e-01 2.027853328224850e-06 4.878609864839332e-07 5.167078553066883e-08 4.755160335330154e-08 8.973394814551026e-04 1.575082130315433e-02 1.268340930013083e-03 2.580486282584249e-06 1.361824877297917e-06 2.433641186684570e-01 2.381604288910176e-01 3.447024843471092e-02 2.732992748199827e-08 2.837479790425809e-08 6.500730152955534e-08 6.939982278024394e-03 4.887206483386321e-02 6.865927239013087e-06 3.413154811631798e-08 1.366284590923822e-08 1.563798689654956e-01 4.132567866542614e-06 1.835722063682575e-02 3.117600062161231e-01 3.257613376406466e-06 3.627542368686114e-01 3.618741394761468e-01 3.101378681350001e-03 4.912247700146475e-06 1.217380735801190e-01 1.149802438140910e-01 3.941717099536010e-02 3.183866721004493e-03 2.402972113017200e-03 7.322363127640170e-02 5.531799467297039e-08 1.814799941378933e-01 7.825130681152342e-03 2.643121622252319e-01 2.662793059425173e-05 3.559382149210298e-01 3.623301936163479e-01 3.625088978863247e-01 3.561245482486614e-01 3.538089500366122e-01 3.547175402379208e-01 1.393219168052112e-06 1.789304758905341e-01 4.192877852063796e-02 3.945598178048548e-02 1.433071479125268e-07 1.935813885750038e-03 2.925416649464178e-06 7.533596916073187e-08 3.042828466688047e-01 2.607053405917256e-03 3.443995353273697e-03 8.872863446568765e-07 9.099091472890841e-07 1.727014803924890e-01 1.001850643601051e-01 5.357276595342519e-06 3.426713860767261e-03 3.988805765348968e-07 9.979409192860729e-03 2.159164942745712e-08 1.969626122823733e-06 5.034332267090064e-08 9.540274773170059e-09 5.549581830546763e-02 2.100854823385166e-01 4.178360820161576e-08 1.039319280738223e-01 1.053481273160169e-04 1.704344698299448e-07 2.749403276118695e-08 4.541128337314138e-07 4.792896831877381e-06 1.609945606325654e-01 4.945941004164484e-07 6.371508286446745e-07 5.705953000509307e-02 5.273445201827465e-02 2.998620238673548e-09 2.105799078472175e-01 1.893446761637114e-07 1.837589433776014e-06 4.008571097674972e-02 3.693474216573408e-01 3.693474230617512e-01 2.541257974513552e-08 2.656578311323475e-01 6.076390210601604e-02 7.227237253338923e-04 1.671651866926385e-06 1.913531673652982e-01 7.392030558513905e-08 8.052068423732286e-02 5.404362507701828e-06 1.144063900108524e-01 3.619208146393243e-01 3.619208188810460e-01 1.726555483967531e-01 3.040979406916419e-01 2.970300366490022e-01 2.781001469655707e-01 2.488599524830906e-06 2.118878385065598e-08 3.174212146201137e-01 3.106744238741282e-01 1.693855166471642e-03 1.547018339797825e-08 1.292907525840425e-06 1.567741586800394e-08 1.304661079782383e-08 3.017882124045342e-01 4.653659866735244e-02 3.549132267677876e-01 3.550336107415916e-01 3.261346562416792e-06 1.198777932286180e-07 2.168824627867662e-01 2.228192728783180e-07 1.120310593618662e-01 7.134296018182877e-08 1.390916164691574e-06 2.412466917853934e-01 2.562478974039095e-01 3.829165905867357e-06 3.621679955037292e-06 1.003794011875645e-03 1.368782929423474e-03 1.975445557466949e-02 5.939926951029123e-08 2.658406932781608e-01 1.032916127805939e-01 9.637987119661334e-02 2.083835730758300e-01 2.013598720597234e-01 4.753149422117431e-02 2.930992568681389e-06 1.132116236594684e-01 1.640029926111088e-07 1.635774043036701e-01 3.292887971027876e-07 3.786977372409934e-02 1.423006438325014e-01 2.445649247144772e-01 2.220459319662652e-01 1.177134140089027e-01 4.073672283464828e-02 1.062463210909719e-01 4.371086970736261e-08 1.681146827187409e-01 4.656192808844719e-06 1.431336423361211e-08 3.473495146627396e-06 1.441138128821073e-06 2.345480829701576e-01 4.255912374309606e-02 3.234690575004271e-01 1.368105865544368e-01 2.556986244014163e-01 6.979492119860090e-02 6.674459386271734e-08 1.748586105188117e-01 9.792837885395272e-02 2.516325710449995e-01 1.929864704383268e-02 1.509724498101722e-02 9.112517985603911e-05 4.679277289695995e-06 4.266701498123937e-08 2.538918714646589e-02 3.324655523310733e-01 3.372434454323373e-01 2.850539516744764e-04 1.541510656022879e-01 4.715453399864771e-02 3.247332082557201e-01 1.988604803445946e-08 3.134589456836209e-06 3.574617075145429e-06 3.084777087711399e-01 3.154573202564082e-01 1.837787291400580e-06 5.355775922419648e-09 6.644705664765800e-02 1.732423089326479e-01 9.723396750173862e-07 9.319400042671360e-07 1.378140354596943e-01 6.991032703079925e-07 2.696802002174420e-04 2.519559167926781e-03 4.186986067092865e-05 3.169797802287160e-01 7.466755761923740e-10 1.324879437050406e-03 5.064468458839579e-06 3.372180068241812e-01 3.553284397108164e-01 3.621128090442902e-01 1.813691156243584e-01 9.022351794027985e-07 4.111184055752858e-03 5.308342598039226e-03 1.665912238362085e-08 2.316376725675859e-01 1.295408177942600e-01 2.771774484766954e-06 6.596999452065762e-06 6.449702086967415e-02 5.713845203850330e-02 3.371145473558862e-06 8.894887159486418e-07 1.234779764528213e-06 8.064255214040448e-09 1.645120105084030e-09 1.374100588980125e-08 1.347448965837788e-03 2.652665171936006e-07 1.049382717477904e-01 2.104383148626582e-01 4.016065569433208e-04 6.175065441758877e-04 1.481933741391137e-07 2.452937051364509e-01 7.171069990003681e-05 1.823741676161977e-01 1.187985423100397e-02 1.345202223332295e-04 2.153339410844240e-04 1.546029159547387e-01 3.324274999748741e-01 6.874816455668659e-04 9.545583916350122e-04 6.566001364074314e-06 2.996352265933259e-01 3.305859928286649e-01 1.428569776331316e-0