<?xml version="1.0"?>
<VTKFile type="UnstructuredGrid" version="0.1" byte_order="LittleEndian">
<UnstructuredGrid>
<Piece NumberOfPoints="198" NumberOfCells="67">
<Points>
<DataArray type="Float64" NumberOfComponents="3" format="ascii">
5.000000000002669e-01 4.330127018924964e-01 0.000000000000000e+00 4.375000000001656e-01 3.247595264196161e-01 0.000000000000000e+00 4.375000000001656e-01 3.247595264196161e-01 0.000000000000000e+00 5.625000000000788e-01 3.247595264192216e-01 0.000000000000000e+00 5.625000000000788e-01 3.247595264192216e-01 0.000000000000000e+00 5.000000000002669e-01 4.330127018924964e-01 0.000000000000000e+00 1.000000000000000e+00 0.000000000000000e+00 0.000000000000000e+00 9.375000000000857e-01 1.082531754729064e-01 0.000000000000000e+00 8.749999999996679e-01 0.000000000000000e+00 0.000000000000000e+00 9.375000000000857e-01 1.082531754729064e-01 0.000000000000000e+00 8.124999999998026e-01 1.082531754729207e-01 0.000000000000000e+00 8.749999999996679e-01 0.000000000000000e+00 0.000000000000000e+00 9.375000000000857e-01 1.082531754729064e-01 0.000000000000000e+00 8.750000000002003e-01 2.165063509457628e-01 0.000000000000000e+00 8.124999999998026e-01 1.082531754729207e-01 0.000000000000000e+00 8.749999999996679e-01 0.000000000000000e+00 0.000000000000000e+00 8.124999999998026e-01 1.082531754729207e-01 0.000000000000000e+00 7.499999999993359e-01 0.000000000000000e+00 0.000000000000000e+00 8.750000000002003e-01 2.165063509457628e-01 0.000000000000000e+00 7.499999999999739e-01 2.165063509458681e-01 0.000000000000000e+00 8.124999999998026e-01 1.082531754729207e-01 0.000000000000000e+00 7.499999999999739e-01 2.165063509458681e-01 0.000000000000000e+00 6.874999999995526e-01 1.082531754729882e-01 0.000000000000000e+00 8.124999999998026e-01 1.082531754729207e-01 0.000000000000000e+00 7.499999999999739e-01 2.165063509458681e-01 0.000000000000000e+00 6.249999999998230e-01 2.165063509460530e-01 0.000000000000000e+00 6.874999999995526e-01 1.082531754729882e-01 0.000000000000000e+00 8.124999999998026e-01 1.082531754729207e-01 0.000000000000000e+00 6.874999999995526e-01 1.082531754729882e-01 0.000000000000000e+00 7.499999999993359e-01 0.000000000000000e+00 0.000000000000000e+00 8.750000000002003e-01 2.165063509457628e-01 0.000000000000000e+00 8.125000000003098e-01 3.247595264186279e-01 0.000000000000000e+00 7.499999999999739e-01 2.165063509458681e-01 0.000000000000000e+00 8.125000000003098e-01 3.247595264186279e-01 0.000000000000000e+00 6.875000000001545e-01 3.247595264188601e-01 0.000000000000000e+00 7.499999999999739e-01 2.165063509458681e-01 0.000000000000000e+00 8.125000000003098e-01 3.247595264186279e-01 0.000000000000000e+00 7.500000000004792e-01 4.330127018913894e-01 0.000000000000000e+00 6.875000000001545e-01 3.247595264188601e-01 0.000000000000000e+00 7.499999999999739e-01 2.165063509458681e-01 0.000000000000000e+00 6.875000000001545e-01 3.247595264188601e-01 0.000000000000000e+00 6.249999999998230e-01 2.165063509460530e-01 0.000000000000000e+00 7.499999999993359e-01 0.000000000000000e+00 0.000000000000000e+00 6.874999999995526e-01 1.082531754729882e-01 0.000000000000000e+00 6.249999999990038e-01 0.000000000000000e+00 0.000000000000000e+00 6.874999999995526e-01 1.082531754729882e-01 0.000000000000000e+00 5.624999999993771e-01 1.082531754730905e-01 0.000000000000000e+00 6.249999999990038e-01 0.000000000000000e+00 0.000000000000000e+00 6.874999999995526e-01 1.082531754729882e-01 0.000000000000000e+00 6.249999999998230e-01 2.165063509460530e-01 0.000000000000000e+00 5.624999999993771e-01 1.082531754730905e-01 0.000000000000000e+00 6.249999999990038e-01 0.000000000000000e+00 0.000000000000000e+00 5.624999999993771e-01 1.082531754730905e-01 0.000000000000000e+00 4.999999999986717e-01 0.000000000000000e+00 0.000000000000000e+00 7.500000000004792e-01 4.330127018913894e-01 0.000000000000000e+00 6.250000000002535e-01 4.330127018920072e-01 0.000000000000000e+00 6.875000000001545e-01 3.247595264188601e-01 0.000000000000000e+00 6.250000000002535e-01 4.330127018920072e-01 0.000000000000000e+00 5.625000000000788e-01 3.247595264192216e-01 0.000000000000000e+00 6.875000000001545e-01 3.247595264188601e-01 0.000000000000000e+00 6.250000000002535e-01 4.330127018920072e-01 0.000000000000000e+00 5.000000000002669e-01 4.330127018924964e-01 0.000000000000000e+00 5.625000000000788e-01 3.247595264192216e-01 0.000000000000000e+00 6.875000000001545e-01 3.247595264188601e-01 0.000000000000000e+00 5.625000000000788e-01 3.247595264192216e-01 0.000000000000000e+00 6.249999999998230e-01 2.165063509460530e-01 0.000000000000000e+00 5.000000000002669e-01 4.330127018924964e-01 0.000000000000000e+00 4.375000000001656e-01 3.247595264196161e-01 0.000000000000000e+00 5.625000000000788e-01 3.247595264192216e-01 0.000000000000000e+00 4.375000000001656e-01 3.247595264196161e-01 0.000000000000000e+00 4.999999999998002e-01 2.165063509462916e-01 0.000000000000000e+00 5.625000000000788e-01 3.247595264192216e-01 0.000000000000000e+00 4.375000000001656e-01 3.247595264196161e-01 0.000000000000000e+00 3.749999999999418e-01 2.165063509465518e-01 0.000000000000000e+00 4.999999999998002e-01 2.165063509462916e-01 0.000000000000000e+00 5.625000000000788e-01 3.247595264192216e-01 0.000000000000000e+00 4.999999999998002e-01 2.165063509462916e-01 0.000000000000000e+00 6.249999999998230e-01 2.165063509460530e-01 0.000000000000000e+00 5.000000000002669e-01 4.330127018924964e-01 0.000000000000000e+00 3.750000000004802e-01 4.330127018930556e-01 0.000000000000000e+00 4.375000000001656e-01 3.247595264196161e-01 0.000000000000000e+00 3.750000000004802e-01 4.330127018930556e-01 0.000000000000000e+00 3.125000000004190e-01 3.247595264200667e-01 0.000000000000000e+00 4.375000000001656e-01 3.247595264196161e-01 0.000000000000000e+00 3.750000000004802e-01 4.330127018930556e-01 0.000000000000000e+00 2.500000000009974e-01 4.330127018939468e-01 0.000000000000000e+00 3.125000000004190e-01 3.247595264200667e-01 0.000000000000000e+00 4.375000000001656e-01 3.247595264196161e-01 0.000000000000000e+00 3.125000000004190e-01 3.247595264200667e-01 0.000000000000000e+00 3.749999999999418e-01 2.165063509465518e-01 0.000000000000000e+00 6.249999999998230e-01 2.165063509460530e-01 0.000000000000000e+00 4.999999999998002e-01 2.165063509462916e-01 0.000000000000000e+00 5.624999999993771e-01 1.082531754730905e-01 0.000000000000000e+00 4.999999999998002e-01 2.165063509462916e-01 0.000000000000000e+00 4.374999999994137e-01 1.082531754732118e-01 0.000000000000000e+00 5.624999999993771e-01 1.082531754730905e-01 0.000000000000000e+00 4.999999999998002e-01 2.165063509462916e-01 0.000000000000000e+00 3.749999999999418e-01 2.165063509465518e-01 0.000000000000000e+00 4.374999999994137e-01 1.082531754732118e-01 0.000000000000000e+00 5.624999999993771e-01 1.082531754730905e-01 0.000000000000000e+00 4.374999999994137e-01 1.082531754732118e-01 0.000000000000000e+00 4.999999999986717e-01 0.000000000000000e+00 0.000000000000000e+00 7.500000000004792e-01 4.330127018913894e-01 0.000000000000000e+00 6.875000000002827e-01 5.412658773647846e-01 0.000000000000000e+00 6.250000000002535e-01 4.330127018920072e-01 0.000000000000000e+00 6.875000000002827e-01 5.412658773647846e-01 0.000000000000000e+00 5.625000000002492e-01 5.412658773652879e-01 0.000000000000000e+00 6.250000000002535e-01 4.330127018920072e-01 0.000000000000000e+00 6.875000000002827e-01 5.412658773647846e-01 0.000000000000000e+00 6.250000000001095e-01 6.495190528381393e-01 0.000000000000000e+00 5.625000000002492e-01 5.412658773652879e-01 0.000000000000000e+00 6.250000000002535e-01 4.330127018920072e-01 0.000000000000000e+00 5.625000000002492e-01 5.412658773652879e-01 0.000000000000000e+00 5.000000000002669e-01 4.330127018924964e-01 0.000000000000000e+00 6.250000000001095e-01 6.495190528381393e-01 0.000000000000000e+00 5.000000000002092e-01 6.495190528385093e-01 0.000000000000000e+00 5.625000000002492e-01 5.412658773652879e-01 0.000000000000000e+00 5.000000000002092e-01 6.495190528385093e-01 0.000000000000000e+00 4.375000000003694e-01 5.412658773657841e-01 0.000000000000000e+00 5.625000000002492e-01 5.412658773652879e-01 0.000000000000000e+00 5.000000000002092e-01 6.495190528385093e-01 0.000000000000000e+00 3.750000000003548e-01 6.495190528389435e-01 0.000000000000000e+00 4.375000000003694e-01 5.412658773657841e-01 0.000000000000000e+00 5.625000000002492e-01 5.412658773652879e-01 0.000000000000000e+00 4.375000000003694e-01 5.412658773657841e-01 0.000000000000000e+00 5.000000000002669e-01 4.330127018924964e-01 0.000000000000000e+00 6.250000000001095e-01 6.495190528381393e-01 0.000000000000000e+00 5.625000000000482e-01 7.577722283113003e-01 0.000000000000000e+00 5.000000000002092e-01 6.495190528385093e-01 0.000000000000000e+00 5.625000000000482e-01 7.577722283113003e-01 0.000000000000000e+00 4.375000000001240e-01 7.577722283115986e-01 0.000000000000000e+00 5.000000000002092e-01 6.495190528385093e-01 0.000000000000000e+00 5.625000000000482e-01 7.577722283113003e-01 0.000000000000000e+00 5.000000000000000e-01 8.660254037844386e-01 0.000000000000000e+00 4.375000000001240e-01 7.577722283115986e-01 0.000000000000000e+00 5.000000000002092e-01 6.495190528385093e-01 0.000000000000000e+00 4.375000000001240e-01 7.577722283115986e-01 0.000000000000000e+00 3.750000000003548e-01 6.495190528389435e-01 0.000000000000000e+00 5.000000000002669e-01 4.330127018924964e-01 0.000000000000000e+00 4.375000000003694e-01 5.412658773657841e-01 0.000000000000000e+00 3.750000000004802e-01 4.330127018930556e-01 0.000000000000000e+00 4.375000000003694e-01 5.412658773657841e-01 0.000000000000000e+00 3.125000000006516e-01 5.412658773664026e-01 0.000000000000000e+00 3.750000000004802e-01 4.330127018930556e-01 0.000000000000000e+00 4.375000000003694e-01 5.412658773657841e-01 0.000000000000000e+00 3.750000000003548e-01 6.495190528389435e-01 0.000000000000000e+00 3.125000000006516e-01 5.412658773664026e-01 0.000000000000000e+00 3.750000000004802e-01 4.330127018930556e-01 0.000000000000000e+00 3.125000000006516e-01 5.412658773664026e-01 0.000000000000000e+00 2.500000000009974e-01 4.330127018939468e-01 0.000000000000000e+00 4.999999999986717e-01 0.000000000000000e+00 0.000000000000000e+00 4.374999999994137e-01 1.082531754732118e-01 0.000000000000000e+00 3.749999999990400e-01 0.000000000000000e+00 0.000000000000000e+00 4.374999999994137e-01 1.082531754732118e-01 0.000000000000000e+00 3.124999999996580e-01 1.082531754733300e-01 0.000000000000000e+00 3.749999999990400e-01 0.000000000000000e+00 0.000000000000000e+00 4.374999999994137e-01 1.082531754732118e-01 0.000000000000000e+00 3.749999999999418e-01 2.165063509465518e-01 0.000000000000000e+00 3.124999999996580e-01 1.082531754733300e-01 0.000000000000000e+00 3.749999999990400e-01 0.000000000000000e+00 0.000000000000000e+00 3.124999999996580e-01 1.082531754733300e-01 0.000000000000000e+00 2.499999999994083e-01 0.000000000000000e+00 0.000000000000000e+00 3.749999999999418e-01 2.165063509465518e-01 0.000000000000000e+00 2.500000000001947e-01 2.165063509467870e-01 0.000000000000000e+00 3.124999999996580e-01 1.082531754733300e-01 0.000000000000000e+00 2.500000000001947e-01 2.165063509467870e-01 0.000000000000000e+00 1.874999999999555e-01 1.082531754734159e-01 0.000000000000000e+00 3.124999999996580e-01 1.082531754733300e-01 0.000000000000000e+00 2.500000000001947e-01 2.165063509467870e-01 0.000000000000000e+00 1.250000000004645e-01 2.165063509469142e-01 0.000000000000000e+00 1.874999999999555e-01 1.082531754734159e-01 0.000000000000000e+00 3.124999999996580e-01 1.082531754733300e-01 0.000000000000000e+00 1.874999999999555e-01 1.082531754734159e-01 0.000000000000000e+00 2.499999999994083e-01 0.000000000000000e+00 0.000000000000000e+00 3.749999999999418e-01 2.165063509465518e-01 0.000000000000000e+00 3.125000000004190e-01 3.247595264200667e-01 0.000000000000000e+00 2.500000000001947e-01 2.165063509467870e-01 0.000000000000000e+00 3.125000000004190e-01 3.247595264200667e-01 0.000000000000000e+00 1.875000000007290e-01 3.247595264204271e-01 0.000000000000000e+00 2.500000000001947e-01 2.165063509467870e-01 0.000000000000000e+00 3.125000000004190e-01 3.247595264200667e-01 0.000000000000000e+00 2.500000000009974e-01 4.330127018939468e-01 0.000000000000000e+00 1.875000000007290e-01 3.247595264204271e-01 0.000000000000000e+00 2.500000000001947e-01 2.165063509467870e-01 0.000000000000000e+00 1.875000000007290e-01 3.247595264204271e-01 0.000000000000000e+00 1.250000000004645e-01 2.165063509469142e-01 0.000000000000000e+00 2.499999999994083e-01 0.000000000000000e+00 0.000000000000000e+00 1.874999999999555e-01 1.082531754734159e-01 0.000000000000000e+00 1.249999999997738e-01 0.000000000000000e+00 0.000000000000000e+00 1.874999999999555e-01 1.082531754734159e-01 0.000000000000000e+00 6.250000000023442e-02 1.082531754734609e-01 0.000000000000000e+00 1.249999999997738e-01 0.000000000000000e+00 0.000000000000000e+00 1.874999999999555e-01 1.082531754734159e-01 0.000000000000000e+00 1.250000000004645e-01 2.165063509469142e-01 0.000000000000000e+00 6.250000000023442e-02 1.082531754734609e-01 0.000000000000000e+00 1.249999999997738e-01 0.000000000000000e+00 0.000000000000000e+00 6.250000000023442e-02 1.082531754734609e-01 0.000000000000000e+00 0.000000000000000e+00 0.000000000000000e+00 0.000000000000000e+00 
</DataArray>
</Points>
<Cells>
<DataArray type="Int32" Name="connectivity" format="ascii">
0 1 2 3 4 5 6 7 8 9 10 11 12 13 14 15 16 17 18 19 20 21 22 23 24 25 26 27 28 29 30 31 32 33 34 35 36 37 38 39 40 41 42 43 44 45 46 47 48 49 50 51 52 53 54 55 56 57 58 59 60 61 62 63 64 65 66 67 68 69 70 71 72 73 74 75 76 77 78 79 80 81 82 83 84 85 86 87 88 89 90 91 92 93 94 95 96 97 98 99 100 101 102 103 104 105 106 107 108 109 110 111 112 113 114 115 116 117 118 119 120 121 122 123 124 125 126 127 128 129 130 131 132 133 134 135 136 137 138 139 140 141 142 143 144 145 146 147 148 149 150 151 152 153 154 155 156 157 158 159 160 161 162 163 164 165 166 167 168 169 170 171 172 173 174 175 176 177 178 179 180 181 182 183 184 185 186 187 188 189 190 191 192 193 194 195 196 197 
</DataArray>
<DataArray type="Int32" Name="offsets" format="ascii">
2 4 6 9 12 15 18 21 24 27 30 33 36 39 42 45 48 51 54 57 60 63 66 69 72 75 78 81 84 87 90 93 96 99 102 105 108 111 114 117 120 123 126 129 132 135 138 141 144 147 150 153 156 159 162 165 168 171 174 177 180 183 186 189 192 195 198 
</DataArray>
<DataArray type="UInt8" Name="types" format="ascii">
3 3 3 5 5 5 5 5 5 5 5 5 5 5 5 5 5 5 5 5 5 5 5 5 5 5 5 5 5 5 5 5 5 5 5 5 5 5 5 5 5 5 5 5 5 5 5 5 5 5 5 5 5 5 5 5 5 5 5 5 5 5 5 5 5 5 5 
</DataArray>
</Cells>
<PointData Scalars="A_conc," Vectors="">
<DataArray type="Float64" Name="A_conc" format="ascii">
2.665475397308213e-01 2.664397492668048e-01 2.663932714409583e-01 2.663936344762995e-01 2.664415589471202e-01 2.665458553091414e-01 -5.449747200505392e-05 1.048043999473286e-04 2.648421475008690e-05 1.303083863290828e-04 -2.353707213602942e-04 2.930900402341073e-05 1.926573012059164e-04 -5.400501553803779e-04 -2.725834759177734e-04 6.336299364960941e-05 -2.781863454875331e-04 4.548848658937418e-05 -6.665492530317576e-04 2.219734465250088e-03 -3.469497693954555e-04 2.502578038791508e-03 5.923043208873281e-04 -5.594968584030430e-04 3.313074210931913e-03 -1.102667399814477e-02 6.650479877842385e-04 -3.822888050294307e-04 5.080857453743791e-04 7.129931496657089e-05 -9.694452595929154e-04 1.056819169540037e-03 2.537223051768952e-03 1.215554733011657e-03 -1.157297732565439e-02 3.317564924764023e-03 2.011302271058516e-03 9.374047232095851e-03 -1.316167618252356e-02 4.661977515999488e-03 -1.285356976218671e-02 -1.238571523160810e-02 2.994284285087894e-05 6.204379511858189e-04 -9.422734520251844e-04 8.868907727233060e-04 4.440683939209001e-03 -1.238885077525777e-03 1.187564133627207e-03 -1.231778630923519e-02 5.203353119961098e-03 -1.111769172548585e-03 4.313626672788725e-03 -1.952138049328027e-03 1.224169018606913e-02 -3.441303194142731e-02 -1.695281662062448e-02 -3.954097943004890e-02 1.620659535031241e-01 -2.219917431145132e-02 -6.566501004332073e-02 2.034132124774378e-01 2.033165384379212e-01 -1.661754546159636e-02 1.480533370100178e-01 -1.619035838404650e-02 3.173747645663232e-01 3.172388557907843e-01 3.172395333681352e-01 2.032226289403677e-01 -6.491870319396760e-02 2.032228275659308e-01 1.619262678071440e-01 -2.168376344656365e-02 -3.872205852905251e-02 1.619264497463248e-01 -3.872206258890791e-02 -2.168379348412252e-02 2.034136821623251e-01 -6.566499137744605e-02 2.033159648717751e-01 -3.954101497818850e-02 -2.219908212586659e-02 1.620656102709974e-01 -3.441303788296458e-02 1.224167772456081e-02 -1.695277051136822e-02 1.480531164556179e-01 -1.661751369358867e-02 -1.619031414847106e-02 -1.631749837647011e-02 -3.337422134179013e-02 8.276302148094165e-03 -3.070078643906425e-02 5.973980529944634e-03 5.973983737951722e-03 -3.337421927742026e-02 -1.631747833401635e-02 8.276296644194884e-03 4.899503507934725e-03 4.899501457395974e-03 -2.417078599079807e-03 1.058941088887843e-02 1.058263040423490e-02 -3.228809095941417e-02 1.223727819956408e-02 -1.692656342068501e-02 -3.442052794655748e-02 9.368317540759391e-03 1.997254889121670e-03 -1.313301971595767e-02 -3.955896565832853e-02 -2.216497809977913e-02 1.621822871957257e-01 1.196173092767199e-03 3.336231484450980e-03 -1.153493029264504e-02 4.673153862583834e-03 -1.279310734621175e-02 -1.279310743229759e-02 3.336234008556514e-03 1.196174889946888e-03 -1.153493798622260e-02 -1.657791143424992e-02 -1.657789794677299e-02 1.482119257568988e-01 1.034584059784895e-03 -9.323187381203580e-04 2.560297833132782e-03 -6.198736891921468e-04 -6.198739676195204e-04 2.247864578724139e-03 -5.168089390860554e-04 4.225641276141289e-04 -5.168091344756928e-04 2.560298948948832e-03 -9.323197041371026e-04 1.034585811474497e-03 1.621824948444023e-01 -2.216506218075525e-02 -3.955888699334173e-02 -1.692660029771430e-02 1.223728018889992e-02 -3.442049421209151e-02 -1.313303906371617e-02 1.997263251015967e-03 9.368313992695360e-03 -3.228807916331830e-02 1.058264064397037e-02 1.058939289700012e-02 -1.952138040918668e-03 4.313624866184797e-03 -1.111768304115828e-03 4.440681802394566e-03 8.868893613584977e-04 -1.238883995442542e-03 5.203349992514705e-03 -1.231777028471472e-02 1.187562190294046e-03 -9.422726982014162e-04 6.204368785502155e-04 2.994291708313521e-05 -1.102665624421757e-02 3.313068711221569e-03 6.650455407234957e-04 2.502574074589972e-03 -5.594956889057624e-04 5.923026740012106e-04 2.219730935762277e-03 -6.665479464757870e-04 -3.469490896304318e-04 5.080846464129074e-04 -3.822882002665897e-04 7.129938390636302e-05 -1.238568835651761e-02 -1.285354432717234e-02 4.661965716512330e-03 -1.157295493862530e-02 1.215550751463433e-03 3.317557538944059e-03 -1.316164675329667e-02 9.374041947851176e-03 2.011293947819347e-03 2.537218288242887e-03 1.056815776050149e-03 -9.694428493526708e-04 4.548856439740497e-05 -2.781859350980972e-04 6.336286687094198e-05 -2.353703740135102e-04 1.303081678815864e-04 2.930894656281777e-05 -2.725830051840558e-04 -5.400491755836477e-04 1.926569115932286e-04 2.648416402753006e-05 1.048042383477633e-04 -5.449737991127873e-05 
</DataArray>
</PointData>
</Piece>
</UnstructuredGrid>
</VTKFile>
