<?xml version="1.0"?>
<VTKFile type="UnstructuredGrid" version="0.1" byte_order="LittleEndian">
<UnstructuredGrid>
<Piece NumberOfPoints="198" NumberOfCells="67">
<Points>
<DataArray type="Float64" NumberOfComponents="3" format="ascii">
5.000000000002669e-01 4.330127018924964e-01 0.000000000000000e+00 4.375000000001656e-01 3.247595264196161e-01 0.000000000000000e+00 4.375000000001656e-01 3.247595264196161e-01 0.000000000000000e+00 5.625000000000788e-01 3.247595264192216e-01 0.000000000000000e+00 5.625000000000788e-01 3.247595264192216e-01 0.000000000000000e+00 5.000000000002669e-01 4.330127018924964e-01 0.000000000000000e+00 1.000000000000000e+00 0.000000000000000e+00 0.000000000000000e+00 9.375000000000857e-01 1.082531754729064e-01 0.000000000000000e+00 8.749999999996679e-01 0.000000000000000e+00 0.000000000000000e+00 9.375000000000857e-01 1.082531754729064e-01 0.000000000000000e+00 8.124999999998026e-01 1.082531754729207e-01 0.000000000000000e+00 8.749999999996679e-01 0.000000000000000e+00 0.000000000000000e+00 9.375000000000857e-01 1.082531754729064e-01 0.000000000000000e+00 8.750000000002003e-01 2.165063509457628e-01 0.000000000000000e+00 8.124999999998026e-01 1.082531754729207e-01 0.000000000000000e+00 8.749999999996679e-01 0.000000000000000e+00 0.000000000000000e+00 8.124999999998026e-01 1.082531754729207e-01 0.000000000000000e+00 7.499999999993359e-01 0.000000000000000e+00 0.000000000000000e+00 8.750000000002003e-01 2.165063509457628e-01 0.000000000000000e+00 7.499999999999739e-01 2.165063509458681e-01 0.000000000000000e+00 8.124999999998026e-01 1.082531754729207e-01 0.000000000000000e+00 7.499999999999739e-01 2.165063509458681e-01 0.000000000000000e+00 6.874999999995526e-01 1.082531754729882e-01 0.000000000000000e+00 8.124999999998026e-01 1.082531754729207e-01 0.000000000000000e+00 7.499999999999739e-01 2.165063509458681e-01 0.000000000000000e+00 6.249999999998230e-01 2.165063509460530e-01 0.000000000000000e+00 6.874999999995526e-01 1.082531754729882e-01 0.000000000000000e+00 8.124999999998026e-01 1.082531754729207e-01 0.000000000000000e+00 6.874999999995526e-01 1.082531754729882e-01 0.000000000000000e+00 7.499999999993359e-01 0.000000000000000e+00 0.000000000000000e+00 8.750000000002003e-01 2.165063509457628e-01 0.000000000000000e+00 8.125000000003098e-01 3.247595264186279e-01 0.000000000000000e+00 7.499999999999739e-01 2.165063509458681e-01 0.000000000000000e+00 8.125000000003098e-01 3.247595264186279e-01 0.000000000000000e+00 6.875000000001545e-01 3.247595264188601e-01 0.000000000000000e+00 7.499999999999739e-01 2.165063509458681e-01 0.000000000000000e+00 8.125000000003098e-01 3.247595264186279e-01 0.000000000000000e+00 7.500000000004792e-01 4.330127018913894e-01 0.000000000000000e+00 6.875000000001545e-01 3.247595264188601e-01 0.000000000000000e+00 7.499999999999739e-01 2.165063509458681e-01 0.000000000000000e+00 6.875000000001545e-01 3.247595264188601e-01 0.000000000000000e+00 6.249999999998230e-01 2.165063509460530e-01 0.000000000000000e+00 7.499999999993359e-01 0.000000000000000e+00 0.000000000000000e+00 6.874999999995526e-01 1.082531754729882e-01 0.000000000000000e+00 6.249999999990038e-01 0.000000000000000e+00 0.000000000000000e+00 6.874999999995526e-01 1.082531754729882e-01 0.000000000000000e+00 5.624999999993771e-01 1.082531754730905e-01 0.000000000000000e+00 6.249999999990038e-01 0.000000000000000e+00 0.000000000000000e+00 6.874999999995526e-01 1.082531754729882e-01 0.000000000000000e+00 6.249999999998230e-01 2.165063509460530e-01 0.000000000000000e+00 5.624999999993771e-01 1.082531754730905e-01 0.000000000000000e+00 6.249999999990038e-01 0.000000000000000e+00 0.000000000000000e+00 5.624999999993771e-01 1.082531754730905e-01 0.000000000000000e+00 4.999999999986717e-01 0.000000000000000e+00 0.000000000000000e+00 7.500000000004792e-01 4.330127018913894e-01 0.000000000000000e+00 6.250000000002535e-01 4.330127018920072e-01 0.000000000000000e+00 6.875000000001545e-01 3.247595264188601e-01 0.000000000000000e+00 6.250000000002535e-01 4.330127018920072e-01 0.000000000000000e+00 5.625000000000788e-01 3.247595264192216e-01 0.000000000000000e+00 6.875000000001545e-01 3.247595264188601e-01 0.000000000000000e+00 6.250000000002535e-01 4.330127018920072e-01 0.000000000000000e+00 5.000000000002669e-01 4.330127018924964e-01 0.000000000000000e+00 5.625000000000788e-01 3.247595264192216e-01 0.000000000000000e+00 6.875000000001545e-01 3.247595264188601e-01 0.000000000000000e+00 5.625000000000788e-01 3.247595264192216e-01 0.000000000000000e+00 6.249999999998230e-01 2.165063509460530e-01 0.000000000000000e+00 5.000000000002669e-01 4.330127018924964e-01 0.000000000000000e+00 4.375000000001656e-01 3.247595264196161e-01 0.000000000000000e+00 5.625000000000788e-01 3.247595264192216e-01 0.000000000000000e+00 4.375000000001656e-01 3.247595264196161e-01 0.000000000000000e+00 4.999999999998002e-01 2.165063509462916e-01 0.000000000000000e+00 5.625000000000788e-01 3.247595264192216e-01 0.000000000000000e+00 4.375000000001656e-01 3.247595264196161e-01 0.000000000000000e+00 3.749999999999418e-01 2.165063509465518e-01 0.000000000000000e+00 4.999999999998002e-01 2.165063509462916e-01 0.000000000000000e+00 5.625000000000788e-01 3.247595264192216e-01 0.000000000000000e+00 4.999999999998002e-01 2.165063509462916e-01 0.000000000000000e+00 6.249999999998230e-01 2.165063509460530e-01 0.000000000000000e+00 5.000000000002669e-01 4.330127018924964e-01 0.000000000000000e+00 3.750000000004802e-01 4.330127018930556e-01 0.000000000000000e+00 4.375000000001656e-01 3.247595264196161e-01 0.000000000000000e+00 3.750000000004802e-01 4.330127018930556e-01 0.000000000000000e+00 3.125000000004190e-01 3.247595264200667e-01 0.000000000000000e+00 4.375000000001656e-01 3.247595264196161e-01 0.000000000000000e+00 3.750000000004802e-01 4.330127018930556e-01 0.000000000000000e+00 2.500000000009974e-01 4.330127018939468e-01 0.000000000000000e+00 3.125000000004190e-01 3.247595264200667e-01 0.000000000000000e+00 4.375000000001656e-01 3.247595264196161e-01 0.000000000000000e+00 3.125000000004190e-01 3.247595264200667e-01 0.000000000000000e+00 3.749999999999418e-01 2.165063509465518e-01 0.000000000000000e+00 6.249999999998230e-01 2.165063509460530e-01 0.000000000000000e+00 4.999999999998002e-01 2.165063509462916e-01 0.000000000000000e+00 5.624999999993771e-01 1.082531754730905e-01 0.000000000000000e+00 4.999999999998002e-01 2.165063509462916e-01 0.000000000000000e+00 4.374999999994137e-01 1.082531754732118e-01 0.000000000000000e+00 5.624999999993771e-01 1.082531754730905e-01 0.000000000000000e+00 4.999999999998002e-01 2.165063509462916e-01 0.000000000000000e+00 3.749999999999418e-01 2.165063509465518e-01 0.000000000000000e+00 4.374999999994137e-01 1.082531754732118e-01 0.000000000000000e+00 5.624999999993771e-01 1.082531754730905e-01 0.000000000000000e+00 4.374999999994137e-01 1.082531754732118e-01 0.000000000000000e+00 4.999999999986717e-01 0.000000000000000e+00 0.000000000000000e+00 7.500000000004792e-01 4.330127018913894e-01 0.000000000000000e+00 6.875000000002827e-01 5.412658773647846e-01 0.000000000000000e+00 6.250000000002535e-01 4.330127018920072e-01 0.000000000000000e+00 6.875000000002827e-01 5.412658773647846e-01 0.000000000000000e+00 5.625000000002492e-01 5.412658773652879e-01 0.000000000000000e+00 6.250000000002535e-01 4.330127018920072e-01 0.000000000000000e+00 6.875000000002827e-01 5.412658773647846e-01 0.000000000000000e+00 6.250000000001095e-01 6.495190528381393e-01 0.000000000000000e+00 5.625000000002492e-01 5.412658773652879e-01 0.000000000000000e+00 6.250000000002535e-01 4.330127018920072e-01 0.000000000000000e+00 5.625000000002492e-01 5.412658773652879e-01 0.000000000000000e+00 5.000000000002669e-01 4.330127018924964e-01 0.000000000000000e+00 6.250000000001095e-01 6.495190528381393e-01 0.000000000000000e+00 5.000000000002092e-01 6.495190528385093e-01 0.000000000000000e+00 5.625000000002492e-01 5.412658773652879e-01 0.000000000000000e+00 5.000000000002092e-01 6.495190528385093e-01 0.000000000000000e+00 4.375000000003694e-01 5.412658773657841e-01 0.000000000000000e+00 5.625000000002492e-01 5.412658773652879e-01 0.000000000000000e+00 5.000000000002092e-01 6.495190528385093e-01 0.000000000000000e+00 3.750000000003548e-01 6.495190528389435e-01 0.000000000000000e+00 4.375000000003694e-01 5.412658773657841e-01 0.000000000000000e+00 5.625000000002492e-01 5.412658773652879e-01 0.000000000000000e+00 4.375000000003694e-01 5.412658773657841e-01 0.000000000000000e+00 5.000000000002669e-01 4.330127018924964e-01 0.000000000000000e+00 6.250000000001095e-01 6.495190528381393e-01 0.000000000000000e+00 5.625000000000482e-01 7.577722283113003e-01 0.000000000000000e+00 5.000000000002092e-01 6.495190528385093e-01 0.000000000000000e+00 5.625000000000482e-01 7.577722283113003e-01 0.000000000000000e+00 4.375000000001240e-01 7.577722283115986e-01 0.000000000000000e+00 5.000000000002092e-01 6.495190528385093e-01 0.000000000000000e+00 5.625000000000482e-01 7.577722283113003e-01 0.000000000000000e+00 5.000000000000000e-01 8.660254037844386e-01 0.000000000000000e+00 4.375000000001240e-01 7.577722283115986e-01 0.000000000000000e+00 5.000000000002092e-01 6.495190528385093e-01 0.000000000000000e+00 4.375000000001240e-01 7.577722283115986e-01 0.000000000000000e+00 3.750000000003548e-01 6.495190528389435e-01 0.000000000000000e+00 5.000000000002669e-01 4.330127018924964e-01 0.000000000000000e+00 4.375000000003694e-01 5.412658773657841e-01 0.000000000000000e+00 3.750000000004802e-01 4.330127018930556e-01 0.000000000000000e+00 4.375000000003694e-01 5.412658773657841e-01 0.000000000000000e+00 3.125000000006516e-01 5.412658773664026e-01 0.000000000000000e+00 3.750000000004802e-01 4.330127018930556e-01 0.000000000000000e+00 4.375000000003694e-01 5.412658773657841e-01 0.000000000000000e+00 3.750000000003548e-01 6.495190528389435e-01 0.000000000000000e+00 3.125000000006516e-01 5.412658773664026e-01 0.000000000000000e+00 3.750000000004802e-01 4.330127018930556e-01 0.000000000000000e+00 3.125000000006516e-01 5.412658773664026e-01 0.000000000000000e+00 2.500000000009974e-01 4.330127018939468e-01 0.000000000000000e+00 4.999999999986717e-01 0.000000000000000e+00 0.000000000000000e+00 4.374999999994137e-01 1.082531754732118e-01 0.000000000000000e+00 3.749999999990400e-01 0.000000000000000e+00 0.000000000000000e+00 4.374999999994137e-01 1.082531754732118e-01 0.000000000000000e+00 3.124999999996580e-01 1.082531754733300e-01 0.000000000000000e+00 3.749999999990400e-01 0.000000000000000e+00 0.000000000000000e+00 4.374999999994137e-01 1.082531754732118e-01 0.000000000000000e+00 3.749999999999418e-01 2.165063509465518e-01 0.000000000000000e+00 3.124999999996580e-01 1.082531754733300e-01 0.000000000000000e+00 3.749999999990400e-01 0.000000000000000e+00 0.000000000000000e+00 3.124999999996580e-01 1.082531754733300e-01 0.000000000000000e+00 2.499999999994083e-01 0.000000000000000e+00 0.000000000000000e+00 3.749999999999418e-01 2.165063509465518e-01 0.000000000000000e+00 2.500000000001947e-01 2.165063509467870e-01 0.000000000000000e+00 3.124999999996580e-01 1.082531754733300e-01 0.000000000000000e+00 2.500000000001947e-01 2.165063509467870e-01 0.000000000000000e+00 1.874999999999555e-01 1.082531754734159e-01 0.000000000000000e+00 3.124999999996580e-01 1.082531754733300e-01 0.000000000000000e+00 2.500000000001947e-01 2.165063509467870e-01 0.000000000000000e+00 1.250000000004645e-01 2.165063509469142e-01 0.000000000000000e+00 1.874999999999555e-01 1.082531754734159e-01 0.000000000000000e+00 3.124999999996580e-01 1.082531754733300e-01 0.000000000000000e+00 1.874999999999555e-01 1.082531754734159e-01 0.000000000000000e+00 2.499999999994083e-01 0.000000000000000e+00 0.000000000000000e+00 3.749999999999418e-01 2.165063509465518e-01 0.000000000000000e+00 3.125000000004190e-01 3.247595264200667e-01 0.000000000000000e+00 2.500000000001947e-01 2.165063509467870e-01 0.000000000000000e+00 3.125000000004190e-01 3.247595264200667e-01 0.000000000000000e+00 1.875000000007290e-01 3.247595264204271e-01 0.000000000000000e+00 2.500000000001947e-01 2.165063509467870e-01 0.000000000000000e+00 3.125000000004190e-01 3.247595264200667e-01 0.000000000000000e+00 2.500000000009974e-01 4.330127018939468e-01 0.000000000000000e+00 1.875000000007290e-01 3.247595264204271e-01 0.000000000000000e+00 2.500000000001947e-01 2.165063509467870e-01 0.000000000000000e+00 1.875000000007290e-01 3.247595264204271e-01 0.000000000000000e+00 1.250000000004645e-01 2.165063509469142e-01 0.000000000000000e+00 2.499999999994083e-01 0.000000000000000e+00 0.000000000000000e+00 1.874999999999555e-01 1.082531754734159e-01 0.000000000000000e+00 1.249999999997738e-01 0.000000000000000e+00 0.000000000000000e+00 1.874999999999555e-01 1.082531754734159e-01 0.000000000000000e+00 6.250000000023442e-02 1.082531754734609e-01 0.000000000000000e+00 1.249999999997738e-01 0.000000000000000e+00 0.000000000000000e+00 1.874999999999555e-01 1.082531754734159e-01 0.000000000000000e+00 1.250000000004645e-01 2.165063509469142e-01 0.000000000000000e+00 6.250000000023442e-02 1.082531754734609e-01 0.000000000000000e+00 1.249999999997738e-01 0.000000000000000e+00 0.000000000000000e+00 6.250000000023442e-02 1.082531754734609e-01 0.000000000000000e+00 0.000000000000000e+00 0.000000000000000e+00 0.000000000000000e+00 
</DataArray>
</Points>
<Cells>
<DataArray type="Int32" Name="connectivity" format="ascii">
0 1 2 3 4 5 6 7 8 9 10 11 12 13 14 15 16 17 18 19 20 21 22 23 24 25 26 27 28 29 30 31 32 33 34 35 36 37 38 39 40 41 42 43 44 45 46 47 48 49 50 51 52 53 54 55 56 57 58 59 60 61 62 63 64 65 66 67 68 69 70 71 72 73 74 75 76 77 78 79 80 81 82 83 84 85 86 87 88 89 90 91 92 93 94 95 96 97 98 99 100 101 102 103 104 105 106 107 108 109 110 111 112 113 114 115 116 117 118 119 120 121 122 123 124 125 126 127 128 129 130 131 132 133 134 135 136 137 138 139 140 141 142 143 144 145 146 147 148 149 150 151 152 153 154 155 156 157 158 159 160 161 162 163 164 165 166 167 168 169 170 171 172 173 174 175 176 177 178 179 180 181 182 183 184 185 186 187 188 189 190 191 192 193 194 195 196 197 
</DataArray>
<DataArray type="Int32" Name="offsets" format="ascii">
2 4 6 9 12 15 18 21 24 27 30 33 36 39 42 45 48 51 54 57 60 63 66 69 72 75 78 81 84 87 90 93 96 99 102 105 108 111 114 117 120 123 126 129 132 135 138 141 144 147 150 153 156 159 162 165 168 171 174 177 180 183 186 189 192 195 198 
</DataArray>
<DataArray type="UInt8" Name="types" format="ascii">
3 3 3 5 5 5 5 5 5 5 5 5 5 5 5 5 5 5 5 5 5 5 5 5 5 5 5 5 5 5 5 5 5 5 5 5 5 5 5 5 5 5 5 5 5 5 5 5 5 5 5 5 5 5 5 5 5 5 5 5 5 5 5 5 5 5 5 
</DataArray>
</Cells>
<PointData Scalars="A_conc," Vectors="">
<DataArray type="Float64" Name="A_conc" format="ascii">
3.152640771337711e-01 3.152284272256246e-01 3.151980950285961e-01 3.151983938366185e-01 3.152290592632304e-01 3.152634875073922e-01 -1.994769668359057e-05 3.685776519064186e-05 7.294594011085968e-06 5.443324199333797e-05 -8.736367596422574e-05 7.492749210686237e-06 9.992795615397817e-05 -2.137513267183973e-04 -1.182048854510396e-04 2.694444061900318e-05 -1.163015319048651e-04 3.952358333199492e-05 -3.096276362378121e-04 9.800762631273082e-04 -1.815344613644485e-04 1.246071878675449e-03 2.208999674571818e-04 -3.642946116944982e-04 2.099222184373294e-03 -5.310698114787605e-03 1.753458082422481e-04 -2.023852252732327e-04 1.537857988651487e-04 7.920113792250678e-05 -5.683884643026188e-04 3.599106339398953e-04 1.292988043745119e-03 3.513150335985751e-04 -5.646191367542542e-03 2.146864062928539e-03 7.520659900444470e-04 6.445366055190188e-03 -6.965626270703353e-03 3.813262971589667e-03 -7.429054933218745e-03 -7.202787411949906e-03 8.353696333040765e-05 2.071031262738341e-04 -5.195438692870373e-04 3.906362609372961e-04 2.598574964962088e-03 -8.332246123051837e-04 3.809511725688085e-04 -6.302363342770980e-03 3.984289846185174e-03 -5.999031549416753e-04 2.294442342878087e-03 -1.194858128882171e-03 1.063538885112556e-02 -2.475929500295978e-02 -1.148077597742253e-02 -3.614555024112744e-02 1.052154542885217e-01 -1.696962959186154e-02 -8.373535788174084e-02 1.737263661091642e-01 1.736920346991271e-01 -1.161909781018676e-02 8.642769418971502e-02 -1.144403074200153e-02 4.651375954867480e-01 4.650879557838247e-01 4.650882003604639e-01 1.736216159078948e-01 -8.338858117319430e-02 1.736217016335054e-01 1.050845825123124e-01 -1.671462583412051e-02 -3.570980242135353e-02 1.050846374494773e-01 -3.570979924374527e-02 -1.671464008651762e-02 1.737265018153133e-01 -8.373535200809887e-02 1.736918738271342e-01 -3.614555947879220e-02 -1.696960344195309e-02 1.052153697244778e-01 -2.475929632480071e-02 1.063538537551530e-02 -1.148076449278061e-02 8.642764123059671e-02 -1.161908809796711e-02 -1.144401916452296e-02 -1.112288803483657e-02 -2.404385704600076e-02 8.557563714925911e-03 -1.911542373847075e-02 4.591778359296061e-03 4.591779669275174e-03 -2.404385759327082e-02 -1.112288122516055e-02 8.557561856430026e-03 3.041830905270917e-03 3.041830301685215e-03 -1.833201783634917e-03 7.490063698595162e-03 7.487938497775321e-03 -2.056466027455991e-02 1.063502413266636e-02 -1.147247788014077e-02 -2.476420854760409e-02 6.443819639544855e-03 7.448881780283887e-04 -6.954962857108062e-03 -3.615806680531031e-02 -1.695681274803177e-02 1.052652840754096e-01 3.383099846026281e-04 2.163395905139118e-03 -5.627613141514896e-03 3.832985845851130e-03 -7.394102721319290e-03 -7.394102521373879e-03 2.163396403027783e-03 3.383104254892891e-04 -5.627614849901427e-03 -1.160631117359958e-02 -1.160630894486094e-02 8.651553208965872e-02 3.463872364965209e-04 -5.550708199624128e-04 1.310303951650746e-03 -2.909456703607050e-04 -2.909457311791771e-04 1.005119650468342e-03 -2.084620156766054e-04 1.877942863732693e-04 -2.084620524310810e-04 1.310304162663027e-03 -5.550710241734702e-04 3.463875897140954e-04 1.052653390189533e-01 -1.695683691888848e-02 -3.615804703006911e-02 -1.147248737072727e-02 1.063502515390379e-02 -2.476420134542958e-02 -6.954967333272999e-03 7.448901906211057e-04 6.443819137287672e-03 -2.056465797779839e-02 7.487940972262703e-03 7.490059624464409e-03 -1.194858155515645e-03 2.294441922269507e-03 -5.999029120944010e-04 2.598574505603851e-03 3.906358545097446e-04 -8.332243213214286e-04 3.984289180443749e-03 -6.302359203332063e-03 3.809504271352078e-04 -5.195437067686070e-04 2.071028830827087e-04 8.353698905862411e-05 -5.310694172949936e-03 2.099220713343912e-03 1.753452683188167e-04 1.246071007141681e-03 -3.642942986844992e-04 2.208996086849551e-04 9.800755820404889e-04 -3.096273725501149e-04 -1.815343176771625e-04 1.537855818851471e-04 -2.023850817496033e-04 7.920114444792164e-05 -7.202780953873783e-03 -7.429048654097295e-03 3.813259524320801e-03 -5.646186689389990e-03 3.513141891529007e-04 2.146862323425446e-03 -6.965619876218182e-03 6.445364760325527e-03 7.520640484964020e-04 1.292987055925851e-03 3.599099766959593e-04 -5.683879137423336e-04 3.952359641498231e-05 -1.163014501424594e-04 2.694441101821913e-05 -8.736361501891379e-05 5.443320213487754e-05 7.492739221350211e-06 -1.182047958277923e-04 -2.137511515235944e-04 9.992787497190040e-05 7.294585697256760e-06 3.685773891558208e-05 -1.994768091009575e-05 
</DataArray>
</PointData>
</Piece>
</UnstructuredGrid>
</VTKFile>
