<?xml version="1.0"?>
<VTKFile type="UnstructuredGrid" version="0.1" byte_order="LittleEndian">
<UnstructuredGrid>
<Piece NumberOfPoints="570" NumberOfCells="968">
<Points>
<DataArray type="Float64" NumberOfComponents="3" format="ascii">
0.000000000000000e+00 0.000000000000000e+00 0.000000000000000e+00 0.000000000000000e+00 1.000000000000000e+00 0.000000000000000e+00 1.600000000000000e+01 1.000000000000000e+00 0.000000000000000e+00 1.600000000000000e+01 0.000000000000000e+00 0.000000000000000e+00 0.000000000000000e+00 1.999999999995579e-01 0.000000000000000e+00 0.000000000000000e+00 3.999999999989749e-01 0.000000000000000e+00 0.000000000000000e+00 5.999999999989468e-01 0.000000000000000e+00 0.000000000000000e+00 7.999999999994734e-01 0.000000000000000e+00 1.999999999996227e-01 1.000000000000000e+00 0.000000000000000e+00 3.999999999992458e-01 1.000000000000000e+00 0.000000000000000e+00 5.999999999988365e-01 1.000000000000000e+00 0.000000000000000e+00 7.999999999983944e-01 1.000000000000000e+00 0.000000000000000e+00 9.999999999979721e-01 1.000000000000000e+00 0.000000000000000e+00 1.199999999997645e+00 1.000000000000000e+00 0.000000000000000e+00 1.399999999997340e+00 1.000000000000000e+00 0.000000000000000e+00 1.599999999997035e+00 1.000000000000000e+00 0.000000000000000e+00 1.799999999996729e+00 1.000000000000000e+00 0.000000000000000e+00 1.999999999996380e+00 1.000000000000000e+00 0.000000000000000e+00 2.199999999995840e+00 1.000000000000000e+00 0.000000000000000e+00 2.399999999995257e+00 1.000000000000000e+00 0.000000000000000e+00 2.599999999994675e+00 1.000000000000000e+00 0.000000000000000e+00 2.799999999994092e+00 1.000000000000000e+00 0.000000000000000e+00 2.999999999993509e+00 1.000000000000000e+00 0.000000000000000e+00 3.199999999992926e+00 1.000000000000000e+00 0.000000000000000e+00 3.399999999992343e+00 1.000000000000000e+00 0.000000000000000e+00 3.599999999991760e+00 1.000000000000000e+00 0.000000000000000e+00 3.799999999991177e+00 1.000000000000000e+00 0.000000000000000e+00 3.999999999990594e+00 1.000000000000000e+00 0.000000000000000e+00 4.199999999990011e+00 1.000000000000000e+00 0.000000000000000e+00 4.399999999989427e+00 1.000000000000000e+00 0.000000000000000e+00 4.599999999988845e+00 1.000000000000000e+00 0.000000000000000e+00 4.799999999988263e+00 1.000000000000000e+00 0.000000000000000e+00 4.999999999987679e+00 1.000000000000000e+00 0.000000000000000e+00 5.199999999987096e+00 1.000000000000000e+00 0.000000000000000e+00 5.399999999986513e+00 1.000000000000000e+00 0.000000000000000e+00 5.599999999985930e+00 1.000000000000000e+00 0.000000000000000e+00 5.799999999985348e+00 1.000000000000000e+00 0.000000000000000e+00 5.999999999984764e+00 1.000000000000000e+00 0.000000000000000e+00 6.199999999984182e+00 1.000000000000000e+00 0.000000000000000e+00 6.399999999983598e+00 1.000000000000000e+00 0.000000000000000e+00 6.599999999983016e+00 1.000000000000000e+00 0.000000000000000e+00 6.799999999982433e+00 1.000000000000000e+00 0.000000000000000e+00 6.999999999981850e+00 1.000000000000000e+00 0.000000000000000e+00 7.199999999981268e+00 1.000000000000000e+00 0.000000000000000e+00 7.399999999980683e+00 1.000000000000000e+00 0.000000000000000e+00 7.599999999980102e+00 1.000000000000000e+00 0.000000000000000e+00 7.799999999979519e+00 1.000000000000000e+00 0.000000000000000e+00 7.999999999979108e+00 1.000000000000000e+00 0.000000000000000e+00 8.199999999979463e+00 1.000000000000000e+00 0.000000000000000e+00 8.399999999979988e+00 1.000000000000000e+00 0.000000000000000e+00 8.599999999980515e+00 1.000000000000000e+00 0.000000000000000e+00 8.799999999981042e+00 1.000000000000000e+00 0.000000000000000e+00 8.999999999981569e+00 1.000000000000000e+00 0.000000000000000e+00 9.199999999982095e+00 1.000000000000000e+00 0.000000000000000e+00 9.399999999982622e+00 1.000000000000000e+00 0.000000000000000e+00 9.599999999983149e+00 1.000000000000000e+00 0.000000000000000e+00 9.799999999983674e+00 1.000000000000000e+00 0.000000000000000e+00 9.999999999984201e+00 1.000000000000000e+00 0.000000000000000e+00 1.019999999998473e+01 1.000000000000000e+00 0.000000000000000e+00 1.039999999998525e+01 1.000000000000000e+00 0.000000000000000e+00 1.059999999998578e+01 1.000000000000000e+00 0.000000000000000e+00 1.079999999998631e+01 1.000000000000000e+00 0.000000000000000e+00 1.099999999998684e+01 1.000000000000000e+00 0.000000000000000e+00 1.119999999998736e+01 1.000000000000000e+00 0.000000000000000e+00 1.139999999998789e+01 1.000000000000000e+00 0.000000000000000e+00 1.159999999998842e+01 1.000000000000000e+00 0.000000000000000e+00 1.179999999998894e+01 1.000000000000000e+00 0.000000000000000e+00 1.199999999998947e+01 1.000000000000000e+00 0.000000000000000e+00 1.219999999998999e+01 1.000000000000000e+00 0.000000000000000e+00 1.239999999999052e+01 1.000000000000000e+00 0.000000000000000e+00 1.259999999999105e+01 1.000000000000000e+00 0.000000000000000e+00 1.279999999999157e+01 1.000000000000000e+00 0.000000000000000e+00 1.299999999999210e+01 1.000000000000000e+00 0.000000000000000e+00 1.319999999999263e+01 1.000000000000000e+00 0.000000000000000e+00 1.339999999999315e+01 1.000000000000000e+00 0.000000000000000e+00 1.359999999999368e+01 1.000000000000000e+00 0.000000000000000e+00 1.379999999999421e+01 1.000000000000000e+00 0.000000000000000e+00 1.399999999999473e+01 1.000000000000000e+00 0.000000000000000e+00 1.419999999999526e+01 1.000000000000000e+00 0.000000000000000e+00 1.439999999999579e+01 1.000000000000000e+00 0.000000000000000e+00 1.459999999999631e+01 1.000000000000000e+00 0.000000000000000e+00 1.479999999999684e+01 1.000000000000000e+00 0.000000000000000e+00 1.499999999999737e+01 1.000000000000000e+00 0.000000000000000e+00 1.519999999999789e+01 1.000000000000000e+00 0.000000000000000e+00 1.539999999999842e+01 1.000000000000000e+00 0.000000000000000e+00 1.559999999999895e+01 1.000000000000000e+00 0.000000000000000e+00 1.579999999999947e+01 1.000000000000000e+00 0.000000000000000e+00 1.600000000000000e+01 7.999999999999998e-01 0.000000000000000e+00 1.600000000000000e+01 6.000000000013869e-01 0.000000000000000e+00 1.600000000000000e+01 4.000000000016644e-01 0.000000000000000e+00 1.600000000000000e+01 2.000000000008322e-01 0.000000000000000e+00 1.579999999999917e+01 0.000000000000000e+00 0.000000000000000e+00 1.559999999999833e+01 0.000000000000000e+00 0.000000000000000e+00 1.539999999999750e+01 0.000000000000000e+00 0.000000000000000e+00 1.519999999999667e+01 0.000000000000000e+00 0.000000000000000e+00 1.499999999999584e+01 0.000000000000000e+00 0.000000000000000e+00 1.479999999999500e+01 0.000000000000000e+00 0.000000000000000e+00 1.459999999999417e+01 0.000000000000000e+00 0.000000000000000e+00 1.439999999999334e+01 0.000000000000000e+00 0.000000000000000e+00 1.419999999999250e+01 0.000000000000000e+00 0.000000000000000e+00 1.399999999999202e+01 0.000000000000000e+00 0.000000000000000e+00 1.379999999999306e+01 0.000000000000000e+00 0.000000000000000e+00 1.359999999999445e+01 0.000000000000000e+00 0.000000000000000e+00 1.339999999999583e+01 0.000000000000000e+00 0.000000000000000e+00 1.319999999999722e+01 0.000000000000000e+00 0.000000000000000e+00 1.299999999999861e+01 0.000000000000000e+00 0.000000000000000e+00 1.280000000000000e+01 0.000000000000000e+00 0.000000000000000e+00 1.260000000000138e+01 0.000000000000000e+00 0.000000000000000e+00 1.240000000000277e+01 0.000000000000000e+00 0.000000000000000e+00 1.220000000000416e+01 0.000000000000000e+00 0.000000000000000e+00 1.200000000000555e+01 0.000000000000000e+00 0.000000000000000e+00 1.180000000000693e+01 0.000000000000000e+00 0.000000000000000e+00 1.160000000000832e+01 0.000000000000000e+00 0.000000000000000e+00 1.140000000000971e+01 0.000000000000000e+00 0.000000000000000e+00 1.120000000001109e+01 0.000000000000000e+00 0.000000000000000e+00 1.100000000001248e+01 0.000000000000000e+00 0.000000000000000e+00 1.080000000001387e+01 0.000000000000000e+00 0.000000000000000e+00 1.060000000001525e+01 0.000000000000000e+00 0.000000000000000e+00 1.040000000001664e+01 0.000000000000000e+00 0.000000000000000e+00 1.020000000001803e+01 0.000000000000000e+00 0.000000000000000e+00 1.000000000001942e+01 0.000000000000000e+00 0.000000000000000e+00 9.800000000020802e+00 0.000000000000000e+00 0.000000000000000e+00 9.600000000022190e+00 0.000000000000000e+00 0.000000000000000e+00 9.400000000023578e+00 0.000000000000000e+00 0.000000000000000e+00 9.200000000024964e+00 0.000000000000000e+00 0.000000000000000e+00 9.000000000026350e+00 0.000000000000000e+00 0.000000000000000e+00 8.800000000027737e+00 0.000000000000000e+00 0.000000000000000e+00 8.600000000029127e+00 0.000000000000000e+00 0.000000000000000e+00 8.400000000030513e+00 0.000000000000000e+00 0.000000000000000e+00 8.200000000031899e+00 0.000000000000000e+00 0.000000000000000e+00 8.000000000032939e+00 0.000000000000000e+00 0.000000000000000e+00 7.800000000032455e+00 0.000000000000000e+00 0.000000000000000e+00 7.600000000031622e+00 0.000000000000000e+00 0.000000000000000e+00 7.400000000030790e+00 0.000000000000000e+00 0.000000000000000e+00 7.200000000029958e+00 0.000000000000000e+00 0.000000000000000e+00 7.000000000029125e+00 0.000000000000000e+00 0.000000000000000e+00 6.800000000028295e+00 0.000000000000000e+00 0.000000000000000e+00 6.600000000027460e+00 0.000000000000000e+00 0.000000000000000e+00 6.400000000026630e+00 0.000000000000000e+00 0.000000000000000e+00 6.200000000025797e+00 0.000000000000000e+00 0.000000000000000e+00 6.000000000024965e+00 0.000000000000000e+00 0.000000000000000e+00 5.800000000024133e+00 0.000000000000000e+00 0.000000000000000e+00 5.600000000023302e+00 0.000000000000000e+00 0.000000000000000e+00 5.400000000022469e+00 0.000000000000000e+00 0.000000000000000e+00 5.200000000021635e+00 0.000000000000000e+00 0.000000000000000e+00 5.000000000020805e+00 0.000000000000000e+00 0.000000000000000e+00 4.800000000019972e+00 0.000000000000000e+00 0.000000000000000e+00 4.600000000019140e+00 0.000000000000000e+00 0.00000000000000
[...]
<PointData Scalars="pressure_p1," Vectors="" Tensors="">
<DataArray type="Float64" Name="pressure_p1" format="ascii">
-1.297076549654601e-01 -1.297106835749804e-01 -2.841895922710328e+01 -2.841925132803631e+01 -1.085975810343216e-01 -1.153833401851498e-01 -1.225699688150977e-01 -1.156648961430429e-01 -3.966134507442845e-01 -7.610298014797442e-01 -1.140069250510701e+00 -1.520057681427238e+00 -1.900052670050461e+00 -2.280047802129085e+00 -2.660042855809170e+00 -3.040037972530015e+00 -3.420033308022311e+00 -3.800028853050359e+00 -4.180024525807887e+00 -4.560020422276112e+00 -4.940016772343070e+00 -5.320013714919050e+00 -5.700011195357053e+00 -6.080009094662063e+00 -6.460007327424950e+00 -6.840005843438270e+00 -7.220004607490406e+00 -7.600003588774416e+00 -7.980002758019599e+00 -8.360002087449089e+00 -8.740001551331439e+00 -9.120001126444228e+00 -9.500000792320721e+00 -9.880000531302684e+00 -1.026000032845165e+01 -1.064000017136983e+01 -1.102000004998263e+01 -1.139999995632825e+01 -1.177999988441274e+01 -1.215999983013579e+01 -1.253999979103967e+01 -1.291999976471299e+01 -1.329999974221965e+01 -1.367999968992256e+01 -1.405999952519286e+01 -1.443999910006320e+01 -1.481999814752032e+01 -1.519999635998548e+01 -1.557999351891416e+01 -1.595998934036802e+01 -1.633998319229952e+01 -1.671997392106585e+01 -1.709995977019723e+01 -1.747993821586378e+01 -1.785990562340707e+01 -1.823985674718029e+01 -1.861978405703900e+01 -1.899967683198525e+01 -1.937951994314154e+01 -1.975929223271267e+01 -2.013896437683769e+01 -2.051849609848543e+01 -2.089783257283938e+01 -2.127689984305610e+01 -2.165559904017719e+01 -2.203379917896832e+01 -2.241132828356309e+01 -2.278796258537139e+01 -2.316341353341293e+01 -2.353731236685344e+01 -2.390919202367398e+01 -2.427846619921209e+01 -2.464440541711660e+01 -2.500610999056308e+01 -2.536247958445854e+01 -2.571217910253723e+01 -2.605365027608127e+01 -2.638490548617885e+01 -2.670362181246655e+01 -2.700736793960521e+01 -2.729295539464463e+01 -2.755686554794168e+01 -2.779506075060406e+01 -2.800288084275314e+01 -2.817431562017753e+01 -2.830503947144823e+01 -2.838773286749016e+01 -2.842091882909703e+01 -2.842029287124232e+01 -2.841950315006657e+01 -2.842023516836532e+01 -2.838806128556693e+01 -2.830634561212776e+01 -2.817540675422239e+01 -2.800297679638838e+01 -2.779508274375236e+01 -2.755689063779312e+01 -2.729298323571432e+01 -2.700739484943028e+01 -2.670365840565811e+01 -2.638501762381601e+01 -2.605396533756308e+01 -2.571240937737353e+01 -2.536246654351028e+01 -2.500610213960516e+01 -2.464440160045216e+01 -2.427846460382302e+01 -2.390919153378711e+01 -2.353731238833695e+01 -2.316341376544970e+01 -2.278796288114337e+01 -2.241132857511503e+01 -2.203379943803116e+01 -2.165559925798077e+01 -2.127690002000491e+01 -2.089783271328980e+01 -2.051849620816567e+01 -2.013896446165046e+01 -1.975929229828608e+01 -1.937951999483170e+01 -1.899967687523877e+01 -1.861978409818502e+01 -1.823985679491996e+01 -1.785990569165022e+01 -1.747993832970811e+01 -1.709995998199042e+01 -1.671997437338355e+01 -1.633998446639801e+01 -1.595985450600544e+01 -1.557961033340355e+01 -1.519902520122539e+01 -1.481756049647667e+01 -1.443822422110402e+01 -1.405999557483456e+01 -1.367999800010666e+01 -1.329999890520414e+01 -1.291999932799302e+01 -1.253999955953163e+01 -1.215999970686823e+01 -1.177999981872011e+01 -1.139999992134127e+01 -1.102000003139939e+01 -1.064000016158451e+01 -1.026000032344862e+01 -9.880000529019760e+00 -9.500000791806636e+00 -9.120001127470740e+00 -8.740001554300250e+00 -8.360002093555558e+00 -7.980002769739827e+00 -7.600003610877164e+00 -7.220004649001974e+00 -6.840005921470695e+00 -6.460007475158920e+00 -6.080009381530796e+00 -5.700011799306143e+00 -5.320015292892394e+00 -4.939887342403268e+00 -4.559741703920313e+00 -4.179247164273178e+00 -3.797820709348134e+00 -3.418406886523639e+00 -3.040035181296988e+00 -2.660043515852814e+00 -2.280051291536082e+00 -1.900060089989688e+00 -1.520070777631468e+00 -1.142254631002056e+00 -7.651635206891859e-01 -3.979529214733732e-01 -2.588554976202943e+01 -2.518505477828239e+01 -2.446191891385145e+01 -2.372354819832359e+01 -2.297586322942113e+01 -2.222266394589736e+01 -2.654632999202802e+01 -1.330077079599183e+00 -2.146630488015524e+01 -2.090050440689145e+00 -2.070819399078492e+01 -3.989999101090304e+00 -2.850040503439006e+00 -1.994914364358856e+01 -2.840072573634552e+01 -4.750018467152723e+00 -1.918960606233867e+01 -5.510012359430717e+00 -2.809291346906263e+01 -2.767956953429093e+01 -2.715272428387186e+01 -6.270008175712142e+00 -1.842982412939656e+01 -7.030005199420430e+00 -1.766992371936010e+01 -7.790003152752942e+00 -8.550001804405838e+00 -1.690996783775765e+01 -9.310000949223705e+00 -1.614995852302943e+01 -1.007000042318720e+01 -1.083000010579605e+01 -1.538777502027788e+01 -1.158999991467264e+01 -1.234999979874600e+01 -1.310999973333562e+01 -1.386999971381591e+01 -1.462999794839909e+01 -3.229146475791631e+00 -2.553825705776960e+01 -2.482585006883679e+01 -2.622083397669423e+01 -9.671101156655665e-01 -2.409419642040871e+01 -2.790312181366068e+01 -2.742788443349744e+01 -1.710064472418252e+00 -2.335058348252821e+01 -2.470047308818954e+00 -2.259977356800557e+01 -4.368188018450002e+00 -2.184477113234160e+01 -5.129977004562200e+00 -5.890010409271926e+00 -2.108740536259616e+01 -6.650006646578407e+00 -2.032875082118969e+01 -7.410004099773977e+00 -1.956941655027869e+01 -8.170002411583807e+00 -8.930001327642886e+00 -1.880973558647156e+01 -9.690000652133532e+00 -1.804988363004813e+01 -1.045000023813911e+01 -1.728995011433483e+01 -1.120999997631798e+01 -1.196999977211856e+01 -1.652997900439502e+01 -1.272999948921999e+01 -1.576999156625197e+01 -1.348999875530749e+01 -1.424904435329124e+01 -2.824651907650852e+01 -3.122458535401336e-01 -5.770254963668856e-01 -2.835087807063464e+01 -1.538999510219583e+01 -1.557987106256074e+01 -1.519969911756619e+01 -1.595998897527111e+01 -1.576976446749993e+01 -1.614998578373630e+01 -1.633998296624986e+01 -1.652997884112686e+01 -1.538816941798132e+01 -1.500734340898433e+01 -1.481981191259703e+01 -1.462916948544804e+01 -1.481446497555993e+01 -1.444000710384316e+01 -1.424999940887958e+01 -1.405999963423202e+01 -1.386999951904098e+01 -1.367999964538492e+01 -1.348999945848580e+01 -1.329999964890580e+01 -1.310999954135963e+01 -1.291999968765977e+01 -1.272999963940388e+01 -1.253999974087571e+01 -1.234999972864842e+01 -1.215999980057829e+01 -1.196999981043186e+01 -1.177999986781221e+01 -1.158999989341235e+01 -1.139999994723247e+01 -1.120999998679869e+01 -1.102000004507036e+01 -1.083000009955972e+01 -1.064000016875222e+01 -1.045000024097540e+01 -1.026000032709682e+01 -1.007000042135073e+01 -9.880000530671239e+00 -9.690000652636078e+00 -9.500000792161378e+00 -9.310000948922921e+00 -9.120001126695421e+00 -8.930001326823584e+00 -8.740001552094853e+00 -8.550001805740477e+00 -8.360002089022650e+00 -8.170002408015634e+00 -7.980002760988367e+00 -7.790003158930769e+00 -7.600003594145101e+00 -7.410004086484059e+00 -7.220004616760072e+00 -7.030005220712765e+00 -6.840005858055356e+00 -6.650006591810986e+00 -6.460007345830650e+00 -6.270008224447412e+00 -6.080009101893450e+00 -5.890010119664987e+00 -5.700011137749470e+00 -5.510012202374867e+00 -5.320013485626432e+00 -5.130000975036232e+00 -4.940016374047596e+00 -4.749784442569705e+00 -4.559894934674436e+00 -4.368340895974195e+00 -4.179714693380212e+00 -3.988053406014149e+00 -3.799748876936722e+00 -3.609434805015479e+00 -3.419958697901951e+00 -3.229990950417851e+00 -3.796771210870062e+00 -3.040032379402680e+00 -2.850041347395555e+00 -2.660043383472187e+00 -2.470046597772527e+00 -2.280048569838627e+00 -2.090052460124669e+00 -1.900053573363128e+00 -1.710058177456063e+00 -1.520057100275173e+00 -1.329145980075845e+00 -1.137835487700839e+00 -9.234197200957082e-01 -7.555905136241683e-01 -3.610008132011209e+00 -2.685768143017370e+01 -2.670514760332427e+01 -2.700761042935379e+01 -2.638758607792426e+01 -2.685908324127940e+01 -2.715284643407433e+01 -2.729298839105783e+01 -2.742797669737827e+01 -2.755688223308107e+01 -2.767957871072184e+01 -2.779507490724762e+01 -2.790318518171905e+01 -2.800292233583641e+01 -2.809406648767097e+01 -2.817615042563515e+01 -2.825549959262471e+01 -2.830767411676745e+01 -2.835366190097693e+01 -2.715267753550020e+01 -2.446190411124686e+01 -2.427846559130365e+01 -2.390919173495914e+01 -2.409420943513216e+01 -2.372354834799234e+01 -2.446192010604928e+01 -2.353731224933898e+01 -2.335059162884501e+01 -2.464440427907236e+01 -2.500610830161368e+01 -2.482586920537847e+01 -2.518506079781982e+01 -2.536247928044365e+01 -2.553847633780826e+01 -2.571233205546889e+01 -2.588553039154531e+01 -2.605396499856920e+01 -2.518503858474211e+01 -2.222266019669019e+01 -2.203379921212071e+01 -2.165559907268621e+01 -2.184477388792355e+01 -2.146630481971377e+01 -2.222266386463265e+01 -2.127689987225753e+01 -2.108740687649102e+01 -2.241132831141150e+01 -2.259977840423615e+01 -2.278796259577167e+01 -2.297586316581423e+01 -2.316341350257971e+01 -2.297585685369488e+01 -1.918960575300568e+01 -1.899967684173309e+01 -1.861978406650146e+01 -1.880973579566589e+01 -1.842982411303304e+01 -1.918960604700786e+01 -1.823985675767476e+01 -1.804988374320684e+01 -1.690996758170494e+01 -1.709995976641105e+01 -1.747993822768450e+01 -1.728995018818269e+01 -1.766992367534730e+01 -1.690996760956672e+01 -1.785990563578570e+01 -1.671997385256688e+01 -2.070819284438407e+01 -2.051849611915757e+01 -2.013896439364480e+01 -2.032875162484591e+01 -1.994914362007558e+01 -2.070819395202342e+01 -1.975929224631010e+01 -1.956941696369486e+01 -2.089783259779570e+01 -1.937951995433446e+01 -2.809397135382719e+01 -1.158999987344741e+01 -1.310999922474274e+01 -8.550001807559100e+00 -6.270008345507570e+00 -1.007000041997601e+01 -1.386999785062495e+01 -5.510012938897031e+00 -4.749643228621117e+00 -7.030005247119955e+00 -9.310000949063239e+00 -7.790003165788073e+00 -1.083000009406342e+01 -1.234999965390536e+01 -2.588408541997484e+01 -2.638626923088422e+01 -2.654625242082571e+01 -1.332086032006552e+00 -2.090055068150388e+00 -2.850040272945500e+00 -1.842982396215918e+01 -1.766992358452111e+01 -5.896067343487511e-01 -2.767947067392941e+01 -2.372353796992055e+01 -2.824066741323248e+01 -1.500999747691338e+01 -2.146630276824920e+01 -1.994914304161321e+01 -2.685773982028145e+01 -1.614998649999715e+01 -2.742796519284204e+01 -2.790317577788113e+01 -2.622222696835633e+01 -2.470045491626828e+00 -9.502649910846538e-01 -1.710055082571468e+00 -1.196999984938632e+01 -7.410004074701217e+00 -1.348999971670816e+01 -9.690000653572477e+00 -6.650006556385128e+00 -4.370009772217144e+00 -1.425000015198039e+01 -5.130015094452539e+00 -8.930001326466543e+00 -5.890010091673417e+00 -1.120999999831710e+01 -1.045000024436457e+01 -8.170002404964904e+00 -1.272999976071230e+01 -2.409420895087716e+01 -2.032875165510201e+01 -1.576956410301706e+01 -2.184477396001571e+01 -1.880973580995297e+01 -1.728995028261617e+01 -2.259977848654131e+01 -1.652997942595527e+01 -1.804988376728437e+01 -2.553845826144594e+01 -1.956941698221152e+01 -2.335059163066632e+01 -2.108740692544489e+01 -2.482586652247588e+01 -3.230030929710354e+00 -3.537253983087433e-01 -2.840201795436067e+01 -3.020916027582103e-01 -2.839375408553730e+01 -2.834842721986755e+01 -6.033327714815461e-01 -1.519355763543103e+01 -4.174483419720423e+00 -2.605832625625753e+01 -2.655047936453026e+01 -3.604969602479493e+00 -1.462413491812690e+01 -2.500615134360938e+01 -2.536261456442797e+01 -2.464444043120423e+01 -2.571365224468782e+01 -2.427849487862955e+01 -2.390921500748630e+01 -2.353733048587985e+01 -2.316342762807112e+01 -2.700772252862005e+01 -2.729314966682093e+01 -2.755709600926337e+01 -2.779531031775533e+01 -2.278797342457659e+01 -2.241133653380707e+01 -2.800266385355417e+01 -2.203380539875182e+01 -2.817079063200958e+01 -2.165560368659970e+01 -2.127690328356141e+01 -2.089783509848120e+01 -2.051849793689507e+01 -2.013896570404247e+01 -1.975929318346544e+01 -1.937952061977546e+01 -1.899967731187762e+01 -1.861978439891169e+01 -1.823985699643628e+01 -1.785990581639003e+01 -1.747993838142501e+01 -1.709995992053244e+01 -1.671997399493679e+01 -1.633998276261500e+01 -1.595985871172597e+01 -1.557815085216674e+01 -4.558280520235138e+00 -1.152651529436893e+00 -4.939817660237845e+00 -5.700011300498150e+00 -3.040039021178126e+00 -1.520940793189188e+00 -2.660044008700899e+00 -1.900057736852980e+00 -5.320000090052319e+00 -2.280050408551908e+00 -6.080009222170247e+00 -6.460007413733210e+00 -6.840005893938458e+00 -7.220004635155285e+00 -7.980002765268046e+00 -7.600003603275191e+00 -8.740001552524683e+00 -8.360002090780531e+00 -9.120001126358567e+00 -9.500000791229498e+00 -1.026000032421454e+01 -9.880000529008292e+00 -1.102000003570303e+01 -1.064000016362042e+01 -1.139999992988318e+01 -1.177999983544523e+01 -1.215999974000589e+01 -1.253999962754570e+01 -1.329999927035826e+01 -1.291999947717397e+01 -1.367999905202349e+01 -1.405999932501977e+01 -1.443837946638598e+01 -2.670519987494525e+01 -3.418826156400236e+00 -2.622264987223173e+01 -1.500583151595746e+01 -3.986704752061215e+00 -2.840674004324847e+01 -2.654195242249283e-01 -2.840635700556010e+01 -2.688884017197389e-01 -8.528695529330639e-01 -2.828032317562407e+01 -2.835139086192090e+01 -5.905535791546993e-01 
</DataArray>
</PointData>
<CellData Scalars="pressure_p0," Vectors="velocity_p0," Tensors="">
<DataArray type="Float64" Name="pressure_p0" format="ascii">