<?xml version="1.0"?>
<VTKFile type="UnstructuredGrid" version="0.1" byte_order="LittleEndian">
<UnstructuredGrid>
<Piece NumberOfPoints="570" NumberOfCells="968">
<Points>
<DataArray type="Float64" NumberOfComponents="3" format="ascii">
0.000000000000000e+00 0.000000000000000e+00 0.000000000000000e+00 0.000000000000000e+00 1.000000000000000e+00 0.000000000000000e+00 1.600000000000000e+01 1.000000000000000e+00 0.000000000000000e+00 1.600000000000000e+01 0.000000000000000e+00 0.000000000000000e+00 0.000000000000000e+00 1.999999999995579e-01 0.000000000000000e+00 0.000000000000000e+00 3.999999999989749e-01 0.000000000000000e+00 0.000000000000000e+00 5.999999999989468e-01 0.000000000000000e+00 0.000000000000000e+00 7.999999999994734e-01 0.000000000000000e+00 1.999999999996227e-01 1.000000000000000e+00 0.000000000000000e+00 3.999999999992458e-01 1.000000000000000e+00 0.000000000000000e+00 5.999999999988365e-01 1.000000000000000e+00 0.000000000000000e+00 7.999999999983944e-01 1.000000000000000e+00 0.000000000000000e+00 9.999999999979721e-01 1.000000000000000e+00 0.000000000000000e+00 1.199999999997645e+00 1.000000000000000e+00 0.000000000000000e+00 1.399999999997340e+00 1.000000000000000e+00 0.000000000000000e+00 1.599999999997035e+00 1.000000000000000e+00 0.000000000000000e+00 1.799999999996729e+00 1.000000000000000e+00 0.000000000000000e+00 1.999999999996380e+00 1.000000000000000e+00 0.000000000000000e+00 2.199999999995840e+00 1.000000000000000e+00 0.000000000000000e+00 2.399999999995257e+00 1.000000000000000e+00 0.000000000000000e+00 2.599999999994675e+00 1.000000000000000e+00 0.000000000000000e+00 2.799999999994092e+00 1.000000000000000e+00 0.000000000000000e+00 2.999999999993509e+00 1.000000000000000e+00 0.000000000000000e+00 3.199999999992926e+00 1.000000000000000e+00 0.000000000000000e+00 3.399999999992343e+00 1.000000000000000e+00 0.000000000000000e+00 3.599999999991760e+00 1.000000000000000e+00 0.000000000000000e+00 3.799999999991177e+00 1.000000000000000e+00 0.000000000000000e+00 3.999999999990594e+00 1.000000000000000e+00 0.000000000000000e+00 4.199999999990011e+00 1.000000000000000e+00 0.000000000000000e+00 4.399999999989427e+00 1.000000000000000e+00 0.000000000000000e+00 4.599999999988845e+00 1.000000000000000e+00 0.000000000000000e+00 4.799999999988263e+00 1.000000000000000e+00 0.000000000000000e+00 4.999999999987679e+00 1.000000000000000e+00 0.000000000000000e+00 5.199999999987096e+00 1.000000000000000e+00 0.000000000000000e+00 5.399999999986513e+00 1.000000000000000e+00 0.000000000000000e+00 5.599999999985930e+00 1.000000000000000e+00 0.000000000000000e+00 5.799999999985348e+00 1.000000000000000e+00 0.000000000000000e+00 5.999999999984764e+00 1.000000000000000e+00 0.000000000000000e+00 6.199999999984182e+00 1.000000000000000e+00 0.000000000000000e+00 6.399999999983598e+00 1.000000000000000e+00 0.000000000000000e+00 6.599999999983016e+00 1.000000000000000e+00 0.000000000000000e+00 6.799999999982433e+00 1.000000000000000e+00 0.000000000000000e+00 6.999999999981850e+00 1.000000000000000e+00 0.000000000000000e+00 7.199999999981268e+00 1.000000000000000e+00 0.000000000000000e+00 7.399999999980683e+00 1.000000000000000e+00 0.000000000000000e+00 7.599999999980102e+00 1.000000000000000e+00 0.000000000000000e+00 7.799999999979519e+00 1.000000000000000e+00 0.000000000000000e+00 7.999999999979108e+00 1.000000000000000e+00 0.000000000000000e+00 8.199999999979463e+00 1.000000000000000e+00 0.000000000000000e+00 8.399999999979988e+00 1.000000000000000e+00 0.000000000000000e+00 8.599999999980515e+00 1.000000000000000e+00 0.000000000000000e+00 8.799999999981042e+00 1.000000000000000e+00 0.000000000000000e+00 8.999999999981569e+00 1.000000000000000e+00 0.000000000000000e+00 9.199999999982095e+00 1.000000000000000e+00 0.000000000000000e+00 9.399999999982622e+00 1.000000000000000e+00 0.000000000000000e+00 9.599999999983149e+00 1.000000000000000e+00 0.000000000000000e+00 9.799999999983674e+00 1.000000000000000e+00 0.000000000000000e+00 9.999999999984201e+00 1.000000000000000e+00 0.000000000000000e+00 1.019999999998473e+01 1.000000000000000e+00 0.000000000000000e+00 1.039999999998525e+01 1.000000000000000e+00 0.000000000000000e+00 1.059999999998578e+01 1.000000000000000e+00 0.000000000000000e+00 1.079999999998631e+01 1.000000000000000e+00 0.000000000000000e+00 1.099999999998684e+01 1.000000000000000e+00 0.000000000000000e+00 1.119999999998736e+01 1.000000000000000e+00 0.000000000000000e+00 1.139999999998789e+01 1.000000000000000e+00 0.000000000000000e+00 1.159999999998842e+01 1.000000000000000e+00 0.000000000000000e+00 1.179999999998894e+01 1.000000000000000e+00 0.000000000000000e+00 1.199999999998947e+01 1.000000000000000e+00 0.000000000000000e+00 1.219999999998999e+01 1.000000000000000e+00 0.000000000000000e+00 1.239999999999052e+01 1.000000000000000e+00 0.000000000000000e+00 1.259999999999105e+01 1.000000000000000e+00 0.000000000000000e+00 1.279999999999157e+01 1.000000000000000e+00 0.000000000000000e+00 1.299999999999210e+01 1.000000000000000e+00 0.000000000000000e+00 1.319999999999263e+01 1.000000000000000e+00 0.000000000000000e+00 1.339999999999315e+01 1.000000000000000e+00 0.000000000000000e+00 1.359999999999368e+01 1.000000000000000e+00 0.000000000000000e+00 1.379999999999421e+01 1.000000000000000e+00 0.000000000000000e+00 1.399999999999473e+01 1.000000000000000e+00 0.000000000000000e+00 1.419999999999526e+01 1.000000000000000e+00 0.000000000000000e+00 1.439999999999579e+01 1.000000000000000e+00 0.000000000000000e+00 1.459999999999631e+01 1.000000000000000e+00 0.000000000000000e+00 1.479999999999684e+01 1.000000000000000e+00 0.000000000000000e+00 1.499999999999737e+01 1.000000000000000e+00 0.000000000000000e+00 1.519999999999789e+01 1.000000000000000e+00 0.000000000000000e+00 1.539999999999842e+01 1.000000000000000e+00 0.000000000000000e+00 1.559999999999895e+01 1.000000000000000e+00 0.000000000000000e+00 1.579999999999947e+01 1.000000000000000e+00 0.000000000000000e+00 1.600000000000000e+01 7.999999999999998e-01 0.000000000000000e+00 1.600000000000000e+01 6.000000000013869e-01 0.000000000000000e+00 1.600000000000000e+01 4.000000000016644e-01 0.000000000000000e+00 1.600000000000000e+01 2.000000000008322e-01 0.000000000000000e+00 1.579999999999917e+01 0.000000000000000e+00 0.000000000000000e+00 1.559999999999833e+01 0.000000000000000e+00 0.000000000000000e+00 1.539999999999750e+01 0.000000000000000e+00 0.000000000000000e+00 1.519999999999667e+01 0.000000000000000e+00 0.000000000000000e+00 1.499999999999584e+01 0.000000000000000e+00 0.000000000000000e+00 1.479999999999500e+01 0.000000000000000e+00 0.000000000000000e+00 1.459999999999417e+01 0.000000000000000e+00 0.000000000000000e+00 1.439999999999334e+01 0.000000000000000e+00 0.000000000000000e+00 1.419999999999250e+01 0.000000000000000e+00 0.000000000000000e+00 1.399999999999202e+01 0.000000000000000e+00 0.000000000000000e+00 1.379999999999306e+01 0.000000000000000e+00 0.000000000000000e+00 1.359999999999445e+01 0.000000000000000e+00 0.000000000000000e+00 1.339999999999583e+01 0.000000000000000e+00 0.000000000000000e+00 1.319999999999722e+01 0.000000000000000e+00 0.000000000000000e+00 1.299999999999861e+01 0.000000000000000e+00 0.000000000000000e+00 1.280000000000000e+01 0.000000000000000e+00 0.000000000000000e+00 1.260000000000138e+01 0.000000000000000e+00 0.000000000000000e+00 1.240000000000277e+01 0.000000000000000e+00 0.000000000000000e+00 1.220000000000416e+01 0.000000000000000e+00 0.000000000000000e+00 1.200000000000555e+01 0.000000000000000e+00 0.000000000000000e+00 1.180000000000693e+01 0.000000000000000e+00 0.000000000000000e+00 1.160000000000832e+01 0.000000000000000e+00 0.000000000000000e+00 1.140000000000971e+01 0.000000000000000e+00 0.000000000000000e+00 1.120000000001109e+01 0.000000000000000e+00 0.000000000000000e+00 1.100000000001248e+01 0.000000000000000e+00 0.000000000000000e+00 1.080000000001387e+01 0.000000000000000e+00 0.000000000000000e+00 1.060000000001525e+01 0.000000000000000e+00 0.000000000000000e+00 1.040000000001664e+01 0.000000000000000e+00 0.000000000000000e+00 1.020000000001803e+01 0.000000000000000e+00 0.000000000000000e+00 1.000000000001942e+01 0.000000000000000e+00 0.000000000000000e+00 9.800000000020802e+00 0.000000000000000e+00 0.000000000000000e+00 9.600000000022190e+00 0.000000000000000e+00 0.000000000000000e+00 9.400000000023578e+00 0.000000000000000e+00 0.000000000000000e+00 9.200000000024964e+00 0.000000000000000e+00 0.000000000000000e+00 9.000000000026350e+00 0.000000000000000e+00 0.000000000000000e+00 8.800000000027737e+00 0.000000000000000e+00 0.000000000000000e+00 8.600000000029127e+00 0.000000000000000e+00 0.000000000000000e+00 8.400000000030513e+00 0.000000000000000e+00 0.000000000000000e+00 8.200000000031899e+00 0.000000000000000e+00 0.000000000000000e+00 8.000000000032939e+00 0.000000000000000e+00 0.000000000000000e+00 7.800000000032455e+00 0.000000000000000e+00 0.000000000000000e+00 7.600000000031622e+00 0.000000000000000e+00 0.000000000000000e+00 7.400000000030790e+00 0.000000000000000e+00 0.000000000000000e+00 7.200000000029958e+00 0.000000000000000e+00 0.000000000000000e+00 7.000000000029125e+00 0.000000000000000e+00 0.000000000000000e+00 6.800000000028295e+00 0.000000000000000e+00 0.000000000000000e+00 6.600000000027460e+00 0.000000000000000e+00 0.000000000000000e+00 6.400000000026630e+00 0.000000000000000e+00 0.000000000000000e+00 6.200000000025797e+00 0.000000000000000e+00 0.000000000000000e+00 6.000000000024965e+00 0.000000000000000e+00 0.000000000000000e+00 5.800000000024133e+00 0.000000000000000e+00 0.000000000000000e+00 5.600000000023302e+00 0.000000000000000e+00 0.000000000000000e+00 5.400000000022469e+00 0.000000000000000e+00 0.000000000000000e+00 5.200000000021635e+00 0.000000000000000e+00 0.000000000000000e+00 5.000000000020805e+00 0.000000000000000e+00 0.000000000000000e+00 4.800000000019972e+00 0.000000000000000e+00 0.000000000000000e+00 4.600000000019140e+00 0.000000000000000e+00 0.00000000000000
[...]
<PointData Scalars="pressure_p1," Vectors="" Tensors="">
<DataArray type="Float64" Name="pressure_p1" format="ascii">
-7.512611939537188e-02 -7.512914789337860e-02 -1.672383936741064e+01 -1.672404981894616e+01 -6.289783821510682e-02 -6.682736424930207e-02 -7.099154282290412e-02 -6.699483354468516e-02 -2.296410835316570e-01 -4.406209544488111e-01 -6.600604540926196e-01 -8.800495230610142e-01 -1.100043085155408e+00 -1.320037138212915e+00 -1.540031476530658e+00 -1.760026237205069e+00 -1.980021553345230e+00 -2.200017378197746e+00 -2.420013581846164e+00 -2.640010205976201e+00 -2.860007424329407e+00 -3.080005321613683e+00 -3.300003793934233e+00 -3.520002680116298e+00 -3.740001860825041e+00 -3.960001260530236e+00 -4.180000826960835e+00 -4.400000519663756e+00 -4.620000305963714e+00 -4.840000159602973e+00 -5.060000059976128e+00 -5.279999991389355e+00 -5.499999942289978e+00 -5.719999904531467e+00 -5.939999872742379e+00 -6.159999843851001e+00 -6.379999816812084e+00 -6.599999792587624e+00 -6.819999774464240e+00 -7.039999768782724e+00 -7.259999785970332e+00 -7.479999840942223e+00 -7.699999949626637e+00 -7.920000115579142e+00 -8.140000313084728e+00 -8.360000482144567e+00 -8.580000491974831e+00 -8.800000245408325e+00 -9.019999846922062e+00 -9.239999505327800e+00 -9.459999334053352e+00 -9.679999297317776e+00 -9.899999300146797e+00 -1.011999926553117e+01 -1.033999912847595e+01 -1.055999880180982e+01 -1.077999813828353e+01 -1.099999688050008e+01 -1.121999458261782e+01 -1.143999048322848e+01 -1.165998330029311e+01 -1.187997090529470e+01 -1.209994981387371e+01 -1.231991440272529e+01 -1.253985572576533e+01 -1.275975975487278e+01 -1.297960481065950e+01 -1.319935787635449e+01 -1.341896940411817e+01 -1.363836613111734e+01 -1.385744132836861e+01 -1.407604181748881e+01 -1.429395101969398e+01 -1.451086725410055e+01 -1.472637646611948e+01 -1.493991865183050e+01 -1.515077745131878e+01 -1.535792699095044e+01 -1.556005972775100e+01 -1.575569418291906e+01 -1.594273304489220e+01 -1.611868630948943e+01 -1.628050517072886e+01 -1.642446510200815e+01 -1.654560107900426e+01 -1.663982664780811e+01 -1.670056020448808e+01 -1.672531115455665e+01 -1.672483982698789e+01 -1.672424523853885e+01 -1.672479357086603e+01 -1.670080075287729e+01 -1.664077683396456e+01 -1.654638678992938e+01 -1.642453724808069e+01 -1.628052160584564e+01 -1.611870196448396e+01 -1.594274903421223e+01 -1.575571001510114e+01 -1.556008464114348e+01 -1.535800432623470e+01 -1.515098359028354e+01 -1.494007143885029e+01 -1.472637703381534e+01 -1.451086785411285e+01 -1.429395167397527e+01 -1.407604240072205e+01 -1.385744179247444e+01 -1.363836647739950e+01 -1.341896965231242e+01 -1.319935804937898e+01 -1.297960492877096e+01 -1.275975983412349e+01 -1.253985577816626e+01 -1.231991443695899e+01 -1.209994983608713e+01 -1.187997091980978e+01 -1.165998331020629e+01 -1.143999049093033e+01 -1.121999459030013e+01 -1.099999689076062e+01 -1.077999815501266e+01 -1.055999883169259e+01 -1.033999918379826e+01 -1.011999937010624e+01 -9.899999505309571e+00 -9.679999744794518e+00 -9.460000604039923e+00 -9.239922686665576e+00 -9.019779787468813e+00 -8.799440167040300e+00 -8.578590145369866e+00 -8.358971678242710e+00 -8.139996361799579e+00 -7.919998425360123e+00 -7.699999112382062e+00 -7.479999404074822e+00 -7.259999554360266e+00 -7.039999645440493e+00 -6.819999708714210e+00 -6.599999757554475e+00 -6.379999798189874e+00 -6.159999834031249e+00 -5.939999867707438e+00 -5.719999902216929e+00 -5.499999941742524e+00 -5.279999992378722e+00 -5.060000062901952e+00 -4.840000165658522e+00 -4.620000317623191e+00 -4.400000541694299e+00 -4.180000868387434e+00 -3.960001338463925e+00 -3.740002008445279e+00 -3.520002966853332e+00 -3.300004397723394e+00 -3.080006899353624e+00 -2.859933957483907e+00 -2.639850772390762e+00 -2.419565589545920e+00 -2.198739556786878e+00 -1.979078652877177e+00 -1.760023445558827e+00 -1.540032136485191e+00 -1.320040627633877e+00 -1.100050505157934e+00 -8.800626193565382e-01 -6.613308280620108e-01 -4.430149728118329e-01 -2.304143053585331e-01 -1.504666822616904e+01 -1.461883665314371e+01 -1.418510368531918e+01 -1.374795435004798e+01 -1.330918622893908e+01 -1.286969182002153e+01 -1.545993250051785e+01 -7.700623422435388e-01 -1.242988887624571e+01 -1.210040271390089e+00 -1.198996180322062e+01 -2.309999534050364e+00 -1.650028902280688e+00 -1.154998741148719e+01 -1.671021604237581e+01 -2.750008670895694e+00 -1.110999591396438e+01 -3.190004460236710e+00 -1.648776657191721e+01 -1.620164412791552e+01 -1.585047318583922e+01 -3.630002241778520e+00 -1.066999854730785e+01 -4.070001028617923e+00 -1.022999928166946e+01 -4.510000403959148e+00 -4.950000105334417e+00 -9.789999512748231e+00 -5.389999964996616e+00 -9.349983376558107e+00 -5.829999887877601e+00 -6.269999829123205e+00 -8.908716783304067e+00 -6.709999779167795e+00 -7.149999763622509e+00 -7.589999866952264e+00 -8.030000262267912e+00 -8.470000116210988e+00 -1.869508586102655e+00 -1.483343551001021e+01 -1.440255613198265e+01 -1.525497760888209e+01 -5.599297158971220e-01 -1.396681272771430e+01 -1.635500816558674e+01 -1.603228663230084e+01 -9.900555578272812e-01 -1.352870037052529e+01 -1.430036240521901e+00 -1.308949548023743e+01 -2.528951731734303e+00 -1.264981354207115e+01 -2.969984570724912e+00 -3.410003504209013e+00 -1.220993436292106e+01 -3.850001631337463e+00 -1.176997793311956e+01 -4.290000687009885e+00 -1.132999282330695e+01 -4.730000233339937e+00 -5.170000024228667e+00 -1.088999760672277e+01 -5.609999921077869e+00 -1.044999899807135e+01 -6.049999851456818e+00 -1.000999929147708e+01 -6.489999780467893e+00 -6.929999686327762e+00 -9.569999267552149e+00 -7.369999520071411e+00 -9.129999598938040e+00 -7.809999057220849e+00 -8.249446668335283e+00 -1.659741552040776e+01 -1.807751266064631e-01 -3.340897772598828e-01 -1.667335104663798e+01 -8.910000070267451e+00 -9.019928932964278e+00 -8.799828358929320e+00 -9.239999139581229e+00 -9.129867484953868e+00 -9.349998596981893e+00 -9.459999107245212e+00 -9.569999084110526e+00 -8.908943193407369e+00 -8.688465312951250e+00 -8.579892947249981e+00 -8.469521814016160e+00 -8.576800164208107e+00 -8.360005230934853e+00 -8.250000865955705e+00 -8.140000422422121e+00 -8.030000133525553e+00 -7.920000071015707e+00 -7.809999765156554e+00 -7.699999856282767e+00 -7.589999674614933e+00 -7.479999763865709e+00 -7.369999670319359e+00 -7.259999735790733e+00 -7.149999693429876e+00 -7.039999739215522e+00 -6.929999724682287e+00 -6.819999757858063e+00 -6.709999757948786e+00 -6.599999783488763e+00 -6.489999790981460e+00 -6.379999811898145e+00 -6.269999823020016e+00 -6.159999841232408e+00 -6.049999854322515e+00 -5.939999871386529e+00 -5.829999886258585e+00 -5.719999903898219e+00 -5.609999921609341e+00 -5.499999942127389e+00 -5.389999964997089e+00 -5.279999991635193e+00 -5.170000023440594e+00 -5.060000060731454e+00 -4.950000107043159e+00 -4.840000161165182e+00 -4.730000229808120e+00 -4.620000308917681e+00 -4.510000410545128e+00 -4.400000525016908e+00 -4.290000673764458e+00 -4.180000836209590e+00 -4.070001050272674e+00 -3.960001275123394e+00 -3.850001576624954e+00 -3.740001879204939e+00 -3.630002290708501e+00 -3.520002687322290e+00 -3.410003214678690e+00 -3.300003736306291e+00 -3.190004303076163e+00 -3.080005092312086e+00 -2.969997731336355e+00 -2.860007026027468e+00 -2.749872513001851e+00 -2.639937514145672e+00 -2.529038349413864e+00 -2.419834403067438e+00 -2.308874104749579e+00 -2.199855662982186e+00 -2.089675614121614e+00 -1.979978582512067e+00 -1.869998744780137e+00 -2.198133361964082e+00 -1.760023186767039e+00 -1.650029739817646e+00 -1.540032004277652e+00 -1.430035528449982e+00 -1.320037906013033e+00 -1.210042289227532e+00 -1.100043988587379e+00 -9.900492629575620e-01 -8.800489420964989e-01 -7.695247367534973e-01 -6.587660244474106e-01 -5.346289445477536e-01 -4.374665609885871e-01 -2.090006198609366e+00 -1.565889044630724e+01 -1.556102799350617e+01 -1.575584727767114e+01 -1.535961007367033e+01 -1.565977470215559e+01 -1.585055083516965e+01 -1.594275238963674e+01 -1.603233489114146e+01 -1.611869699028462e+01 -1.620165065147527e+01 -1.628051665482615e+01 -1.635503956696636e+01 -1.642449943739347e+01 -1.648859800845648e+01 -1.654692234989409e+01 -1.660390167619432e+01 -1.664175070986994e+01 -1.667539793862965e+01 -1.585045388488703e+01 -1.418509938850897e+01 -1.407604196309965e+01 -1.385744144246719e+01 -1.396681561248978e+01 -1.374795421677011e+01 -1.418510350339565e+01 -1.363836621723766e+01 -1.352870172027674e+01 -1.429395120649449e+01 -1.451086756178684e+01 -1.440256190159061e+01 -1.461883693120062e+01 -1.472637742610148e+01 -1.483356522926671e+01 -1.494001199350238e+01 -1.504664447917388e+01 -1.515096869406051e+01 -1.461882894019041e+01 -1.286969140141408e+01 -1.275975977597695e+01 -1.253985573992961e+01 -1.264981378983066e+01 -1.242988886230145e+01 -1.286969178790947e+01 -1.231991441210627e+01 -1.220993446077599e+01 -1.297960484160986e+01 -1.308949607495870e+01 -1.319935792092348e+01 -1.330918615964852e+01 -1.341896946691879e+01 -1.330918525723107e+01 -1.110999590033236e+01 -1.099999688314944e+01 -1.077999814231798e+01 -1.088999761601124e+01 -1.066999853752024e+01 -1.110999591059901e+01 -1.055999880822093e+01 -1.044999901467381e+01 -9.789999288870407e+00 -9.899999294769920e+00 -1.011999927514019e+01 -1.000999932031292e+01 -1.022999924112140e+01 -9.789999286410522e+00 -1.033999913782835e+01 -9.679999227706659e+00 -1.198996173693514e+01 -1.187997090935769e+01 -1.165998330307845e+01 -1.176997797009771e+01 -1.154998740856017e+01 -1.198996179733010e+01 -1.143999048537380e+01 -1.132999283773660e+01 -1.209994982003408e+01 -1.121999458469718e+01 -1.648853466729021e+01 -6.709999737947668e+00 -7.589999357904225e+00 -4.950000108828369e+00 -3.630002411705950e+00 -5.829999884855089e+00 -8.029998439146512e+00 -3.190005039490387e+00 -2.749792215345687e+00 -4.070001076630583e+00 -5.389999965107646e+00 -4.510000417362332e+00 -6.269999817493034e+00 -7.149999618637353e+00 -1.504575701207655e+01 -1.535877683461778e+01 -1.545987479850507e+01 -7.712315374473744e-01 -1.210044897346833e+00 -1.650028675078443e+00 -1.066999852620593e+01 -1.022999921650906e+01 -3.413682649484953e-01 -1.620159035832011e+01 -1.374795222791221e+01 -1.659317692924358e+01 -8.690000502511397e+00 -1.242988870558903e+01 -1.154998738585466e+01 -1.565891696852066e+01 -9.349999326454155e+00 -1.603232808711361e+01 -1.635503089363347e+01 -1.525585381483742e+01 -1.430034424428370e+00 -5.501747289286332e-01 -9.900461694038517e-01 -6.929999763654302e+00 -4.290000661583540e+00 -7.810000014905273e+00 -5.609999922286110e+00 -3.850001540903187e+00 -2.530004525662511e+00 -8.250000879375682e+00 -2.970006216215324e+00 -5.170000022743139e+00 -3.410003186628643e+00 -6.489999802410069e+00 -6.049999857536203e+00 -4.730000226359078e+00 -7.369999791831666e+00 -1.396681578106434e+01 -1.176997797404849e+01 -9.129752729751702e+00 -1.264981381112895e+01 -1.088999762137241e+01 -1.000999941224439e+01 -1.308949612260444e+01 -9.569999667417447e+00 -1.044999903395908e+01 -1.483356089397128e+01 -1.132999284043544e+01 -1.352870181835624e+01 -1.220993446982857e+01 -1.440256200773618e+01 -1.870021144334307e+00 -2.047979450984121e-01 -1.671118125137633e+01 -1.748966045121492e-01 -1.670504451621301e+01 -1.667153580143183e+01 -3.493061241192377e-01 -8.796275142589492e+00 -2.416807767168628e+00 -1.515367844267506e+01 -1.546254949252742e+01 -2.087090605450022e+00 -8.466607598661717e+00 -1.451088035100866e+01 -1.472644875878373e+01 -1.429396046915906e+01 -1.494082066299677e+01 -1.407604849355141e+01 -1.385744596173481e+01 -1.363836929493922e+01 -1.341897153177722e+01 -1.575589819393949e+01 -1.594283302811868e+01 -1.611881342401946e+01 -1.628065219590526e+01 -1.319935928647621e+01 -1.297960573210568e+01 -1.642429167794992e+01 -1.275976034872495e+01 -1.654304605971891e+01 -1.253985610333454e+01 -1.231991463962879e+01 -1.209994996066649e+01 -1.187997099528965e+01 -1.165998335519308e+01 -1.143999051711735e+01 -1.121999460481124e+01 -1.099999689762647e+01 -1.077999815593139e+01 -1.055999882595851e+01 -1.033999916655601e+01 -1.011999932542600e+01 -9.899999379016357e+00 -9.679999323296849e+00 -9.459998872870086e+00 -9.239923199606087e+00 -9.018932865747162e+00 -2.639002723373673e+00 -6.673470343057685e-01 -2.859891560844957e+00 -3.300003899033304e+00 -1.760027283061237e+00 -8.805640858368328e-01 -1.540032626282858e+00 -1.100048148988673e+00 -3.079997288325954e+00 -1.320039741467230e+00 -3.520002807889246e+00 -3.740001947634049e+00 -3.960001311694594e+00 -4.180000855387227e+00 -4.620000314011166e+00 -4.400000534967229e+00 -5.060000061871016e+00 -4.840000163696244e+00 -5.279999991931052e+00 -5.499999941744732e+00 -5.939999868884512e+00 -5.719999902699463e+00 -6.379999802746213e+00 -6.159999836398435e+00 -6.599999766267799e+00 -6.819999725519801e+00 -7.039999678547129e+00 -7.259999622194925e+00 -7.699999476855221e+00 -7.479999552868116e+00 -7.919999476229932e+00 -8.140000110826607e+00 -8.359064279092706e+00 -1.556104649258255e+01 -1.979324399324012e+00 -1.525610887456420e+01 -8.687590964932902e+00 -2.308094036865960e+00 -1.671469928593094e+01 -1.536719161438767e-01 -1.671440941106585e+01 -1.556849867537886e-01 -4.937838608388905e-01 -1.662179904071282e+01 -1.667371558850033e+01 -3.419102937411370e-01 
</DataArray>
</PointData>
<CellData Scalars="pressure_p0," Vectors="velocity_p0," Tensors="">
<DataArray type="Float64" Name="pressure_p0" format="ascii">