<?xml version="1.0"?>
<VTKFile type="UnstructuredGrid" version="0.1" byte_order="LittleEndian">
<UnstructuredGrid>
<Piece NumberOfPoints="1758" NumberOfCells="6368">
<Points>
<DataArray type="Float64" NumberOfComponents="3" format="ascii">
-1.0000000000 1.0000000000 0.0000000000 -1.0000000000 -1.0000000000 0.0000000000 1.0000000000 -1.0000000000 0.0000000000 1.0000000000 1.0000000000 0.0000000000 -1.0000000000 0.0000000000 0.0000000000 1.0000000000 0.0000000000 0.0000000000 -1.0000000000 1.0000000000 0.2000000000 -1.0000000000 -1.0000000000 0.2000000000 1.0000000000 -1.0000000000 0.2000000000 1.0000000000 1.0000000000 0.2000000000 -1.0000000000 0.0000000000 0.2000000000 1.0000000000 0.0000000000 0.2000000000 -0.9000000000 0.0000000000 0.0000000000 -0.8000000000 0.0000000000 0.0000000000 -0.7000000000 0.0000000000 0.0000000000 -0.6000000000 0.0000000000 0.0000000000 -0.5000000000 0.0000000000 0.0000000000 -0.4000000000 0.0000000000 0.0000000000 -0.3000000000 0.0000000000 0.0000000000 -0.2000000000 0.0000000000 0.0000000000 -0.1000000000 0.0000000000 0.0000000000 -0.0000000000 0.0000000000 0.0000000000 0.1000000000 0.0000000000 0.0000000000 0.2000000000 0.0000000000 0.0000000000 0.3000000000 0.0000000000 0.0000000000 0.4000000000 0.0000000000 0.0000000000 0.5000000000 0.0000000000 0.0000000000 0.6000000000 0.0000000000 0.0000000000 0.7000000000 0.0000000000 0.0000000000 0.8000000000 0.0000000000 0.0000000000 0.9000000000 0.0000000000 0.0000000000 -0.9000000000 1.0000000000 0.0000000000 -0.8000000000 1.0000000000 0.0000000000 -0.7000000000 1.0000000000 0.0000000000 -0.6000000000 1.0000000000 0.0000000000 -0.5000000000 1.0000000000 0.0000000000 -0.4000000000 1.0000000000 0.0000000000 -0.3000000000 1.0000000000 0.0000000000 -0.2000000000 1.0000000000 0.0000000000 -0.1000000000 1.0000000000 0.0000000000 -0.0000000000 1.0000000000 0.0000000000 0.1000000000 1.0000000000 0.0000000000 0.2000000000 1.0000000000 0.0000000000 0.3000000000 1.0000000000 0.0000000000 0.4000000000 1.0000000000 0.0000000000 0.5000000000 1.0000000000 0.0000000000 0.6000000000 1.0000000000 0.0000000000 0.7000000000 1.0000000000 0.0000000000 0.8000000000 1.0000000000 0.0000000000 0.9000000000 1.0000000000 0.0000000000 -0.9000000000 -1.0000000000 0.0000000000 -0.8000000000 -1.0000000000 0.0000000000 -0.7000000000 -1.0000000000 0.0000000000 -0.6000000000 -1.0000000000 0.0000000000 -0.5000000000 -1.0000000000 0.0000000000 -0.4000000000 -1.0000000000 0.0000000000 -0.3000000000 -1.0000000000 0.0000000000 -0.2000000000 -1.0000000000 0.0000000000 -0.1000000000 -1.0000000000 0.0000000000 -0.0000000000 -1.0000000000 0.0000000000 0.1000000000 -1.0000000000 0.0000000000 0.2000000000 -1.0000000000 0.0000000000 0.3000000000 -1.0000000000 0.0000000000 0.4000000000 -1.0000000000 0.0000000000 0.5000000000 -1.0000000000 0.0000000000 0.6000000000 -1.0000000000 0.0000000000 0.7000000000 -1.0000000000 0.0000000000 0.8000000000 -1.0000000000 0.0000000000 0.9000000000 -1.0000000000 0.0000000000 -1.0000000000 0.9000000000 0.0000000000 -1.0000000000 0.8000000000 0.0000000000 -1.0000000000 0.7000000000 0.0000000000 -1.0000000000 0.6000000000 0.0000000000 -1.0000000000 0.5000000000 0.0000000000 -1.0000000000 0.4000000000 0.0000000000 -1.0000000000 0.3000000000 0.0000000000 -1.0000000000 0.2000000000 0.0000000000 -1.0000000000 0.1000000000 0.0000000000 -1.0000000000 0.0000000000 0.0000000000 -1.0000000000 -0.1000000000 0.0000000000 -1.0000000000 -0.2000000000 0.0000000000 -1.0000000000 -0.3000000000 0.0000000000 -1.0000000000 -0.4000000000 0.0000000000 -1.0000000000 -0.5000000000 0.0000000000 -1.0000000000 -0.6000000000 0.0000000000 -1.0000000000 -0.7000000000 0.0000000000 -1.0000000000 -0.8000000000 0.0000000000 -1.0000000000 -0.9000000000 0.0000000000 1.0000000000 -0.9000000000 0.0000000000 1.0000000000 -0.8000000000 0.0000000000 1.0000000000 -0.7000000000 0.0000000000 1.0000000000 -0.6000000000 0.0000000000 1.0000000000 -0.5000000000 0.0000000000 1.0000000000 -0.4000000000 0.0000000000 1.0000000000 -0.3000000000 0.0000000000 1.0000000000 -0.2000000000 0.0000000000 1.0000000000 -0.1000000000 0.0000000000 1.0000000000 -0.0000000000 0.0000000000 1.0000000000 0.1000000000 0.0000000000 1.0000000000 0.2000000000 0.0000000000 1.0000000000 0.3000000000 0.0000000000 1.0000000000 0.4000000000 0.0000000000 1.0000000000 0.5000000000 0.0000000000 1.0000000000 0.6000000000 0.0000000000 1.0000000000 0.7000000000 0.0000000000 1.0000000000 0.8000000000 0.0000000000 1.0000000000 0.9000000000 0.0000000000 -1.0000000000 0.9000000000 0.2000000000 -1.0000000000 0.8000000000 0.2000000000 -1.0000000000 0.7000000000 0.2000000000 -1.0000000000 0.6000000000 0.2000000000 -1.0000000000 0.5000000000 0.2000000000 -1.0000000000 0.4000000000 0.2000000000 -1.0000000000 0.3000000000 0.2000000000 -1.0000000000 0.2000000000 0.2000000000 -1.0000000000 0.1000000000 0.2000000000 -1.0000000000 0.0000000000 0.2000000000 -1.0000000000 -0.1000000000 0.2000000000 -1.0000000000 -0.2000000000 0.2000000000 -1.0000000000 -0.3000000000 0.2000000000 -1.0000000000 -0.4000000000 0.2000000000 -1.0000000000 -0.5000000000 0.2000000000 -1.0000000000 -0.6000000000 0.2000000000 -1.0000000000 -0.7000000000 0.2000000000 -1.0000000000 -0.8000000000 0.2000000000 -1.0000000000 -0.9000000000 0.2000000000 -0.9000000000 -1.0000000000 0.2000000000 -0.8000000000 -1.0000000000 0.2000000000 -0.7000000000 -1.0000000000 0.2000000000 -0.6000000000 -1.0000000000 0.2000000000 -0.5000000000 -1.0000000000 0.2000000000 -0.4000000000 -1.0000000000 0.2000000000 -0.3000000000 -1.0000000000 0.2000000000 -0.2000000000 -1.0000000000 0.2000000000 -0.1000000000 -1.0000000000 0.2000000000 -0.0000000000 -1.0000000000 0.2000000000 0.1000000000 -1.0000000000 0.2000000000 0.2000000000 -1.0000000000 0.2000000000 0.3000000000 -1.0000000000 0.2000000000 0.4000000000 -1.0000000000 0.2000000000 0.5000000000 -1.0000000000 0.2000000000 0.6000000000 -1.0000000000 0.2000000000 0.7000000000 -1.0000000000 0.2000000000 0.8000000000 -1.0000000000 0.2000000000 0.9000000000 -1.0000000000 0.2000000000 1.0000000000 -0.9000000000 0.2000000000 1.0000000000 -0.8000000000 0.2000000000 1.0000000000 -0.7000000000 0.2000000000 1.0000000000 -0.6000000000 0.2000000000 1.0000000000 -0.5000000000 0.2000000000 1.0000000000 -0.4000000000 0.2000000000 1.0000000000 -0.3000000000 0.2000000000 1.0000000000 -0.2000000000 0.2000000000 1.0000000000 -0.1000000000 0.2000000000 1.0000000000 -0.0000000000 0.2000000000 1.0000000000 0.1000000000 0.2000000000 1.0000000000 0.2000000000 0.2000000000 1.0000000000 0.3000000000 0.2000000000 1.0000000000 0.4000000000 0.2000000000 1.0000000000 0.5000000000 0.2000000000 1.0000000000 0.6000000000 0.2000000000 1.0000000000 0.7000000000 0.2000000000 1.0000000000 0.8000000000 0.2000000000 1.0000000000 0.9000000000 0.2000000000 0.9000000000 1.0000000000 0.2000000000 0.8000000000 1.0000000000 0.2000000000 0.7000000000 1.0000000000 0.2000000000 0.6000000000 1.0000000000 0.2000000000 0.5000000000 1.0000000000 0.2000000000 0.4000000000 1.0000000000 0.2000000000 0.3000000000 1.0000000000 0.2000000000 0.2000000000 1.0000000000 0.2000000000 0.1000000000 1.0000000000 0.2000000000 -0.0000000000 1.0000000000 0.2000000000 -0.1000000000 1.0000000000 0.2000000000 -0.2000000000 1.0000000000 0.2000000000 -0.3000000000 1.0000000000 0.2000000000 -0.4000000000 1.0000000000 0.2000000000 -0.5000000000 1.0000000000 0.2000000000 -0.6000000000 1.0000000000 0.2000000000 -0.7000000000 1.0000000000 0.2000000000 -0.8000000000 1.0000000000 0.2000000000 -0.9000000000 1.0000000000 0.2000000000 -1.0000000000 1.0000000000 0.1000000000 -1.0000000000 -1.0000000000 0.1000000000 1.0000000000 -1.0000000000 0.1000000000 1.0000000000 1.0000000000 0.1000000000 -0.9000000000 0.0000000000 0.2000000000 -0.8000000000 0.0000000000 0.2000000000 -0.7000000000 0.0000000000 0.2000000000 -0.6000000000 0.0000000000 0.2000000000 -0.5000000000 0.0000000000 0.2000000000 -0.4000000000 0.0000000000 0.2000000000 -0.3000000000 0.0000000000 0.2000000000 -0.2000000000 0.0000000000 0.2000000000 -0.1000000000 0.0000000000 0.2000000000 -0.0000000000 0.0000000000 0.2000000000 0.1000000000 0.0000000000 0.2000000000 0.2000000000 0.0000000000 0.2000000000 0.3000000000 0.0000000000 0.2000000000 0.4000000000 0.0000000000 0.2000000000 0.5000000000 0.0000000000 0.2000000000 0.6000000000 0.0000000000 0.2000000000 0.7000000000 0.0000000000 0.2000000000 0.8000000000 0.0000000000 0.2000000000 0.9000000000 0.0000000000 0.2000000000 -1.0000000000 0.0000000000 0.1000000000 1.0000000000 0.0000000000 0.1000000000 0.0030107953 -0.0025653098 0.0000000000 -0.4108812510 0.4142326914 0.0000000000 -0.4050410176 -0.4071776852 0.0000000000 0.4071035389 -0.4001328606 0.0000000000 0.4050410176 0.4071776852 0.0000000000 -0.5606271777 0.0000000000 0.0000000000 0.0001874193 0.5515118824 0.0000000000 -0.0000000000 -0.5606271777 0.0000000000 0.5606271777 -0.0000000000 0.0000000000 -0.6579625293 0.6579625293 0.0000000000 0.6639956123 -0.6619736799 0.0000000000 -0.6619736799 -0.6639956123 0.0000000000 0.6579625293 0.6579625293 0.0000000000 -0.2803135889 0.1339721254 0.0000000000 -0.1339721254 -0.2803135889 0.0000000000 0.2803135889 -0.1339721254 0.0000000000 0.1338494681 0.2902379826 0.0000000000 -0.6928519307 0.2793703587 0.0000000000 -0.2786360584 0.7001080877 0.0000000000 -0.2793850304 -0.6919705983 0.0000000000 0.6919705983 -0.2793850304 0.0000000000 -0.6919705983 -0.2793850304 0.0000000000 0.2793850304 -0.6919705983 0.0000000000 0.2741019842 0.6922174201 0.0000000000 0.6919705983 0.2793850304 0.0000000000 -0.1629160898 0.3622525737 0.0000000000 -0.3323467295 -0.1173974990 0.0000000000 0.1130816528 -0.3328328125 0.0000000000 0.3323467295 0.1173974990 0.0000000000 -0.7759075177 0.0693590791 0.0000000000 -0.0689101174 0.7638754870 0.0000000000 -0.0686428469 -0.7712638769 0.0000000000 0.7712638769 -0.0686428469 0.0000000000 -0.4737815222 0.7680296815 0.0000000000 -0.8178543744 0.4839760973 0.0000000000 0.7917200186 -0.4857076100 0.0000000000 -0.4857076100 -0.7
[...]
<CellData Scalars="pressure_p0," Vectors="velocity_p0," Tensors="">
<DataArray type="Float64" Name="pressure_p0" format="ascii">
5.4614101699 5.4620464600 5.4625903423 5.4630084775 5.4600023836 5.4607700448 5.4610668105 5.4619078551 5.4589369914 5.4593691974 5.4599342209 5.4602376403 5.4575830483 5.4585925735 5.4588467725 5.4598743796 5.4540174272 5.4554595284 5.4544536988 5.4562363596 5.4496471760 5.4508187127 5.4500053796 5.4510978764 5.4471683568 5.4482691355 5.4481692634 5.4489183209 5.4438462602 5.4453273551 5.4449079696 5.4466398371 5.4401599108 5.4411920951 5.4406543837 5.4418678979 5.4403595062 5.4396869469 5.4399153425 5.4395841618 5.4426842993 5.4422872477 5.4428852919 5.4418281816 5.4423000019 5.4427359873 5.4432671929 5.4434423505 5.4421287521 5.4419903908 5.4432222435 5.4432160545 5.4447606820 5.4440751053 5.4454560618 5.4450080349 5.4478660941 5.4465262736 5.4481204425 5.4469091521 5.4529244793 5.4516168880 5.4534880300 5.4516649267 5.4542703538 5.4544063468 5.4560354410 5.4560349049 5.4559552859 5.4552683523 5.4563254336 5.4563150657 5.4576115731 5.4572028383 5.4581825351 5.4576322412 5.4587227126 5.4585739458 5.4593494125 5.4593269192 0.5783419093 0.5199752980 0.4884843177 0.5783409545 0.4884740243 0.5199773634 1.7538167510 1.8763037042 1.8168699396 1.8168713118 1.8763026253 1.7538118012 1.7462374152 1.8017140673 1.8687145837 1.7462422704 1.8687168751 1.8017151493 0.7176061555 0.7669968415 0.6592208530 0.7176020480 0.6592269773 0.7670006742 3.7257806049 3.8078417641 3.7241648248 3.8134851332 3.7205131157 3.7216136888 3.5490320980 3.5442116264 3.4606887349 3.4606065461 3.5439630113 3.5491349450 1.3634367156 1.2587939937 1.2740442903 1.3634438034 1.2588012679 1.2740478690 1.4430670730 1.4333268280 1.3384677130 1.4430603466 1.3384527841 1.4333388424 3.3950088934 3.3224318942 3.4266331614 3.3967297372 3.4274672157 3.3228314661 2.2409888573 2.1540540842 2.1672847894 2.2410080900 2.1673190319 2.1540689249 3.4203061028 3.3162316328 3.3884801104 3.3900642377 3.4214278476 3.3164043925 3.8659919103 3.9575850237 3.9387699274 3.9211893806 4.0126901245 3.9836829958 3.8638262643 3.9723826743 3.9180736800 3.9194205609 4.0101805738 3.9817219509 2.0968170400 2.0487300858 1.9762808463 2.0968481378 1.9763097543 2.0487392479 0.5215423499 0.6278905651 0.5303929136 0.5215447221 0.5304117867 0.6278854111 2.1206609972 2.0684240992 2.0171310096 2.1206957776 2.0171609173 2.0684285307 2.7262359743 2.6937177021 2.6143475562 2.7263751009 2.6937617512 2.6144618262 0.8740848568 0.9846536836 0.8851114800 0.8740847927 0.9846488959 0.8851089844 0.1610023040 0.0804999153 0.0805007940 0.1610024808 0.0804998454 0.0805008208 0.1593097393 0.0796576196 0.0796551753 0.1593060408 0.0796567865 0.0796588834 0.8725608168 0.9829633879 0.8835749169 0.8725606652 0.8835721215 0.9829647532 0.8813260236 0.8924648546 0.9928788383 0.8813269089 0.8924683636 0.9928801536 0.1608130674 0.0804010181 0.0803967186 0.1608102620 0.0803993827 0.0803958710 0.1596317919 0.0798248665 0.0798296402 0.0798224831 0.0798296640 0.1596411218 0.8820738849 0.8932113163 0.9936943679 0.8820740110 0.9936946268 0.8932116359 3.7901078266 3.8689080267 3.7858524698 3.8123187413 3.8864557344 3.8021207247 3.7926511664 3.8844357534 3.7926175497 3.8146220724 3.8854319828 3.8035455618 1.5645372546 1.5124479550 1.6122453671 1.5124499617 1.6122629918 1.5645306232 2.4835750367 2.4646677896 2.5628397535 2.4646915986 2.5629263650 2.4837264378 0.2713112670 0.3054295513 0.1922472206 0.2713055861 0.3054223030 0.1922451092 1.5551524345 1.6471641271 1.6030065064 1.5551537898 1.6471727863 1.6030111711 1.5923838809 1.6955186677 1.6318487333 1.5923877598 1.6955249529 1.6318547134 0.2667300202 0.2990210343 0.1885851359 0.2667365200 0.2990311842 0.1885931292 0.2695063505 0.3048810705 0.1914618518 0.2695067583 0.3048775593 0.1914618661 1.5799335815 1.6894955364 1.6207077669 1.5799368490 1.6207204283 1.6895024455 1.5766384013 1.6795211524 1.6154828689 1.5766413094 1.6795228103 1.6154851324 0.2933794868 0.3315958755 0.2083269551 0.2933810762 0.3316023124 0.2083286229 1.5594113544 1.6011624469 1.4813933116 1.5594183513 1.4814090167 1.6011675831 0.1131721294 0.2263453613 0.1131885963 0.1131679498 0.2263430276 0.1131860635 1.8517895832 1.7954914119 1.7513208743 1.8517956886 1.7954989637 1.7513260625 1.8721989020 1.8354302138 1.7717724541 1.7717747600 1.8354415594 1.8722254446 0.1104607601 0.2209029116 0.1104349568 0.1104394565 0.2208987483 0.1104624745 0.1134158809 0.2268296176 0.1134100568 0.1134124387 0.2268258319 0.1134175475 1.7609625213 1.8297346366 1.8604315491 1.8297407656 1.8604494540 1.7609770643 1.7537199070 1.8177552794 1.8531094144 1.7537213065 1.8177570473 1.8531155454 0.1232749849 0.2465598292 0.1232899437 0.1232720594 0.2465622981 0.1232860328 0.3292478859 0.3347464814 0.2213332440 0.2213358533 0.3292527239 0.3347433577 2.1120111277 2.0052686236 2.0359812181 2.0052808512 2.0360004372 2.1120593102 2.1031399557 1.9924593348 2.0278595159 2.0278728244 2.1031804281 1.9924678591 0.3068417990 0.3383497801 0.2150600359 0.2150543895 0.3068308130 0.3383571390 2.1546191809 2.2532248805 2.2576175322 2.2532516080 2.1546330844 2.2576686286 2.0498303338 2.1527926031 2.0435229066 2.0435663584 2.0498064738 2.1527981628 1.0338052166 1.1555403256 1.0599947564 1.0338140758 1.1555384744 1.0600045129 1.3009984447 1.3490451023 1.3858755477 1.3858701847 1.3490459903 1.3010076545 3.3907526703 3.3206672828 3.4231664751 3.3911861841 3.4245988428 3.3218884300 2.0077219644 1.9218862982 1.9945006042 1.9218905488 2.0077475498 1.9945119126 3.3864989615 3.3155787435 3.4185237842 3.3868570306 3.4198192852 3.3166148525 0.9420021162 1.0209551980 1.0525566647 0.9420103742 1.0525641475 1.0209494586 0.2712726718 0.3010409610 0.1907681023 0.2712733716 0.3010409795 0.1907685235 0.2636497541 0.1840006715 0.2883371295 0.2636439308 0.2883350480 0.1840042750 0.9487920622 1.0591917856 1.0360366797 0.9487943354 1.0360387130 1.0591909530 0.9494837601 1.0287715117 1.0610494356 0.9494796708 1.0287708890 1.0610485407 0.2792118982 0.3171963302 0.1987854628 0.2792121882 0.3171954542 0.1987859785 0.2772066080 0.3149771884 0.1974178542 0.2772091012 0.3149767941 0.1974151929 0.9591599082 1.0473859760 1.0707793010 0.9591605923 1.0473871362 1.0707801720 1.4256374420 1.3735306999 1.3344252799 1.3735306311 1.3344215848 1.4256525174 3.9316638115 3.9238154578 3.8583946043 3.9330459323 3.8344143597 3.9250752465 0.9420133299 0.9636348475 1.0611710507 0.9420104904 1.0611772501 0.9636362444 1.8564960290 1.9406875947 1.8707451107 1.8564691880 1.8707875601 1.9407215168 0.9506960882 0.9847915238 1.0739377298 0.9506884861 1.0739628264 0.9847962385 1.8576088695 1.9404573233 1.8727552444 1.8575956596 1.8727912357 1.9404775611 2.2426731095 2.1945981486 2.2680073579 2.2680535446 2.1946037637 2.2427213969 0.6131916793 0.7195517149 0.7136957743 0.7137033339 0.7195381435 0.6131828950 2.2481585653 2.1959487370 2.2721516149 2.2721989178 2.1959471147 2.2481832813 2.9709208386 2.9002874284 3.0053801067 2.9714884399 3.0062731042 2.9006362549 0.7076737705 0.6353290390 0.6096402534 0.7076694444 0.6096434089 0.6353310112 0.7013231076 0.6272847282 0.6034066111 0.7013289441 0.6033991627 0.6272816580 2.9682249680 2.8974587079 3.0027428223 2.9686228874 3.0034662594 2.8977354228 1.4327820714 1.3547876527 1.3479007970 1.3479098635 1.3547810086 1.4327757668 1.0837582686 1.2055114557 1.1599058378 1.0837556609 1.1598913181 1.2055134704 1.1835417160 1.2248110451 1.1322197339 1.1835418570 1.1322254451 1.2248115631 1.0774887478 1.1886513412 1.1491665245 1.0774938928 1.1491883125 1.1886492946 1.1685966544 1.2166532883 1.1210741442 1.1685992273 1.1210665721 1.2166527660 1.7091491193 1.7234353475 1.6460561917 1.7091376290 1.7234593592 1.6460581001 0.9730267307 1.0921976334 1.0256675110 0.9730243632 1.0921958841 1.0256671653 1.3167665061 1.3580416440 1.3986719548 1.3167641422 1.3580434631 1.3986684698 1.0342803832 1.1454635301 1.0627534478 1.0342692107 1.1454677957 1.0627422175 1.9334935585 1.9604239728 2.0516224862 1.9334885694 1.9604190548 2.0516262778 2.7530844976 2.6817426232 2.7260503275 2.7533797004 2.6819694298 2.7262146377 2.7464638851 2.6750063465 2.7184117725 2.7467574007 2.6751741533 2.7186085161 2.1379742526 2.0880117399 2.0312856866 2.0880203704 2.1380281934 2.0313104591 0.5511677512 0.6651862814 0.5566759625 0.6651857605 0.5511708228 0.5566761060 2.1288500063 2.0793561640 2.0182266557 2.0793633314 2.1288961405 2.0182423170 2.8977018158 2.8220956693 2.7787052725 2.7788465994 2.8981711434 2.8222870715 0.9659347159 1.0152637544 1.0892203881 0.9659170670 1.0892106412 1.0152668089 1.7117360798 1.7269250789 1.6487509270 1.7117274061 1.7269331682 1.6487498702 2.8982543756 2.9722708609 2.8719082457 2.8985244051 2.9724836771 2.8721055459 1.9729041021 2.0392683062 2.0909885474 1.9729154097 2.0392819675 2.0910055079 2.8914983403 2.9651609593 2.8640283749 2.8917436574 2.9654175294 2.8641888083 2.7315793350 2.6270048109 2.6921311685 2.6270634890 2.7318021000 2.6922914145 2.7240956302 2.6969514714 2.6045930472 2.7242253752 2.6970197846 2.6046846963 0.8629539545 0.7570636853 0.8311050741 0.8629606114 0.7570643965 0.8311085688 2.5847605834 2.5733623797 2.6781116304 2.5849601048 2.6782442677 2.5733831760 0.8961568900 0.9455383829 1.0163080263 0.8961580734 1.0163242340 0.9455389810 3.7766590122 3.7693522444 3.8757758269 3.7856325807 3.7603329783 3.8902189421 2.8911169847 2.8085538925 2.7718201987 2.7720117078 2.8085639112 2.8915510125 0.2089939142 0.2964914103 0.3304711477 0.2089920274 0.3304722600 0.2964926368 3.2583392567 3.3389197540 3.2475962334 3.3407356023 3.2604553741 3.2492368195 3.3357668429 3.2454135858 3.2563393318 3.2576547274 3.2470743816 3.3384446657 0.2073457771 0.2943126916 0.3277512535 0.2073447911 0.3277492514 0.2943147400 1.0167307669 1.1070151441 1.1044331083 1.0167189986 1.1044396357 1.1070218839 3.5896199422 3.5807923151 3.6851782122 3.5960502797 3.6961343808 3.5836453393 0.5425899971 0.6072762756 0.4999589025 0.4999618783 0.5425970306 0.6072719600 0.5397160531 0.4971512258 0.6038912188 0.4971501234 0.5397126195 0.6038923569 3.5882361384 3.5792588051 3.6841020306 3.5937180794 3.6935690466 3.5812077601 3.2877998613 3.3815334568 3.3888294378 3.3900523707 3.2891628764 3.3831047124 2.2380200911 2.2622074873 2.1626824933 2.2622419792 2.2380616211 2.1627085154 0.1835421501 0.0917587106 0.0917725089 0.0917715717 0.1835426385 0.0917593912 0.2158326995 0.1079172204 0.1079239431 0.1079232903 0.2158377348 0.1079156182 2.2422385220 2.2657123506 2.1661823791 2.2423030286 2.2657737393 2.1662246346 3.1399398908 3.1177807362 3.0597476798 3.1410368481 3.1185560566 3.0606176518 2.3028019083 2.3388803393 2.2297365662 2.2297679955 2.3388758111 2.3028354582 2.8778724782 2.9867557323 2.9283978082 2.9288792791 2.8782154777 2.9871721321 3.6754193289 3.7264893992 3.6175508873 3.7270948201 3.6189907075 3.6729906908 2.7028397963 2.6544674507 2.5832384259 2.7030085137 2.6546024511 2.5833453054 1.8515915085 1.8453647306 1.7563797292 1.7563695028 1.8515836850 1.8453976767 3.0351219530 3.0602508394 2.9525031767 3.0605290441 2.9527474367 3.0357159140 3.8467080969 3.9401319218 3.9050418929 3.8807274630 3.9737567164 3.9336791787 3.5018709051 3.3867452678 3.4479193331 3.3872323677 3.4487433874 3.5013119385 3.5652793724 3.5566716212 3.4713747537 3.5708198791 3.5558624493 3.4737123784 3.3651848371 3.4291753659 3.4594810311 3.4614784363 3.4320724694 3.3677807107 1.0815526302 0.9779448604 1.0729999229 1.0729974237 0.9779497689 1.0815547712 1.0853461170 0.9797103580 1.0790024243 1.0790056105 0.9797055295 1.0853478234 3.3631363422 3.4272728268 3.4577281379 3.3640758759 3.4287078651 3.4589780704 3.2211842685 3.2847527683 3.1714145804 3.2223583895 3.2864457899 3.1725561948 1.0111920592 0.9075825683 0.9322776781 1.0111935832 0.9075858576 0.9322792767 1.0106787043 0.9050496459 0.9296701059 1.0106761179 0.9050457450 0.9296673664 3.2187479008 3.2825590078 3.1688849964 3.2195500277 3.2835420694 3.1696794297 3.2915580859 3.2197645696 3.2187274199 3.2926627316 3.2202294416 3.2192300329 2.3303691476 2.2434666616 2.3460681248 2.3303804793 2.3461053936 2.2435055594 3.2832188462 3.2114130596 3.2112180012 3.2844900546 3.2115184430 3.2116275240 0.9152923008 1.0354666441 0.9838158259 0.9838144250 1.0354666551 0.9152744615 2.2326915103 2.3360837504 2.3335452957 2.3335541998 2.3361415291 2.2327018131 0.4350111656 0.5196684295 0.4691208013 0.4350190439 0.4691223178 0.5196603629 1.5049239432 1.5025350654 1.5969300624 1.5049188623 1.5969413838 1.5025434003 1.5557042914 1.5584810452 1.6588497917 1.5557027886 1.6588498574 1.5584864869 0.4294917218 0.5140823987 0.4617942209 0.4294820763 0.4617917994 0.5140920742 0.4360321852 0.5245196257 0.4714043050 0.4360357885 0.4714036269 0.5245168504 1.5378333530 1.5365307907 1.6474008069 1.5378472508 1.6474028428 1.5365244504 1.5402998645 1.5428213732 1.6431735399 1.5403097285 1.6431826069 1.5428181010 0.4660707702 0.5537017200 0.5042984576 0.4660641200 0.5042958424 0.5537057130 2.1381691500 2.2415133754 2.1444732361 2.1444909499 2.2415680397 2.1382203629 1.5497730771 1.5037356880 1.6071328348 1.5037358381 1.6071389605 1.5497691298 2.3066995941 2.3344562956 2.4170248554 2.3067139951 2.3345626105 2.4170871376 2.3030371727 2.4126763026 2.3300463989 2.3030155388 2.3301092563 2.4127645838 1.3012893135 1.3508094762 1.3968586309 1.3508106467 1.3012882454 1.3968599976 2.3459087619 2.4560202209 2.4127635741 2.3459266216 2.4128831263 2.4561161803 2.3425738265 2.4521301059 2.4090592551 2.3425882447 2.4091754240 2.4522042474 2.8755267907 2.9767284903 2.9065116993 2.8757036363 2.9770307627 2.9068347790 2.4441189262 2.5764263033 2.4949415821 2.4441678129 2.4950402657 2.5765206591 2.8703295110 2.9713571937 2.9059236033 2.8704406772 2.9716378395 2.9061966344 2.4894976061 2.4938396587 2.5817774971 2.4938639286 2.5818574590 2.4895946083 1.8410691077 1.7869774704 1.7482647395 1.8410640736 1.7482515215 1.7869887326 3.3150014058 3.4273168526 3.3435708290 3.3437774746 3.4271233757 3.3158636464 3.2199904568 3.2453739495 3.3223087313 3.3223783294 3.2207759976 3.2463831426 3.3466376738 3.4301919475 3.3169098514 3.3483872887 3.4301498075 3.3177156459 3.8029838787 3.8604113559 3.7552973671 3.8337688804 3.7714924867 3.8681880321 1.2744714088 1.2191179906 1.1500210988 1.2744846278 1.2191433106 1.1500381240 1.2789947957 1.2281753704 1.1546151516 1.2281857497 1.1546040809 1.2789801848 3.7252627543 3.8168202023 3.7074079704 3.7477015685 3.7250585978 3.8277569142 3.0408584278 3.1160198910 3.0171451301 3.0411330329 3.0172329005 3.1161418711 3.7630609230 3.6704649438 3.7764556106 3.7712867156 3.7887725681 3.6735934105 0.7629577031 0.7387802868 0.6740838074 0.7629535276 0.6740917489 0.7387808717 0.7671356345 0.7388780607 0.6747194185 0.7671409033 0.6747105981 0.7388762069 3.7595415463 3.6674059022 3.7740902555 3.7642426259 3.7836364582 3.6686778596 2.7207016491 2.7204089371 2.7801685008 2.7208391294 2.7804649853 2.7205267715 2.5973391922 2.5970866141 2.5334785677 2.5335349721 2.5971722259 2.5974170701 2.8557661188 2.7850635380 2.7748965439 2.7751686577 2.7853187085 2.8563295462 0.8326542034 0.7468339754 0.8191803854 0.8326522965 0.7468346727 0.8191796641 2.7717944403 2.7819707668 2.8528729686 2.7719857325 2.7821962347 2.8531805217 1.4841102209 1.4176854745 1.3960626723 1.4176854081 1.4841230836 1.3960588922 1.4870268133 1.4127571087 1.3925609781 1.4870268529 1.3925592862 1.4127617538 1.5850797977 1.5216935806 1.6407108121 1.5217026507 1.5850821307 1.6407127078 1.5796375423 1.5274843737 1.6425202587 1.5796298287 1.6425015781 1.5274867299 1.6575132551 1.7464984905 1.6537910057 1.6575102909 1.7465251881 1.6538037252 2.0663965193 2.1650254589 2.0812357562 2.1650405089 2.0664020471 2.0812404330 1.8852898716 1.9000452069 1.8027550686 1.8027830872 1.8853011587 1.9000259748 2.9043522485 2.8519456861 2.7887479391 2.7890376177 2.9049055600 2.8521351177 1.4853737795 1.3988049837 1.4741906425 1.4741979397 1.4853732285 1.3987993584 2.9002050577 2.7844498476 2.8477223288 2.7846000107 2.9005827090 2.8479793426 3.5125702102 3.3908315811 3.4676099481 3.4677879928 3.5136668207 3.3921911628 1.9100858745 1.9250050148 1.8172265479 1.9100861114 1.8172573165 1.9250177632 3.1390762243 3.0455572652 3.1213181325 3.1398586657 3.0461371855 3.1220975172 1.5659278570 1.6494099302 1.6106859996 1.5659232032 1.6106744625 1.6494212566 2.3802852657 2.3689067824 2.2691661315 2.3803515755 2.2691497985 2.3689403226 1.6692727214 1.5847095988 1.6791277942 1.6692850548 1.6791310483 1.5847090949 1.8360987748 1.9183609621 1.8459380682 1.8361157402 1.8459553369 1.9183625532 0.8001483543 0.8082674081 0.7005215851 0.8001623973 0.7005163372 0.8082573135 0.7418060898 0.6915745824 0.6421898985 0.7418147706 0.6421796814 0.6915726560 1.5975011826 1.5310764311 1.6228393974 1.5310744730 1.5975123300 1.6228467885 1.7707879741 1.8776778919 1.7961737464 1.8776787902 1.7708003318 1.7961802596 1.5115953226 1.5200127362 1.4219802367 1.5200042670 1.5116214829 1.4219875058 1.8056667780 1.9147202671 1.8465509803 1.8056844676 1.8465428188 1.9147220705 1.4398129855 1.3764319836 1.3502018457 1.3764347922 1.4398245023 1.3502074236 1.6223507085 1.5480751664 1.6632097335 1.6223655828 1.6632157216 1.5480722289 1.4255609244 1.3734036786 1.3343764846 1.4255724121 1.3343652790 1.3733951456 0.9243766286 1.0131130617 0.9254003584 0.9243791759 1.0131230207 0.9254005333 0.6957267013 0.7051566160 0.6233796062 0.6957208601 0.6233784775 0.7051608682 0.4772203358 0.5958993345 0.5141307411 0.4772230543 0.5141247843 0.5958981286 0.6901916994 0.6996322430 0.6184666989 0.6902003626 0.6184696907 0.6996268367 0.4735815490 0.5913327563 0.5101555753 0.4735779498 0.5101646225 0.5913346654 0.4755354166 0.5921342107 0.5124653530 0.4755364297 0.5124651841 0.5921337948 0.6941911847 0.7014628633 0.6217926889 0.6941906021 0.6217933988 0.7014634249 0.4703082387 0.5854867969 0.5068285741 0.4703055681 0.5068314905 0.5854873733 0.6865724159 0.6936165725 0.6149634857 0.6865757967 0.6149636462 0.6936139819 3.1557053473 3.2702993583 3.1907986374 3.1566751249 3.1918127020 3.2717820209 0.7553301456 0.7306503856 0.6573101716 0.7553262843 0.6573051444 0.7306535037 0.7507418706 0.7260957805 0.6527982126 0.7507449188 0.6528047508 0.7260939566 3.1532971683 3.2680905998 3.1884841721 3.1540093162 3.1891599750 3.2690976417 3.0165523266 2.9302688590 2.9408506651 3.0168966058 2.9412074078 2.9305914184 2.6043708335 2.7121379232 2.6659333284 2.6659852266 2.6045841406 2.7123923116 3.4479195131 3.4704898294 3.3678386655 3.4734699804 3.4527081467 3.3707549426 0.0875098946 0.1750097274 0.0875002813 0.0875110063 0.1750123072 0.0875020606 0.0869496833 0.1739134683 0.0869628158 0.0869588287 0.1739191544 0.0869469644 3.3699261513 3.4516184057 3.4712778072 3.4752909948 3.3735750081 3.4551055733 0.2781395888 0.3150425255 0.1977304598 0.2781406966 0.3150431959 0.1977320146 0.5970240447 0.5246796791 0.5077616568 0.5970215621 0.5246790401 0.5077609841 0.5975723357 0.5251747645 0.5082264832 0.5975721476 0.5251748461 0.5082264905 0.2760079917 0.3125922182 0.1961956662 0.2760050365 0.3125922572 0.1961953304 0.2784361246 0.3153652829 0.1979340304 0.2784366803 0.3153654803 0.1979342086 0.5922191915 0.5204904540 0.5036726762 0.5922226247 0.5036781542 0.5204902599 0.5911494828 0.5195385323 0.5027641827 0.5911509749 0.5195388175 0.5027646302 0.2754741826 0.3119979369 0.1958216537 0.2754717228 0.3119974911 0.1958209038 3.9174896841 3.8874341381 3.8390718110 3.8405931089 3.9434345369 3.8938224500 2.7098133224 2.6609011763 2.5977714863 2.7100104779 2.6610637749 2.5979066314 3.5823870919 3.5292446799 3.5371633429 3.5855617022 3.5327096235 3.5394461108 0.1861943775 0.2685738758 0.2899759466 0.2685698416 0.2899811617 0.1861982657 3.4285439479 3.5102202535 3.5113002884 3.4319221385 3.5143902087 3.5162893635 3.4270302473 3.5082403946 3.5095437999 3.4301575814 3.5122381736 3.5142960314 0.1928811003 0.2704338647 0.3082535760 0.2704395725 0.3082461275 0.1928748265 1.0253753944 1.0819214773 0.9935499116 1.0253821213 1.0819188197 0.9935510244 1.1650341029 1.2517600744 1.23157