<?xml version="1.0"?>
<VTKFile type="UnstructuredGrid" version="0.1" byte_order="LittleEndian">
<UnstructuredGrid>
<Piece NumberOfPoints="251" NumberOfCells="250">
<Points>
<DataArray type="Float64" NumberOfComponents="3" format="ascii">
0 0 0 0 0 -0.25 0 0 -0.00099999999999810158 0 0 -0.001999999999996204 0 0 -0.0029999999999943271 0 0 -0.0039999999999924488 0 0 -0.004999999999990571 0 0 -0.0059999999999886811 0 0 -0.0069999999999867156 0 0 -0.007999999999984719 0 0 -0.008999999999982581 0 0 -0.0099999999999804221 0 0 -0.010999999999978201 0 0 -0.011999999999975971 0 0 -0.01299999999997375 0 0 -0.01399999999997158 0 0 -0.014999999999969531 0 0 -0.01599999999996761 0 0 -0.0169999999999659 0 0 -0.01799999999996427 0 0 -0.018999999999962731 0 0 -0.019999999999961209 0 0 -0.020999999999959669 0 0 -0.02199999999995814 0 0 -0.022999999999956611 0 0 -0.023999999999955082 0 0 -0.024999999999953549 0 0 -0.02599999999995202 0 0 -0.02699999999995048 0 0 -0.027999999999948951 0 0 -0.028999999999947419 0 0 -0.02999999999994565 0 0 -0.03099999999994377 0 0 -0.031999999999941367 0 0 -0.032999999999938787 0 0 -0.033999999999935943 0 0 -0.034999999999933022 0 0 -0.035999999999930102 0 0 -0.036999999999927188 0 0 -0.037999999999924268 0 0 -0.038999999999921348 0 0 -0.039999999999918427 0 0 -0.040999999999915507 0 0 -0.041999999999912593 0 0 -0.042999999999909673 0 0 -0.043999999999906753 0 0 -0.044999999999903832 0 0 -0.045999999999900919 0 0 -0.046999999999897998 0 0 -0.047999999999895078 0 0 -0.048999999999892158 0 0 -0.049999999999889237 0 0 -0.050999999999886317 0 0 -0.051999999999883403 0 0 -0.052999999999880483 0 0 -0.053999999999877563 0 0 -0.054999999999874642 0 0 -0.055999999999871722 0 0 -0.056999999999868801 0 0 -0.057999999999865881 0 0 -0.058999999999862961 0 0 -0.059999999999860047 0 0 -0.060999999999857127 0 0 -0.061999999999854213 0 0 -0.062999999999851286 0 0 -0.063999999999848373 0 0 -0.064999999999845445 0 0 -0.065999999999842532 0 0 -0.066999999999839618 0 0 -0.067999999999836705 0 0 -0.068999999999833792 0 0 -0.069999999999830878 0 0 -0.070999999999827965 0 0 -0.071999999999825051 0 0 -0.072999999999822124 0 0 -0.07399999999981921 0 0 -0.074999999999816297 0 0 -0.075999999999813383 0 0 -0.07699999999981047 0 0 -0.077999999999807557 0 0 -0.078999999999804643 0 0 -0.07999999999980173 0 0 -0.080999999999798802 0 0 -0.081999999999795889 0 0 -0.082999999999792975 0 0 -0.083999999999790062 0 0 -0.084999999999787149 0 0 -0.085999999999784235 0 0 -0.086999999999781322 0 0 -0.087999999999778394 0 0 -0.088999999999775481 0 0 -0.089999999999772567 0 0 -0.090999999999769654 0 0 -0.091999999999766741 0 0 -0.092999999999763827 0 0 -0.093999999999760914 0 0 -0.094999999999758 0 0 -0.095999999999755073 0 0 -0.096999999999752159 0 0 -0.097999999999749246 0 0 -0.098999999999746333 0 0 -0.099999999999743419 0 0 -0.10099999999974051 0 0 -0.10199999999973761 0 0 -0.10299999999973471 0 0 -0.10399999999973179 0 0 -0.1049999999997288 0 0 -0.1059999999997259 0 0 -0.106999999999723 0 0 -0.1079999999997201 0 0 -0.1089999999997172 0 0 -0.1099999999997143 0 0 -0.1109999999997113 0 0 -0.1119999999997084 0 0 -0.1129999999997055 0 0 -0.1139999999997026 0 0 -0.1149999999996997 0 0 -0.1159999999996968 0 0 -0.11699999999969379 0 0 -0.11799999999969089 0 0 -0.11899999999968799 0 0 -0.11999999999968509 0 0 -0.1209999999996822 0 0 -0.1219999999996793 0 0 -0.1229999999996764 0 0 -0.1239999999996748 0 0 -0.12499999999967321 0 0 -0.12599999999967451 0 0 -0.12699999999967579 0 0 -0.1279999999996784 0 0 -0.12899999999968109 0 0 -0.1299999999996837 0 0 -0.13099999999968631 0 0 -0.13199999999968889 0 0 -0.13299999999969159 0 0 -0.1339999999996942 0 0 -0.13499999999969689 0 0 -0.1359999999996995 0 0 -0.13699999999970211 0 0 -0.1379999999997048 0 0 -0.13899999999970741 0 0 -0.13999999999971011 0 0 -0.14099999999971269 0 0 -0.1419999999997153 0 0 -0.14299999999971799 0 0 -0.1439999999997206 0 0 -0.14499999999972321 0 0 -0.14599999999972579 0 0 -0.14699999999972849 0 0 -0.1479999999997311 0 0 -0.14899999999973379 0 0 -0.1499999999997364 0 0 -0.15099999999973901 0 0 -0.1519999999997417 0 0 -0.15299999999974431 0 0 -0.15399999999974701 0 0 -0.15499999999974959 0 0 -0.1559999999997522 0 0 -0.15699999999975489 0 0 -0.1579999999997575 0 0 -0.15899999999976011 0 0 -0.1599999999997628 0 0 -0.16099999999976539 0 0 -0.161999999999768 0 0 -0.16299999999977069 0 0 -0.1639999999997733 0 0 -0.16499999999977599 0 0 -0.1659999999997786 0 0 -0.16699999999978121 0 0 -0.16799999999978391 0 0 -0.16899999999978649 0 0 -0.1699999999997891 0 0 -0.17099999999979171 0 0 -0.1719999999997944 0 0 -0.17299999999979701 0 0 -0.1739999999997997 0 0 -0.17499999999980231 0 0 -0.17599999999980501 0 0 -0.17699999999980759 0 0 -0.1779999999998102 0 0 -0.17899999999981281 0 0 -0.1799999999998155 0 0 -0.18099999999981811 0 0 -0.18199999999982069 0 0 -0.18299999999982339 0 0 -0.183999999999826 0 0 -0.18499999999982869 0 0 -0.1859999999998313 0 0 -0.18699999999983391 0 0 -0.1879999999998366 0 0 -0.18899999999983921 0 0 -0.18999999999984191 0 0 -0.19099999999984449 0 0 -0.1919999999998471 0 0 -0.19299999999984971 0 0 -0.1939999999998524 0 0 -0.19499999999985501 0 0 -0.1959999999998577 0 0 -0.19699999999986029 0 0 -0.19799999999986301 0 0 -0.19899999999986559 0 0 -0.1999999999998682 0 0 -0.20099999999987081 0 0 -0.2019999999998735 0 0 -0.20299999999987611 0 0 -0.20399999999987881 0 0 -0.20499999999988139 0 0 -0.205999999999884 0 0 -0.20699999999988669 0 0 -0.2079999999998893 0 0 -0.20899999999989191 0 0 -0.2099999999998946 0 0 -0.21099999999989719 0 0 -0.21199999999989991 0 0 -0.21299999999990249 0 0 -0.2139999999999051 0 0 -0.21499999999990771 0 0 -0.2159999999999104 0 0 -0.21699999999991301 0 0 -0.21799999999991571 0 0 -0.21899999999991829 0 0 -0.2199999999999209 0 0 -0.22099999999992359 0 0 -0.2219999999999262 0 0 -0.22299999999992881 0 0 -0.22399999999993139 0 0 -0.22499999999993411 0 0 -0.2259999999999367 0 0 -0.22699999999993939 0 0 -0.227999999999942 0 0 -0.22899999999994469 0 0 -0.2299999999999473 0 0 -0.23099999999994991 0 0 -0.23199999999995249 0 0 -0.23299999999995519 0 0 -0.2339999999999578 0 0 -0.23499999999996049 0 0 -0.2359999999999631 0 0 -0.23699999999996571 0 0 -0.2379999999999684 0 0 -0.23899999999997101 0 0 -0.2399999999999736 0 0 -0.24099999999997629 0 0 -0.2419999999999789 0 0 -0.24299999999998159 0 0 -0.2439999999999842 0 0 -0.24499999999998681 0 0 -0.24599999999998939 0 0 -0.24699999999999209 0 0 -0.2479999999999947 0 0 -0.24899999999999739 
</DataArray>
</Points>
<Cells>
<DataArray type="UInt32" Name="connectivity" format="ascii">
0 2 2 3 3 4 4 5 5 6 6 7 7 8 8 9 9 10 10 11 11 12 12 13 13 14 14 15 15 16 16 17 17 18 18 19 19 20 20 21 21 22 22 23 23 24 24 25 25 26 26 27 27 28 28 29 29 30 30 31 31 32 32 33 33 34 34 35 35 36 36 37 37 38 38 39 39 40 40 41 41 42 42 43 43 44 44 45 45 46 46 47 47 48 48 49 49 50 50 51 51 52 52 53 53 54 54 55 55 56 56 57 57 58 58 59 59 60 60 61 61 62 62 63 63 64 64 65 65 66 66 67 67 68 68 69 69 70 70 71 71 72 72 73 73 74 74 75 75 76 76 77 77 78 78 79 79 80 80 81 81 82 82 83 83 84 84 85 85 86 86 87 87 88 88 89 89 90 90 91 91 92 92 93 93 94 94 95 95 96 96 97 97 98 98 99 99 100 100 101 101 102 102 103 103 104 104 105 105 106 106 107 107 108 108 109 109 110 110 111 111 112 112 113 113 114 114 115 115 116 116 117 117 118 118 119 119 120 120 121 121 122 122 123 123 124 124 125 125 126 126 127 127 128 128 129 129 130 130 131 131 132 132 133 133 134 134 135 135 136 136 137 137 138 138 139 139 140 140 141 141 142 142 143 143 144 144 145 145 146 146 147 147 148 148 149 149 150 150 151 151 152 152 153 153 154 154 155 155 156 156 157 157 158 158 159 159 160 160 161 161 162 162 163 163 164 164 165 165 166 166 167 167 168 168 169 169 170 170 171 171 172 172 173 173 174 174 175 175 176 176 177 177 178 178 179 179 180 180 181 181 182 182 183 183 184 184 185 185 186 186 187 187 188 188 189 189 190 190 191 191 192 192 193 193 194 194 195 195 196 196 197 197 198 198 199 199 200 200 201 201 202 202 203 203 204 204 205 205 206 206 207 207 208 208 209 209 210 210 211 211 212 212 213 213 214 214 215 215 216 216 217 217 218 218 219 219 220 220 221 221 222 222 223 223 224 224 225 225 226 226 227 227 228 228 229 229 230 230 231 231 232 232 233 233 234 234 235 235 236 236 237 237 238 238 239 239 240 240 241 241 242 242 243 243 244 244 245 245 246 246 247 247 248 248 249 249 250 250 1 
</DataArray>
<DataArray type="UInt32" Name="offsets" format="ascii">
2 4 6 8 10 12 14 16 18 20 22 24 26 28 30 32 34 36 38 40 42 44 46 48 50 52 54 56 58 60 62 64 66 68 70 72 74 76 78 80 82 84 86 88 90 92 94 96 98 100 102 104 106 108 110 112 114 116 118 120 122 124 126 128 130 132 134 136 138 140 142 144 146 148 150 152 154 156 158 160 162 164 166 168 170 172 174 176 178 180 182 184 186 188 190 192 194 196 198 200 202 204 206 208 210 212 214 216 218 220 222 224 226 228 230 232 234 236 238 240 242 244 246 248 250 252 254 256 258 260 262 264 266 268 270 272 274 276 278 280 282 284 286 288 290 292 294 296 298 300 302 304 306 308 310 312 314 316 318 320 322 324 326 328 330 332 334 336 338 340 342 344 346 348 350 352 354 356 358 360 362 364 366 368 370 372 374 376 378 380 382 384 386 388 390 392 394 396 398 400 402 404 406 408 410 412 414 416 418 420 422 424 426 428 430 432 434 436 438 440 442 444 446 448 450 452 454 456 458 460 462 464 466 468 470 472 474 476 478 480 482 484 486 488 490 492 494 496 498 500 
</DataArray>
<DataArray type="UInt32" Name="types" format="ascii">
3 3 3 3 3 3 3 3 3 3 3 3 3 3 3 3 3 3 3 3 3 3 3 3 3 3 3 3 3 3 3 3 3 3 3 3 3 3 3 3 3 3 3 3 3 3 3 3 3 3 3 3 3 3 3 3 3 3 3 3 3 3 3 3 3 3 3 3 3 3 3 3 3 3 3 3 3 3 3 3 3 3 3 3 3 3 3 3 3 3 3 3 3 3 3 3 3 3 3 3 3 3 3 3 3 3 3 3 3 3 3 3 3 3 3 3 3 3 3 3 3 3 3 3 3 3 3 3 3 3 3 3 3 3 3 3 3 3 3 3 3 3 3 3 3 3 3 3 3 3 3 3 3 3 3 3 3 3 3 3 3 3 3 3 3 3 3 3 3 3 3 3 3 3 3 3 3 3 3 3 3 3 3 3 3 3 3 3 3 3 3 3 3 3 3 3 3 3 3 3 3 3 3 3 3 3 3 3 3 3 3 3 3 3 3 3 3 3 3 3 3 3 3 3 3 3 3 3 3 3 3 3 3 3 3 3 3 3 3 3 3 3 3 3 3 3 3 3 3 3 
</DataArray>
</Cells>
<CellData Scalars="pressure_p0,water_content,conductivity_richards," Vectors="velocity_p0," Tensors="">
<DataArray type="Float64" Name="pressure_p0" format="ascii">
-5837.5803096400759 -5837.3113484959076 -5836.7744122237018 -5835.969472882658 -5834.8964886067615 -5833.5554036645008 -5831.9461485384691 -5830.0686400248605 -5827.9227813528269 -5825.5084623236999 -5822.825559470054 -5819.8739362345932 -5816.6534431688378 -5813.1639181515902 -5809.4051866271575 -5805.3770618632898 -5801.0793452288181 -5796.5118264909497 -5791.6742841321811 -5786.5664856867934 -5781.1881880968867 -5775.5391380879155 -5769.6190725636516 -5763.4277190205648 -5756.9647959815211 -5750.2300134487705 -5743.2230733761471 -5735.9436701604291 -5728.3914911517759 -5720.5662171831791 -5712.4675231188503 -5704.0950784214619 -5695.4485477381531 -5686.5275915052225 -5677.3318665713969 -5667.8610268396078 -5658.1147239271395 -5648.0926078440689 -5637.7943276898604 -5627.219532368028 -5616.3678713187055 -5605.2389952690437 -5593.8325570012476 -5582.148212138165 -5570.18561994624 -5557.9444441557189 -5545.4243537979164 -5532.625024059399 -5519.54613715291 -5506.1873832048623 -5492.5484611592092 -5478.6290796975081 -5464.4289581749717 -5449.9478275723122 -5435.185431463151 -5420.141526996782 -5404.8158858960542 -5389.2082954701418 -5373.3185596419426 -5357.1464999898617 -5340.6919568037174 -5323.9547901544665 -5306.9348809775147 -5289.6321321692758 -5272.046469696701 -5254.1778437194562 -5236.0262297244199 -5217.5916296721798 -5198.8740731551698 -5179.873618567106 -5160.5903542833348 -5141.0243998517262 -5121.1759071937286 -5101.0450618151608 -5080.6320840263452 -5059.9372301711337 -5038.9607938644203 -5017.7031072376358 -4996.1645421917956 -4974.3455116576097 -4952.2464708621483 -4929.8679186015634 -4907.2103985193407 -4884.2745003895407 -4861.0608614044622 -4837.5701674661977 -4813.8031544814312 -4789.7606096589407 -4765.4433728091481 -4740.8523376450912 -4715.9884530841755 -4690.8527245500245 -4665.4462152737469 -4639.7700475939218 -4613.8254042545714 -4587.6135297003821 -4561.1357313684266 -4534.3933809755881 -4507.3879158009113 -4480.1208399620446 -4452.5937256849447 -4424.8082145659801 -4396.7660188255759 -4368.4689225524653 -4339.918782937666 -4311.1175314971933 -4282.0671752826074 -4252.7697980783432 -4223.2275615848621 -4193.4427065865693 -4163.4175541034529 -4133.1545065253467 -4102.6560487277466 -4071.9247491680289 -4040.9632609609207 -4009.774322932044 -3978.3607606483506 -3946.7254874241903 -3914.8715053017827 -3882.8019060048036 -3850.5198718637694 -3818.0286767118937 -3785.3316867500594 -3752.4323613794786 -3719.3342540007252 -3686.0410127775267 -3652.5563813640365 -3618.8841995939219 -3585.0284041297423 -3550.9930290712018 -3516.7822065204809 -3482.4001671031874 -3447.8512404431895 -3413.1398555896485 -3378.2705413945419 -3343.2479268389166 -3308.0767413061012 -3272.7618148000411 -3237.3080781069311 -3201.7205628982406 -3166.004401773218 -3130.1648282389397 -3094.207176625891 -3058.1368819370982 -3021.9594796287111 -2985.680605319978 -2949.3059944304905 -2912.8414817425228 -2876.2930008862722 -2839.6665837457822 -2802.9683597832682 -2766.2045552795526 -2729.3814924882677 -2692.5055887014464 -2655.5833552240956 -2618.6213962553002 -2581.6264076733733 -2544.605175722555 -2507.5645755986625 -2470.51156993113 -2433.4532071588137 -2396.3966197968784 -2359.3490225920759 -2322.3177105637114 -2285.3100569274743 -2248.3335108993897 -2211.3955953770205 -2174.503904495069 -2137.6661010524858 -2100.8899138081397 -2064.1831346420995 -2027.5536155795503 -1991.0092656743147 -1954.5580477489382 -1918.2079749882764 -1881.9671073834929 -1845.8435480233516 -1809.8454392296744 -1773.9809585338012 -1738.2583144909004 -1702.685742328938 -1667.2714994291059 -1632.0238606345074 -1596.951113383906 -1562.0615526672966 -1527.3634758000971 -1492.865177012749 -1458.5749418525033 -1424.5010413942207 -1390.6517262569591 -1357.0352204232072 -1323.6597148575966 -1290.5333609219565 -1257.6642635836211 -1225.0604744138959 -1192.7299843736364 -1160.6807163829396 -1128.9205176719533 -1097.4571519098779 -1066.2982911092392 -1035.4515073025598 -1004.9242639885999 -974.72390734533371 -944.85765720685197 -915.33259780140054 -886.15566824772134 -857.33365280683324 -828.87317088633597 -800.78066679416293 -773.06239923858675 -745.72443057103942 -718.77261576796263 -692.2125911475207 -666.04976281641609 -640.28929484131891 -614.936097138489 -589.99481307392216 -565.46980676479075 -541.36515007095693 -517.6846092627776 -494.43163134816757 -471.60933003778098 -449.22047132187743 -427.2674586257732 -405.75231750221207 -384.67667980804049 -364.04176729849138 -343.84837455424849 -324.09685113290914 -304.78708280575381 -285.91847170040359 -267.48991511652457 -249.49978271038012 -231.94589164764258 -214.82547919213675 -198.13517201562374 -181.8709512566324 -166.02811198758485 -150.60121520915155 -135.58402967905312 -120.96945962690668 -106.74945239539946 -92.914876687906485 -79.455356191861355 -66.359032252490763 -53.612206614575861 -41.198763339227355 -29.099128055630693 -17.288010506306904 -5.7254820033352223 
</DataArray>
<DataArray type="Float64" Name="velocity_p0" NumberOfComponents="3" format="ascii">
0 0 2.0807624962381031e-09 0 0 6.2425997666423783e-09 0 0 1.0405373412812878e-08 0 0 1.4569707030931559e-08 0 0 1.873622410439801e-08 0 0 2.2905547958353069e-08 0 0 2.7078301714674235e-08 0 0 3.1255108246673708e-08 0 0 3.5436590134122065e-08 0 0 3.9623369618366138e-08 0 0 4.3816068557378896e-08 0 0 4.8015308381175059e-08 0 0 5.2221710047391384e-08 0 0 5.6435893996699433e-08 0 0 6.0658480109024318e-08 0 0 6.4890087659281549e-08 0 0 6.9131335273906933e-08 0 0 7.3382840887259658e-08 0 0 7.7645221698378148e-08 0 0 8.191909412828141e-08 0 0 8.6205073777075619e-08 0 0 9.050377538156389e-08 0 0 9.4815812773454874e-08 0 0 9.9141798837241799e-08 0 0 1.0348234546923379e-07 0 0 1.0783806353623985e-07 0 0 1.1220956283496262e-07 0 0 1.1659745205175193e-07 0 0 1.2100233872263665e-07 0 0 1.2542482919382328e-07 0 0 1.2986552858248525e-07 0 0 1.3432504073816888e-07 0 0 1.3880396820451965e-07 0 0 1.4330291218138982e-07 0 0 1.4782247248755442e-07 0 0 1.5236324752353655e-07 0 0 1.5692583423532745e-07 0 0 1.6151082807827837e-07 0 0 1.6611882298141877e-07 0 0 1.7075041131265037e-07 0 0 1.7540618384376433e-07 0 0 1.8008672971662821e-07 0 0 1.8479263640930102e-07 0 0 1.8952448970305468e-07 0 0 1.9428287364949683e-07 0 0 1.9906837053846987e-07 0 0 2.0388156086629637e-07 0 0 2.0872302330465826e-07 0 0 2.1359333466964825e-07 0 0 2.1849306989156105e-07 0 0 2.2342280198512176e-07 0 0 2.2838310202014187e-07 0 0 2.3337453909252133e-07 0 0 2.3839768029589211e-07 0 0 2.4345309069362391e-07 0 0 2.4854133329115486e-07 0 0 2.5366296900897355e-07 0 0 2.5881855665587163e-07 0 0 2.640086529023303e-07 0 0 2.692338122548954e-07 0 0 2.7449458703033694e-07 0 0 2.7979152733052451e-07 0 0 2.8512518101734427e-07 0 0 2.9049609368806014e-07 0 0 2.9590480865101689e-07 0 0 3.0135186690150042e-07 0 0 3.0683780709779234e-07 0 0 3.1236316553761252e-07 0 0 3.1792847613444098e-07 0 0 3.2353427039416452e-07 0 0 3.291810773919515e-07 0 0 3.3486942374903315e-07 0 0 3.4059983360920981e-07 0 0 3.4637282861611762e-07 0 0 3.5218892788979102e-07 0 0 3.5804864800325925e-07 0 0 3.6395250295928429e-07 0 0 3.6990100416649654e-07 0 0 3.7589466041584249e-07 0 0 3.8193397785588138e-07 0 0 3.8801945996886275e-07 0 0 3.9415160754514064e-07 0 0 4.0033091865819021e-07 0 0 4.0655788863849288e-07 0 0 4.1283301004674667e-07 0 0 4.1915677264671658e-07 0 0 4.2552966337737644e-07 0 0 4.3195216632347486e-07 0 0 4.3842476268615645e-07 0 0 4.4494793075177899e-07 0 0 4.5152214585991304e-07 0 0 4.5814788037028511e-07 0 0 4.6482560362790272e-07 0 0 4.7155578192732163e-07 0 0 4.783388784748394e-07 0 0 4.8517535334947974e-07 0 0 4.9206566346157597e-07 0 0 4.9901026251021428e-07 0 0 5.0600960093766208e-07 0 0 5.1306412588255475e-07 0 0 5.201742811298979e-07 0 0 5.2734050705894894e-07 0 0 5.345632405881748e-07 0 0 5.4184291511760753e-07 0 0 5.4917996046771159e-07 0 0 5.5657480281547278e-07 0 0 5.6402786462638625e-07 0 0 5.7153956458348966e-07 0 0 5.7911031751174082e-07 0 0 5.8674053429861162e-07 0 0 5.944306218104229e-07 0 0 6.0218098280354837e-07 0 0 6.0999201583095396e-07 0 0 6.1786411514341972e-07 0 0 6.257976705851019e-07 0 0 6.3379306748361793e-07 0 0 6.4185068653301866e-07 0 0 6.4997090367128402e-07 0 0 6.5815408995001618e-07 0 0 6.6640061139701067e-07 0 0 6.7471082887131121e-07 0 0 6.8308509790962658e-07 0 0 6.9152376856448139e-07 0 0 7.0002718523276614e-07 0 0 7.0859568647495054e-07 0 0 7.1722960482392241e-07 0 0 7.2592926658297061e-07 0 0 7.34694991612486e-07 0 0 7.4352709310459637e-07 0 0 7.5242587734504019e-07 0 0 7.6139164346174656e-07 0 0 7.7042468315893475e-07 0 0 7.795252804367607e-07 0 0 7.8869371129475721e-07 0 0 7.9793024341881516e-07 0 0 8.0723513585059869e-07 0 0 8.1660863863815498e-07 0 0 8.2605099246733551e-07 0 0 8.3556242827209617e-07 0 0 8.4514316682321582e-07 0 0 8.5479341829390995e-07 0 0 8.6451338180086064e-07 0 0 8.743032449198015e-07 0 0 8.8416318317376119e-07 0 0 8.9409335949267141e-07 0 0 9.0409392364241015e-07 0 0 9.1416501162204034e-07 0 0 9.2430674502716985e-07 0 0 9.3451923037736101e-07 0 0 9.4480255840571079e-07 0 0 9.5515680330864153e-07 0 0 9.6558202195291929e-07 0 0 9.7607825303872831e-07 0 0 9.8664551621445302e-07 0 0 9.9728381114243029e-07 0 0 1.0079931165110742e-06 0 0 1.0187733889911962e-06 0 0 1.0296245621331208e-06 0 0 1.0405465452011472e-06 0 0 1.0515392219413817e-06 0 0 1.062602449279565e-06 0 0 1.0737360559441519e-06 0 0 1.0849398410108691e-06 0 0 1.0962135723636252e-06 0 0 1.1075569850667991e-06 0 0 1.1189697796442767e-06 0 0 1.1304516202586473e-06 0 0 1.1420021327855014e-06 0 0 1.1536209027760606e-06 0 0 1.1653074733013923e-06 0 0 1.1770613426714306e-06 0 0 1.188881962020928e-06 0 0 1.2007687327541694e-06 0 0 1.2127210038404133e-06 0 0 1.2247380689504505e-06 0 0 1.2368191634249726e-06 0 0 1.2489634610640422e-06 0 0 1.2611700707274522e-06 0 0 1.2734380327338353e-06 0 0 1.2857663150464593e-06 0 0 1.2981538092326128e-06 0 0 1.3105993261827655e-06 0 0 1.3231015915750448e-06 0 0 1.3356592410690815e-06 0 0 1.3482708152130419e-06 0 0 1.3609347540463332e-06 0 0 1.3736493913794873e-06 0 0 1.3864129487316973e-06 0 0 1.3992235289055954e-06 0 0 1.4120791091772869e-06 0 0 1.424977534078572e-06 0 0 1.4379165077479711e-06 0 0 1.4508935858242902e-06 0 0 1.4639061668568789e-06 0 0 1.476951483204476e-06 0 0 1.4900265913936659e-06 0 0 1.5031283619067745e-06 0 0 1.5162534683681146e-06 0 0 1.5293983760957051e-06 0 0 1.5425593299861484e-06 0 0 1.5557323416976185e-06 0 0 1.5689131760972757e-06 0 0 1.5820973369381319e-06 0 0 1.5952800517305597e-06 0 0 1.6084562557747643e-06 0 0 1.6216205753213121e-06 0 0 1.6347673098284091e-06 0 0 1.6478904132880181e-06 0 0 1.6609834745960076e-06 0 0 1.6740396969471355e-06 0 0 1.6870518762418102e-06 0 0 1.7000123785001389e-06 0 0 1.7129131162900242e-06 0 0 1.725745524188734e-06 0 0 1.7385005333150068e-06 0 0 1.751168544988518e-06 0 0 1.7637394035998349e-06 0 0 1.776202368804651e-06 0 0 1.7885460871934241e-06 0 0 1.8007585636344759e-06 0 0 1.8128271325430387e-06 0 0 1.8247384293963253e-06 0 0 1.8364783628952683e-06 0 0 1.8480320882713236e-06 0 0 1.8593839823529557e-06 0 0 1.8705176211483286e-06 0 0 1.8814157608695599e-06 0 0 1.8920603235290172e-06 0 0 1.9024323884845811e-06 0 0 1.9125121916095272e-06 0 0 1.9222791341263266e-06 0 0 1.9317118035873363e-06 0 0 1.9407880100312865e-06 0 0 1.9494848410230712e-06 0 0 1.9577787401365143e-06 0 0 1.9656456145272619e-06 0 0 1.9730609786564983e-06 0 0 1.9800001431065202e-06 0 0 1.9864384600030412e-06 0 0 1.9923516402018188e-06 0 0 1.9977161627643502e-06 0 0 2.0025098055317056e-06 0 0 2.0067123391117742e-06 0 0 2.0103064500752448e-06 0 0 2.0132790032665867e-06 0 0 2.0156228444692242e-06 0 0 2.0173395598829041e-06 0 0 2.0184442208629037e-06 0 0 2.0189755373720958e-06 0 0 2.0190402987239891e-06 
</DataArray>
<DataArray type="Float64" Name="water_content" format="ascii">
0.20877090478911128 0.20877274307297275 0.20877641321004589 0.20878191600706397 0.20878925267383347 0.20879842482353156 0.20880943447310341 0.20882228404375902 0.20883697636157011 0.20885351465816793 0.20887190257154223 0.20889214414694202 0.20891424383787915 0.20893820650723555 0.20896403742847453 0.20899174228695794 0.2090213271813699 0.20905279862524789 0.20908616354862344 0.20912142929977298 0.20915860364708067 0.20919769478101463 0.20923871131621852 0.20928166229371978 0.20932655718325671 0.20937340588572628 0.20942221873575478 0.20947300650439316 0.2095257804019397 0.20958055208089227 0.20963733363903242 0.20969613762264433 0.20975697702987073 0.20981986531420946 0.20988481638815248 0.20995184462697142 0.21002096487265237 0.21009219243798308 0.21016554311079627 0.21024103315837273 0.21031867933200732 0.21039849887174261 0.21048050951127317 0.2105647294830254 0.21065117752341683 0.21073987287829921 0.21083083530859059 0.21092408509610028 0.2110196430495522 0.21111753051081178 0.21121776936132119 0.21132038202874887 0.21142539149385864 0.21153282129760453 0.21164269554845733 0.21175503892996878 0.21186987670858015 0.2119872347416823 0.21210713948593313 0.21222961800584061 0.212354697982618 0.21248240772331967 0.21261277617026458 0.21274583291075652 0.2128816081871085 0.21302013290698119 0.2131614386540438 0.21330555769896647 0.21345252301075485 0.21360236826843571 0.21375512787310491 0.21391083696034796 0.21406953141304413 0.21423124787456588 0.21439602376238537 0.21456389728210029 0.21473490744189178 0.21490909406742728 0.21508649781722239 0.21526716019847542 0.21545112358338947 0.2156384312259968 0.21582912727950135 0.21602325681415574 0.21622086583568889 0.2164220013043022 0.21662671115425203 0.21683504431403705 0.21704705072720953 0.21726278137383115 0.21748228829259331 0.21770562460362375 0.21793284453200168 0.21816400343200454 0.21839915781210972 0.21863836536077694 0.21888168497303592 0.21912917677790689 0.2193809021666806 0.21963692382208755 0.21989730574838495 0.22016211330239324 0.22043141322551357 0.22070527367675932 0.22098376426683661 0.22126695609330899 0.22155492177688357 0.22184773549885725 0.22214547303976273 0.22244821181925567 0.22275603093728663 0.22306901121660189 0.22338723524661996 0.22371078742873157 0.22403975402307386 0.22437422319683031 0.22471428507411051 0.22506003178746598 0.22541155753110037 0.2257689586158344 0.22613233352588874 0.22650178297755019 0.22687740997978864 0.22725931989689635 0.22764762051322113 0.22804242210007208 0.22844383748487407 0.22885198212265584 0.22926697416995628 0.22968893456123629 0.23011798708789094 0.23055425847995492 0.23099787849060294 0.23144897998354669 0.23190769902343705 0.23237417496938184 0.2328485505716949 0.23333097207199696 0.23382158930679181 0.23432055581464781 0.23482802894711785 0.23534416998353724 0.23586914424984282 0.23640312124156254 0.23694627475113023 0.23749878299968483 0.2380608287735195 0.23863259956535171 0.239214287720591 0.23980609058878663 0.24040821068044316 0.24102085582939864 0.24164423936096441 0.24227858026603283 0.24292410338136397 0.24358103957626792 0.2442496259459053 0.24493010601143286 0.24562272992722667 0.24632775469541929 0.24704544438799098 0.24777607037665927 0.24851991157081238 0.24927725466373452 0.25004839438737214 0.25083363377588808 0.25163328443824962 0.25244766684009284 0.25327711059509861 0.2541219547661086 0.25498254817619925 0.25585924972991553 0.25675242874485105 0.25766246529373976 0.25858975055719519 0.25953468718720457 0.26049768968144504 0.26147918476844456 0.26247961180355628 0.26349942317565234 0.26453908472436788 0.26559907616764256 0.26667989153920213 0.26778203963550951 0.26890604447157762 0.27005244574487997 0.27122179930641371 0.27241467763776278 0.2736316703327657 0.27487338458211924 0.27614044565892826 0.27743349740284851 0.27875320270004855 0.28010024395573496 0.28147532355543237 0.28287916431057625 0.28431250988324663 0.28577612518403767 0.28727079673610079 0.28879733299729837 0.29035656463114673 0.29194934471577816 0.29357654887849183 0.29523907534155491 0.2969378448627199 0.2986738005514048 0.30044790753857864 0.30226115247505136 0.30411454282901712 0.30600910594925101 0.30794588785522597 0.3099259517094779 0.31195037592066777 0.31402025181781013 0.31613668082686891 0.31830077107011912 0.32051363329608112 0.32277637603308895 0.3250900998422589 0.32745589052526403 0.32987481111825878 0.33234789247474528 0.33487612220612861 0.33746043170787976 0.34010168094996085 0.34280064065029081 0.34555797137665289 0.3483741990316892 0.35124968606218077 0.35418459759033122 0.35717886148085409 0.36023212111842912 0.36334367935373102 0.36651243165023356 0.36973678587878922 0.37301456538523514 0.37634289077420791 0.37971803410608956 0.3831352365469517 0.38658847633236426 0.3900701670813459 0.3935707548570736 0.39707816147685393 0.40057698167875899 0.40404725950594389 0.40746248210281638 0.41078594213481712 0.41396307807620603 0.41690058350747744 0.41914718411292845 
</DataArray>
<DataArray type="Float64" Name="conductivity_richards" format="ascii">