<?xml version="1.0"?>
<VTKFile type="UnstructuredGrid" version="0.1" byte_order="LittleEndian">
<UnstructuredGrid>
<Piece NumberOfPoints="251" NumberOfCells="250">
<Points>
<DataArray type="Float64" NumberOfComponents="3" format="ascii">
0 0 -0.17099999999979171 0 0 -0.1559999999997522 0 0 -0.15699999999975489 0 0 -0.1579999999997575 0 0 -0.15899999999976011 0 0 -0.1599999999997628 0 0 -0.16099999999976539 0 0 -0.161999999999768 0 0 -0.16299999999977069 0 0 -0.1639999999997733 0 0 -0.16499999999977599 0 0 -0.1659999999997786 0 0 -0.16699999999978121 0 0 -0.16799999999978391 0 0 -0.16899999999978649 0 0 -0.1699999999997891 0 0 -0.15499999999974959 0 0 -0.1719999999997944 0 0 -0.17299999999979701 0 0 -0.1739999999997997 0 0 -0.17499999999980231 0 0 -0.17599999999980501 0 0 -0.17699999999980759 0 0 -0.1779999999998102 0 0 -0.17899999999981281 0 0 -0.1799999999998155 0 0 -0.18099999999981811 0 0 -0.18199999999982069 0 0 -0.18299999999982339 0 0 -0.183999999999826 0 0 -0.18499999999982869 0 0 -0.1859999999998313 0 0 -0.13999999999971011 0 0 -0.12499999999967321 0 0 -0.12599999999967451 0 0 -0.12699999999967579 0 0 -0.1279999999996784 0 0 -0.12899999999968109 0 0 -0.1299999999996837 0 0 -0.13099999999968631 0 0 -0.13199999999968889 0 0 -0.13299999999969159 0 0 -0.1339999999996942 0 0 -0.13499999999969689 0 0 -0.1359999999996995 0 0 -0.13699999999970211 0 0 -0.1379999999997048 0 0 -0.13899999999970741 0 0 -0.18699999999983391 0 0 -0.14099999999971269 0 0 -0.1419999999997153 0 0 -0.14299999999971799 0 0 -0.1439999999997206 0 0 -0.14499999999972321 0 0 -0.14599999999972579 0 0 -0.14699999999972849 0 0 -0.1479999999997311 0 0 -0.14899999999973379 0 0 -0.1499999999997364 0 0 -0.15099999999973901 0 0 -0.1519999999997417 0 0 -0.15299999999974431 0 0 -0.15399999999974701 0 0 -0.2339999999999578 0 0 -0.21899999999991829 0 0 -0.2199999999999209 0 0 -0.22099999999992359 0 0 -0.2219999999999262 0 0 -0.22299999999992881 0 0 -0.22399999999993139 0 0 -0.22499999999993411 0 0 -0.2259999999999367 0 0 -0.22699999999993939 0 0 -0.227999999999942 0 0 -0.22899999999994469 0 0 -0.2299999999999473 0 0 -0.23099999999994991 0 0 -0.23199999999995249 0 0 -0.23299999999995519 0 0 -0.21799999999991571 0 0 -0.23499999999996049 0 0 -0.2359999999999631 0 0 -0.23699999999996571 0 0 -0.2379999999999684 0 0 -0.23899999999997101 0 0 -0.2399999999999736 0 0 -0.24099999999997629 0 0 -0.2419999999999789 0 0 -0.24299999999998159 0 0 -0.2439999999999842 0 0 -0.24499999999998681 0 0 -0.24599999999998939 0 0 -0.24699999999999209 0 0 -0.2479999999999947 0 0 -0.24899999999999739 0 0 -0.20299999999987611 0 0 -0.1879999999998366 0 0 -0.18899999999983921 0 0 -0.18999999999984191 0 0 -0.19099999999984449 0 0 -0.1919999999998471 0 0 -0.19299999999984971 0 0 -0.1939999999998524 0 0 -0.19499999999985501 0 0 -0.1959999999998577 0 0 -0.19699999999986029 0 0 -0.19799999999986301 0 0 -0.19899999999986559 0 0 -0.1999999999998682 0 0 -0.20099999999987081 0 0 -0.2019999999998735 0 0 -0.1239999999996748 0 0 -0.20399999999987881 0 0 -0.20499999999988139 0 0 -0.205999999999884 0 0 -0.20699999999988669 0 0 -0.2079999999998893 0 0 -0.20899999999989191 0 0 -0.2099999999998946 0 0 -0.21099999999989719 0 0 -0.21199999999989991 0 0 -0.21299999999990249 0 0 -0.2139999999999051 0 0 -0.21499999999990771 0 0 -0.2159999999999104 0 0 -0.21699999999991301 0 0 -0.045999999999900919 0 0 -0.03099999999994377 0 0 -0.031999999999941367 0 0 -0.032999999999938787 0 0 -0.033999999999935943 0 0 -0.034999999999933022 0 0 -0.035999999999930102 0 0 -0.036999999999927188 0 0 -0.037999999999924268 0 0 -0.038999999999921348 0 0 -0.039999999999918427 0 0 -0.040999999999915507 0 0 -0.041999999999912593 0 0 -0.042999999999909673 0 0 -0.043999999999906753 0 0 -0.044999999999903832 0 0 -0.02999999999994565 0 0 -0.046999999999897998 0 0 -0.047999999999895078 0 0 -0.048999999999892158 0 0 -0.049999999999889237 0 0 -0.050999999999886317 0 0 -0.051999999999883403 0 0 -0.052999999999880483 0 0 -0.053999999999877563 0 0 -0.054999999999874642 0 0 -0.055999999999871722 0 0 -0.056999999999868801 0 0 -0.057999999999865881 0 0 -0.058999999999862961 0 0 -0.059999999999860047 0 0 -0.060999999999857127 0 0 -0.014999999999969531 0 0 -0.25 0 0 -0.00099999999999810158 0 0 -0.001999999999996204 0 0 -0.0029999999999943271 0 0 -0.0039999999999924488 0 0 -0.004999999999990571 0 0 -0.0059999999999886811 0 0 -0.0069999999999867156 0 0 -0.007999999999984719 0 0 -0.008999999999982581 0 0 -0.0099999999999804221 0 0 -0.010999999999978201 0 0 -0.011999999999975971 0 0 -0.01299999999997375 0 0 -0.01399999999997158 0 0 -0.061999999999854213 0 0 -0.01599999999996761 0 0 -0.0169999999999659 0 0 -0.01799999999996427 0 0 -0.018999999999962731 0 0 -0.019999999999961209 0 0 -0.020999999999959669 0 0 -0.02199999999995814 0 0 -0.022999999999956611 0 0 -0.023999999999955082 0 0 -0.024999999999953549 0 0 -0.02599999999995202 0 0 -0.02699999999995048 0 0 -0.027999999999948951 0 0 -0.028999999999947419 0 0 -0.1089999999997172 0 0 -0.093999999999760914 0 0 -0.094999999999758 0 0 -0.095999999999755073 0 0 -0.096999999999752159 0 0 -0.097999999999749246 0 0 -0.098999999999746333 0 0 -0.099999999999743419 0 0 -0.10099999999974051 0 0 -0.10199999999973761 0 0 -0.10299999999973471 0 0 -0.10399999999973179 0 0 -0.1049999999997288 0 0 -0.1059999999997259 0 0 -0.106999999999723 0 0 -0.1079999999997201 0 0 -0.092999999999763827 0 0 -0.1099999999997143 0 0 -0.1109999999997113 0 0 -0.1119999999997084 0 0 -0.1129999999997055 0 0 -0.1139999999997026 0 0 -0.1149999999996997 0 0 -0.1159999999996968 0 0 -0.11699999999969379 0 0 -0.11799999999969089 0 0 -0.11899999999968799 0 0 -0.11999999999968509 0 0 -0.1209999999996822 0 0 -0.1219999999996793 0 0 -0.1229999999996764 0 0 -0.077999999999807557 0 0 -0.062999999999851286 0 0 -0.063999999999848373 0 0 -0.064999999999845445 0 0 -0.065999999999842532 0 0 -0.066999999999839618 0 0 -0.067999999999836705 0 0 -0.068999999999833792 0 0 -0.069999999999830878 0 0 -0.070999999999827965 0 0 -0.071999999999825051 0 0 -0.072999999999822124 0 0 -0.07399999999981921 0 0 -0.074999999999816297 0 0 -0.075999999999813383 0 0 -0.07699999999981047 0 0 0 0 0 -0.078999999999804643 0 0 -0.07999999999980173 0 0 -0.080999999999798802 0 0 -0.081999999999795889 0 0 -0.082999999999792975 0 0 -0.083999999999790062 0 0 -0.084999999999787149 0 0 -0.085999999999784235 0 0 -0.086999999999781322 0 0 -0.087999999999778394 0 0 -0.088999999999775481 0 0 -0.089999999999772567 0 0 -0.090999999999769654 0 0 -0.091999999999766741 
</DataArray>
</Points>
<Cells>
<DataArray type="UInt32" Name="connectivity" format="ascii">
17 18 2 3 3 4 4 5 5 6 6 7 7 8 8 9 9 10 10 11 11 12 12 13 13 14 14 15 15 0 0 17 1 2 18 19 19 20 20 21 21 22 22 23 23 24 24 25 25 26 26 27 27 28 28 29 29 30 30 31 31 48 48 96 49 50 34 35 35 36 36 37 37 38 38 39 39 40 40 41 41 42 42 43 43 44 44 45 45 46 46 47 47 32 32 49 96 97 50 51 51 52 52 53 53 54 54 55 55 56 56 57 57 58 58 59 59 60 60 61 61 62 62 16 16 1 80 81 65 66 66 67 67 68 68 69 69 70 70 71 71 72 72 73 73 74 74 75 75 76 76 77 77 78 78 63 63 80 64 65 81 82 82 83 83 84 84 85 85 86 86 87 87 88 88 89 89 90 90 91 91 92 92 93 93 94 94 159 112 113 97 98 98 99 99 100 100 101 101 102 102 103 103 104 104 105 105 106 106 107 107 108 108 109 109 110 110 95 95 112 33 34 113 114 114 115 115 116 116 117 117 118 118 119 119 120 120 121 121 122 122 123 123 124 124 125 125 79 79 64 143 144 128 129 129 130 130 131 131 132 132 133 133 134 134 135 135 136 136 137 137 138 138 139 139 140 140 141 141 126 126 143 127 128 144 145 145 146 146 147 147 148 148 149 149 150 150 151 151 152 152 153 153 154 154 155 155 156 156 157 157 174 174 221 175 176 160 161 161 162 162 163 163 164 164 165 165 166 166 167 167 168 168 169 169 170 170 171 171 172 172 173 173 158 158 175 221 222 176 177 177 178 178 179 179 180 180 181 181 182 182 183 183 184 184 185 185 186 186 187 187 188 188 142 142 127 206 207 191 192 192 193 193 194 194 195 195 196 196 197 197 198 198 199 199 200 200 201 201 202 202 203 203 204 204 189 189 206 190 191 207 208 208 209 209 210 210 211 211 212 212 213 213 214 214 215 215 216 216 217 217 218 218 219 219 111 111 33 237 238 222 223 223 224 224 225 225 226 226 227 227 228 228 229 229 230 230 231 231 232 232 233 233 234 234 235 235 220 220 237 236 160 238 239 239 240 240 241 241 242 242 243 243 244 244 245 245 246 246 247 247 248 248 249 249 250 250 205 205 190 
</DataArray>
<DataArray type="UInt32" Name="offsets" format="ascii">
2 4 6 8 10 12 14 16 18 20 22 24 26 28 30 32 34 36 38 40 42 44 46 48 50 52 54 56 58 60 62 64 66 68 70 72 74 76 78 80 82 84 86 88 90 92 94 96 98 100 102 104 106 108 110 112 114 116 118 120 122 124 126 128 130 132 134 136 138 140 142 144 146 148 150 152 154 156 158 160 162 164 166 168 170 172 174 176 178 180 182 184 186 188 190 192 194 196 198 200 202 204 206 208 210 212 214 216 218 220 222 224 226 228 230 232 234 236 238 240 242 244 246 248 250 252 254 256 258 260 262 264 266 268 270 272 274 276 278 280 282 284 286 288 290 292 294 296 298 300 302 304 306 308 310 312 314 316 318 320 322 324 326 328 330 332 334 336 338 340 342 344 346 348 350 352 354 356 358 360 362 364 366 368 370 372 374 376 378 380 382 384 386 388 390 392 394 396 398 400 402 404 406 408 410 412 414 416 418 420 422 424 426 428 430 432 434 436 438 440 442 444 446 448 450 452 454 456 458 460 462 464 466 468 470 472 474 476 478 480 482 484 486 488 490 492 494 496 498 500 
</DataArray>
<DataArray type="UInt32" Name="types" format="ascii">
3 3 3 3 3 3 3 3 3 3 3 3 3 3 3 3 3 3 3 3 3 3 3 3 3 3 3 3 3 3 3 3 3 3 3 3 3 3 3 3 3 3 3 3 3 3 3 3 3 3 3 3 3 3 3 3 3 3 3 3 3 3 3 3 3 3 3 3 3 3 3 3 3 3 3 3 3 3 3 3 3 3 3 3 3 3 3 3 3 3 3 3 3 3 3 3 3 3 3 3 3 3 3 3 3 3 3 3 3 3 3 3 3 3 3 3 3 3 3 3 3 3 3 3 3 3 3 3 3 3 3 3 3 3 3 3 3 3 3 3 3 3 3 3 3 3 3 3 3 3 3 3 3 3 3 3 3 3 3 3 3 3 3 3 3 3 3 3 3 3 3 3 3 3 3 3 3 3 3 3 3 3 3 3 3 3 3 3 3 3 3 3 3 3 3 3 3 3 3 3 3 3 3 3 3 3 3 3 3 3 3 3 3 3 3 3 3 3 3 3 3 3 3 3 3 3 3 3 3 3 3 3 3 3 3 3 3 3 3 3 3 3 3 3 3 3 3 3 3 3 
</DataArray>
</Cells>
<CellData Scalars="pressure_p0,water_content,conductivity_richards," Vectors="velocity_p0," Tensors="">
<DataArray type="Float64" Name="pressure_p0" format="ascii">
-3327.8435826643654 -4067.0423994915091 -4020.6434791572678 -3973.7934169264636 -3926.4999398669192 -3878.7712301861748 -3830.6159316786307 -3782.0431558901328 -3733.0624879787956 -3683.6839922502631 -3633.9182173448125 -3583.7762010529568 -3533.2694747355072 -3482.4100673232015 -3431.2105088702961 -3379.6838336356923 -4112.9828992917828 -3275.7038058410244 -3223.2790633871446 -3170.5844267716275 -3117.6354790045189 -3064.4483142823274 -3011.0395369526191 -2957.426259764713 -2903.6261013723574 -2849.6571830533967 -2795.5381246105344 -2741.2880394164249 -2686.926528565331 -2632.4736740927647 -2577.9500312235687 -2523.3766196079923 -4743.4166418316163 -5258.1333287028283 -5227.4254600542008 -5196.2099846842721 -5164.4844859637451 -5132.2467488257098 -5099.4947677824857 -5066.2267550310999 -5032.4411486422132 -4998.1366208268355 -4963.3120862749338 -4927.9667105595954 -4892.0999186000663 -4855.7114031766178 -4818.8011334897647 -4781.3693637559772 -2468.7749135044705 -4704.9438178563796 -4665.9520529071515 -4626.4428276526151 -4586.4179509986225 -4545.879568713799 -4504.830172024378 -4463.2726061667545 -4421.2100788857751 -4378.6461688662393 -4335.5848340845487 -4292.030420066927 -4247.987668040033 -4203.4617229592513 -4158.458141399381 -319.31000666061976 -852.16558979922138 -810.48923618190986 -769.62240598041217 -729.58467778708984 -690.39463419862614 -652.06978032819165 -614.62645959355677 -578.07976671969402 -542.44345787129816 -507.72985779586907 -473.94976380657999 -441.11234635887536 -409.22504586528885 -378.29346523396578 -348.32125738502913 -894.63097105469399 -291.25910254551542 -264.16560337092574 -238.0240865466472 -212.82648012538479 -188.56186774711438 -165.21625451438598 -142.77227372544942 -121.20880082585167 -100.5004152485798 -80.616597990604191 -61.520431105567276 -43.166233517333382 -25.494357340713719 -8.4102211527003963 -1610.3677867671129 -2414.1668308668254 -2359.5747212928318 -2305.0213527901697 -2250.5298973149538 -2196.1239150372376 -2141.8273372870594 -2087.6644481338681 -2033.6598645514623 -1979.8385151198822 -1926.225617215104 -1872.8466526368256 -1819.7273416241337 -1766.8936152084941 -1714.3715858531389 -1662.1875163277309 -5288.3362008986587 -1558.9388598629407 -1507.9272441371709 -1457.3594552467152 -1407.2619752689807 -1357.6612099187198 -1308.5834436474643 -1260.0547925777551 -1212.1011552257307 -1164.7481609669935 -1118.0211162023461 -1071.9449481818433 -1026.5441464475502 -981.8427018575303 -937.86404315575442 -6454.3208882242825 -6511.4177673556023 -6508.4765165599911 -6505.4220194980226 -6502.2520895457164 -6498.9644727318228 -6495.5568475787959 -6492.0268249543142 -6488.3719479346091 -6484.5896916809425 -6480.6774633306031 -6476.6326019038015 -6472.4523782279102 -6468.1339948805207 -6463.6745861528289 -6459.0712180348819 -6514.2478913298673 -6449.4205261599482 -6444.3669930825836 -6439.1570821235646 -6433.7875184239283 -6428.2549592852365 -6422.5559943540939 -6416.6871458421429 -6410.6448687833818 -6404.4255513306907 -6398.0255150934709 -6391.4410155183377 -6384.6682423148613 -6377.7033199283187 -6370.5423080614992 -6363.181202247617 -6544.6023703035698 -6555.2939927459902 -6555.1375937560188 -6554.9033391387729 -6554.5910415021845 -6554.2004509350163 -6553.7312549604831 -6553.1830784785416 -6552.5554836970095 -6551.8479700517273 -6551.0599741160304 -6550.190869499761 -6549.2399667381633 -6548.2065131710096 -6547.0896928123184 -6545.8886262110991 -6355.6159344764001 -6543.2299182573361 -6541.77019930804 -6540.2220785890659 -6538.5843569548633 -6536.8557707985437 -6535.0349918644069 -6533.1206270560888 -6531.1112182410743 -6529.0052420523652 -6526.8011096880655 -6524.4971667098089 -6522.0916928408205 -6519.5829017646065 -6516.968940925186 -5683.0591986550353 -5978.44670032875 -5961.5120931998936 -5944.2062786272863 -5926.5239333157151 -5908.4597467834537 -5890.0084254709345 -5871.1646969794056 -5851.9233144407681 -5832.2790610196353 -5812.2267545485574 -5791.7612522972449 -5770.8774558764981 -5749.5703162774671 -5727.8348390466435 -5705.6660895969417 -5995.0154321426462 -5660.0093678449539 -5636.5118754078439 -5612.5620820575532 -5588.1554369715977 -5563.2874839168308 -5537.9538675090116 -5512.1503396052121 -5485.8727658278531 -5459.1171322189239 -5431.8795520227168 -5404.1562725952026 -5375.9436824379463 -5347.2383183541479 -5318.0368727243376 -6203.2527897309956 -6347.8423738754573 -6339.8563274490252 -6331.6535408762866 -6323.2296993713608 -6314.5804286071743 -6305.7012957054158 -6296.5878102947563 -6287.2354256395865 -6277.6395398414879 -6267.7954971156587 -6257.6985891445947 -6247.3440565112196 -6236.7270902137734 -6225.8428332646645 -6214.686382375563 -6555.3726610164886 -6191.5370648526568 -6179.5341765566609 -6167.2390550059936 -6154.6465938602987 -6141.7516525252395 -6128.5490585035532 -6115.0336098499411 -6101.2000777318899 -6087.0432090985141 -6072.5577294594177 -6057.7383457755896 -6042.579749464272 -6027.0766195196848 -6011.2236257514705 
</DataArray>
<DataArray type="Float64" Name="velocity_p0" NumberOfComponents="3" format="ascii">
0 0 1.1997538493820149e-06 0 0 9.2564219249682255e-07 0 0 9.4233381626932177e-07 0 0 9.5924601205515995e-07 0 0 9.7638014274783422e-07 0 0 9.9373754448344844e-07 0 0 1.011319524781028e-06 0 0 1.0291273605435088e-06 0 0 1.0471622959109717e-06 0 0 1.0654255399525186e-06 0 0 1.0839182641840383e-06 0 0 1.1026415998990535e-06 0 0 1.1215966352954057e-06 0 0 1.1407844123840354e-06 0 0 1.1602059236594841e-06 0 0 1.1798621085153532e-06 0 0 9.0916975282041397e-07 0 0 1.2198819675656095e-06 0 0 1.2402472187629253e-06 0 0 1.2608502882261359e-06 0 0 1.2816917855489766e-06 0 0 1.3027722390426865e-06 0 0 1.3240920896687814e-06 0 0 1.3456516844907266e-06 0 0 1.3674512696064182e-06 0 0 1.3894909825166603e-06 0 0 1.4117708438835578e-06 0 0 1.4342907486271541e-06 0 0 1.4570504563049336e-06 0 0 1.4800495807138227e-06 0 0 1.5032875786479261e-06 0 0 1.5267637377420546e-06 0 0 6.8738107318732105e-07 0 0 5.0934649912845673e-07 0 0 5.1996577543462228e-07 0 0 5.3075626543094043e-07 0 0 5.4171966701445771e-07 0 0 5.5285767552267928e-07 0 0 5.6417198340147101e-07 0 0 5.756642798623461e-07 0 0 5.8733625052790658e-07 0 0 5.9918957706547131e-07 0 0 6.1122593680573991e-07 0 0 6.234470023472785e-07 0 0 6.3585444114369632e-07 0 0 6.4844991507300696e-07 0 0 6.6123507998690911e-07 0 0 6.7421158523870027e-07 0 0 1.5504771633196813e-06 0 0 7.0074517867571461e-07 0 0 7.1430552848130617e-07 0 0 7.2806374073604266e-07 0 0 7.4202142431302786e-07 0 0 7.561801781776056e-07 0 0 7.7054159069891723e-07 0 0 7.8510723891973993e-07 0 0 7.9987868777978958e-07 0 0 8.1485748928945856e-07 0 0 8.3004518164975335e-07 0 0 8.4544328831357985e-07 0 0 8.6105331698408728e-07 0 0 8.7687675854445795e-07 0 0 8.9291508591312538e-07 0 0 2.798957022317185e-06 0 0 2.4108194622865948e-06 0 0 2.439082379938492e-06 0 0 2.4672081047659376e-06 0 0 2.495160501255311e-06 0 0 2.5229003425033317e-06 0 0 2.5503850745256085e-06 0 0 2.5775685699500842e-06 0 0 2.6044008731182789e-06 0 0 2.6308279396211251e-06 0 0 2.6567913746149124e-06 0 0 2.6822281759823174e-06 0 0 2.7070704906449484e-06 0 0 2.731245395240173e-06 0 0 2.7546747161507996e-06 0 0 2.7772749087759412e-06 0 0 2.3824526197474107e-06 0 0 2.8196267847158494e-06 0 0 2.8391848534307386e-06 0 0 2.8575272925579089e-06 0 0 2.8745463570584178e-06 0 0 2.8901316933883826e-06 0 0 2.9041721076465456e-06 0 0 2.9165581170321506e-06 0 0 2.9271856076700536e-06 0 0 2.9359611161601946e-06 0 0 2.9428096453998764e-06 0 0 2.9476868429944977e-06 0 0 2.9505999847692881e-06 0 0 2.9516525440616478e-06 0 0 2.9512394322630593e-06 0 0 1.9604483509075206e-06 0 0 1.5744267641646046e-06 0 0 1.5986112371186238e-06 0 0 1.6230290504084737e-06 0 0 1.6476784255881487e-06 0 0 1.6725573179790481e-06 0 0 1.6976633954754544e-06 0 0 1.7229940155723726e-06 0 0 1.7485462004606823e-06 0 0 1.7743166100193492e-06 0 0 1.8003015125186695e-06 0 0 1.8264967528343648e-06 0 0 1.8528977179517281e-06 0 0 1.8794992995203413e-06 0 0 1.9062958532001424e-06 0 0 1.9332811545150306e-06 0 0 4.9889673637857441e-07 0 0 1.9877899096609872e-06 0 0 2.0152975613296461e-06 0 0 2.0429622382857324e-06 0 0 2.0707740079655676e-06 0 0 2.0987220003615269e-06 0 0 2.1267943292777605e-06 0 0 2.1549780068340689e-06 0 0 2.1832588506700237e-06 0 0 2.2116213832740866e-06 0 0 2.2400487228336152e-06 0 0 2.268522464982707e-06 0 0 2.297022554811021e-06 0 0 2.3255271484946476e-06 0 0 2.3540124639250047e-06 0 0 6.976745231578818e-08 0 0 4.1456640280062824e-08 0 0 4.3082740291332971e-08 0 0 4.4741402604431017e-08 0 0 4.6433700576621008e-08 0 0 4.8160715942604888e-08 0 0 4.9923538977960454e-08 0 0 5.172326865533053e-08 0 0 5.3561012795492504e-08 0 0 5.543788821024091e-08 0 0 5.7355020840029778e-08 0 0 5.9313545883575102e-08 0 0 6.1314607921759895e-08 0 0 6.3359361033442996e-08 0 0 6.5448968905026933e-08 0 0 6.7584604932368154e-08 0 0 3.9862037421431964e-08 0 0 7.1998704148019504e-08 0 0 7.4279563493957564e-08 0 0 7.6611243464174484e-08 0 0 7.899496728008223e-08 0 0 8.143196833259564e-08 0 0 8.3923490232116496e-08 0 0 8.6470786852404935e-08 0 0 8.9075122365645172e-08 0 0 9.1737771270934897e-08 0 0 9.4460018415047996e-08 0 0 9.7243159005271311e-08 0 0 1.0008849861511323e-07 0 0 1.029973531828224e-07 0 0 1.0597104900164696e-07 0 0 1.0901092270365412e-07 0 0 1.9021271592205602e-08 0 0 1.6667595877378225e-09 0 0 2.7794684892198237e-09 0 0 3.8944814954942484e-09 0 0 5.0127211555083177e-09 0 0 6.135111007171109e-09 0 0 7.2625758579448372e-09 0 0 8.3960420653813132e-09 0 0 9.5364378159136819e-09 0 0 1.0684693402875089e-08 0 0 1.1841741501692779e-08 0 0 1.3008517445363646e-08 0 0 1.4185959495788131e-08 0 0 1.5375009114512366e-08 0 0 1.6576611230160916e-08 0 0 1.7791714504168429e-08 0 0 1.1211832123519163e-07 0 0 2.0266239404789483e-08 0 0 2.1527579362709796e-08 0 0 2.2806257650400262e-08 0 0 2.4103245465159667e-08 0 0 2.5419519262827121e-08 0 0 2.6756060999212462e-08 0 0 2.811385836843856e-08 0 0 2.949390503539114e-08 0 0 3.0897200865401306e-08 0 0 3.2324752148116953e-08 0 0 3.3777571816671586e-08 0 0 3.5256679663115965e-08 0 0 3.6763102546702403e-08 0 0 3.82978745988312e-08 0 0 3.6133245574563318e-07 0 0 2.5578315743984689e-07 0 0 2.6193761503612983e-07 0 0 2.6821091529030945e-07 0 0 2.746047005338695e-07 0 0 2.8112061848915151e-07 0 0 2.8776032205246573e-07 0 0 2.9452546907465659e-07 0 0 3.0141772213820158e-07 0 0 3.0843874833313016e-07 0 0 3.1559021902995054e-07 0 0 3.2287380965121966e-07 0 0 3.3029119943990686e-07 0 0 3.3784407122664835e-07 0 0 3.4553411119475361e-07 0 0 3.5336300864266469e-07 0 0 2.497459057761366e-07 0 0 3.6944414731366664e-07 0 0 3.7769978054914099e-07 0 0 3.8610105480091545e-07 0 0 3.9464967131693927e-07 0 0 4.0334733299476204e-07 0 0 4.1219574412854044e-07 0 0 4.211966101545873e-07 0 0 4.3035163739328666e-07 0 0 4.3966253278806784e-07 0 0 4.491310036414043e-07 0 0 4.5875875734666205e-07 0 0 4.6854750111604075e-07 0 0 4.7849894170460438e-07 0 0 4.8861478512839593e-07 0 0 1.7215840103693529e-07 0 0 1.1529460182623789e-07 0 0 1.1854113195130043e-07 0 0 1.2185928928344893e-07 0 0 1.2525046164234692e-07 0 0 1.2871604693309375e-07 0 0 1.3225745308041034e-07 0 0 1.358760979542427e-07 0 0 1.3957340928899859e-07 0 0 1.4335082459708445e-07 0 0 1.4720979107441342e-07 0 0 1.511517655004592e-07 0 0 1.5517821413159718e-07 0 0 1.5929061258812297e-07 0 0 1.6349044573554834e-07 0 0 1.6777920756007557e-07 0 0 5.5543294874760898e-10 0 0 1.7662953799517216e-07 0 0 1.8119413897511701e-07 0 0 1.8585373308128496e-07 0 0 1.9060985783021426e-07 0 0 1.9546405899238571e-07 0 0 2.004178904302802e-07 0 0 2.0547291393112286e-07 0 0 2.106306990349081e-07 0 0 2.1589282285816172e-07 0 0 2.212608699139573e-07 0 0 2.2673643192644231e-07 0 0 2.3232110764325556e-07 0 0 2.3801650264258458e-07 0 0 2.4382422913744386e-07 
</DataArray>
<DataArray type="Float64" Name="water_content" format="ascii">
0.23258209288781873 0.22376292416462484 0.22425779028951062 0.22476450084340452 0.22528335926131487 0.22581467862216148 0.22635878204267451 0.22691600309029772 0.22748668621611479 0.2280711872088734 0.22866987367124464 0.22928312551951896 0.22991133550800996 0.23055490977950788 0.23121426844320209 0.23188984618157044 0.22327960830179483 0.23329147433554007 0.23401847288235794 0.23476358820941068 0.23552733809863721 0.23631025924992771 0.23711290814031 0.23793586192745342 0.2387797193998884 0.23964510197645242 0.24053265475759503 0.24144304763128971 0.24237697643641956 0.24333516418661932 0.24431836235766502 0.24532735224160823 0.21724046084615317 0.21298955481427106 0.21322874195246339 0.21347363860863791 0.21372437424140001 0.21398108150832013 0.21424389636814029 0.21451295818719021 0.2147884098502082 0.21507039787577198 0.21535907253655501 0.21565458798463494 0.21595710238209292 0.21626677803715477 0.21658378154613764 0.21690828394148082 0.24636294637094341 0.21758049263474549 0.21792856460157267 0.21828486713612807 0.21864959590625113 0.21902295204938776 0.21940514237234587 0.21979637955996784 0.22019688239316745 0.22060687597680173 0.22102659197787461 0.22145626887459768 0.2218961522168621 0.22234649489870689 0.22280755744340128 0.35198373761224599 0.30078160491509742 0.30347619465822967 0.30625906726835861 0.30913350690711794 0.31210286979974222 0.31517056919592623 0.31834005548463118 0.32161479030458079 0.32499821321702294 0.328493699161027 0.33210450447264062 0.33583369868804935 0.33968407862585459 0.34365806029481788 0.3477575429124603 0.29817209707234771 0.35633695105184104 0.36081631076992771 0.3654194141984024 0.37014187571159596 0.37497673413610927 0.37991366319231423 0.38493789211223428 0.39002867721639262 0.39515702935614117 0.40028209476711363 0.40534479100497034 0.41025479098724787 0.41485591022392704 0.41852700173964663 0.2673612007334914 0.24742599001617788 0.24851736276023334 0.24963798015314459 0.25078879545052524 0.251970801439235 0.25318503235359641 0.25443256588536206 0.25571452529040206 0.25703208159476165 0.25838645590229331 0.2597789218054799 0.26121080790029821 0.26268350040498578 0.26419844588132513 0.26575715405548517 0.21275595083623788 0.26901223080395575 0.27071196131767306 0.27246218462996297 0.27426477158706219 0.27612167473225047 0.27803493150052461 0.28000666736223379 0.28203909886582645 0.28413453651734788 0.28629538741905214 0.28852415757087091 0.29082345371576923 0.29319598458229501 0.29564456134378669 0.20480761630705502 0.20446420796937587 0.20448180814509465 0.2045000962567759 0.20451908658438211 0.20453879388980084 0.20455923342229351 0.20458042092411222 0.20460237263628595 0.20462510530457872 0.20464863618562074 0.20467298305321541 0.20469816420482406 0.20472419846823139 0.20475110520839335 0.20477890433447135 0.20444728192629993 0.20483726214557724 0.20486786343592478 0.20489944233824803 0.20493202159497398 0.20496562453902695 0.20500027510226071 0.20503599782410731 0.20507281786044798 0.20511076099271019 0.20514985363719804 0.20519012285466073 0.20523159636010618 0.20527430253286605 0.20531827042691919 0.20536352978148162 0.2042663043495837 0.2042028033318837 0.20420373132470077 0.20420512132415866 0.20420697450275466 0.20420929242444924 0.20421207704527605 0.20421533071410408 0.20421905617355257 0.20422325656105822 0.20422793541009499 0.20423309665154621 0.20423874461523001 0.20424488403157637 0.20425152003345798 0.20425865815817346 0.20541011103186979 0.20427446496040147 0.20428314675463422 0.20429235691018055 0.20430210302158058 0.20431239310291993 0.20432323559088861 0.2043346393479939 0.20434661366592929 0.20435916826909789 0.20437231331829248 0.20438605941453197 0.20440041760305511 0.20441539937747163 0.20443101668407265 0.20984443080440374 0.20782210581403282 0.20793472842819585 0.20805022318866029 0.20816865475494153 0.20829008916938604 0.20841459388942826 0.20854223782096451 0.20867309135289058 0.2088072263928516 0.20894471640425566 0.2090856364446039 0.20923006320519261 0.20937807505224601 0.20952975206954011 0.20968517610258092 0.20771229203830244 0.21000760168306298 0.21017477615088445 0.21034604357555675 0.2105214953331408 0.21070122486308068 0.21088532772530261 0.2110739016594933 0.21126704664665275 0.21146486497302128 0.21166746129648556 0.21187494271557281 0.21208741884114823 0.21230500187093579 0.21252780666698795 0.20636290702034832 0.20545804532064632 0.20550736450905632 0.205558101188764 0.20561028869389836 0.20566396111341917 0.20571915330381271 0.20577590090212969 0.2058342403393757 0.20589420885426762 0.20595584450736859 0.20601918619561446 0.20608427366724691 0.20615114753716723 0.20621984930272663 0.20629042135996992 0.20420233656421577 0.2064373505279205 0.2065137970770598 0.2065922928306875 0.20667288493905223 0.20675562155907701 0.20684055187429645 0.2069277261154068 0.20701719558145401 0.20710901266168427 0.20720323085808467 0.20729990480864069 0.20739909031134041 0.20750084434895491 0.20760522511462731 
</DataArray>
<DataArray type="Float64" Name="conductivity_richards" format="ascii">