<?xml version="1.0"?>
<VTKFile type="UnstructuredGrid" version="0.1" byte_order="LittleEndian">
<UnstructuredGrid>
<Piece NumberOfPoints="251" NumberOfCells="250">
<Points>
<DataArray type="Float64" NumberOfComponents="3" format="ascii">
0 0 0 0 0 -0.25 0 0 -0.00099999999999810158 0 0 -0.001999999999996204 0 0 -0.0029999999999943271 0 0 -0.0039999999999924488 0 0 -0.004999999999990571 0 0 -0.0059999999999886811 0 0 -0.0069999999999867156 0 0 -0.007999999999984719 0 0 -0.008999999999982581 0 0 -0.0099999999999804221 0 0 -0.010999999999978201 0 0 -0.011999999999975971 0 0 -0.01299999999997375 0 0 -0.01399999999997158 0 0 -0.014999999999969531 0 0 -0.01599999999996761 0 0 -0.0169999999999659 0 0 -0.01799999999996427 0 0 -0.018999999999962731 0 0 -0.019999999999961209 0 0 -0.020999999999959669 0 0 -0.02199999999995814 0 0 -0.022999999999956611 0 0 -0.023999999999955082 0 0 -0.024999999999953549 0 0 -0.02599999999995202 0 0 -0.02699999999995048 0 0 -0.027999999999948951 0 0 -0.028999999999947419 0 0 -0.02999999999994565 0 0 -0.03099999999994377 0 0 -0.031999999999941367 0 0 -0.032999999999938787 0 0 -0.033999999999935943 0 0 -0.034999999999933022 0 0 -0.035999999999930102 0 0 -0.036999999999927188 0 0 -0.037999999999924268 0 0 -0.038999999999921348 0 0 -0.039999999999918427 0 0 -0.040999999999915507 0 0 -0.041999999999912593 0 0 -0.042999999999909673 0 0 -0.043999999999906753 0 0 -0.044999999999903832 0 0 -0.045999999999900919 0 0 -0.046999999999897998 0 0 -0.047999999999895078 0 0 -0.048999999999892158 0 0 -0.049999999999889237 0 0 -0.050999999999886317 0 0 -0.051999999999883403 0 0 -0.052999999999880483 0 0 -0.053999999999877563 0 0 -0.054999999999874642 0 0 -0.055999999999871722 0 0 -0.056999999999868801 0 0 -0.057999999999865881 0 0 -0.058999999999862961 0 0 -0.059999999999860047 0 0 -0.060999999999857127 0 0 -0.061999999999854213 0 0 -0.062999999999851286 0 0 -0.063999999999848373 0 0 -0.064999999999845445 0 0 -0.065999999999842532 0 0 -0.066999999999839618 0 0 -0.067999999999836705 0 0 -0.068999999999833792 0 0 -0.069999999999830878 0 0 -0.070999999999827965 0 0 -0.071999999999825051 0 0 -0.072999999999822124 0 0 -0.07399999999981921 0 0 -0.074999999999816297 0 0 -0.075999999999813383 0 0 -0.07699999999981047 0 0 -0.077999999999807557 0 0 -0.078999999999804643 0 0 -0.07999999999980173 0 0 -0.080999999999798802 0 0 -0.081999999999795889 0 0 -0.082999999999792975 0 0 -0.083999999999790062 0 0 -0.084999999999787149 0 0 -0.085999999999784235 0 0 -0.086999999999781322 0 0 -0.087999999999778394 0 0 -0.088999999999775481 0 0 -0.089999999999772567 0 0 -0.090999999999769654 0 0 -0.091999999999766741 0 0 -0.092999999999763827 0 0 -0.093999999999760914 0 0 -0.094999999999758 0 0 -0.095999999999755073 0 0 -0.096999999999752159 0 0 -0.097999999999749246 0 0 -0.098999999999746333 0 0 -0.099999999999743419 0 0 -0.10099999999974051 0 0 -0.10199999999973761 0 0 -0.10299999999973471 0 0 -0.10399999999973179 0 0 -0.1049999999997288 0 0 -0.1059999999997259 0 0 -0.106999999999723 0 0 -0.1079999999997201 0 0 -0.1089999999997172 0 0 -0.1099999999997143 0 0 -0.1109999999997113 0 0 -0.1119999999997084 0 0 -0.1129999999997055 0 0 -0.1139999999997026 0 0 -0.1149999999996997 0 0 -0.1159999999996968 0 0 -0.11699999999969379 0 0 -0.11799999999969089 0 0 -0.11899999999968799 0 0 -0.11999999999968509 0 0 -0.1209999999996822 0 0 -0.1219999999996793 0 0 -0.1229999999996764 0 0 -0.1239999999996748 0 0 -0.12499999999967321 0 0 -0.12599999999967451 0 0 -0.12699999999967579 0 0 -0.1279999999996784 0 0 -0.12899999999968109 0 0 -0.1299999999996837 0 0 -0.13099999999968631 0 0 -0.13199999999968889 0 0 -0.13299999999969159 0 0 -0.1339999999996942 0 0 -0.13499999999969689 0 0 -0.1359999999996995 0 0 -0.13699999999970211 0 0 -0.1379999999997048 0 0 -0.13899999999970741 0 0 -0.13999999999971011 0 0 -0.14099999999971269 0 0 -0.1419999999997153 0 0 -0.14299999999971799 0 0 -0.1439999999997206 0 0 -0.14499999999972321 0 0 -0.14599999999972579 0 0 -0.14699999999972849 0 0 -0.1479999999997311 0 0 -0.14899999999973379 0 0 -0.1499999999997364 0 0 -0.15099999999973901 0 0 -0.1519999999997417 0 0 -0.15299999999974431 0 0 -0.15399999999974701 0 0 -0.15499999999974959 0 0 -0.1559999999997522 0 0 -0.15699999999975489 0 0 -0.1579999999997575 0 0 -0.15899999999976011 0 0 -0.1599999999997628 0 0 -0.16099999999976539 0 0 -0.161999999999768 0 0 -0.16299999999977069 0 0 -0.1639999999997733 0 0 -0.16499999999977599 0 0 -0.1659999999997786 0 0 -0.16699999999978121 0 0 -0.16799999999978391 0 0 -0.16899999999978649 0 0 -0.1699999999997891 0 0 -0.17099999999979171 0 0 -0.1719999999997944 0 0 -0.17299999999979701 0 0 -0.1739999999997997 0 0 -0.17499999999980231 0 0 -0.17599999999980501 0 0 -0.17699999999980759 0 0 -0.1779999999998102 0 0 -0.17899999999981281 0 0 -0.1799999999998155 0 0 -0.18099999999981811 0 0 -0.18199999999982069 0 0 -0.18299999999982339 0 0 -0.183999999999826 0 0 -0.18499999999982869 0 0 -0.1859999999998313 0 0 -0.18699999999983391 0 0 -0.1879999999998366 0 0 -0.18899999999983921 0 0 -0.18999999999984191 0 0 -0.19099999999984449 0 0 -0.1919999999998471 0 0 -0.19299999999984971 0 0 -0.1939999999998524 0 0 -0.19499999999985501 0 0 -0.1959999999998577 0 0 -0.19699999999986029 0 0 -0.19799999999986301 0 0 -0.19899999999986559 0 0 -0.1999999999998682 0 0 -0.20099999999987081 0 0 -0.2019999999998735 0 0 -0.20299999999987611 0 0 -0.20399999999987881 0 0 -0.20499999999988139 0 0 -0.205999999999884 0 0 -0.20699999999988669 0 0 -0.2079999999998893 0 0 -0.20899999999989191 0 0 -0.2099999999998946 0 0 -0.21099999999989719 0 0 -0.21199999999989991 0 0 -0.21299999999990249 0 0 -0.2139999999999051 0 0 -0.21499999999990771 0 0 -0.2159999999999104 0 0 -0.21699999999991301 0 0 -0.21799999999991571 0 0 -0.21899999999991829 0 0 -0.2199999999999209 0 0 -0.22099999999992359 0 0 -0.2219999999999262 0 0 -0.22299999999992881 0 0 -0.22399999999993139 0 0 -0.22499999999993411 0 0 -0.2259999999999367 0 0 -0.22699999999993939 0 0 -0.227999999999942 0 0 -0.22899999999994469 0 0 -0.2299999999999473 0 0 -0.23099999999994991 0 0 -0.23199999999995249 0 0 -0.23299999999995519 0 0 -0.2339999999999578 0 0 -0.23499999999996049 0 0 -0.2359999999999631 0 0 -0.23699999999996571 0 0 -0.2379999999999684 0 0 -0.23899999999997101 0 0 -0.2399999999999736 0 0 -0.24099999999997629 0 0 -0.2419999999999789 0 0 -0.24299999999998159 0 0 -0.2439999999999842 0 0 -0.24499999999998681 0 0 -0.24599999999998939 0 0 -0.24699999999999209 0 0 -0.2479999999999947 0 0 -0.24899999999999739 
</DataArray>
</Points>
<Cells>
<DataArray type="UInt32" Name="connectivity" format="ascii">
0 2 2 3 3 4 4 5 5 6 6 7 7 8 8 9 9 10 10 11 11 12 12 13 13 14 14 15 15 16 16 17 17 18 18 19 19 20 20 21 21 22 22 23 23 24 24 25 25 26 26 27 27 28 28 29 29 30 30 31 31 32 32 33 33 34 34 35 35 36 36 37 37 38 38 39 39 40 40 41 41 42 42 43 43 44 44 45 45 46 46 47 47 48 48 49 49 50 50 51 51 52 52 53 53 54 54 55 55 56 56 57 57 58 58 59 59 60 60 61 61 62 62 63 63 64 64 65 65 66 66 67 67 68 68 69 69 70 70 71 71 72 72 73 73 74 74 75 75 76 76 77 77 78 78 79 79 80 80 81 81 82 82 83 83 84 84 85 85 86 86 87 87 88 88 89 89 90 90 91 91 92 92 93 93 94 94 95 95 96 96 97 97 98 98 99 99 100 100 101 101 102 102 103 103 104 104 105 105 106 106 107 107 108 108 109 109 110 110 111 111 112 112 113 113 114 114 115 115 116 116 117 117 118 118 119 119 120 120 121 121 122 122 123 123 124 124 125 125 126 126 127 127 128 128 129 129 130 130 131 131 132 132 133 133 134 134 135 135 136 136 137 137 138 138 139 139 140 140 141 141 142 142 143 143 144 144 145 145 146 146 147 147 148 148 149 149 150 150 151 151 152 152 153 153 154 154 155 155 156 156 157 157 158 158 159 159 160 160 161 161 162 162 163 163 164 164 165 165 166 166 167 167 168 168 169 169 170 170 171 171 172 172 173 173 174 174 175 175 176 176 177 177 178 178 179 179 180 180 181 181 182 182 183 183 184 184 185 185 186 186 187 187 188 188 189 189 190 190 191 191 192 192 193 193 194 194 195 195 196 196 197 197 198 198 199 199 200 200 201 201 202 202 203 203 204 204 205 205 206 206 207 207 208 208 209 209 210 210 211 211 212 212 213 213 214 214 215 215 216 216 217 217 218 218 219 219 220 220 221 221 222 222 223 223 224 224 225 225 226 226 227 227 228 228 229 229 230 230 231 231 232 232 233 233 234 234 235 235 236 236 237 237 238 238 239 239 240 240 241 241 242 242 243 243 244 244 245 245 246 246 247 247 248 248 249 249 250 250 1 
</DataArray>
<DataArray type="UInt32" Name="offsets" format="ascii">
2 4 6 8 10 12 14 16 18 20 22 24 26 28 30 32 34 36 38 40 42 44 46 48 50 52 54 56 58 60 62 64 66 68 70 72 74 76 78 80 82 84 86 88 90 92 94 96 98 100 102 104 106 108 110 112 114 116 118 120 122 124 126 128 130 132 134 136 138 140 142 144 146 148 150 152 154 156 158 160 162 164 166 168 170 172 174 176 178 180 182 184 186 188 190 192 194 196 198 200 202 204 206 208 210 212 214 216 218 220 222 224 226 228 230 232 234 236 238 240 242 244 246 248 250 252 254 256 258 260 262 264 266 268 270 272 274 276 278 280 282 284 286 288 290 292 294 296 298 300 302 304 306 308 310 312 314 316 318 320 322 324 326 328 330 332 334 336 338 340 342 344 346 348 350 352 354 356 358 360 362 364 366 368 370 372 374 376 378 380 382 384 386 388 390 392 394 396 398 400 402 404 406 408 410 412 414 416 418 420 422 424 426 428 430 432 434 436 438 440 442 444 446 448 450 452 454 456 458 460 462 464 466 468 470 472 474 476 478 480 482 484 486 488 490 492 494 496 498 500 
</DataArray>
<DataArray type="UInt32" Name="types" format="ascii">
3 3 3 3 3 3 3 3 3 3 3 3 3 3 3 3 3 3 3 3 3 3 3 3 3 3 3 3 3 3 3 3 3 3 3 3 3 3 3 3 3 3 3 3 3 3 3 3 3 3 3 3 3 3 3 3 3 3 3 3 3 3 3 3 3 3 3 3 3 3 3 3 3 3 3 3 3 3 3 3 3 3 3 3 3 3 3 3 3 3 3 3 3 3 3 3 3 3 3 3 3 3 3 3 3 3 3 3 3 3 3 3 3 3 3 3 3 3 3 3 3 3 3 3 3 3 3 3 3 3 3 3 3 3 3 3 3 3 3 3 3 3 3 3 3 3 3 3 3 3 3 3 3 3 3 3 3 3 3 3 3 3 3 3 3 3 3 3 3 3 3 3 3 3 3 3 3 3 3 3 3 3 3 3 3 3 3 3 3 3 3 3 3 3 3 3 3 3 3 3 3 3 3 3 3 3 3 3 3 3 3 3 3 3 3 3 3 3 3 3 3 3 3 3 3 3 3 3 3 3 3 3 3 3 3 3 3 3 3 3 3 3 3 3 3 3 3 3 3 3 
</DataArray>
</Cells>
<CellData Scalars="pressure_p0,saturation,conductivity_out," Vectors="velocity_p0," Tensors="">
<DataArray type="Float64" Name="pressure_p0" format="ascii">
-6611.9561246222565 -6611.9388650830979 -6611.9053161239563 -6611.8554179470257 -6611.7890807640142 -6611.7061846865327 -6611.6065795798968 -6611.4900848803618 -6611.3564893757011 -6611.2055509491529 -6611.0369962866444 -6610.8505205472857 -6610.6457869970454 -6610.4224266055935 -6610.1800376062238 -6609.9181850188197 -6609.636400135797 -6609.3341799709578 -6609.0109866712155 -6608.6662468911181 -6608.2993511301356 -6607.9096530326387 -6607.4964686505555 -6607.0590756686452 -6606.596712592388 -6606.1085778984516 -6605.5938291477451 -6605.0515820610672 -6604.4809095573664 -6603.880840754664 -6603.2503599336997 -6602.588405464372 -6601.8938686950942 -6601.1655928051787 -6600.4023716204319 -6599.6029483921229 -6598.7660145395685 -6597.8902083565754 -6596.9741136820376 -6596.0162585350399 -6595.015113714815 -6593.9690913660106 -6592.8765435097121 -6591.7357605407688 -6590.5449696919859 -6589.3023334658337 -6588.005948034368 -6586.6538416081312 -6585.2439727748651 -6583.7742288089485 -6582.2424239525317 -6580.6462976694447 -6578.9835128729937 -6577.2516541289187 -6575.4482258348035 -6573.5706503773581 -6571.6162662690967 -6569.5823262660324 -6567.4659954680938 -6565.2643494041167 -6562.9743721033528 -6560.5929541555543 -6558.1168907618448 -6555.5428797786881 -6552.8675197573812 -6550.0873079816884 -6547.1986385063383 -6544.1978001992265 -6541.0809747903668 -6537.8442349307443 -6534.4835422644073 -6530.9947455172805 -6527.3735786063298 -6523.615658772922 -6519.7164847443637 -6515.6714349277681 -6511.4757656405955 -6507.1246093824075 -6502.6129731525289 -6497.935736818521 -6493.0876515405562 -6488.0633382569831 -6482.8572862365436 -6477.4638517029389 -6471.8772565376166 -6466.0915870668596 -6460.1007929394527 -6453.8986861014373 -6447.478939874627 -6440.8350881457991 -6433.9605246736546 -6426.8485025208738 -6419.4921336187772 -6411.8843884723046 -6404.018096013242 -6395.8859436098155 -6387.4804772409716 -6378.794101843836 -6369.8190818430867 -6360.5475418710867 -6350.9714676878666 -6341.0827073101937 -6330.8729723591205 -6320.333839635573 -6309.4567529337328 -6298.2330251020321 -6286.6538403617869 -6274.7102568935825 -6262.3932097016241 -6249.6935137664186 -6236.6018674961788 -6223.1088564874581 -6209.2049576055688 -6194.8805433953803 -6180.1258868331215 -6164.9311664297948 -6149.2864716968588 -6133.181808984732 -6116.6071077046781 -6099.5522269445155 -6082.0069624885164 -6063.9610542517567 -6045.4041941389632 -6026.3260343377806 -6006.7161960562335 -5986.564278713724 -5965.8598695949167 -5944.5925539752989 -5922.7519257270014 -5900.327598413196 -5877.3092168786898 -5853.6864693442312 -5829.4491000113121 -5804.5869221838448 -5779.0898319124644 -5752.9478221666523 -5726.1509975391909 -5698.6895894867339 -5670.5539721095829 -5641.7346784728879 -5612.2224174706989 -5582.0080912333397 -5551.0828130776281 -5519.4379259984762 -5487.0650216992581 -5453.9559601572682 -5420.1028897193391 -5385.4982677214666 -5350.1348816249119 -5314.0058706599038 -5277.1047479665849 -5239.425423221277 -5200.96222573461 -5161.709928006283 -5121.6637697195674 -5080.8194821567522 -5039.1733130148568 -4996.7220515989557 -4953.463054368327 -4909.3942708085406 -4864.5142696003131 -4818.8222650536263 -4772.3181437731728 -4725.0024915187023 -4676.8766202211609 -4627.9425951128687 -4578.2032619271158 -4527.662274119657 -4476.3241200616121 -4424.1941501500369 -4371.2786037793112 -4317.5846361130989 -4263.1203445931678 -4207.8947951177652 -4151.9180478186236 -4095.2011823617722 -4037.7563226934585 -3979.5966611483873 -3920.7364818333081 -3861.1911831946891 -3800.9772996747224 -3740.1125223553668 -3678.6157184853828 -3616.5069497805339 -3553.8074893820294 -3490.5398373532566 -3426.72773458954 -3362.3961750102471 -3297.5714158970909 -3232.2809862366785 -3166.5536929196605 -3100.4196246428201 -3033.9101533543762 -2967.0579330766118 -2899.8968959335994 -2832.4622452053532 -2764.7904452232988 -2696.9192079152849 -2628.8874758017619 -2560.7354012379915 -2492.5043216904601 -2424.2367308289713 -2355.9762452091527 -2287.7675663135356 -2219.6564377129116 -2151.6895971033073 -2083.9147229678774 -2016.3803756072812 -1949.1359322766043 -1882.2315161621245 -1815.7179189268304 -1749.6465165499483 -1684.069178183034 -1619.0381677433352 -1554.6060379645151 -1490.8255166255963 -1427.7493846811883 -1365.4303460201518 -1303.9208885859221 -1243.2731365999866 -1183.5386936407883 -1124.7684763438283 -1067.0125385049464 -1010.3198853880428 -954.73827806048962 -900.31402760397748 -847.09177907480694 -795.11428511443796 -744.42216913615277 -695.05367803350202 -647.04442436527097 -600.42711796120034 -555.23128684927997 -511.48298730809074 -469.20450266392959 -428.41403013124193 -389.12535445491005 -351.34750622287982 -315.08440126054978 -280.33445512609717 -247.09016275361904 -215.33762656162014 -185.05600460228931 -156.21682897603125 -128.78310365874381 -102.70800547665445 -77.932813674351991 -54.383149766305912 -31.960617200400996 -10.508482384047364 
</DataArray>
<DataArray type="Float64" Name="velocity_p0" NumberOfComponents="3" format="ascii">
0 0 1.1556905360654906e-10 0 0 3.4692017560002113e-10 0 0 5.7891058609664032e-10 0 0 8.1196733345666322e-10 0 0 1.0465187928585908e-09 0 0 1.2829951974500573e-09 0 0 1.5218291703326727e-09 0 0 1.763456256920494e-09 0 0 2.008315458481207e-09 0 0 2.256849766564968e-09 0 0 2.5095066986593757e-09 0 0 2.766738835322321e-09 0 0 3.0290043585893913e-09 0 0 3.2967675921517468e-09 0 0 3.5704995433614478e-09 0 0 3.850678446812137e-09 0 0 4.1377903102122161e-09 0 0 4.432329462177056e-09 0 0 4.7347991023412085e-09 0 0 5.0457118534778669e-09 0 0 5.3655903162721894e-09 0 0 5.6949676264738422e-09 0 0 6.0343880141783332e-09 0 0 6.3844073662037662e-09 0 0 6.7455937902459466e-09 0 0 7.1185281825732493e-09 0 0 7.503804797282425e-09 0 0 7.9020318187205254e-09 0 0 8.3138319366509603e-09 0 0 8.7398429228436303e-09 0 0 9.1807182114786141e-09 0 0 9.6371274809838173e-09 0 0 1.0109757238553814e-08 0 0 1.059931140662543e-08 0 0 1.1106511911640142e-08 0 0 1.1632099274854113e-08 0 0 1.2176833204299056e-08 0 0 1.2741493189322498e-08 0 0 1.3326879095688219e-08 0 0 1.3933811762419306e-08 0 0 1.4563133599413047e-08 0 0 1.5215709185927006e-08 0 0 1.5892425869484519e-08 0 0 1.6594194365125032e-08 0 0 1.7321949354366403e-08 0 0 1.8076650083998776e-08 0 0 1.8859280964048518e-08 0 0 1.9670852164677307e-08 0 0 2.0512400211645092e-08 0 0 2.1384988579796698e-08 0 0 2.2289708284583915e-08 0 0 2.322767847066844e-08 0 0 2.4200046997671483e-08 0 0 2.5207991021816224e-08 0 0 2.6252717574299326e-08 0 0 2.7335464134587211e-08 0 0 2.8457499198711089e-08 0 0 2.9620122842176466e-08 0 0 3.0824667276742998e-08 0 0 3.2072497400425284e-08 0 0 3.3365011340458906e-08 0 0 3.4703640988291118e-08 0 0 3.6089852526358714e-08 0 0 3.7525146945837455e-08 0 0 3.9011060555011248e-08 0 0 4.0549165476999349e-08 0 0 4.2141070137184492e-08 0 0 4.3788419739025426e-08 0 0 4.5492896727735903e-08 0 0 4.725622124148743e-08 0 0 4.908015154894435e-08 0 0 5.0966484473374583e-08 0 0 5.2917055801701197e-08 0 0 5.4933740678553135e-08 0 0 5.7018453984244003e-08 0 0 5.9173150696679899e-08 0 0 6.1399826235937862e-08 0 0 6.370051679087195e-08 0 0 6.6077299627919542e-08 0 0 6.853229338075723e-08 0 0 7.1067658320152555e-08 0 0 7.3685596604554658e-08 0 0 7.6388352509176348e-08 0 0 7.9178212634828057e-08 0 0 8.2057506094319078e-08 0 0 8.502860467725809e-08 0 0 8.8093922992124241e-08 0 0 9.1255918585124431e-08 0 0 9.451709203572527e-08 0 0 9.7879987028310441e-08 0 0 1.0134719039960209e-07 0 0 1.0492133216130218e-07 0 0 1.0860508549818772e-07 0 0 1.1240116674069232e-07 0 0 1.163123353123743e-07 0 0 1.2034139365149444e-07 0 0 1.2449118710691892e-07 0 0 1.2876460380813957e-07 0 0 1.3316457450912867e-07 0 0 1.3769407240598288e-07 0 0 1.4235611292869221e-07 0 0 1.4715375350639764e-07 0 0 1.5209009330697644e-07 0 0 1.5716827295034691e-07 0 0 1.6239147419573604e-07 0 0 1.6776291960361401e-07 0 0 1.7328587217160548e-07 0 0 1.7896363494562097e-07 0 0 1.8479955060555261e-07 0 0 1.9079700102645465e-07 0 0 1.9695940681521093e-07 0 0 2.0329022682349069e-07 0 0 2.097929576367643e-07 0 0 2.164711330401975e-07 0 0 2.2332832346232157e-07 0 0 2.3036813539601559e-07 0 0 2.3759421079793841e-07 0 0 2.4501022646724108e-07 0 0 2.5261989340302259e-07 0 0 2.604269561427037e-07 0 0 2.6843519208003563e-07 0 0 2.7664841076496661e-07 0 0 2.850704531854099e-07 0 0 2.9370519103104527e-07 0 0 3.0255652593997483e-07 0 0 3.1162838872975506e-07 0 0 3.2092473861194438e-07 0 0 3.3044956239153245e-07 0 0 3.4020687365167865e-07 0 0 3.5020071192405745e-07 0 0 3.60435141845835e-07 0 0 3.7091425230244354e-07 0 0 3.8164215555798179e-07 0 0 3.9262298637231271e-07 0 0 4.0386090110606875e-07 0 0 4.1536007681238781e-07 0 0 4.2712471031694312e-07 0 0 4.3915901728477105e-07 0 0 4.5146723127466448e-07 0 0 4.6405360278000582e-07 0 0 4.7692239825619674e-07 0 0 4.9007789913370389e-07 0 0 5.0352440081550429e-07 0 0 5.1726621165879241e-07 0 0 5.3130765193864773e-07 0 0 5.4565305279278957e-07 0 0 5.6030675514531126e-07 0 0 5.7527310860782945e-07 0 0 5.9055647035466579e-07 0 0 6.0616120397048937e-07 0 0 6.2209167826627913e-07 0 0 6.3835226606107686e-07 0 0 6.5494734292443129e-07 0 0 6.7188128587634268e-07 0 0 6.8915847203828052e-07 0 0 7.0678327723140258e-07 0 0 7.2476007451394088e-07 0 0 7.4309323265276482e-07 0 0 7.6178711451947398e-07 0 0 7.8084607540461246e-07 0 0 8.0027446123914576e-07 0 0 8.2007660671350831e-07 0 0 8.4025683328274948e-07 0 0 8.6081944704558531e-07 0 0 8.817687364828387e-07 0 0 9.0310897004056262e-07 0 0 9.2484439354150331e-07 0 0 9.4697922740548751e-07 0 0 9.6951766365959896e-07 0 0 9.9246386271523993e-07 0 0 1.0158219498886002e-06 0 0 1.0395960116363346e-06 0 0 1.0637900914785249e-06 0 0 1.0884081855760025e-06 0 0 1.1134542379260456e-06 0 0 1.1389321351387593e-06 0 0 1.1648457007498472e-06 0 0 1.1911986890239045e-06 0 0 1.2179947781955822e-06 0 0 1.2452375630924979e-06 0 0 1.27293054707664e-06 0 0 1.301077133235432e-06 0 0 1.3296806147472981e-06 0 0 1.3587441643373113e-06 0 0 1.3882708227315063e-06 0 0 1.4182634860080586e-06 0 0 1.4487248917341025e-06 0 0 1.4796576037639973e-06 0 0 1.511063995563366e-06 0 0 1.5429462319091156e-06 0 0 1.5753062487979781e-06 0 0 1.6081457313815933e-06 0 0 1.641466089724319e-06 0 0 1.6752684321592834e-06 0 0 1.7095535359947638e-06 0 0 1.7443218152954318e-06 0 0 1.7795732854340335e-06 0 0 1.8153075240756947e-06 0 0 1.8515236282208415e-06 0 0 1.888220166891927e-06 0 0 1.9253951290033435e-06 0 0 1.9630458659042724e-06 0 0 2.0011690280279515e-06 0 0 2.0397604950182653e-06 0 0 2.0788152986364348e-06 0 0 2.1183275376734089e-06 0 0 2.1582902840086881e-06 0 0 2.1986954788636413e-06 0 0 2.2395338181928956e-06 0 0 2.2807946260440817e-06 0 0 2.3224657145921676e-06 0 0 2.3645332294168513e-06 0 0 2.4069814784452805e-06 0 0 2.4497927428206449e-06 0 0 2.4929470677875336e-06 0 0 2.5364220315023947e-06 0 0 2.5801924894890705e-06 0 0 2.6242302922644233e-06 0 0 2.6685039734672736e-06 0 0 2.7129784056386874e-06 0 0 2.7576144206382028e-06 0 0 2.8023683915531818e-06 0 0 2.8471917728894763e-06 0 0 2.8920305958544146e-06 0 0 2.9368249156973866e-06 0 0 2.9815082084202942e-06 0 0 3.026006714787151e-06 0 0 3.0702387305560453e-06 0 0 3.1141138433723827e-06 0 0 3.1575321189900274e-06 0 0 3.2003832426868568e-06 0 0 3.2425456262579622e-06 0 0 3.2838854972648776e-06 0 0 3.3242559959137133e-06 0 0 3.3634963168639599e-06 0 0 3.4014309495620653e-06 0 0 3.4378690929045861e-06 0 0 3.4726043503303347e-06 0 0 3.5054148529336383e-06 0 0 3.5360640155424555e-06 0 0 3.5643022112660552e-06 0 0 3.5898697662410024e-06 0 0 3.612501851075639e-06 0 0 3.6319361249897538e-06 0 0 3.6479244762409221e-06 0 0 3.6602511589568749e-06 0 0 3.6687618170171594e-06 0 0 3.6734140861184761e-06 0 0 3.674385072270079e-06 0 0 3.6725414273333333e-06 
</DataArray>
<DataArray type="Float64" Name="saturation" format="ascii">
0.48540087481747562 0.48540111609704617 0.48540158509661613 0.48540228265637675 0.4854032100378799 0.48540436892562855 0.48540576142919739 0.4854073900858854 0.48540925786390143 0.48541136816608377 0.48541372483415501 0.48541633215351465 0.48541919485857049 0.48542231813861164 0.48542570764422466 0.48542936949425636 0.48543331028332481 0.48543753708988224 0.48544205748483282 0.48544687954070775 0.48545201184140196 0.48545746349247604 0.48546324413202602 0.48546936394212614 0.48547583366084801 0.48548266459486045 0.48548986863261379 0.48549745825811474 0.48550544656529437 0.48551384727297542 0.48552267474044253 0.48553194398362154 0.48554167069187232 0.48555187124540056 0.4855625627332929 0.4855737629721818 0.48558549052554556 0.48559776472364846 0.48561060568412695 0.48562403433322721 0.48563807242770124 0.48565274257736529 0.48566806826832859 0.48568407388689716 0.48570078474415934 0.48571822710125956 0.485736428195366 0.48575541626633889 0.48577522058410716 0.48579587147675757 0.48581740035934562 0.48583983976343409 0.48586322336736609 0.48588758602728055 0.48591296380887716 0.48593939401993835 0.48596691524361679 0.48599556737249539 0.48602539164342978 0.48605643067317972 0.48608872849484119 0.48612233059508625 0.48615728395222113 0.48619363707507329 0.48623144004271729 0.48627074454505115 0.48631160392423434 0.48635407321700103 0.48639820919785937 0.48644407042319288 0.48649171727627705 0.48654121201322625 0.48659261880988891 0.48664600380970596 0.48670143517255249 0.48675898312458121 0.48681872000908943 0.48688072033842983 0.4869450608469903 0.48701182054526648 0.4870810807750543 0.48715292526579046 0.48722744019207165 0.48730471423238314 0.48738483862907328 0.48746790724960798 0.48755401664914622 0.48764326613447628 0.48773575782935796 0.48783159674131704 0.48793089082994245 0.48803375107673896 0.48814029155659178 0.48825062951090425 0.48836488542247125 0.48848318309215644 0.48860564971744702 0.48873241597296002 0.48886361609298368 0.48899938795613901 0.48913987317225299 0.48928521717154089 0.48943556929619991 0.48959108289452336 0.48975191541765051 0.48991822851907374 0.49009018815703292 0.49026796469993267 0.49045173303492751 0.49064167267982778 0.49083796789848722 0.49104080781984327 0.49125038656079018 0.49146690335307525 0.49169056267441924 0.49192157438407358 0.4921601538630383 0.49240652215917657 0.49266090613747704 0.49292353863572619 0.49319465862586903 0.49347451138135179 0.49376334865075588 0.49406142883805026 0.49436901718980558 0.49468638598973508 0.49501381476094453 0.49535159047629707 0.49570000777731993 0.49605936920210281 0.4964299854226647 0.49681217549229145 0.49720626710337318 0.4976125968563021 0.49803151054002287 0.49846336342485864 0.49890852056827306 0.49936735713426689 0.49984025872714399 0.50032762174042889 0.50082985372175681 0.50134737375461258 0.50188061285783603 0.50243001440387469 0.5029960345568163 0.50357914273129589 0.50417982207343892 0.50479856996507178 0.50543589855250048 0.50609233530124453 0.50676842357819263 0.50746472326273628 0.50818181138853913 0.50892028281769686 0.5096807509491561 0.51046384846337678 0.51127022810535161 0.51210056350822353 0.51295555005989901 0.51383590581519634 0.51474237245624277 0.51567571630400977 0.51663672938406457 0.51762623054982237 0.51864506666680343 0.51969411386163245 0.52077427883977168 0.52188650027625116 0.52303175028394944 0.52421103596429097 0.52542540104556479 0.52667592761442639 0.52796373794653495 0.52928999644269625 0.53065591167732595 0.53206273856652964 0.53351178066361582 0.53500439259040866 0.53654198261332486 0.53812601537381799 0.53975801478347851 0.54143956709481289 0.54317232415951255 0.54495800688686225 0.54679840891584486 0.54869540051545218 0.55065093272874166 0.55266704177726667 0.55474585374366403 0.55688958955140899 0.55910057026203974 0.56138122271151014 0.56373408550875459 0.56616181542102184 0.56866719417206668 0.57125313568084846 0.57392269376996308 0.57667907037461541 0.57952562428447174 0.5824658804521895 0.58550353990374604 0.58864249028680249 0.59188681709415858 0.59524081559976116 0.59870900354456791 0.60229613460865883 0.60600721270407987 0.60984750711969615 0.61382256854444872 0.61793824598833336 0.6222007046105722 0.6266164444510266 0.63119232004291692 0.63593556086114611 0.64085379252938091 0.64595505866853442 0.65124784321691398 0.65674109298482308 0.66244424011978786 0.66836722404763882 0.67452051231282684 0.68091511956015016 0.68756262366875176 0.69447517775391898 0.70166551637505647 0.70914695380608628 0.71693337160746773 0.7250391919478163 0.73347933210624028 0.74226913427577346 0.7514242630924155 0.76096056110985089 0.77089384955741802 0.78123965792149208 0.79201286083981282 0.80322719399824383 0.81489461141928332 0.82702443355332478 0.83962221700060191 0.8526882492039729 0.8662155291106628 0.8801870262538819 0.89457189287461292 0.90932008609098713 0.92435441902160509 0.93955807861434826 0.95475312287271363 0.96965754348335231 0.98377373061279816 0.99527696989082082 
</DataArray>
<DataArray type="Float64" Name="conductivity_out" format="ascii">