<?xml version="1.0"?>
<VTKFile type="UnstructuredGrid" version="0.1" byte_order="LittleEndian">
<UnstructuredGrid>
<Piece NumberOfPoints="251" NumberOfCells="250">
<Points>
<DataArray type="Float64" NumberOfComponents="3" format="ascii">
0 0 -0.25 0 0 -0.24899999999999739 0 0 -0.2479999999999947 0 0 -0.24699999999999209 0 0 -0.24599999999998939 0 0 -0.24499999999998681 0 0 -0.24299999999998159 0 0 -0.2439999999999842 0 0 -0.23499999999996049 0 0 -0.2359999999999631 0 0 -0.23699999999996571 0 0 -0.2379999999999684 0 0 -0.23899999999997101 0 0 -0.2399999999999736 0 0 -0.24099999999997629 0 0 -0.2419999999999789 0 0 -0.22699999999993939 0 0 -0.227999999999942 0 0 -0.22899999999994469 0 0 -0.2299999999999473 0 0 -0.23099999999994991 0 0 -0.23199999999995249 0 0 -0.23299999999995519 0 0 -0.2339999999999578 0 0 -0.22499999999993411 0 0 -0.2259999999999367 0 0 -0.22399999999993139 0 0 -0.22299999999992881 0 0 -0.2219999999999262 0 0 -0.22099999999992359 0 0 -0.2199999999999209 0 0 -0.21899999999991829 0 0 -0.21799999999991571 0 0 -0.21699999999991301 0 0 -0.21499999999990771 0 0 -0.2159999999999104 0 0 -0.21299999999990249 0 0 -0.2139999999999051 0 0 -0.21199999999989991 0 0 -0.21099999999989719 0 0 -0.2099999999998946 0 0 -0.20899999999989191 0 0 -0.2079999999998893 0 0 -0.20399999999987881 0 0 -0.20499999999988139 0 0 -0.205999999999884 0 0 -0.20699999999988669 0 0 -0.18899999999983921 0 0 -0.1879999999998366 0 0 -0.19099999999984449 0 0 -0.18999999999984191 0 0 -0.19299999999984971 0 0 -0.1919999999998471 0 0 -0.19499999999985501 0 0 -0.1939999999998524 0 0 -0.19699999999986029 0 0 -0.1959999999998577 0 0 -0.19899999999986559 0 0 -0.19799999999986301 0 0 -0.20099999999987081 0 0 -0.1999999999998682 0 0 -0.20299999999987611 0 0 -0.2019999999998735 0 0 -0.13099999999968631 0 0 -0.13199999999968889 0 0 -0.1299999999996837 0 0 -0.12899999999968109 0 0 -0.1279999999996784 0 0 -0.12699999999967579 0 0 -0.12599999999967451 0 0 -0.13999999999971011 0 0 -0.13899999999970741 0 0 -0.1379999999997048 0 0 -0.13699999999970211 0 0 -0.1359999999996995 0 0 -0.13499999999969689 0 0 -0.13299999999969159 0 0 -0.1339999999996942 0 0 -0.14699999999972849 0 0 -0.1479999999997311 0 0 -0.14599999999972579 0 0 -0.14499999999972321 0 0 -0.1439999999997206 0 0 -0.14299999999971799 0 0 -0.1419999999997153 0 0 -0.14099999999971269 0 0 -0.1559999999997522 0 0 -0.15499999999974959 0 0 -0.15399999999974701 0 0 -0.15299999999974431 0 0 -0.1519999999997417 0 0 -0.15099999999973901 0 0 -0.14899999999973379 0 0 -0.1499999999997364 0 0 -0.16299999999977069 0 0 -0.1639999999997733 0 0 -0.161999999999768 0 0 -0.16099999999976539 0 0 -0.1599999999997628 0 0 -0.15899999999976011 0 0 -0.1579999999997575 0 0 -0.15699999999975489 0 0 -0.17099999999979171 0 0 -0.1699999999997891 0 0 -0.16899999999978649 0 0 -0.16799999999978391 0 0 -0.16699999999978121 0 0 -0.16499999999977599 0 0 -0.1659999999997786 0 0 -0.1779999999998102 0 0 -0.17899999999981281 0 0 -0.17699999999980759 0 0 -0.17599999999980501 0 0 -0.17499999999980231 0 0 -0.1739999999997997 0 0 -0.17299999999979701 0 0 -0.1719999999997944 0 0 -0.18699999999983391 0 0 -0.1859999999998313 0 0 -0.18499999999982869 0 0 -0.183999999999826 0 0 -0.18299999999982339 0 0 -0.18199999999982069 0 0 -0.1799999999998155 0 0 -0.18099999999981811 0 0 -0.068999999999833792 0 0 -0.069999999999830878 0 0 -0.067999999999836705 0 0 -0.066999999999839618 0 0 -0.065999999999842532 0 0 -0.064999999999845445 0 0 -0.063999999999848373 0 0 -0.062999999999851286 0 0 -0.077999999999807557 0 0 -0.07699999999981047 0 0 -0.075999999999813383 0 0 -0.074999999999816297 0 0 -0.07399999999981921 0 0 -0.072999999999822124 0 0 -0.070999999999827965 0 0 -0.071999999999825051 0 0 -0.083999999999790062 0 0 -0.084999999999787149 0 0 -0.082999999999792975 0 0 -0.081999999999795889 0 0 -0.080999999999798802 0 0 -0.07999999999980173 0 0 -0.078999999999804643 0 0 -0.092999999999763827 0 0 -0.091999999999766741 0 0 -0.090999999999769654 0 0 -0.089999999999772567 0 0 -0.088999999999775481 0 0 -0.087999999999778394 0 0 -0.085999999999784235 0 0 -0.086999999999781322 0 0 -0.099999999999743419 0 0 -0.10099999999974051 0 0 -0.098999999999746333 0 0 -0.097999999999749246 0 0 -0.096999999999752159 0 0 -0.095999999999755073 0 0 -0.094999999999758 0 0 -0.093999999999760914 0 0 -0.1089999999997172 0 0 -0.1079999999997201 0 0 -0.106999999999723 0 0 -0.1059999999997259 0 0 -0.1049999999997288 0 0 -0.10399999999973179 0 0 -0.10199999999973761 0 0 -0.10299999999973471 0 0 -0.1159999999996968 0 0 -0.11699999999969379 0 0 -0.1149999999996997 0 0 -0.1139999999997026 0 0 -0.1129999999997055 0 0 -0.1119999999997084 0 0 -0.1109999999997113 0 0 -0.1099999999997143 0 0 -0.12499999999967321 0 0 -0.1239999999996748 0 0 -0.1229999999996764 0 0 -0.1219999999996793 0 0 -0.1209999999996822 0 0 -0.11999999999968509 0 0 -0.11799999999969089 0 0 -0.11899999999968799 0 0 -0.047999999999895078 0 0 -0.046999999999897998 0 0 -0.049999999999889237 0 0 -0.048999999999892158 0 0 -0.051999999999883403 0 0 -0.050999999999886317 0 0 -0.053999999999877563 0 0 -0.052999999999880483 0 0 -0.055999999999871722 0 0 -0.054999999999874642 0 0 -0.057999999999865881 0 0 -0.056999999999868801 0 0 -0.059999999999860047 0 0 -0.058999999999862961 0 0 -0.061999999999854213 0 0 -0.060999999999857127 0 0 -0.042999999999909673 0 0 -0.043999999999906753 0 0 -0.044999999999903832 0 0 -0.045999999999900919 0 0 -0.041999999999912593 0 0 -0.040999999999915507 0 0 -0.039999999999918427 0 0 -0.038999999999921348 0 0 -0.037999999999924268 0 0 -0.035999999999930102 0 0 -0.036999999999927188 0 0 -0.033999999999935943 0 0 -0.034999999999933022 0 0 -0.032999999999938787 0 0 -0.031999999999941367 0 0 -0.03099999999994377 0 0 -0.02999999999994565 0 0 -0.028999999999947419 0 0 -0.027999999999948951 0 0 -0.02699999999995048 0 0 -0.02599999999995202 0 0 -0.023999999999955082 0 0 -0.024999999999953549 0 0 -0.01599999999996761 0 0 -0.0169999999999659 0 0 -0.01799999999996427 0 0 -0.018999999999962731 0 0 -0.019999999999961209 0 0 -0.020999999999959669 0 0 -0.02199999999995814 0 0 -0.022999999999956611 0 0 -0.007999999999984719 0 0 -0.008999999999982581 0 0 -0.0099999999999804221 0 0 -0.010999999999978201 0 0 -0.011999999999975971 0 0 -0.01299999999997375 0 0 -0.01399999999997158 0 0 -0.014999999999969531 0 0 -0.0059999999999886811 0 0 -0.0069999999999867156 0 0 -0.004999999999990571 0 0 -0.0039999999999924488 0 0 -0.0029999999999943271 0 0 -0.001999999999996204 0 0 -0.00099999999999810158 0 0 0 
</DataArray>
</Points>
<Cells>
<DataArray type="UInt32" Name="connectivity" format="ascii">
1 0 2 1 3 2 4 3 5 4 7 5 15 6 6 7 23 8 8 9 9 10 10 11 11 12 12 13 13 14 14 15 16 17 17 18 18 19 19 20 20 21 21 22 22 23 24 25 25 16 26 24 27 26 28 27 29 28 30 29 31 30 32 31 33 32 34 35 35 33 36 37 37 34 38 36 39 38 40 39 41 40 42 41 46 42 61 43 43 44 44 45 45 46 48 47 50 49 47 50 52 51 49 52 54 53 51 54 56 55 53 56 58 57 55 58 60 59 57 60 62 61 59 62 63 64 64 76 65 63 66 65 67 66 68 67 69 68 180 69 70 85 71 70 72 71 73 72 74 73 75 74 76 77 77 75 80 78 78 79 81 80 82 81 83 82 84 83 85 84 87 86 88 87 89 88 90 89 91 90 93 91 79 92 92 93 96 94 94 95 97 96 98 97 99 98 100 99 101 100 86 101 102 116 103 102 104 103 105 104 106 105 108 106 95 107 107 108 109 110 110 123 111 109 112 111 113 112 114 113 115 114 116 115 117 48 118 117 119 118 120 119 121 120 122 121 123 124 124 122 127 125 125 126 128 127 129 128 130 129 131 130 132 131 134 133 135 134 136 135 137 136 138 137 140 138 126 139 139 140 141 142 142 154 143 141 144 143 145 144 146 145 147 146 133 147 148 163 149 148 150 149 151 150 152 151 153 152 154 155 155 153 156 157 157 170 158 156 159 158 160 159 161 160 162 161 163 162 165 164 166 165 167 166 168 167 169 168 170 171 171 169 174 172 172 173 175 174 176 175 177 176 178 177 179 178 164 179 181 180 182 181 183 182 184 183 185 184 187 185 173 186 186 187 188 191 189 188 190 193 191 190 192 195 193 192 194 197 195 194 196 199 197 196 198 201 199 198 200 203 201 200 202 132 203 202 204 205 205 206 206 207 207 189 208 204 209 208 210 209 211 210 212 211 214 212 216 213 213 214 217 215 215 216 218 217 219 218 220 219 221 220 222 221 223 222 224 223 226 224 234 225 225 226 227 228 228 229 229 230 230 231 231 232 232 233 233 234 235 236 236 237 237 238 238 239 239 240 240 241 241 242 242 227 243 244 244 235 245 243 246 245 247 246 248 247 249 248 250 249 
</DataArray>
<DataArray type="UInt32" Name="offsets" format="ascii">
2 4 6 8 10 12 14 16 18 20 22 24 26 28 30 32 34 36 38 40 42 44 46 48 50 52 54 56 58 60 62 64 66 68 70 72 74 76 78 80 82 84 86 88 90 92 94 96 98 100 102 104 106 108 110 112 114 116 118 120 122 124 126 128 130 132 134 136 138 140 142 144 146 148 150 152 154 156 158 160 162 164 166 168 170 172 174 176 178 180 182 184 186 188 190 192 194 196 198 200 202 204 206 208 210 212 214 216 218 220 222 224 226 228 230 232 234 236 238 240 242 244 246 248 250 252 254 256 258 260 262 264 266 268 270 272 274 276 278 280 282 284 286 288 290 292 294 296 298 300 302 304 306 308 310 312 314 316 318 320 322 324 326 328 330 332 334 336 338 340 342 344 346 348 350 352 354 356 358 360 362 364 366 368 370 372 374 376 378 380 382 384 386 388 390 392 394 396 398 400 402 404 406 408 410 412 414 416 418 420 422 424 426 428 430 432 434 436 438 440 442 444 446 448 450 452 454 456 458 460 462 464 466 468 470 472 474 476 478 480 482 484 486 488 490 492 494 496 498 500 
</DataArray>
<DataArray type="UInt32" Name="types" format="ascii">
3 3 3 3 3 3 3 3 3 3 3 3 3 3 3 3 3 3 3 3 3 3 3 3 3 3 3 3 3 3 3 3 3 3 3 3 3 3 3 3 3 3 3 3 3 3 3 3 3 3 3 3 3 3 3 3 3 3 3 3 3 3 3 3 3 3 3 3 3 3 3 3 3 3 3 3 3 3 3 3 3 3 3 3 3 3 3 3 3 3 3 3 3 3 3 3 3 3 3 3 3 3 3 3 3 3 3 3 3 3 3 3 3 3 3 3 3 3 3 3 3 3 3 3 3 3 3 3 3 3 3 3 3 3 3 3 3 3 3 3 3 3 3 3 3 3 3 3 3 3 3 3 3 3 3 3 3 3 3 3 3 3 3 3 3 3 3 3 3 3 3 3 3 3 3 3 3 3 3 3 3 3 3 3 3 3 3 3 3 3 3 3 3 3 3 3 3 3 3 3 3 3 3 3 3 3 3 3 3 3 3 3 3 3 3 3 3 3 3 3 3 3 3 3 3 3 3 3 3 3 3 3 3 3 3 3 3 3 3 3 3 3 3 3 3 3 3 3 3 3 
</DataArray>
</Cells>
<CellData Scalars="pressure_p0,water_content,conductivity_richards," Vectors="velocity_p0," Tensors="">
<DataArray type="Float64" Name="pressure_p0" format="ascii">
-12.897568824017302 -39.385491085441231 -67.419414004483542 -97.250382109488115 -129.03460696234222 -162.88732103834857 -237.12400132005712 -198.89557868136842 -625.13394231248878 -568.75328186162869 -514.55935080722816 -462.59735878498179 -412.90298839666946 -365.50139102510229 -320.40612669724953 -277.61803424982554 -1075.6470361756865 -1005.8371990772313 -937.70499187863777 -871.33824700173591 -806.82096597344412 -744.23264413145569 -683.64754774380822 -1219.9329013897741 -1147.0434780357386 -1294.2196397132088 -1369.8064989330255 -1446.5952354248516 -1524.4869987374814 -1603.3827399235324 -1683.1835872067186 -1763.7911905399694 -1845.1080365859893 -2009.4852818246752 -1927.037735620901 -2175.5621987617023 -2092.3572883805909 -2259.0104755360894 -2342.6147679753908 -2426.2900597034441 -2509.953797574306 -2593.5260029216397 -2676.9293662750115 -3007.4056715263482 -2925.3949111186757 -2842.934136018705 -2760.0893265930431 -4147.6375782221785 -4007.9033935107936 -4078.3176967633913 -3863.8899733458011 -3936.4186610428624 -3715.8194218710059 -3790.3463507580632 -3563.9555475098814 -3640.3434819677914 -3408.6056622259316 -3486.6954062167465 -3250.1220970060394 -3329.7317757985402 -3088.9033668670108 -3169.8278928040063 -6296.7666541995768 -6282.7775506044127 -6310.2385138266291 -6323.2088147743616 -6335.6929487523848 -6347.706009468935 -6359.2627885406318 -6370.3777716917566 -6150.2701859795889 -6168.9948196073838 -6187.0670458573213 -6204.5046124655 -6221.325044254052 -6237.5456346232586 -6268.2552301126052 -6253.1834339608067 -6023.2038882032193 -5999.4001569955835 -6046.2261251627451 -6068.4856995470918 -6090.0013467588979 -6110.7916845005984 -6130.875190358809 -5778.5650452996124 -5809.3017259658918 -5839.105950365396 -5867.99633974686 -5895.9916506734817 -5923.1107430595748 -5974.7960273200097 -5949.3725469230958 -5535.7818910090336 -5496.944604676587 -5573.5474784839635 -5610.2574143626844 -5645.928229549143 -5680.5768873757988 -5714.2207356672779 -5746.8774607592941 -5145.9415687732644 -5193.8542635618905 -5240.5908608537256 -5286.1615280187225 -5330.5773839786507 -5373.8504275397809 -5457.020106872762 -5415.9934747377665 -4776.9981269644886 -4719.4468066145437 -4833.33434840462 -4888.4555629535153 -4942.3633786250957 -4995.0608399338316 -5046.5523539945116 -5096.8436228857754 -4215.8414590997709 -4282.9101080110631 -4348.8265622963136 -4413.5760545920039 -4477.1459451138944 -4539.5256426738306 -4660.6818845123416 -4600.7065284204255 -6603.7462435038997 -6602.9084605964372 -6604.5424657153962 -6605.2990623268997 -6606.0178816359148 -6606.7006961266788 -6607.3492054816425 -6594.447825418305 -6595.6988032901481 -6596.8893537555268 -6598.0221977006167 -6599.0999415519191 -6600.1250879171603 -6602.0270958434303 -6601.1000393511977 -6583.7452784524976 -6581.8982616260791 -6585.5056076606415 -6587.1830090354597 -6588.7811033993357 -6590.3033644574434 -6591.7531233096961 -6593.1335842251719 -6563.498470918732 -6566.1933599307486 -6568.7656720922641 -6571.2205050512548 -6573.5627733663632 -6575.7972100295829 -6579.9606473690055 -6577.9283715871898 -6540.7326705050364 -6536.8497251414265 -6544.4449660220907 -6547.9933796345758 -6551.3844502922639 -6554.6244962314522 -6557.7196203492313 -6560.6757172625776 -6504.2721526247024 -6509.5593795378563 -6514.6217664572678 -6519.46782111839 -6524.1057850438774 -6532.7891291085189 -6528.5436432398947 -6460.1937750560373 -6452.7683560617879 -6467.3162471107398 -6474.1465508547763 -6480.6951672909781 -6486.9722833164687 -6492.9877954381263 -6498.7513093050002 -6381.0651363486595 -6391.3387496776077 -6401.2121672558169 -6410.6986323390483 -6419.8110756902115 -6428.5621159344073 -6445.0289107468889 -6436.9640604069182 -6613.9101153488709 -6614.1880650150479 -6613.3069440326608 -6613.6166776316468 -6612.635162786748 -6612.9800688674277 -6611.8874752967558 -6612.271290966587 -6611.0558616102335 -6611.4826903998564 -6610.1315146051093 -6610.6058628792416 -6609.1047696925343 -6609.6315813856982 -6607.9650316192101 -6608.549725464447 -6615.1598365923192 -6614.9365008799477 -6614.7005422110633 -6614.4512962536228 -6615.3711816849745 -6615.5711377625566 -6615.7602770209087 -6615.9391435169837 -6616.1082543868697 -6616.2681010135448 -6616.5618449696713 -6616.4191501457644 -6616.8238327338631 -6616.6966061345065 -6616.9439032438613 -6617.0571764195847 -6617.1639921510905 -6617.2646722802347 -6617.3595213795943 -6617.4488274946443 -6617.5328628503339 -6617.6118845232031 -6617.7558431845955 -6617.6861350801137 -6618.1331276202473 -6618.0898754434838 -6618.0433367439409 -6617.9933657233159 -6617.9398027320258 -6617.8824805933918 -6617.8212241718629 -6618.3751091589347 -6618.3540467224966 -6618.33052717584 -6618.304476948475 -6618.2758178352769 -6618.2444598249931 -6618.2103008603426 -6618.1732289664033 -6618.4101162665556 -6618.3937801450302 -6618.4241678692279 -6618.4359791945326 -6618.4455858176225 -6618.4530160835475 -6618.4582911840644 -6618.4614252151041 
</DataArray>
<DataArray type="Float64" Name="velocity_p0" NumberOfComponents="3" format="ascii">
0 0 4.4857923784729167e-06 0 0 4.491614323945968e-06 0 0 4.4922769357973587e-06 0 0 4.4859118276017046e-06 0 0 4.4722131327955824e-06 0 0 4.4513593982434641e-06 0 0 4.3899742407636206e-06 0 0 4.4237670702909728e-06 0 0 3.9659129622719855e-06 0 0 4.0289664156914844e-06 0 0 4.090066255872245e-06 0 0 4.1488070407750776e-06 0 0 4.2047401817534872e-06 0 0 4.2573740447198784e-06 0 0 4.3061753367754746e-06 0 0 4.3505743408880497e-06 0 0 3.4958482647876019e-06 0 0 3.5643714619057212e-06 0 0 3.6327705671305191e-06 0 0 3.700871840794887e-06 0 0 3.7684774686413132e-06 0 0 3.8353618343207282e-06 0 0 3.9012698253842408e-06 0 0 3.3590186782290256e-06 0 0 3.4273530594311788e-06 0 0 3.2909609659300431e-06 0 0 3.2232806592721292e-06 0 0 3.1560652214377476e-06 0 0 3.0893904018465229e-06 0 0 3.0233216338124684e-06 0 0 2.9579152707128695e-06 0 0 2.893219676897209e-06 0 0 2.8292761887922928e-06 0 0 2.7037807077814699e-06 0 0 2.7661199605989709e-06 0 0 2.5816486364469024e-06 0 0 2.6422833603159076e-06 0 0 2.5218935465436398e-06 0 0 2.4630318355704457e-06 0 0 2.4050743716967252e-06 0 0 2.3480294876815326e-06 0 0 2.2919032808626438e-06 0 0 2.2366998768696522e-06 0 0 2.025140026493838e-06 0 0 2.0766428412746009e-06 0 0 2.1290694850064178e-06 0 0 2.1824216615454555e-06 0 0 1.3598920931110459e-06 0 0 1.4374089330679156e-06 0 0 1.3982405259407406e-06 0 0 1.5182430551437586e-06 0 0 1.4774067074287538e-06 0 0 1.6024672111307265e-06 0 0 1.5599269716710642e-06 0 0 1.6901502773758585e-06 0 0 1.6458722553500716e-06 0 0 1.7813561533844997e-06 0 0 1.7353091007142282e-06 0 0 1.8761423636730739e-06 0 0 1.8282984160855695e-06 0 0 1.9745582783560221e-06 0 0 1.924893899039567e-06 0 0 2.0207141462558156e-07 0 0 2.1013373977880338e-07 0 0 1.9427863020094451e-07 0 0 1.8674816716642778e-07 0 0 1.7947291930602205e-07 0 0 1.7244592100863271e-07 0 0 1.6566030776183807e-07 0 0 1.5910934340550061e-07 0 0 2.8524110344760642e-07 0 0 2.7474850585126459e-07 0 0 2.6458739389067397e-07 0 0 2.5474962868283408e-07 0 0 2.452271188281122e-07 0 0 2.3601207304205559e-07 0 0 2.1847294395274176e-07 0 0 2.2709662492589282e-07 0 0 3.5562718648232864e-07 0 0 3.6867696474436402e-07 0 0 3.4296880359480687e-07 0 0 3.3069295645299569e-07 0 0 3.1879087424270851e-07 0 0 3.0725390938877012e-07 0 0 2.9607343415775739e-07 0 0 4.8825877317124391e-07 0 0 4.7174803090416482e-07 0 0 4.5570276544102269e-07 0 0 4.4011342856722115e-07 0 0 4.24970501963776e-07 0 0 4.1026468837302593e-07 0 0 3.8212709267265367e-07 0 0 3.9598663155260651e-07 0 0 6.1768424786468698e-07 0 0 6.3827083647758235e-07 0 0 5.9764194818877667e-07 0 0 5.7813387815761662e-07 0 0 5.59150053806121e-07 0 0 5.4068048081097993e-07 0 0 5.2271529097894634e-07 0 0 5.0524461469126094e-07 0 0 8.2377974374984105e-07 0 0 7.9847145681856847e-07 0 0 7.7378943337818306e-07 0 0 7.4972331492376489e-07 0 0 7.2626288950646968e-07 0 0 7.0339760620314223e-07 0 0 6.59411823148923e-07 0 0 6.811173134337653e-07 0 0 1.0193461746122544e-06 0 0 1.0500388798464623e-06 0 0 9.8936291570272018e-07 0 0 9.6007872381944967e-07 0 0 9.314832852070656e-07 0 0 9.0356602761983301e-07 0 0 8.7631662186444183e-07 0 0 8.4972467263947072e-07 0 0 1.3223540780868203e-06 0 0 1.2856169151100574e-06 0 0 1.2496705113925059e-06 0 0 1.2145050674449532e-06 0 0 1.1801105556060637e-06 0 0 1.1464768672798381e-06 0 0 1.0814513867631337e-06 0 0 1.1135938248364572e-06 0 0 1.1610180631743222e-08 0 0 1.2216992890850091e-08 0 0 1.103166981459652e-08 0 0 1.0480241737957265e-08 0 0 9.9546120944232336e-09 0 0 9.4538778483394396e-09 0 0 8.9768432514009946e-09 0 0 1.8253188050389906e-08 0 0 1.7370016878443928e-08 0 0 1.6526752350718297e-08 0 0 1.5721748472709913e-08 0 0 1.4953321883813267e-08 0 0 1.4220136005413452e-08 0 0 1.2853373233825115e-08 0 0 1.352062062947879e-08 0 0 2.5704075608078892e-08 0 0 2.6973403014596401e-08 0 0 2.4490153681427242e-08 0 0 2.3329456908602789e-08 0 0 2.2220059714821188e-08 0 0 2.1159562295982857e-08 0 0 2.0146179645128732e-08 0 0 1.9177972593077712e-08 0 0 3.9409691054987874e-08 0 0 3.7609279933481562e-08 0 0 3.5884559181524767e-08 0 0 3.4232700046231995e-08 0 0 3.2651013298074719e-08 0 0 3.11367387327254e-08 0 0 2.8300390973120241e-08 0 0 2.9687356446492561e-08 0 0 5.4388586135348379e-08 0 0 5.6907418499774164e-08 0 0 5.197142913361871e-08 0 0 4.9652357303437164e-08 0 0 4.7427839805894216e-08 0 0 4.5294570360165819e-08 0 0 4.3249215341616161e-08 0 0 4.1288710428917315e-08 0 0 7.770974877156403e-08 0 0 7.4369848122631367e-08 0 0 7.1159713131657456e-08 0 0 6.8075003786572864e-08 0 0 6.5111423324751273e-08 0 0 5.9531619079607479e-08 0 0 6.2264989216171062e-08 0 0 1.0511111830702165e-07 0 0 1.0965913527532446e-07 0 0 1.007317342821482e-07 0 0 9.651571224343219e-08 0 0 9.2457899768931835e-08 0 0 8.85532664435076e-08 0 0 8.4796896670170107e-08 0 0 8.1183867698076858e-08 0 0 1.527864139000383e-07 0 0 1.4668502765015354e-07 0 0 1.4079881572884843e-07 0 0 1.3512153199983767e-07 0 0 1.2964705314086524e-07 0 0 1.2436937857041056e-07 0 0 1.1438117648555702e-07 0 0 1.1928263027602644e-07 0 0 4.0462234731101669e-09 0 0 3.8314532966197871e-09 0 0 4.5100117964561911e-09 0 0 4.2722237820365772e-09 0 0 5.0232476488919139e-09 0 0 4.7601119682244393e-09 0 0 5.5910173631940204e-09 0 0 5.2999954590031948e-09 0 0 6.2186756962543013e-09 0 0 5.8970039865510543e-09 0 0 6.9121112449350383e-09 0 0 6.5567837118393825e-09 0 0 7.6777247127808711e-09 0 0 7.285474668220627e-09 0 0 8.5224667789222171e-09 0 0 8.0897476960185802e-09 0 0 3.0743353667227334e-09 0 0 3.2493007863744475e-09 0 0 3.4334937899721046e-09 0 0 3.6273793552552837e-09 0 0 2.9081494479663342e-09 0 0 2.7503143071584652e-09 0 0 2.6004197971090583e-09 0 0 2.4580735806412339e-09 0 0 2.3229003936154383e-09 0 0 2.194541327308847e-09 0 0 1.9569075575926421e-09 0 0 2.0726531342951589e-09 0 0 1.7426022870488547e-09 0 0 1.8469906783354845e-09 0 0 1.6434552726558896e-09 0 0 1.5492750330405652e-09 0 0 1.4597989028076997e-09 0 0 1.3747756004248066e-09 0 0 1.293964693213267e-09 0 0 1.217136078799516e-09 0 0 1.1440694833915207e-09 0 0 1.0745539763142165e-09 0 0 9.4537641224178315e-10 0 0 1.0083874996047995e-09 0 0 5.7785787761633056e-10 0 0 6.2358560113679965e-10 0 0 6.7131344625544115e-10 0 0 7.2118777504969947e-10 0 0 7.734561580116161e-10 0 0 8.2808529252167043e-10 0 0 8.8533504908183059e-10 0 0 2.6801528866483069e-10 0 0 3.0245462969279212e-10 0 0 3.3788315474607268e-10 0 0 3.7441467967338403e-10 0 0 4.1206734590473869e-10 0 0 4.5115863996786203e-10 0 0 4.9171353398357999e-10 0 0 5.339891462282974e-10 0 0 2.0162380796399221e-10 0 0 2.344539731827246e-10 0 0 1.6949418768983618e-10 0 0 1.379221031992794e-10 0 0 1.0680413703744332e-10 0 0 7.6038103185480609e-11 0 0 4.5522770269784528e-11 0 0 1.5157588101066226e-11 
</DataArray>
<DataArray type="Float64" Name="water_content" format="ascii">
0.41741542191300718 0.41123216629565124 0.40378496040068701 0.3960153774535996 0.38819412589998947 0.38046981190181595 0.3656325848404271 0.37293133673138756 0.31746363102675501 0.32251499432325892 0.32782566504837352 0.33340699827059384 0.33926915320327189 0.34542029557969944 0.35186548098763609 0.35860508619183651 0.28835913236524113 0.29192785577344604 0.29567459673778618 0.29960987671748196 0.30374473440616956 0.30809067630016745 0.31265959336717747 0.28171636787948651 0.28495844674614051 0.27862400813848498 0.27567300952432156 0.27285552426599335 0.2701641918483112 0.26759211401976091 0.2651328288701762 0.26278028476096849 0.26052881465611111 0.25630820298367152 0.25837311122800255 0.25243243028575568 0.25432943156225274 0.2506131039954454 0.24886761017084361 0.24719234130377954 0.24558390848332173 0.24403912613673495 0.24255499786525708 0.237171009658807 0.23843914200464969 0.23975758598472324 0.24112870331029498 0.22292031745183097 0.22439602893789606 0.22364477217383297 0.22598327541733615 0.22517515626171727 0.22769125843510304 0.22682156378094187 0.22953013702803066 0.22859366004442394 0.23151115688039348 0.23050213005362641 0.23364680017003409 0.23255881758031499 0.23595095975525759 0.23477688668808905 0.2057748019025562 0.2058621023420075 0.20569095277677241 0.20561043149385919 0.20553311853073963 0.2054588981923148 0.20538765849853891 0.20531929107810204 0.20670097264510678 0.20658110096225069 0.20646582596011936 0.20635498783015621 0.20624843183227204 0.20614600810984407 0.20595298163333781 0.20604757153779746 0.2075263624619671 0.20768334670272981 0.20737524990063116 0.20722980878056299 0.20708984523911528 0.20695517157130031 0.20682560603721795 0.20917692155727585 0.20896491098325759 0.20876063285616414 0.20856382686019584 0.20837424120570142 0.20819163229180232 0.20784640945942537 0.20801576440550534 0.21090132182462829 0.21118570419809329 0.21062710510959892 0.21036271193337475 0.2101078119312752 0.20986208601609307 0.20962522591713803 0.20939693374342955 0.21387209987471406 0.21349247960323939 0.21312625411718458 0.2127729658216313 0.21243217395640801 0.21210345387495294 0.21148060662531232 0.21178639631187671 0.21694688203363607 0.21745245620278558 0.21645908163213468 0.21598842784393729 0.21553431866672834 0.21509617600664371 0.21467344447490366 0.21426559021580521 0.22222164589210025 0.22154778531713165 0.22089780761854427 0.22027082623801292 0.2196659937495975 0.21908249970355298 0.21797645783508673 0.21851956858089194 0.20391660735425743 0.20392153414817296 0.20391192567614175 0.20390747762999539 0.20390325225388667 0.2038992390420824 0.20389542792632542 0.20397133188601607 0.20396396394574226 0.20395695349266035 0.20395028427422801 0.20394394073639063 0.20393790795863315 0.20392671806048063 0.20393217162970528 0.20403443702441931 0.20404534021822385 0.20402404903629584 0.20401415357412953 0.20400472882903259 0.20399575390641295 0.20398720879509663 0.2039790742704003 0.20415416117544649 0.20413819965449626 0.20412297160399223 0.20410844581920784 0.20409459228172622 0.20408138214144339 0.2040567822385615 0.20406878767799488 0.20428932063807415 0.20431243085051165 0.20426724174721894 0.20424615183713624 0.20422601013006772 0.20420677734519854 0.20418841565109333 0.20417088860937099 0.2045069862432517 0.20447532978992644 0.2044450489399795 0.20441608899516422 0.20438839720456087 0.20433661632980732 0.2043619226779432 0.20477212760237035 0.20481701054405438 0.20472913496522155 0.20468796017738 0.20464853324225729 0.20461078654962217 0.20457465480563364 0.20454007499121846 0.20525369106143934 0.20519075697854597 0.20513039066001731 0.20507249714115683 0.20501698456900366 0.20496376411214323 0.20486385877776297 0.20491274987317248 0.20385689689638606 0.20385526557972755 0.2038604372622107 0.2038586192049846 0.20386438080430769 0.20386235604888767 0.20386877051268121 0.20386651703710518 0.20387365366814927 0.20387114727687292 0.20387908222544954 0.20387629633027413 0.20388511323828484 0.20388201864795341 0.20389180930407014 0.20388837399783091 0.20384956280546626 0.20385087334505142 0.20385225801519458 0.20385372072433205 0.20384832267692171 0.20384714942128507 0.20384603967393178 0.20384499023619396 0.20384399806812312 0.20384306028155674 0.20384133701967255 0.20384217413348016 0.20383980013575204 0.20384054646862948 0.20383909579779436 0.20383843134756058 0.20383780478884395 0.20383721423159959 0.20383665788734306 0.20383613406476808 0.20383564116557595 0.20383517768050979 0.20383433333852391 0.203834742185587 0.20383212060774358 0.20383237426907336 0.20383264720715757 0.20383294027757609 0.20383325441721378 0.20383359060717918 0.20383394987534614 0.20383070149436525 0.2038308250136053 0.20383096294297043 0.20383111571410226 0.20383128378585111 0.20383146768633659 0.20383166801435865 0.20383188542692077 0.20383049619860261 0.20383059200002623 0.20383041379472472 0.20383034452884041 0.20383028819223886 0.20383024461862626 0.20383021368367465 0.20383019530468399 
</DataArray>
<DataArray type="Float64" Name="conductivity_richards" format="ascii">