<?xml version="1.0"?>
<VTKFile type="UnstructuredGrid" version="0.1" byte_order="LittleEndian">
<UnstructuredGrid>
<Piece NumberOfPoints="251" NumberOfCells="250">
<Points>
<DataArray type="Float64" NumberOfComponents="3" format="ascii">
0 0 0 0 0 -0.25 0 0 -0.00099999999999810158 0 0 -0.001999999999996204 0 0 -0.0029999999999943271 0 0 -0.0039999999999924488 0 0 -0.004999999999990571 0 0 -0.0059999999999886811 0 0 -0.0069999999999867156 0 0 -0.007999999999984719 0 0 -0.008999999999982581 0 0 -0.0099999999999804221 0 0 -0.010999999999978201 0 0 -0.011999999999975971 0 0 -0.01299999999997375 0 0 -0.01399999999997158 0 0 -0.014999999999969531 0 0 -0.01599999999996761 0 0 -0.0169999999999659 0 0 -0.01799999999996427 0 0 -0.018999999999962731 0 0 -0.019999999999961209 0 0 -0.020999999999959669 0 0 -0.02199999999995814 0 0 -0.022999999999956611 0 0 -0.023999999999955082 0 0 -0.024999999999953549 0 0 -0.02599999999995202 0 0 -0.02699999999995048 0 0 -0.027999999999948951 0 0 -0.028999999999947419 0 0 -0.02999999999994565 0 0 -0.03099999999994377 0 0 -0.031999999999941367 0 0 -0.032999999999938787 0 0 -0.033999999999935943 0 0 -0.034999999999933022 0 0 -0.035999999999930102 0 0 -0.036999999999927188 0 0 -0.037999999999924268 0 0 -0.038999999999921348 0 0 -0.039999999999918427 0 0 -0.040999999999915507 0 0 -0.041999999999912593 0 0 -0.042999999999909673 0 0 -0.043999999999906753 0 0 -0.044999999999903832 0 0 -0.045999999999900919 0 0 -0.046999999999897998 0 0 -0.047999999999895078 0 0 -0.048999999999892158 0 0 -0.049999999999889237 0 0 -0.050999999999886317 0 0 -0.051999999999883403 0 0 -0.052999999999880483 0 0 -0.053999999999877563 0 0 -0.054999999999874642 0 0 -0.055999999999871722 0 0 -0.056999999999868801 0 0 -0.057999999999865881 0 0 -0.058999999999862961 0 0 -0.059999999999860047 0 0 -0.060999999999857127 0 0 -0.061999999999854213 0 0 -0.062999999999851286 0 0 -0.063999999999848373 0 0 -0.064999999999845445 0 0 -0.065999999999842532 0 0 -0.066999999999839618 0 0 -0.067999999999836705 0 0 -0.068999999999833792 0 0 -0.069999999999830878 0 0 -0.070999999999827965 0 0 -0.071999999999825051 0 0 -0.072999999999822124 0 0 -0.07399999999981921 0 0 -0.074999999999816297 0 0 -0.075999999999813383 0 0 -0.07699999999981047 0 0 -0.077999999999807557 0 0 -0.078999999999804643 0 0 -0.07999999999980173 0 0 -0.080999999999798802 0 0 -0.081999999999795889 0 0 -0.082999999999792975 0 0 -0.083999999999790062 0 0 -0.084999999999787149 0 0 -0.085999999999784235 0 0 -0.086999999999781322 0 0 -0.087999999999778394 0 0 -0.088999999999775481 0 0 -0.089999999999772567 0 0 -0.090999999999769654 0 0 -0.091999999999766741 0 0 -0.092999999999763827 0 0 -0.093999999999760914 0 0 -0.094999999999758 0 0 -0.095999999999755073 0 0 -0.096999999999752159 0 0 -0.097999999999749246 0 0 -0.098999999999746333 0 0 -0.099999999999743419 0 0 -0.10099999999974051 0 0 -0.10199999999973761 0 0 -0.10299999999973471 0 0 -0.10399999999973179 0 0 -0.1049999999997288 0 0 -0.1059999999997259 0 0 -0.106999999999723 0 0 -0.1079999999997201 0 0 -0.1089999999997172 0 0 -0.1099999999997143 0 0 -0.1109999999997113 0 0 -0.1119999999997084 0 0 -0.1129999999997055 0 0 -0.1139999999997026 0 0 -0.1149999999996997 0 0 -0.1159999999996968 0 0 -0.11699999999969379 0 0 -0.11799999999969089 0 0 -0.11899999999968799 0 0 -0.11999999999968509 0 0 -0.1209999999996822 0 0 -0.1219999999996793 0 0 -0.1229999999996764 0 0 -0.1239999999996748 0 0 -0.12499999999967321 0 0 -0.12599999999967451 0 0 -0.12699999999967579 0 0 -0.1279999999996784 0 0 -0.12899999999968109 0 0 -0.1299999999996837 0 0 -0.13099999999968631 0 0 -0.13199999999968889 0 0 -0.13299999999969159 0 0 -0.1339999999996942 0 0 -0.13499999999969689 0 0 -0.1359999999996995 0 0 -0.13699999999970211 0 0 -0.1379999999997048 0 0 -0.13899999999970741 0 0 -0.13999999999971011 0 0 -0.14099999999971269 0 0 -0.1419999999997153 0 0 -0.14299999999971799 0 0 -0.1439999999997206 0 0 -0.14499999999972321 0 0 -0.14599999999972579 0 0 -0.14699999999972849 0 0 -0.1479999999997311 0 0 -0.14899999999973379 0 0 -0.1499999999997364 0 0 -0.15099999999973901 0 0 -0.1519999999997417 0 0 -0.15299999999974431 0 0 -0.15399999999974701 0 0 -0.15499999999974959 0 0 -0.1559999999997522 0 0 -0.15699999999975489 0 0 -0.1579999999997575 0 0 -0.15899999999976011 0 0 -0.1599999999997628 0 0 -0.16099999999976539 0 0 -0.161999999999768 0 0 -0.16299999999977069 0 0 -0.1639999999997733 0 0 -0.16499999999977599 0 0 -0.1659999999997786 0 0 -0.16699999999978121 0 0 -0.16799999999978391 0 0 -0.16899999999978649 0 0 -0.1699999999997891 0 0 -0.17099999999979171 0 0 -0.1719999999997944 0 0 -0.17299999999979701 0 0 -0.1739999999997997 0 0 -0.17499999999980231 0 0 -0.17599999999980501 0 0 -0.17699999999980759 0 0 -0.1779999999998102 0 0 -0.17899999999981281 0 0 -0.1799999999998155 0 0 -0.18099999999981811 0 0 -0.18199999999982069 0 0 -0.18299999999982339 0 0 -0.183999999999826 0 0 -0.18499999999982869 0 0 -0.1859999999998313 0 0 -0.18699999999983391 0 0 -0.1879999999998366 0 0 -0.18899999999983921 0 0 -0.18999999999984191 0 0 -0.19099999999984449 0 0 -0.1919999999998471 0 0 -0.19299999999984971 0 0 -0.1939999999998524 0 0 -0.19499999999985501 0 0 -0.1959999999998577 0 0 -0.19699999999986029 0 0 -0.19799999999986301 0 0 -0.19899999999986559 0 0 -0.1999999999998682 0 0 -0.20099999999987081 0 0 -0.2019999999998735 0 0 -0.20299999999987611 0 0 -0.20399999999987881 0 0 -0.20499999999988139 0 0 -0.205999999999884 0 0 -0.20699999999988669 0 0 -0.2079999999998893 0 0 -0.20899999999989191 0 0 -0.2099999999998946 0 0 -0.21099999999989719 0 0 -0.21199999999989991 0 0 -0.21299999999990249 0 0 -0.2139999999999051 0 0 -0.21499999999990771 0 0 -0.2159999999999104 0 0 -0.21699999999991301 0 0 -0.21799999999991571 0 0 -0.21899999999991829 0 0 -0.2199999999999209 0 0 -0.22099999999992359 0 0 -0.2219999999999262 0 0 -0.22299999999992881 0 0 -0.22399999999993139 0 0 -0.22499999999993411 0 0 -0.2259999999999367 0 0 -0.22699999999993939 0 0 -0.227999999999942 0 0 -0.22899999999994469 0 0 -0.2299999999999473 0 0 -0.23099999999994991 0 0 -0.23199999999995249 0 0 -0.23299999999995519 0 0 -0.2339999999999578 0 0 -0.23499999999996049 0 0 -0.2359999999999631 0 0 -0.23699999999996571 0 0 -0.2379999999999684 0 0 -0.23899999999997101 0 0 -0.2399999999999736 0 0 -0.24099999999997629 0 0 -0.2419999999999789 0 0 -0.24299999999998159 0 0 -0.2439999999999842 0 0 -0.24499999999998681 0 0 -0.24599999999998939 0 0 -0.24699999999999209 0 0 -0.2479999999999947 0 0 -0.24899999999999739 
</DataArray>
</Points>
<Cells>
<DataArray type="UInt32" Name="connectivity" format="ascii">
0 2 2 3 3 4 4 5 5 6 6 7 7 8 8 9 9 10 10 11 11 12 12 13 13 14 14 15 15 16 16 17 17 18 18 19 19 20 20 21 21 22 22 23 23 24 24 25 25 26 26 27 27 28 28 29 29 30 30 31 31 32 32 33 33 34 34 35 35 36 36 37 37 38 38 39 39 40 40 41 41 42 42 43 43 44 44 45 45 46 46 47 47 48 48 49 49 50 50 51 51 52 52 53 53 54 54 55 55 56 56 57 57 58 58 59 59 60 60 61 61 62 62 63 63 64 64 65 65 66 66 67 67 68 68 69 69 70 70 71 71 72 72 73 73 74 74 75 75 76 76 77 77 78 78 79 79 80 80 81 81 82 82 83 83 84 84 85 85 86 86 87 87 88 88 89 89 90 90 91 91 92 92 93 93 94 94 95 95 96 96 97 97 98 98 99 99 100 100 101 101 102 102 103 103 104 104 105 105 106 106 107 107 108 108 109 109 110 110 111 111 112 112 113 113 114 114 115 115 116 116 117 117 118 118 119 119 120 120 121 121 122 122 123 123 124 124 125 125 126 126 127 127 128 128 129 129 130 130 131 131 132 132 133 133 134 134 135 135 136 136 137 137 138 138 139 139 140 140 141 141 142 142 143 143 144 144 145 145 146 146 147 147 148 148 149 149 150 150 151 151 152 152 153 153 154 154 155 155 156 156 157 157 158 158 159 159 160 160 161 161 162 162 163 163 164 164 165 165 166 166 167 167 168 168 169 169 170 170 171 171 172 172 173 173 174 174 175 175 176 176 177 177 178 178 179 179 180 180 181 181 182 182 183 183 184 184 185 185 186 186 187 187 188 188 189 189 190 190 191 191 192 192 193 193 194 194 195 195 196 196 197 197 198 198 199 199 200 200 201 201 202 202 203 203 204 204 205 205 206 206 207 207 208 208 209 209 210 210 211 211 212 212 213 213 214 214 215 215 216 216 217 217 218 218 219 219 220 220 221 221 222 222 223 223 224 224 225 225 226 226 227 227 228 228 229 229 230 230 231 231 232 232 233 233 234 234 235 235 236 236 237 237 238 238 239 239 240 240 241 241 242 242 243 243 244 244 245 245 246 246 247 247 248 248 249 249 250 250 1 
</DataArray>
<DataArray type="UInt32" Name="offsets" format="ascii">
2 4 6 8 10 12 14 16 18 20 22 24 26 28 30 32 34 36 38 40 42 44 46 48 50 52 54 56 58 60 62 64 66 68 70 72 74 76 78 80 82 84 86 88 90 92 94 96 98 100 102 104 106 108 110 112 114 116 118 120 122 124 126 128 130 132 134 136 138 140 142 144 146 148 150 152 154 156 158 160 162 164 166 168 170 172 174 176 178 180 182 184 186 188 190 192 194 196 198 200 202 204 206 208 210 212 214 216 218 220 222 224 226 228 230 232 234 236 238 240 242 244 246 248 250 252 254 256 258 260 262 264 266 268 270 272 274 276 278 280 282 284 286 288 290 292 294 296 298 300 302 304 306 308 310 312 314 316 318 320 322 324 326 328 330 332 334 336 338 340 342 344 346 348 350 352 354 356 358 360 362 364 366 368 370 372 374 376 378 380 382 384 386 388 390 392 394 396 398 400 402 404 406 408 410 412 414 416 418 420 422 424 426 428 430 432 434 436 438 440 442 444 446 448 450 452 454 456 458 460 462 464 466 468 470 472 474 476 478 480 482 484 486 488 490 492 494 496 498 500 
</DataArray>
<DataArray type="UInt32" Name="types" format="ascii">
3 3 3 3 3 3 3 3 3 3 3 3 3 3 3 3 3 3 3 3 3 3 3 3 3 3 3 3 3 3 3 3 3 3 3 3 3 3 3 3 3 3 3 3 3 3 3 3 3 3 3 3 3 3 3 3 3 3 3 3 3 3 3 3 3 3 3 3 3 3 3 3 3 3 3 3 3 3 3 3 3 3 3 3 3 3 3 3 3 3 3 3 3 3 3 3 3 3 3 3 3 3 3 3 3 3 3 3 3 3 3 3 3 3 3 3 3 3 3 3 3 3 3 3 3 3 3 3 3 3 3 3 3 3 3 3 3 3 3 3 3 3 3 3 3 3 3 3 3 3 3 3 3 3 3 3 3 3 3 3 3 3 3 3 3 3 3 3 3 3 3 3 3 3 3 3 3 3 3 3 3 3 3 3 3 3 3 3 3 3 3 3 3 3 3 3 3 3 3 3 3 3 3 3 3 3 3 3 3 3 3 3 3 3 3 3 3 3 3 3 3 3 3 3 3 3 3 3 3 3 3 3 3 3 3 3 3 3 3 3 3 3 3 3 3 3 3 3 3 3 
</DataArray>
</Cells>
<CellData Scalars="pressure_p0,water_content,conductivity_richards," Vectors="velocity_p0," Tensors="">
<DataArray type="Float64" Name="pressure_p0" format="ascii">
-6370.454668296471 -6370.2831247834001 -6369.9409815320387 -6369.4281261145334 -6368.7443899326281 -6367.889548273135 -6366.8633203819827 -6365.6653695569003 -6364.2953032587966 -6362.7526732419665 -6361.0369757031986 -6359.1476514499327 -6357.084086087596 -6354.8456102262862 -6352.431499706955 -6349.8409758473072 -6347.073205707582 -6344.1273023764643 -6341.0023252773308 -6337.6972804950929 -6334.2111211238844 -6330.5427476358755 -6326.6910082714803 -6322.6546994512737 -6318.4325662099291 -6314.023302652482 -6309.4255524332684 -6304.6379092578845 -6299.6589174085284 -6294.4870722930827 -6289.1208210183258 -6283.5585629876614 -6277.7986505237659 -6271.8393895165573 -6265.6790400969221 -6259.3158173365919 -6252.7478919746445 -6245.9733911710391 -6238.9903992876498 -6231.7969586972513 -6224.3910706209081 -6216.7706959942443 -6208.9337563630525 -6200.878134808725 -6192.6016769039707 -6184.1021916993232 -6175.3774527408914 -6166.4251991198535 -6157.2431365541715 -6147.8289385030166 -6138.180247314368 -6128.2946754062959 -6118.1698064823831 -6107.8031967817678 -6097.1923763642717 -6086.3348504311007 -6075.2281006815474 -6063.8695867061742 -6052.2567474169155 -6040.3870025145261 -6028.2577539938202 -6015.8663876871105 -6003.2102748462639 -5990.2867737637534 -5977.0932314331039 -5963.6269852490823 -5949.88536474801 -5935.8656933885068 -5921.5652903730115 -5906.9814725103543 -5892.1115561196839 -5876.9528589760012 -5861.5027022975382 -5845.7584127752016 -5829.7173246442781 -5813.376781798559 -5796.7341399470333 -5779.7867688132555 -5762.5320543774942 -5744.9674011616808 -5727.0902345572085 -5708.8980031955762 -5690.3881813618136 -5671.5582714506181 -5652.405806465099 -5632.9283525579613 -5613.1235116149483 -5592.9889238803062 -5572.5222706239947 -5551.7212768503241 -5530.5837140476615 -5509.107402978796 -5487.2902165114929 -5465.1300824887512 -5442.6249866381877 -5419.7729755199452 -5396.5721595124633 -5373.0207158353887 -5349.11689160884 -5324.859006948207 -5300.2454580935791 -5275.2747205728447 -5249.9453523974407 -5224.2559972896688 -5198.2053879404166 -5171.7923492960699 -5145.0158018733164 -5117.8747651004842 -5090.368360683955 -5062.4958159981697 -5034.2564674976147 -5005.6497641491023 -4976.6752708826334 -4947.3326720589712 -4917.621774952021 -4887.5425132440123 -4857.0949505313793 -4826.2792838391515 -4795.0958471415943 -4763.545114886716 -4731.6277055221635 -4699.3443850199601 -4666.6960703973982 -4633.6838332313191 -4600.3089031629634 -4566.5726713902859 -4532.4766941448233 -4498.022696149761 -4463.2125740558931 -4428.048399852205 -4392.5324242473362 -4356.6670800184211 -4320.4549853234412 -4283.8989469732023 -4247.0019636589013 -4209.7672291311264 -4172.1981353260035 -4134.298275434041 -4096.0714469071718 -4057.5216543992365 -4018.6531126351092 -3979.4702492034858 -3939.9777072682068 -3900.1803481928791 -3860.0832540733336 -3819.691730172397 -3779.0113072512449 -3738.0477437914697 -3696.8070281018181 -3655.2953803034243 -3613.5192541871747 -3571.4853389366913 -3529.2005607102537 -3486.6720840747876 -3443.9073132849098 -3400.9138933998283 -3357.6997112307063 -3314.2728961109624 -3270.6418204817428 -3226.8151002846625 -3182.8015951537304 -3138.6104083981309 -3094.2508867674228 -3049.7326199904837 -3005.0654400793237 -2960.2594203887356 -2915.3248744225461 -2870.2723543769962 -2825.1126494116688 -2779.8567836380776 -2734.5160138159154 -2689.1018267467425 -2643.6259363546733 -2598.1002804434306 -2552.5370171189761 -2506.948520866672 -2461.3473782717747 -2415.7463833718534 -2370.1585326295326 -2324.597019513777 -2279.0752286777492 -2233.6067297210757 -2188.2052705241904 -2142.8847701422851 -2097.659311246146 -2052.5431320970852 -2007.5506180429797 -1962.6962925222745 -1917.9948075627271 -1873.4609337614747 -1829.1095497329632 -1784.9556310111307 -1741.0142383921748 -1697.3005057041776 -1653.8296269897805 -1610.6168430880919 -1567.6774276019994 -1525.0266722370607 -1482.6798714981906 -1440.6523067304083 -1398.9592294899985 -1357.6158442325777 -1316.6372903046529 -1276.038623225455 -1235.8347952460422 -1196.040635172862 -1156.6708274432349 -1117.73989044051 -1079.2621540368891 -1041.251736352272 -1003.7225197177736 -966.68812583281419 -930.16189010500352 -894.15683516219519 -858.68564352621343 -823.76062943774036 -789.39370982158744 -755.59637438108257 -722.3796548094133 -689.75409310433349 -657.72970897050891 -626.31596629072192 -595.5217386427538 -565.35527383276258 -535.82415740763304 -506.93527509743814 -478.69477412372686 -451.1080232885181 -424.17957173063337 -397.91310619773526 -372.31140663048899 -347.37629978435228 -323.10861051723339 -299.50811023675493 -276.57346181319315 -254.30215999933856 -232.69046601967162 -211.73333444045693 -191.42432961600903 -171.7555277680994 -152.71739882469944 -134.29865903135172 -116.48608012087286 -99.264231593355731 -82.615115270043162 -66.51761568305227 -50.946608122396746 -35.871343827157339 -21.251922547425931 -7.025229357241904 
</DataArray>
<DataArray type="Float64" Name="velocity_p0" NumberOfComponents="3" format="ascii">
0 0 1.2446733768087198e-09 0 0 3.7345017536171318e-09 0 0 6.2257747598773802e-09 0 0 8.7194551590750768e-09 0 0 1.1216505706890226e-08 0 0 1.3717889148061186e-08 0 0 1.6224568212649622e-08 0 0 1.8737505612534857e-08 0 0 2.1257664037480149e-08 0 0 2.3786006151096603e-08 0 0 2.6323494586786126e-08 0 0 2.8871091943030844e-08 0 0 3.1429760778684271e-08 0 0 3.4000463607947415e-08 0 0 3.6584162894836255e-08 0 0 3.9181821047399261e-08 0 0 4.1794400411572653e-08 0 0 4.4422863264464656e-08 0 0 4.7068171807438955e-08 0 0 4.9731288158409239e-08 0 0 5.2413174344029205e-08 0 0 5.5114792290943324e-08 0 0 5.7837103817014675e-08 0 0 6.0581070621452583e-08 0 0 6.3347654274725589e-08 0 0 6.6137816207807768e-08 0 0 6.8952517701022695e-08 0 0 7.1792719871542269e-08 0 0 7.4659383661226126e-08 0 0 7.7553469823228714e-08 0 0 8.0475938907887009e-08 0 0 8.3427751248365513e-08 0 0 8.6409866945202909e-08 0 0 8.942324585042523e-08 0 0 9.2468847550766663e-08 0 0 9.5547631350549311e-08 0 0 9.8660556253223163e-08 0 0 1.0180858094295903e-07 0 0 1.0499266376483469e-07 0 0 1.0821376270478699e-07 0 0 1.114728353687294e-07 0 0 1.1477083896068829e-07 0 0 1.1810873026065735e-07 0 0 1.2148746560156042e-07 0 0 1.2490800084524658e-07 0 0 1.2837129135829981e-07 0 0 1.3187829198675128e-07 0 0 1.3542995703032705e-07 0 0 1.390272402158198e-07 0 0 1.4267109467014599e-07 0 0 1.463624728924419e-07 0 0 1.5010232672554809e-07 0 0 1.5389160732691656e-07 0 0 1.5773126513910193e-07 0 0 1.6162224985938432e-07 0 0 1.6556551040880815e-07 0 0 1.6956199490087025e-07 0 0 1.7361265060943614e-07 0 0 1.7771842393620418e-07 0 0 1.8188026037773104e-07 0 0 1.8609910449185036e-07 0 0 1.9037589986354502e-07 0 0 1.9471158907028197e-07 0 0 1.9910711364730234e-07 0 0 2.035634140520479e-07 0 0 2.0808142962824221e-07 0 0 2.1266209856965286e-07 0 0 2.1730635788351053e-07 0 0 2.2201514335319737e-07 0 0 2.2678938950106842e-07 0 0 2.3163002955058549e-07 0 0 2.365379953880375e-07 0 0 2.4151421752429608e-07 0 0 2.4655962505582849e-07 0 0 2.5167514562557026e-07 0 0 2.5686170538357308e-07 0 0 2.6212022894719597e-07 0 0 2.6745163936096668e-07 0 0 2.7285685805620186e-07 0 0 2.7833680481040527e-07 0 0 2.8389239770620943e-07 0 0 2.895245530896585e-07 0 0 2.9523418552908025e-07 0 0 3.010222077724754e-07 0 0 3.0688953070552858e-07 0 0 3.1283706330833299e-07 0 0 3.1886571261232843e-07 0 0 3.2497638365646562e-07 0 0 3.3116997944308563e-07 0 0 3.3744740089303683e-07 0 0 3.4380954680028843e-07 0 0 3.502573137860838e-07 0 0 3.5679159625211382e-07 0 0 3.6341328633313182e-07 0 0 3.7012327384885025e-07 0 0 3.769224462544227e-07 0 0 3.8381168859079212e-07 0 0 3.9079188343305144e-07 0 0 3.9786391083840167e-07 0 0 4.0502864829228533e-07 0 0 4.1228697065338122e-07 0 0 4.1963975009707856e-07 0 0 4.2708785605710183e-07 0 0 4.3463215516560304e-07 0 0 4.4227351119097171e-07 0 0 4.500127849737453e-07 0 0 4.5785083436004596e-07 0 0 4.6578851413260295e-07 0 0 4.7382667593893704e-07 0 0 4.8196616821636746e-07 0 0 4.9020783611440009e-07 0 0 4.9855252141301444e-07 0 0 5.0700106243750608e-07 0 0 5.1555429396922517e-07 0 0 5.2421304715180037e-07 0 0 5.3297814939279677e-07 0 0 5.4185042426035824e-07 0 0 5.5083069137411765e-07 0 0 5.5991976629046226e-07 0 0 5.691184603812341e-07 0 0 5.7842758070589601e-07 0 0 5.8784792987630918e-07 0 0 5.9738030591338899e-07 0 0 6.0702550209597798e-07 0 0 6.1678430680015708e-07 0 0 6.2665750332904008e-07 0 0 6.3664586973250438e-07 0 0 6.4675017861557336e-07 0 0 6.5697119693514368e-07 0 0 6.6730968578384888e-07 0 0 6.7776640016066921e-07 0 0 6.8834208872689121e-07 0 0 6.990374935467072e-07 0 0 7.0985334981113542e-07 0 0 7.2079038554459126e-07 0 0 7.3184932129211552e-07 0 0 7.4303086978723272e-07 0 0 7.5433573559762076e-07 0 0 7.6576461474823005e-07 0 0 7.773181943198733e-07 0 0 7.8899715202162118e-07 0 0 8.0080215573568613e-07 0 0 8.1273386303189882e-07 0 0 8.247929206512422e-07 0 0 8.3697996395517263e-07 0 0 8.4929561633870523e-07 0 0 8.6174048860555217e-07 0 0 8.7431517830160465e-07 0 0 8.8702026900493405e-07 0 0 8.9985632956913746e-07 0 0 9.1282391331641826e-07 0 0 9.2592355717795263e-07 0 0 9.3915578077721175e-07 0 0 9.5252108545276423e-07 0 0 9.6601995321642031e-07 0 0 9.796528456424627e-07 0 0 9.9342020268311905e-07 0 0 1.0073224414054989e-06 0 0 1.0213599546445509e-06 0 0 1.0355331095660859e-06 0 0 1.0498422461347403e-06 0 0 1.0642876754786858e-06 0 0 1.0788696781458623e-06 0 0 1.0935885022428992e-06 0 0 1.1084443614494274e-06 0 0 1.1234374328987858e-06 0 0 1.1385678549161526e-06 0 0 1.1538357246039401e-06 0 0 1.1692410952638265e-06 0 0 1.1847839736444293e-06 0 0 1.2004643170015753e-06 0 0 1.2162820299586912e-06 0 0 1.2322369611530815e-06 0 0 1.2483288996523091e-06 0 0 1.2645575711251913e-06 0 0 1.2809226337491838e-06 0 0 1.2974236738357687e-06 0 0 1.314060201153015e-06 0 0 1.3308316439240767e-06 0 0 1.3477373434778014e-06 0 0 1.3647765485260997e-06 0 0 1.3819484090412295e-06 0 0 1.3992519697034459e-06 0 0 1.4166861628876655e-06 0 0 1.4342498011553032e-06 0 0 1.4519415692145737e-06 0 0 1.4697600153102612e-06 0 0 1.4877035420006671e-06 0 0 1.5057703962762912e-06 0 0 1.5239586589709211e-06 0 0 1.5422662334131736e-06 0 0 1.5606908332615628e-06 0 0 1.5792299694623591e-06 0 0 1.5978809362645236e-06 0 0 1.616640796222403e-06 0 0 1.6355063641099733e-06 0 0 1.6544741896664738e-06 0 0 1.673540539086845e-06 0 0 1.6927013751642767e-06 0 0 1.7119523359863299e-06 0 0 1.7312887120788698e-06 0 0 1.7507054218856531e-06 0 0 1.7701969854648135e-06 0 0 1.7897574962748433e-06 0 0 1.8093805909175384e-06 0 0 1.8290594166972675e-06 0 0 1.8487865968492484e-06 0 0 1.8685541932837429e-06 0 0 1.8883536666877305e-06 0 0 1.9081758338213569e-06 0 0 1.928010821843224e-06 0 0 1.9478480195000408e-06 0 0 1.9676760250163185e-06 0 0 1.98748259052829e-06 0 0 2.0072545629158624e-06 0 0 2.0269778209051782e-06 0 0 2.0466372083391045e-06 0 0 2.0662164635491559e-06 0 0 2.0856981448106591e-06 0 0 2.1050635519275705e-06 0 0 2.1242926440774774e-06 0 0 2.1433639541573736e-06 0 0 2.162254500010561e-06 0 0 2.1809396930943743e-06 0 0 2.1993932453753076e-06 0 0 2.2175870755233829e-06 0 0 2.2354912158381688e-06 0 0 2.2530737217884186e-06 0 0 2.2703005866117013e-06 0 0 2.2871356641248208e-06 0 0 2.3035406037767064e-06 0 0 2.3194748030776718e-06 0 0 2.3348953839202354e-06 0 0 2.3497572010471476e-06 0 0 2.3640128931239796e-06 0 0 2.377612989687238e-06 0 0 2.3905060908741915e-06 0 0 2.4026391416164241e-06 0 0 2.4139578283913936e-06 0 0 2.4244071354875523e-06 0 0 2.4339321104416535e-06 0 0 2.4424789073841808e-06 0 0 2.4499962073553893e-06 0 0 2.4564371663107491e-06 0 0 2.4617621372081423e-06 0 0 2.4659426091084243e-06 0 0 2.4689672683340391e-06 0 0 2.4708524038753651e-06 0 0 2.471664065591456e-06 0 0 2.471615174142523e-06 
</DataArray>
<DataArray type="Float64" Name="water_content" format="ascii">
0.20531880114307793 0.20531985515832926 0.20532195749341769 0.2053251090453761 0.20532931115968517 0.20533456563053254 0.20534087470115839 0.20534824106428812 0.20535666786265222 0.20536615868959415 0.20537671758976661 0.20538834905991718 0.20540105804976375 0.20541484996296092 0.20542973065815823 0.20544570645015126 0.20546278411112678 0.20548097087200337 0.20550027442386837 0.20552070291951313 0.20554226497506811 0.2055649696717389 0.20558882655764554 0.20561384564976659 0.20564003743599024 0.20566741287727433 0.20569598340991724 0.20572576094794265 0.20575675788559972 0.20578898709998189 0.20582246195376674 0.20585719629807933 0.20589320447548271 0.20593050132309779 0.20596910217585646 0.20600902286989059 0.20605027974606124 0.20609288965363054 0.20613686995408112 0.20618223852508621 0.20622901376463482 0.2062772145953162 0.20632686046876789 0.20637797137029179 0.2064305678236435 0.20648467089599906 0.20654030220310501 0.20659748391461663 0.2066562387596298 0.20671659003241244 0.20677856159834151 0.20684217790005119 0.20690746396379947 0.20697444540605892 0.20704314844033897 0.20711359988424688 0.20718582716679418 0.20725985833595711 0.20733572206649803 0.20741344766805675 0.20749306509351995 0.20757460494767732 0.20765809849617411 0.20774357767476864 0.2078310750989058 0.20792062407361561 0.20801225860374767 0.20810601340455287 0.2082019239126231 0.20830002629720096 0.20840035747187133 0.20850295510664793 0.20860785764046738 0.20871510429410456 0.20882473508352312 0.20893679083367589 0.20905131319277032 0.20916834464701403 0.20928792853585748 0.20941010906775009 0.20953493133642723 0.20966244133774664 0.20979268598709236 0.20992571313736641 0.21006157159758815 0.21020031115212195 0.21034198258055573 0.21048663767825238 0.21063432927759801 0.21078511126997118 0.21093903862845864 0.21109616743134402 0.2112565548863965 0.21142025935598852 0.21158734038307175 0.21175785871804212 0.21193187634652599 0.21210945651812085 0.21229066377612515 0.21247556398829309 0.21266422437865204 0.21285671356042168 0.21305310157007545 0.21325345990258632 0.21345786154790136 0.21366638102869073 0.21387909443941913 0.21409607948678883 0.21431741553160713 0.21454318363213176 0.21477346658895052 0.21500834899145427 0.21524791726596454 0.21549225972557945 0.21574146662180499 0.21599563019804108 0.21625484474499507 0.21651920665809887 0.21678881449700818 0.21706376904726743 0.21734417338422596 0.21763013293929617 0.2179217555686479 0.2182191516244372 0.21852243402867241 0.21883171834982604 0.2191471228823032 0.21946876872888615 0.2197967798862771 0.22013128333386761 0.22047240912587013 0.22082029048695132 0.22117506391151592 0.22153686926679417 0.22190584989989545 0.22228215274899613 0.22266592845883951 0.22305733150073281 0.22345652029723512 0.2238636573517403 0.22427890938316683 0.2247024474659787 0.22513444717577041 0.22557508874066104 0.22602455719875403 0.2264830425619318 0.22695073998626614 0.22742784994934023 0.22791457843479135 0.22841113712439798 0.22891774359805153 0.22943462154196784 0.22996200096551134 0.2305001184270225 0.23104921726905697 0.23160954786346502 0.23218136786675952 0.23276494248624141 0.23336054475737389 0.23396845583291942 0.23458896528437573 0.23522237141627361 0.23586898159392172 0.23652911258521214 0.2372030909171251 0.2378912532476001 0.23859394675346687 0.23931152953516044 0.24004437103897061 0.24079285249760793 0.24155736738989481 0.24233832192042104 0.24313613552003049 0.24395124136803303 0.24478408693706261 0.24563513456152619 0.24650486203060998 0.24739376320682935 0.24830234867112283 0.24923114639550076 0.25018070244426366 0.25115158170480084 0.25214436864896883 0.25315966812602231 0.25419810618803734 0.25526033094871031 0.2563470134763452 0.25745884872174762 0.25859655648162083 0.25976088239790679 0.26095259899332202 0.26217250674310211 0.26342143518267969 0.26470024405066672 0.2660098244660879 0.26735110013829916 0.26872502860740821 0.27013260251228144 0.27157485088234112 0.27305284044831668 0.27456767696586837 0.27612050654453363 0.2777125169726995 0.27934493902724034 0.28101904775401487 0.28273616370252719 0.28449765409463884 0.28630493390317957 0.2881594668115306 0.29006276601960967 0.29201639485500758 0.29402196714013562 0.29608114725688472 0.29819564983922642 0.30036723901105089 0.30259772707094545 0.30488897250709385 0.30724287720342774 0.30966138267187715 0.31214646511418015 0.31470012907913891 0.31732439943612611 0.32002131133139095 0.3227928977281907 0.32564117405234111 0.32856811936802099 0.33157565339017214 0.33466560849377519 0.33783969569889649 0.34109946338312136 0.3444462471852261 0.3478811091951125 0.35140476404548815 0.35501748888687462 0.35871901337338175 0.3625083846102829 0.36638380035335028 0.37034240133758839 0.37438000999712878 0.37849079722205103 0.38266684971811016 0.38689759516722899 0.39116901495360201 0.39546252205026389 0.39975327442732578 0.40400745089094531 0.40817738419360927 0.41219144926556545 0.4159267956798034 0.418852480644893 
</DataArray>
<DataArray type="Float64" Name="conductivity_richards" format="ascii">