<?xml version="1.0"?>
<VTKFile type="UnstructuredGrid" version="0.1" byte_order="LittleEndian">
<UnstructuredGrid>
<Piece NumberOfPoints="251" NumberOfCells="250">
<Points>
<DataArray type="Float64" NumberOfComponents="3" format="ascii">
0 0 0 0 0 -0.25 0 0 -0.00099999999999810158 0 0 -0.001999999999996204 0 0 -0.0029999999999943271 0 0 -0.0039999999999924488 0 0 -0.004999999999990571 0 0 -0.0059999999999886811 0 0 -0.0069999999999867156 0 0 -0.007999999999984719 0 0 -0.008999999999982581 0 0 -0.0099999999999804221 0 0 -0.010999999999978201 0 0 -0.011999999999975971 0 0 -0.01299999999997375 0 0 -0.01399999999997158 0 0 -0.014999999999969531 0 0 -0.01599999999996761 0 0 -0.0169999999999659 0 0 -0.01799999999996427 0 0 -0.018999999999962731 0 0 -0.019999999999961209 0 0 -0.020999999999959669 0 0 -0.02199999999995814 0 0 -0.022999999999956611 0 0 -0.023999999999955082 0 0 -0.024999999999953549 0 0 -0.02599999999995202 0 0 -0.02699999999995048 0 0 -0.027999999999948951 0 0 -0.028999999999947419 0 0 -0.02999999999994565 0 0 -0.03099999999994377 0 0 -0.031999999999941367 0 0 -0.032999999999938787 0 0 -0.033999999999935943 0 0 -0.034999999999933022 0 0 -0.035999999999930102 0 0 -0.036999999999927188 0 0 -0.037999999999924268 0 0 -0.038999999999921348 0 0 -0.039999999999918427 0 0 -0.040999999999915507 0 0 -0.041999999999912593 0 0 -0.042999999999909673 0 0 -0.043999999999906753 0 0 -0.044999999999903832 0 0 -0.045999999999900919 0 0 -0.046999999999897998 0 0 -0.047999999999895078 0 0 -0.048999999999892158 0 0 -0.049999999999889237 0 0 -0.050999999999886317 0 0 -0.051999999999883403 0 0 -0.052999999999880483 0 0 -0.053999999999877563 0 0 -0.054999999999874642 0 0 -0.055999999999871722 0 0 -0.056999999999868801 0 0 -0.057999999999865881 0 0 -0.058999999999862961 0 0 -0.059999999999860047 0 0 -0.060999999999857127 0 0 -0.061999999999854213 0 0 -0.062999999999851286 0 0 -0.063999999999848373 0 0 -0.064999999999845445 0 0 -0.065999999999842532 0 0 -0.066999999999839618 0 0 -0.067999999999836705 0 0 -0.068999999999833792 0 0 -0.069999999999830878 0 0 -0.070999999999827965 0 0 -0.071999999999825051 0 0 -0.072999999999822124 0 0 -0.07399999999981921 0 0 -0.074999999999816297 0 0 -0.075999999999813383 0 0 -0.07699999999981047 0 0 -0.077999999999807557 0 0 -0.078999999999804643 0 0 -0.07999999999980173 0 0 -0.080999999999798802 0 0 -0.081999999999795889 0 0 -0.082999999999792975 0 0 -0.083999999999790062 0 0 -0.084999999999787149 0 0 -0.085999999999784235 0 0 -0.086999999999781322 0 0 -0.087999999999778394 0 0 -0.088999999999775481 0 0 -0.089999999999772567 0 0 -0.090999999999769654 0 0 -0.091999999999766741 0 0 -0.092999999999763827 0 0 -0.093999999999760914 0 0 -0.094999999999758 0 0 -0.095999999999755073 0 0 -0.096999999999752159 0 0 -0.097999999999749246 0 0 -0.098999999999746333 0 0 -0.099999999999743419 0 0 -0.10099999999974051 0 0 -0.10199999999973761 0 0 -0.10299999999973471 0 0 -0.10399999999973179 0 0 -0.1049999999997288 0 0 -0.1059999999997259 0 0 -0.106999999999723 0 0 -0.1079999999997201 0 0 -0.1089999999997172 0 0 -0.1099999999997143 0 0 -0.1109999999997113 0 0 -0.1119999999997084 0 0 -0.1129999999997055 0 0 -0.1139999999997026 0 0 -0.1149999999996997 0 0 -0.1159999999996968 0 0 -0.11699999999969379 0 0 -0.11799999999969089 0 0 -0.11899999999968799 0 0 -0.11999999999968509 0 0 -0.1209999999996822 0 0 -0.1219999999996793 0 0 -0.1229999999996764 0 0 -0.1239999999996748 0 0 -0.12499999999967321 0 0 -0.12599999999967451 0 0 -0.12699999999967579 0 0 -0.1279999999996784 0 0 -0.12899999999968109 0 0 -0.1299999999996837 0 0 -0.13099999999968631 0 0 -0.13199999999968889 0 0 -0.13299999999969159 0 0 -0.1339999999996942 0 0 -0.13499999999969689 0 0 -0.1359999999996995 0 0 -0.13699999999970211 0 0 -0.1379999999997048 0 0 -0.13899999999970741 0 0 -0.13999999999971011 0 0 -0.14099999999971269 0 0 -0.1419999999997153 0 0 -0.14299999999971799 0 0 -0.1439999999997206 0 0 -0.14499999999972321 0 0 -0.14599999999972579 0 0 -0.14699999999972849 0 0 -0.1479999999997311 0 0 -0.14899999999973379 0 0 -0.1499999999997364 0 0 -0.15099999999973901 0 0 -0.1519999999997417 0 0 -0.15299999999974431 0 0 -0.15399999999974701 0 0 -0.15499999999974959 0 0 -0.1559999999997522 0 0 -0.15699999999975489 0 0 -0.1579999999997575 0 0 -0.15899999999976011 0 0 -0.1599999999997628 0 0 -0.16099999999976539 0 0 -0.161999999999768 0 0 -0.16299999999977069 0 0 -0.1639999999997733 0 0 -0.16499999999977599 0 0 -0.1659999999997786 0 0 -0.16699999999978121 0 0 -0.16799999999978391 0 0 -0.16899999999978649 0 0 -0.1699999999997891 0 0 -0.17099999999979171 0 0 -0.1719999999997944 0 0 -0.17299999999979701 0 0 -0.1739999999997997 0 0 -0.17499999999980231 0 0 -0.17599999999980501 0 0 -0.17699999999980759 0 0 -0.1779999999998102 0 0 -0.17899999999981281 0 0 -0.1799999999998155 0 0 -0.18099999999981811 0 0 -0.18199999999982069 0 0 -0.18299999999982339 0 0 -0.183999999999826 0 0 -0.18499999999982869 0 0 -0.1859999999998313 0 0 -0.18699999999983391 0 0 -0.1879999999998366 0 0 -0.18899999999983921 0 0 -0.18999999999984191 0 0 -0.19099999999984449 0 0 -0.1919999999998471 0 0 -0.19299999999984971 0 0 -0.1939999999998524 0 0 -0.19499999999985501 0 0 -0.1959999999998577 0 0 -0.19699999999986029 0 0 -0.19799999999986301 0 0 -0.19899999999986559 0 0 -0.1999999999998682 0 0 -0.20099999999987081 0 0 -0.2019999999998735 0 0 -0.20299999999987611 0 0 -0.20399999999987881 0 0 -0.20499999999988139 0 0 -0.205999999999884 0 0 -0.20699999999988669 0 0 -0.2079999999998893 0 0 -0.20899999999989191 0 0 -0.2099999999998946 0 0 -0.21099999999989719 0 0 -0.21199999999989991 0 0 -0.21299999999990249 0 0 -0.2139999999999051 0 0 -0.21499999999990771 0 0 -0.2159999999999104 0 0 -0.21699999999991301 0 0 -0.21799999999991571 0 0 -0.21899999999991829 0 0 -0.2199999999999209 0 0 -0.22099999999992359 0 0 -0.2219999999999262 0 0 -0.22299999999992881 0 0 -0.22399999999993139 0 0 -0.22499999999993411 0 0 -0.2259999999999367 0 0 -0.22699999999993939 0 0 -0.227999999999942 0 0 -0.22899999999994469 0 0 -0.2299999999999473 0 0 -0.23099999999994991 0 0 -0.23199999999995249 0 0 -0.23299999999995519 0 0 -0.2339999999999578 0 0 -0.23499999999996049 0 0 -0.2359999999999631 0 0 -0.23699999999996571 0 0 -0.2379999999999684 0 0 -0.23899999999997101 0 0 -0.2399999999999736 0 0 -0.24099999999997629 0 0 -0.2419999999999789 0 0 -0.24299999999998159 0 0 -0.2439999999999842 0 0 -0.24499999999998681 0 0 -0.24599999999998939 0 0 -0.24699999999999209 0 0 -0.2479999999999947 0 0 -0.24899999999999739 
</DataArray>
</Points>
<Cells>
<DataArray type="UInt32" Name="connectivity" format="ascii">
0 2 2 3 3 4 4 5 5 6 6 7 7 8 8 9 9 10 10 11 11 12 12 13 13 14 14 15 15 16 16 17 17 18 18 19 19 20 20 21 21 22 22 23 23 24 24 25 25 26 26 27 27 28 28 29 29 30 30 31 31 32 32 33 33 34 34 35 35 36 36 37 37 38 38 39 39 40 40 41 41 42 42 43 43 44 44 45 45 46 46 47 47 48 48 49 49 50 50 51 51 52 52 53 53 54 54 55 55 56 56 57 57 58 58 59 59 60 60 61 61 62 62 63 63 64 64 65 65 66 66 67 67 68 68 69 69 70 70 71 71 72 72 73 73 74 74 75 75 76 76 77 77 78 78 79 79 80 80 81 81 82 82 83 83 84 84 85 85 86 86 87 87 88 88 89 89 90 90 91 91 92 92 93 93 94 94 95 95 96 96 97 97 98 98 99 99 100 100 101 101 102 102 103 103 104 104 105 105 106 106 107 107 108 108 109 109 110 110 111 111 112 112 113 113 114 114 115 115 116 116 117 117 118 118 119 119 120 120 121 121 122 122 123 123 124 124 125 125 126 126 127 127 128 128 129 129 130 130 131 131 132 132 133 133 134 134 135 135 136 136 137 137 138 138 139 139 140 140 141 141 142 142 143 143 144 144 145 145 146 146 147 147 148 148 149 149 150 150 151 151 152 152 153 153 154 154 155 155 156 156 157 157 158 158 159 159 160 160 161 161 162 162 163 163 164 164 165 165 166 166 167 167 168 168 169 169 170 170 171 171 172 172 173 173 174 174 175 175 176 176 177 177 178 178 179 179 180 180 181 181 182 182 183 183 184 184 185 185 186 186 187 187 188 188 189 189 190 190 191 191 192 192 193 193 194 194 195 195 196 196 197 197 198 198 199 199 200 200 201 201 202 202 203 203 204 204 205 205 206 206 207 207 208 208 209 209 210 210 211 211 212 212 213 213 214 214 215 215 216 216 217 217 218 218 219 219 220 220 221 221 222 222 223 223 224 224 225 225 226 226 227 227 228 228 229 229 230 230 231 231 232 232 233 233 234 234 235 235 236 236 237 237 238 238 239 239 240 240 241 241 242 242 243 243 244 244 245 245 246 246 247 247 248 248 249 249 250 250 1 
</DataArray>
<DataArray type="UInt32" Name="offsets" format="ascii">
2 4 6 8 10 12 14 16 18 20 22 24 26 28 30 32 34 36 38 40 42 44 46 48 50 52 54 56 58 60 62 64 66 68 70 72 74 76 78 80 82 84 86 88 90 92 94 96 98 100 102 104 106 108 110 112 114 116 118 120 122 124 126 128 130 132 134 136 138 140 142 144 146 148 150 152 154 156 158 160 162 164 166 168 170 172 174 176 178 180 182 184 186 188 190 192 194 196 198 200 202 204 206 208 210 212 214 216 218 220 222 224 226 228 230 232 234 236 238 240 242 244 246 248 250 252 254 256 258 260 262 264 266 268 270 272 274 276 278 280 282 284 286 288 290 292 294 296 298 300 302 304 306 308 310 312 314 316 318 320 322 324 326 328 330 332 334 336 338 340 342 344 346 348 350 352 354 356 358 360 362 364 366 368 370 372 374 376 378 380 382 384 386 388 390 392 394 396 398 400 402 404 406 408 410 412 414 416 418 420 422 424 426 428 430 432 434 436 438 440 442 444 446 448 450 452 454 456 458 460 462 464 466 468 470 472 474 476 478 480 482 484 486 488 490 492 494 496 498 500 
</DataArray>
<DataArray type="UInt32" Name="types" format="ascii">
3 3 3 3 3 3 3 3 3 3 3 3 3 3 3 3 3 3 3 3 3 3 3 3 3 3 3 3 3 3 3 3 3 3 3 3 3 3 3 3 3 3 3 3 3 3 3 3 3 3 3 3 3 3 3 3 3 3 3 3 3 3 3 3 3 3 3 3 3 3 3 3 3 3 3 3 3 3 3 3 3 3 3 3 3 3 3 3 3 3 3 3 3 3 3 3 3 3 3 3 3 3 3 3 3 3 3 3 3 3 3 3 3 3 3 3 3 3 3 3 3 3 3 3 3 3 3 3 3 3 3 3 3 3 3 3 3 3 3 3 3 3 3 3 3 3 3 3 3 3 3 3 3 3 3 3 3 3 3 3 3 3 3 3 3 3 3 3 3 3 3 3 3 3 3 3 3 3 3 3 3 3 3 3 3 3 3 3 3 3 3 3 3 3 3 3 3 3 3 3 3 3 3 3 3 3 3 3 3 3 3 3 3 3 3 3 3 3 3 3 3 3 3 3 3 3 3 3 3 3 3 3 3 3 3 3 3 3 3 3 3 3 3 3 3 3 3 3 3 3 
</DataArray>
</Cells>
<CellData Scalars="pressure_p0,water_content,conductivity_richards," Vectors="velocity_p0," Tensors="">
<DataArray type="Float64" Name="pressure_p0" format="ascii">
-6617.4597583146078 -6617.45382199921 -6617.4429361286402 -6617.4270741958353 -6617.4061963710037 -6617.3802494186066 -6617.3491665864822 -6617.3128674670234 -6617.2712578302089 -6617.224229428306 -6617.1716597719951 -6617.1134118776663 -6617.0493339855766 -6616.9792592485383 -6616.9030053907827 -6616.8203743365957 -6616.7311518082961 -6616.6351068931071 -6616.5319915784276 -6616.4215402549726 -6616.3034691872745 -6616.177475950908 -6616.0432388358895 -6615.9004162155779 -6615.7486458804487 -6615.5875443360155 -6615.4167060642367 -6615.2357027476319 -6615.0440824553662 -6614.8413687905231 -6614.6270599977561 -6614.4006280305084 -6614.1615175769584 -6613.9091450438291 -6613.6428974971968 -6613.362131559421 -6613.0661722612858 -6612.7543118484609 -6612.4258085413667 -6612.0798852475309 -6611.7157282255012 -6611.3324856994204 -6610.9292664233217 -6610.505138194244 -6610.0591263132628 -6609.5902119935472 -6609.0973307145687 -6608.5793705215765 -6608.0351702695507 -6607.4635178107756 -6606.8631481252751 -6606.2327413933726 -6605.5709210096493 -6604.8762515376511 -6604.1472366047328 -6603.3823167364717 -6602.5798671301491 -6601.7381953668737 -6600.8555390620004 -6599.9300634535211 -6598.9598589282687 -6597.9429384857995 -6596.8772351399475 -6595.7605992581666 -6594.5907958388507 -6593.3655017269648 -6592.0823027684492 -6590.7386909040124 -6589.332061203022 -6587.8597088384404 -6586.3188260038223 -6584.706498773663 -6583.0197039084969 -6581.2553056063753 -6579.4100522025437 -6577.4805728193751 -6575.4633739688234 -6573.3548361099138 -6571.1512101640055 -6568.8486139908855 -6566.4430288289532 -6563.9302957030995 -6561.3061118041533 -6558.5660268440633 -6555.705439391375 -6552.7195931917904 -6549.6035734790585 -6546.3523032817211 -6542.9605397316645 -6539.4228703807794 -6535.7337095324647 -6531.8872945951043 -6527.8776824650622 -6523.6987459472111 -6519.3441702214277 -6514.8074493639733 -6510.0818829331438 -6505.1605726290609 -6500.0364190379751 -6494.7021184719579 -6489.1501599153889 -6483.3728220901576 -6477.3621706520544 -6471.1100555313424 -6464.6081084311054 -6457.8477404974674 -6450.8201401764127 -6443.5162712724414 -6435.926871224905 -6428.0424496184642 -6419.8532869446353 -6411.3494336320346 -6402.5207093634544 -6393.3567026984983 -6383.8467710210989 -6373.9800408317615 -6363.7454084049614 -6353.1315408326591 -6342.1268774754208 -6330.719631843177 -6318.8977939281067 -6306.6491330126701 -6293.961200976215 -6280.8213361240714 -6267.2166675634189 -6253.1341201505711 -6238.5604200347479 -6223.4821008235904 -6207.8855103960086 -6191.7568183882186 -6175.0820243788548 -6157.8469667993504 -6140.0373325956862 -6121.6386676677121 -6102.636388112147 -6083.0157922952894 -6062.7620737811976 -6041.8603351409247 -6020.2956026679803 -5998.0528420247738 -5975.1169748442999 -5951.4728963106445 -5927.1054937412518 -5901.9996661930054 -5876.1403451132792 -5849.512516056051 -5822.1012414820079 -5793.8916846603024 -5764.8691346881424 -5735.0190326428719 -5704.32699887951 -5672.7788614847923 -5640.3606858968524 -5607.0588056974229 -5572.8598545811492 -5537.7507995040787 -5501.7189750107218 -5464.7521187362308 -5426.8384080771084 -5387.9664980206744 -5348.1255601200628 -5307.3053225977619 -5265.4961115569477 -5222.6888932756538 -5178.8753175545426 -5134.047762084424 -5088.1993777949128 -5041.324135140474 -4993.4168712748597 -4944.4733380592897 -4894.4902508439154 -4843.4653379559495 -4791.3973908214475 -4738.2863146409582 -4684.1331795323158 -4628.940272046475 -4572.7111469546489 -4515.4506791970689 -4457.1651158753275 -4397.862128161697 -4337.5508629897358 -4276.2419943811601 -4213.9477742542203 -4150.6820825487375 -4086.4604764923452 -4021.3002388216537 -3955.2204247606705 -3888.2419075470498 -3820.3874222845716 -3751.6816078875381 -3682.1510468697015 -3611.8243027167255 -3540.7319545670948 -3468.9066289118123 -3396.3830280081111 -3323.1979546867697 -3249.3903332165 -3175.0012258721249 -3100.0738448360507 -3024.653559044656 -2948.7878955728856 -2872.5265351313983 -2795.9213012310584 -2719.0261425495446 -2641.8971080142737 -2564.5923140947157 -2487.1719037756466 -2409.6979966609274 -2332.2346296350206 -2254.8476874869402 -2177.6048228786303 -2100.5753650169568 -2023.8302163660819 -1947.4417367148092 -1871.4836138920721 -1796.0307204034259 -1721.1589552424189 -1646.945070113831 -1573.4664792914859 -1500.8010523223352 -1429.0268887817874 -1358.2220742838538 -1288.4644169545904 -1219.8311635902876 -1152.3986947440549 -1086.2421980177064 -1021.435318881764 -958.04978840660942 -896.15502736328062 -835.8177262434283 -777.10140085310343 -720.06592324974713 -664.76702790661625 -611.2557930857173 -559.57809744712029 -509.7740518638081 -461.87740615251607 -415.91492981214554 -371.90576460872506 -329.86074448483265 -289.78167395903563 -251.66054836724356 -215.47868500127885 -181.20570733557298 -148.79827169684012 -118.19831429728811 -89.330335561095836 -62.096519038392586 -36.365835659469944 -11.928670896256278 
</DataArray>
<DataArray type="Float64" Name="velocity_p0" NumberOfComponents="3" format="ascii">
0 0 3.5065421706841642e-11 0 0 1.0529037722245571e-10 0 0 1.757978594955474e-10 0 0 2.4677686834629929e-10 0 0 3.1841738989396013e-10 0 0 3.909107931874874e-10 0 0 4.6445022807881675e-10 0 0 5.3923102532120025e-10 0 0 6.1545109960742848e-10 0 0 6.9331135573656163e-10 0 0 7.7301609833415242e-10 0 0 8.547734457684367e-10 0 0 9.3879574899104024e-10 0 0 1.0253000148983572e-09 0 0 1.1145083359971642e-09 0 0 1.2066483255700195e-09 0 0 1.3019535598882022e-09 0 0 1.4006640269134897e-09 0 0 1.503026583050645e-09 0 0 1.6092954173365774e-09 0 0 1.7197325242916027e-09 0 0 1.8346081855461681e-09 0 0 1.9542014608218143e-09 0 0 2.0788006883801743e-09 0 0 2.2087039958789987e-09 0 0 2.3442198218670075e-09 0 0 2.4856674476652759e-09 0 0 2.6333775414240105e-09 0 0 2.7876927133482958e-09 0 0 2.948968083223846e-09 0 0 3.1175718608021708e-09 0 0 3.2938859384170102e-09 0 0 3.4783064972786195e-09 0 0 3.6712446273473385e-09 0 0 3.8731269606854738e-09 0 0 4.0843963195111038e-09 0 0 4.3055123781775675e-09 0 0 4.5369523402182816e-09 0 0 4.7792116302559769e-09 0 0 5.0328046009596933e-09 0 0 5.2982652557194178e-09 0 0 5.5761479866556087e-09 0 0 5.867028328340784e-09 0 0 6.1715037277952774e-09 0 0 6.490194329813407e-09 0 0 6.8237437790619906e-09 0 0 7.1728200377563129e-09 0 0 7.5381162200792585e-09 0 0 7.9203514419730239e-09 0 0 8.320271688067066e-09 0 0 8.7386506938436364e-09 0 0 9.1762908439070503e-09 0 0 9.6340240867229867e-09 0 0 1.0112712863931887e-08 0 0 1.0613251056061449e-08 0 0 1.1136564942976484e-08 0 0 1.168361417939935e-08 0 0 1.225539278470402e-08 0 0 1.2852930147270032e-08 0 0 1.3477292042399087e-08 0 0 1.4129581663506253e-08 0 0 1.4810940666428672e-08 0 0 1.5522550225607796e-08 0 0 1.6265632101967107e-08 0 0 1.7041449721961367e-08 0 0 1.785130926698882e-08 0 0 1.8696560771903769e-08 0 0 1.9578599232711192e-08 0 0 2.0498865721938966e-08 0 0 2.1458848511176044e-08 0 0 2.2460084199533286e-08 0 0 2.3504158846998848e-08 0 0 2.4592709112021789e-08 0 0 2.5727423392144168e-08 0 0 2.6910042965938858e-08 0 0 2.8142363135824785e-08 0 0 2.9426234370004396e-08 0 0 3.0763563442467115e-08 0 0 3.215631456983374e-08 0 0 3.3606510543122264e-08 0 0 3.5116233853772384e-08 0 0 3.6687627811565131e-08 0 0 3.8322897654094223e-08 0 0 4.0024311644883404e-08 0 0 4.1794202159580261e-08 0 0 4.3634966758366308e-08 0 0 4.5549069242646e-08 0 0 4.7539040694688195e-08 0 0 4.960748049826906e-08 0 0 5.1757057338853333e-08 0 0 5.3990510181364689e-08 0 0 5.6310649223783886e-08 0 0 5.8720356825137721e-08 0 0 6.122258840563392e-08 0 0 6.3820373317542264e-08 0 0 6.6516815684944818e-08 0 0 6.9315095210523405e-08 0 0 7.2218467947731339e-08 0 0 7.5230267036771747e-08 0 0 7.8353903401946786e-08 0 0 8.1592866409974255e-08 0 0 8.4950724486298829e-08 0 0 8.8431125688541115e-08 0 0 9.2037798235643059e-08 0 0 9.5774550990325648e-08 0 0 9.9645273894417745e-08 0 0 1.0365393835460064e-07 0 0 1.0780459757856998e-07 0 0 1.1210138685866593e-07 0 0 1.1654852380312888e-07 0 0 1.2115030851311835e-07 0 0 1.2591112370450265e-07 0 0 1.3083543477377151e-07 0 0 1.3592778980705884e-07 0 0 1.4119281953090031e-07 0 0 1.4663523720502314e-07 0 0 1.5225983845577277e-07 0 0 1.580715010502587e-07 0 0 1.6407518461016542e-07 0 0 1.7027593026581844e-07 0 0 1.7667886024936487e-07 0 0 1.832891774280039e-07 0 0 1.9011216477649722e-07 0 0 1.9715318478961872e-07 0 0 2.0441767883476563e-07 0 0 2.1191116644498258e-07 0 0 2.1963924455302817e-07 0 0 2.2760758666703118e-07 0 0 2.3582194198844767e-07 0 0 2.4428813447363947e-07 0 0 2.5301206183902385e-07 0 0 2.619996945116729e-07 0 0 2.7125707452616091e-07 0 0 2.8079031436898824e-07 0 0 2.9060559577133561e-07 0 0 3.0070916845207075e-07 0 0 3.1110734881257782e-07 0 0 3.2180651858356945e-07 0 0 3.3281312342696371e-07 0 0 3.4413367149307299e-07 0 0 3.557747319347759e-07 0 0 3.677429333808865e-07 0 0 3.8004496236875755e-07 0 0 3.92687561738859e-07 0 0 4.0567752899111981e-07 0 0 4.1902171460590011e-07 0 0 4.3272702032846866e-07 0 0 4.4680039741979214e-07 0 0 4.6124884487311835e-07 0 0 4.7607940759679732e-07 0 0 4.9129917456411942e-07 0 0 5.069152769291888e-07 0 0 5.2293488610865424e-07 0 0 5.3936521182823801e-07 0 0 5.5621350013292299e-07 0 0 5.7348703135836753e-07 0 0 5.9119311806111763e-07 0 0 6.0933910290465025e-07 0 0 6.2793235649723101e-07 0 0 6.4698027517635759e-07 0 0 6.6649027873516889e-07 0 0 6.8646980808247176e-07 0 0 7.0692632283050452e-07 0 0 7.2786729879961521e-07 0 0 7.493002254305958e-07 0 0 7.7123260309174015e-07 0 0 7.9367194026773249e-07 0 0 8.1662575061382198e-07 0 0 8.401015498585235e-07 0 0 8.6410685253352624e-07 0 0 8.886491685096304e-07 0 0 9.1373599931160253e-07 0 0 9.3937483418452913e-07 0 0 9.6557314587836068e-07 0 0 9.9233838611516527e-07 0 0 1.0196779806981384e-06 0 0 1.0475993242166804e-06 0 0 1.076109774297503e-06 0 0 1.1052166453438926e-06 0 0 1.1349272017002627e-06 0 0 1.1652486501705229e-06 0 0 1.1961881318111506e-06 0 0 1.2277527129099966e-06 0 0 1.2599493750520248e-06 0 0 1.2927850041605498e-06 0 0 1.326266378391403e-06 0 0 1.3604001547406319e-06 0 0 1.395192854211637e-06 0 0 1.4306508453686758e-06 0 0 1.4667803260836387e-06 0 0 1.5035873032595217e-06 0 0 1.5410775702881893e-06 0 0 1.5792566819715404e-06 0 0 1.6181299266017728e-06 0 0 1.6577022948604879e-06 0 0 1.6979784451545095e-06 0 0 1.7389626649598307e-06 0 0 1.7806588276929039e-06 0 0 1.8230703445692362e-06 0 0 1.8662001108429831e-06 0 0 1.910050445745258e-06 0 0 1.9546230253561662e-06 0 0 1.9999188075479603e-06 0 0 2.0459379480306331e-06 0 0 2.0926797064108179e-06 0 0 2.1401423410358801e-06 0 0 2.1883229912452363e-06 0 0 2.2372175454751067e-06 0 0 2.2868204934714975e-06 0 0 2.3371247606483297e-06 0 0 2.3881215223842268e-06 0 0 2.4397999957812685e-06 0 0 2.4921472061075577e-06 0 0 2.5451477248103262e-06 0 0 2.598783375620485e-06 0 0 2.6530329048638514e-06 0 0 2.7078716116595011e-06 0 0 2.7632709332127363e-06 0 0 2.8191979799136496e-06 0 0 2.8756150144334112e-06 0 0 2.9324788684870773e-06 0 0 2.989740290421214e-06 0 0 3.0473432163229327e-06 0 0 3.1052239569726319e-06 0 0 3.1633102927467958e-06 0 0 3.2215204686037157e-06 0 0 3.2797620816836567e-06 0 0 3.3379308549972409e-06 0 0 3.3959092923998785e-06 0 0 3.4535652128835323e-06 0 0 3.5107501666003962e-06 0 0 3.5672977415770466e-06 0 0 3.6230217795983921e-06 0 0 3.677714533365286e-06 0 0 3.731144816284521e-06 0 0 3.7830562232375029e-06 0 0 3.8331655383016641e-06 0 0 3.8811614977435439e-06 0 0 3.9267041494965194e-06 0 0 3.9694251523833699e-06 0 0 4.0089295028034424e-06 0 0 4.0447993852345252e-06 0 0 4.0766011544458788e-06 0 0 4.1038969480707774e-06 0 0 4.1262632667239109e-06 0 0 4.1433204697298589e-06 0 0 4.1547807688508998e-06 0 0 4.1605325300048572e-06 0 0 4.1608193595897955e-06 0 0 4.1570226849213168e-06 
</DataArray>
<DataArray type="Float64" Name="water_content" format="ascii">
0.20383606994993844 0.20383610476889527 0.20383616861914927 0.20383626165635124 0.2038363841143781 0.20383653630582299 0.20383671862265024 0.20383693153701499 0.20383717560224957 0.20383745145401705 0.20383775981163405 0.20383810147956374 0.20383847734908173 0.20383888840011619 0.2038393357032651 0.20383982042199245 0.20384034381500665 0.20384090723882387 0.20384151215051893 0.203842160110668 0.20384285278648551 0.20384359195515975 0.20384437950739051 0.20384521745113338 0.20384610791555421 0.20384705315519919 0.20384805555438412 0.20384911763180841 0.20385024204539867 0.20385143159738703 0.20385268923962951 0.20385401807917003 0.20385542138405596 0.20385690258941078 0.20385846530377016 0.20386011331568771 0.20386185060061654 0.20386368132807342 0.20386560986909205 0.20386764080397246 0.20386977893033337 0.2038720292714748 0.20387439708505789 0.20387688787210978 0.20387950738636057 0.20388226164392048 0.20388515693330433 0.20388819982581208 0.20389139718627244 0.20389475618415825 0.20389828430508178 0.20390198936267764 0.2039058795108824 0.20390996325661873 0.20391424947289272 0.20391874741231308 0.20392346672104092 0.20392841745317808 0.20393361008560396 0.20393905553326827 0.20394476516494991 0.20395075081948966 0.20395702482250655 0.20396360000360642 0.20397048971409162 0.20397770784518163 0.20398526884675267 0.2039931877466066 0.20400148017027744 0.20401016236138558 0.20401925120254844 0.20402876423685762 0.2040387196899314 0.20404913649255307 0.20406003430390421 0.20407143353540319 0.2040833553751587 0.20409582181304858 0.2041088556664348 0.20412248060652444 0.20413672118538825 0.20415160286364759 0.20416715203884134 0.20418339607448455 0.20420036332983138 0.20421808319035434 0.20423658609895362 0.20425590358791007 0.20427606831159595 0.20429711407995846 0.20431907589279219 0.20434198997481626 0.20436589381157438 0.20439082618617549 0.20441682721689514 0.20444393839565739 0.20447220262741983 0.20450166427048469 0.20453236917776041 0.2045643647390005 0.20459769992404758 0.20463242532711229 0.20466859321211903 0.20470625755915339 0.20474547411204655 0.20478630042713633 0.20482879592324671 0.20487302193292961 0.20491904175501757 0.20496692070853714 0.20501672618803851 0.20506852772039894 0.20512239702316221 0.20517840806448132 0.20523663712473469 0.20529716285989236 0.205360066366713 0.20542543124985871 0.20549334369101949 0.20556389252014667 0.20563716928890013 0.20571326834642162 0.20579228691755364 0.20587432518363219 0.20595948636598782 0.2060478768123013 0.2061396060859666 0.2062347870586263 0.20633353600605364 0.20643597270756686 0.20654222054917382 0.20665240663065729 0.2067666618768243 0.20688512115315744 0.20700792338612156 0.20713521168839416 0.20726713348930575 0.20740384067079423 0.20754548970919603 0.20769224182321816 0.20784426312845586 0.2080017247988446 0.20816480323545894 0.20833368024309792 0.20850854321512333 0.20868958532704826 0.20887700573940407 0.20907100981044835 0.20927180931931266 0.20947962270022694 0.20969467528850011 0.20991719957897903 0.21014743549775702 0.21038563068795241 0.21063204081043341 0.21088692986042318 0.21115057050098168 0.21142324441442822 0.21170524267284169 0.21199686612885155 0.21229842582801783 0.2126102434441878 0.21293265173931347 0.21326599504931887 0.21361062979771908 0.21396692503881309 0.21433526303240491 0.2147160398521481 0.21510966602976128 0.21551656723752882 0.21593718501167711 0.21637197751941215 0.21682142037261176 0.21728600749139232 0.21776625202101477 0.21826268730586038 0.21877586792449349 0.21930637079014106 0.21985479632125576 0.22042176968719673 0.22100794213445854 0.22161399239931059 0.22224062821317669 0.22288858790759047 0.22355864212611404 0.22425159565120184 0.22496828935463864 0.22570960228088105 0.22647645387338894 0.22726980635485472 0.22809066727312421 0.22894009222556089 0.22981918777563634 0.23072911457664208 0.23167109071860922 0.232646395315802 0.23365637235351328 0.23470243481434255 0.23578606910567051 0.23690883981165978 0.23807239479479592 0.23927847067372365 0.24052889870591126 0.24182561110545711 0.24317064782809827 0.24456616385713187 0.24601443702543932 0.24751787641000644 0.24907903133612386 0.25070060102864627 0.25238544494704995 0.2541365938392468 0.25595726154577636 0.25785085758057996 0.25982100050637436 0.26187153211078729 0.26400653237273308 0.26623033518547967 0.26854754477152365 0.27096305268218851 0.27348205521846575 0.27611007103467877 0.278852958587403 0.28171693296128231 0.28470858143121353 0.28783487689401255 0.29110318800521851 0.29452128446575809 0.29809733538899708 0.30183989800143352 0.3057578930363235 0.30986056199612233 0.31415739988700525 0.31865805492829335 0.32337218391555905 0.32830924808599715 0.33347822907964242 0.33888723726875325 0.3445429743170374 0.35044999661886223 0.3566097032316915 0.36301893536799335 0.36966801300727836 0.3765379227955622 0.38359615063314018 0.390790163281167 0.39803629282950798 0.40519786645648431 0.41202931940455245 0.41766122223663982 
</DataArray>
<DataArray type="Float64" Name="conductivity_richards" format="ascii">