<?xml version="1.0"?>
<VTKFile type="UnstructuredGrid" version="0.1" byte_order="LittleEndian">
<UnstructuredGrid>
<Piece NumberOfPoints="251" NumberOfCells="250">
<Points>
<DataArray type="Float64" NumberOfComponents="3" format="ascii">
0 0 0 0 0 -0.25 0 0 -0.00099999999999810158 0 0 -0.001999999999996204 0 0 -0.0029999999999943271 0 0 -0.0039999999999924488 0 0 -0.004999999999990571 0 0 -0.0059999999999886811 0 0 -0.0069999999999867156 0 0 -0.007999999999984719 0 0 -0.008999999999982581 0 0 -0.0099999999999804221 0 0 -0.010999999999978201 0 0 -0.011999999999975971 0 0 -0.01299999999997375 0 0 -0.01399999999997158 0 0 -0.014999999999969531 0 0 -0.01599999999996761 0 0 -0.0169999999999659 0 0 -0.01799999999996427 0 0 -0.018999999999962731 0 0 -0.019999999999961209 0 0 -0.020999999999959669 0 0 -0.02199999999995814 0 0 -0.022999999999956611 0 0 -0.023999999999955082 0 0 -0.024999999999953549 0 0 -0.02599999999995202 0 0 -0.02699999999995048 0 0 -0.027999999999948951 0 0 -0.028999999999947419 0 0 -0.02999999999994565 0 0 -0.03099999999994377 0 0 -0.031999999999941367 0 0 -0.032999999999938787 0 0 -0.033999999999935943 0 0 -0.034999999999933022 0 0 -0.035999999999930102 0 0 -0.036999999999927188 0 0 -0.037999999999924268 0 0 -0.038999999999921348 0 0 -0.039999999999918427 0 0 -0.040999999999915507 0 0 -0.041999999999912593 0 0 -0.042999999999909673 0 0 -0.043999999999906753 0 0 -0.044999999999903832 0 0 -0.045999999999900919 0 0 -0.046999999999897998 0 0 -0.047999999999895078 0 0 -0.048999999999892158 0 0 -0.049999999999889237 0 0 -0.050999999999886317 0 0 -0.051999999999883403 0 0 -0.052999999999880483 0 0 -0.053999999999877563 0 0 -0.054999999999874642 0 0 -0.055999999999871722 0 0 -0.056999999999868801 0 0 -0.057999999999865881 0 0 -0.058999999999862961 0 0 -0.059999999999860047 0 0 -0.060999999999857127 0 0 -0.061999999999854213 0 0 -0.062999999999851286 0 0 -0.063999999999848373 0 0 -0.064999999999845445 0 0 -0.065999999999842532 0 0 -0.066999999999839618 0 0 -0.067999999999836705 0 0 -0.068999999999833792 0 0 -0.069999999999830878 0 0 -0.070999999999827965 0 0 -0.071999999999825051 0 0 -0.072999999999822124 0 0 -0.07399999999981921 0 0 -0.074999999999816297 0 0 -0.075999999999813383 0 0 -0.07699999999981047 0 0 -0.077999999999807557 0 0 -0.078999999999804643 0 0 -0.07999999999980173 0 0 -0.080999999999798802 0 0 -0.081999999999795889 0 0 -0.082999999999792975 0 0 -0.083999999999790062 0 0 -0.084999999999787149 0 0 -0.085999999999784235 0 0 -0.086999999999781322 0 0 -0.087999999999778394 0 0 -0.088999999999775481 0 0 -0.089999999999772567 0 0 -0.090999999999769654 0 0 -0.091999999999766741 0 0 -0.092999999999763827 0 0 -0.093999999999760914 0 0 -0.094999999999758 0 0 -0.095999999999755073 0 0 -0.096999999999752159 0 0 -0.097999999999749246 0 0 -0.098999999999746333 0 0 -0.099999999999743419 0 0 -0.10099999999974051 0 0 -0.10199999999973761 0 0 -0.10299999999973471 0 0 -0.10399999999973179 0 0 -0.1049999999997288 0 0 -0.1059999999997259 0 0 -0.106999999999723 0 0 -0.1079999999997201 0 0 -0.1089999999997172 0 0 -0.1099999999997143 0 0 -0.1109999999997113 0 0 -0.1119999999997084 0 0 -0.1129999999997055 0 0 -0.1139999999997026 0 0 -0.1149999999996997 0 0 -0.1159999999996968 0 0 -0.11699999999969379 0 0 -0.11799999999969089 0 0 -0.11899999999968799 0 0 -0.11999999999968509 0 0 -0.1209999999996822 0 0 -0.1219999999996793 0 0 -0.1229999999996764 0 0 -0.1239999999996748 0 0 -0.12499999999967321 0 0 -0.12599999999967451 0 0 -0.12699999999967579 0 0 -0.1279999999996784 0 0 -0.12899999999968109 0 0 -0.1299999999996837 0 0 -0.13099999999968631 0 0 -0.13199999999968889 0 0 -0.13299999999969159 0 0 -0.1339999999996942 0 0 -0.13499999999969689 0 0 -0.1359999999996995 0 0 -0.13699999999970211 0 0 -0.1379999999997048 0 0 -0.13899999999970741 0 0 -0.13999999999971011 0 0 -0.14099999999971269 0 0 -0.1419999999997153 0 0 -0.14299999999971799 0 0 -0.1439999999997206 0 0 -0.14499999999972321 0 0 -0.14599999999972579 0 0 -0.14699999999972849 0 0 -0.1479999999997311 0 0 -0.14899999999973379 0 0 -0.1499999999997364 0 0 -0.15099999999973901 0 0 -0.1519999999997417 0 0 -0.15299999999974431 0 0 -0.15399999999974701 0 0 -0.15499999999974959 0 0 -0.1559999999997522 0 0 -0.15699999999975489 0 0 -0.1579999999997575 0 0 -0.15899999999976011 0 0 -0.1599999999997628 0 0 -0.16099999999976539 0 0 -0.161999999999768 0 0 -0.16299999999977069 0 0 -0.1639999999997733 0 0 -0.16499999999977599 0 0 -0.1659999999997786 0 0 -0.16699999999978121 0 0 -0.16799999999978391 0 0 -0.16899999999978649 0 0 -0.1699999999997891 0 0 -0.17099999999979171 0 0 -0.1719999999997944 0 0 -0.17299999999979701 0 0 -0.1739999999997997 0 0 -0.17499999999980231 0 0 -0.17599999999980501 0 0 -0.17699999999980759 0 0 -0.1779999999998102 0 0 -0.17899999999981281 0 0 -0.1799999999998155 0 0 -0.18099999999981811 0 0 -0.18199999999982069 0 0 -0.18299999999982339 0 0 -0.183999999999826 0 0 -0.18499999999982869 0 0 -0.1859999999998313 0 0 -0.18699999999983391 0 0 -0.1879999999998366 0 0 -0.18899999999983921 0 0 -0.18999999999984191 0 0 -0.19099999999984449 0 0 -0.1919999999998471 0 0 -0.19299999999984971 0 0 -0.1939999999998524 0 0 -0.19499999999985501 0 0 -0.1959999999998577 0 0 -0.19699999999986029 0 0 -0.19799999999986301 0 0 -0.19899999999986559 0 0 -0.1999999999998682 0 0 -0.20099999999987081 0 0 -0.2019999999998735 0 0 -0.20299999999987611 0 0 -0.20399999999987881 0 0 -0.20499999999988139 0 0 -0.205999999999884 0 0 -0.20699999999988669 0 0 -0.2079999999998893 0 0 -0.20899999999989191 0 0 -0.2099999999998946 0 0 -0.21099999999989719 0 0 -0.21199999999989991 0 0 -0.21299999999990249 0 0 -0.2139999999999051 0 0 -0.21499999999990771 0 0 -0.2159999999999104 0 0 -0.21699999999991301 0 0 -0.21799999999991571 0 0 -0.21899999999991829 0 0 -0.2199999999999209 0 0 -0.22099999999992359 0 0 -0.2219999999999262 0 0 -0.22299999999992881 0 0 -0.22399999999993139 0 0 -0.22499999999993411 0 0 -0.2259999999999367 0 0 -0.22699999999993939 0 0 -0.227999999999942 0 0 -0.22899999999994469 0 0 -0.2299999999999473 0 0 -0.23099999999994991 0 0 -0.23199999999995249 0 0 -0.23299999999995519 0 0 -0.2339999999999578 0 0 -0.23499999999996049 0 0 -0.2359999999999631 0 0 -0.23699999999996571 0 0 -0.2379999999999684 0 0 -0.23899999999997101 0 0 -0.2399999999999736 0 0 -0.24099999999997629 0 0 -0.2419999999999789 0 0 -0.24299999999998159 0 0 -0.2439999999999842 0 0 -0.24499999999998681 0 0 -0.24599999999998939 0 0 -0.24699999999999209 0 0 -0.2479999999999947 0 0 -0.24899999999999739 
</DataArray>
</Points>
<Cells>
<DataArray type="UInt32" Name="connectivity" format="ascii">
0 2 2 3 3 4 4 5 5 6 6 7 7 8 8 9 9 10 10 11 11 12 12 13 13 14 14 15 15 16 16 17 17 18 18 19 19 20 20 21 21 22 22 23 23 24 24 25 25 26 26 27 27 28 28 29 29 30 30 31 31 32 32 33 33 34 34 35 35 36 36 37 37 38 38 39 39 40 40 41 41 42 42 43 43 44 44 45 45 46 46 47 47 48 48 49 49 50 50 51 51 52 52 53 53 54 54 55 55 56 56 57 57 58 58 59 59 60 60 61 61 62 62 63 63 64 64 65 65 66 66 67 67 68 68 69 69 70 70 71 71 72 72 73 73 74 74 75 75 76 76 77 77 78 78 79 79 80 80 81 81 82 82 83 83 84 84 85 85 86 86 87 87 88 88 89 89 90 90 91 91 92 92 93 93 94 94 95 95 96 96 97 97 98 98 99 99 100 100 101 101 102 102 103 103 104 104 105 105 106 106 107 107 108 108 109 109 110 110 111 111 112 112 113 113 114 114 115 115 116 116 117 117 118 118 119 119 120 120 121 121 122 122 123 123 124 124 125 125 126 126 127 127 128 128 129 129 130 130 131 131 132 132 133 133 134 134 135 135 136 136 137 137 138 138 139 139 140 140 141 141 142 142 143 143 144 144 145 145 146 146 147 147 148 148 149 149 150 150 151 151 152 152 153 153 154 154 155 155 156 156 157 157 158 158 159 159 160 160 161 161 162 162 163 163 164 164 165 165 166 166 167 167 168 168 169 169 170 170 171 171 172 172 173 173 174 174 175 175 176 176 177 177 178 178 179 179 180 180 181 181 182 182 183 183 184 184 185 185 186 186 187 187 188 188 189 189 190 190 191 191 192 192 193 193 194 194 195 195 196 196 197 197 198 198 199 199 200 200 201 201 202 202 203 203 204 204 205 205 206 206 207 207 208 208 209 209 210 210 211 211 212 212 213 213 214 214 215 215 216 216 217 217 218 218 219 219 220 220 221 221 222 222 223 223 224 224 225 225 226 226 227 227 228 228 229 229 230 230 231 231 232 232 233 233 234 234 235 235 236 236 237 237 238 238 239 239 240 240 241 241 242 242 243 243 244 244 245 245 246 246 247 247 248 248 249 249 250 250 1 
</DataArray>
<DataArray type="UInt32" Name="offsets" format="ascii">
2 4 6 8 10 12 14 16 18 20 22 24 26 28 30 32 34 36 38 40 42 44 46 48 50 52 54 56 58 60 62 64 66 68 70 72 74 76 78 80 82 84 86 88 90 92 94 96 98 100 102 104 106 108 110 112 114 116 118 120 122 124 126 128 130 132 134 136 138 140 142 144 146 148 150 152 154 156 158 160 162 164 166 168 170 172 174 176 178 180 182 184 186 188 190 192 194 196 198 200 202 204 206 208 210 212 214 216 218 220 222 224 226 228 230 232 234 236 238 240 242 244 246 248 250 252 254 256 258 260 262 264 266 268 270 272 274 276 278 280 282 284 286 288 290 292 294 296 298 300 302 304 306 308 310 312 314 316 318 320 322 324 326 328 330 332 334 336 338 340 342 344 346 348 350 352 354 356 358 360 362 364 366 368 370 372 374 376 378 380 382 384 386 388 390 392 394 396 398 400 402 404 406 408 410 412 414 416 418 420 422 424 426 428 430 432 434 436 438 440 442 444 446 448 450 452 454 456 458 460 462 464 466 468 470 472 474 476 478 480 482 484 486 488 490 492 494 496 498 500 
</DataArray>
<DataArray type="UInt32" Name="types" format="ascii">
3 3 3 3 3 3 3 3 3 3 3 3 3 3 3 3 3 3 3 3 3 3 3 3 3 3 3 3 3 3 3 3 3 3 3 3 3 3 3 3 3 3 3 3 3 3 3 3 3 3 3 3 3 3 3 3 3 3 3 3 3 3 3 3 3 3 3 3 3 3 3 3 3 3 3 3 3 3 3 3 3 3 3 3 3 3 3 3 3 3 3 3 3 3 3 3 3 3 3 3 3 3 3 3 3 3 3 3 3 3 3 3 3 3 3 3 3 3 3 3 3 3 3 3 3 3 3 3 3 3 3 3 3 3 3 3 3 3 3 3 3 3 3 3 3 3 3 3 3 3 3 3 3 3 3 3 3 3 3 3 3 3 3 3 3 3 3 3 3 3 3 3 3 3 3 3 3 3 3 3 3 3 3 3 3 3 3 3 3 3 3 3 3 3 3 3 3 3 3 3 3 3 3 3 3 3 3 3 3 3 3 3 3 3 3 3 3 3 3 3 3 3 3 3 3 3 3 3 3 3 3 3 3 3 3 3 3 3 3 3 3 3 3 3 3 3 3 3 3 3 
</DataArray>
</Cells>
<CellData Scalars="pressure_p0,saturation,conductivity_out," Vectors="velocity_p0," Tensors="">
<DataArray type="Float64" Name="pressure_p0" format="ascii">
-6446.5862071358706 -6446.4443231097175 -6446.1614927352684 -6445.7375913835003 -6445.1724321384609 -6444.4657658330543 -6443.6172810968728 -6442.6266044161603 -6441.4933002060316 -6440.2168708950758 -6438.7967570225273 -6437.2323373481668 -6435.5229289751769 -6433.6677874861925 -6431.6661070927748 -6429.5170207986148 -6427.2196005767437 -6424.7728575610963 -6422.1757422527389 -6419.4271447411656 -6416.5258949410154 -6413.4707628446449 -6410.2604587909736 -6406.8936337510531 -6403.3688796308252 -6399.6847295915886 -6395.8396583886351 -6391.832082728637 -6387.6603616462962 -6383.3227969008449 -6378.8176333929805 -6374.143059602824 -6369.2972080495365 -6364.2781557732333 -6359.0839248398488 -6353.7124828696105 -6348.1617435898261 -6342.4295674126643 -6336.5137620386686 -6330.4120830867078 -6324.1222347511248 -6317.6418704868238 -6310.9685937230734 -6304.0999586067846 -6297.0334707760812 -6289.7665881649318 -6282.2967218396607 -6274.6212368681508 -6266.7374532225685 -6258.6426467164229 -6250.3340499768037 -6241.808853452636 -6233.0642064598014 -6224.0972182639516 -6214.9049592018837 -6205.484461842314 -6195.8327221869049 -6185.9467009123964 -6175.823324654677 -6165.4594873356418 -6154.8520515336913 -6143.9978498986875 -6132.8936866122021 -6121.5363388938686 -6109.9225585546628 -6098.0490735978983 -6085.9125898687453 -6073.509792753016 -6060.8373489260239 -6047.8919081522154 -6034.6701051363434 -6021.1685614268772 -6007.3838873723271 -5993.3126841311869 -5978.9515457361113 -5964.2970612129639 -5949.3458167553326 -5934.0943979550793 -5918.5393920894603 -5902.6773904653419 -5886.5049908209676 -5870.0187997857247 -5853.2154353983206 -5836.0915296837384 -5818.6437312892767 -5800.8687081799981 -5782.7631503937846 -5764.3237728562308 -5745.5473182554988 -5726.4305599772542 -5706.9703050997086 -5687.1633974487759 -5667.0067207132743 -5646.4972016200636 -5625.6318131689095 -5604.4075779268687 -5582.8215713818445 -5560.8709253549805 -5538.5528314714102 -5515.8645446888713 -5492.8033868835937 -5469.3667504927653 -5445.5521022128769 -5421.3569867530805 -5396.7790306426759 -5371.8159460917068 -5346.4655349036075 -5320.7256924387066 -5294.5944116273149 -5268.0697870310451 -5241.1500189508852 -5213.8334175804612 -5186.1184072028191 -5158.0035304289377 -5129.4874524760908 -5100.5689654840389 -5071.246992866967 -5041.5205936988641 -5011.3889671300567 -4980.8514568323626 -4949.9075554702649 -4918.5569091953621 -4886.7993221612069 -4854.6347610555167 -4822.0633596466669 -4789.0854233410118 -4755.7014337477885 -4721.9120532478501 -4687.7181295624723 -4653.1207003184973 -4618.1209976055379 -4582.7204525211746 -4546.9206996996709 -4510.7235818196677 -4474.1311540860897 -4437.1456886813803 -4399.769679180954 -4362.005844927573 -4323.8571353592106 -4285.3267342847175 -4246.4180641014309 -4207.1347899486964 -4167.480823791022 -4127.4603284244331 -4087.077721399316 -4046.3376788528872 -4005.2451392441931 -3963.8053069842972 -3922.0236559541072 -3879.9059329020665 -3837.4581607136997 -3794.6866415447503 -3751.5979598094455 -3708.1989850151158 -3664.4968744342168 -3620.4990756045072 -3576.2133286478715 -3531.6476683980768 -3486.8104263274013 -3441.7102322618694 -3396.3560158745549 -3350.7570079460884 -3304.922741381266 -3258.863051970407 -3212.5880788837239 -3166.1082648867791 -3119.4343562647609 -3072.5774024430179 -3025.5487552910245 -2978.3600680965992 -2931.0232941969416 -2883.5506852527378 -2835.9547891512675 -2788.2484475241217 -2740.4447928648924 -2692.5572452318229 -2644.5995085201266 -2596.5855662883741 -2548.5296771230342 -2500.4463695249556 -2452.3504363012612 -2404.256928445825 -2356.1811484912137 -2308.1386433146999 -2260.1451963806121 -2212.2168194010592 -2164.3697433967782 -2116.6204091395698 -2068.9854569575868 -2021.4817158844317 -1974.1261921328496 -1926.9360568735685 -1879.9286332996403 -1833.1213829564933 -1786.5318913177189 -1740.1778525865002 -1694.0770537025189 -1648.2473575340582 -1602.7066852350299 -1557.4729977466122 -1512.5642764232348 -1467.9985027627436 -1423.7936372206584 -1379.9675970886219 -1336.5382334173639 -1293.523306964745 -1250.9404631497623 -1208.8072059938008 -1167.1408710307546 -1125.9585971681722 -1085.2772974820632 -1045.1136289284827 -1005.4839609556329 -966.40434300068296 -927.89047085604409 -889.95765189026247 -852.62076910893882 -815.8942440411779 -779.79199843683341 -744.32741475908983 -709.51329545559565 -675.36182098915333 -641.88450660547119 -609.09215781041371 -576.99482452178381 -545.60175385018556 -514.92134144883744 -484.96108135185148 -455.72751419229684 -427.22617365247481 -399.4615309452081 -372.4369370507435 -346.15456233090794 -320.61533299831149 -295.81886371591253 -271.763385314331 -248.44566619964871 -225.86092541817391 -204.00273444173595 -182.86290336195412 -162.43134503063942 -142.69590720570463 -123.64215690909674 -105.25309084776634 -87.508726222727688 -70.385486233552697 -53.855202634874459 -37.883307438456136 -22.424874439933962 -7.408793446200109 
</DataArray>
<DataArray type="Float64" Name="velocity_p0" NumberOfComponents="3" format="ascii">
0 0 1.0195671443398954e-09 0 0 3.0592001643272442e-09 0 0 5.1003292125831807e-09 0 0 7.1439514770897874e-09 0 0 9.1910642848914006e-09 0 0 1.1242665157384984e-08 0 0 1.3299751865145258e-08 0 0 1.5363322482425756e-08 0 0 1.7434375441175671e-08 0 0 1.9513909584711674e-08 0 0 2.1602924220447551e-08 0 0 2.3702419172375282e-08 0 0 2.5813394832342935e-08 0 0 2.7936852210818199e-08 0 0 3.0073792986551114e-08 0 0 3.2225219555441808e-08 0 0 3.4392135078185073e-08 0 0 3.6575543526766368e-08 0 0 3.8776449730034818e-08 0 0 4.0995859417664346e-08 0 0 4.3234779262936717e-08 0 0 4.5494216924398395e-08 0 0 4.7775181085339646e-08 0 0 5.007868149279493e-08 0 0 5.2405728994040663e-08 0 0 5.4757335571884501e-08 0 0 5.7134514378413503e-08 0 0 5.9538279766651909e-08 0 0 6.1969647320852171e-08 0 0 6.4429633884377406e-08 0 0 6.6919257586466658e-08 0 0 6.9439537866621993e-08 0 0 7.1991495497041549e-08 0 0 7.457615260324923e-08 0 0 7.7194532682764559e-08 0 0 7.9847660621300757e-08 0 0 8.2536562707750945e-08 0 0 8.5262266646036011e-08 0 0 8.8025801565672229e-08 0 0 9.0828198029871584e-08 0 0 9.3670488041334957e-08 0 0 9.6553705046331426e-08 0 0 9.9478883936290989e-08 0 0 1.024470610472763e-07 0 0 1.0545927415724222e-07 0 0 1.0851656248123665e-07 0 0 1.1161996666446254e-07 0 0 1.1477052877289819e-07 0 0 1.179692922819555e-07 0 0 1.212173020631322e-07 0 0 1.2451560436812912e-07 0 0 1.2786524681112611e-07 0 0 1.3126727834886345e-07 0 0 1.3472274925867658e-07 0 0 1.3823271111427991e-07 0 0 1.4179821675991566e-07 0 0 1.4542032028192288e-07 0 0 1.4910007697869711e-07 0 0 1.5283854332874036e-07 0 0 1.5663677695651318e-07 0 0 1.6049583659643192e-07 0 0 1.6441678205525266e-07 0 0 1.6840067417239694e-07 0 0 1.7244857477852757e-07 0 0 1.7656154665269014e-07 0 0 1.8074065347707834e-07 0 0 1.8498695979088403e-07 0 0 1.8930153094200284e-07 0 0 1.9368543303747614e-07 0 0 1.9813973289238212e-07 0 0 2.0266549797679403e-07 0 0 2.0726379636205261e-07 0 0 2.1193569666511074e-07 0 0 2.1668226799152557e-07 0 0 2.2150457987749702e-07 0 0 2.2640370223031085e-07 0 0 2.313807052677362e-07 0 0 2.3643665945620096e-07 0 0 2.4157263544768305e-07 0 0 2.4678970401591875e-07 0 0 2.5208893599075663e-07 0 0 2.5747140219263154e-07 0 0 2.6293817336481507e-07 0 0 2.6849032010571849e-07 0 0 2.7412891279947512e-07 0 0 2.7985502154604451e-07 0 0 2.8566971609051862e-07 0 0 2.9157406575101407e-07 0 0 2.9756913934621411e-07 0 0 3.0365600512173793e-07 0 0 3.0983573067590577e-07 0 0 3.1610938288434292e-07 0 0 3.2247802782385421e-07 0 0 3.2894273069556359e-07 0 0 3.35504555746682e-07 0 0 3.4216456619198932e-07 0 0 3.4892382413380704e-07 0 0 3.5578339048102381e-07 0 0 3.6274432486757105e-07 0 0 3.6980768556871864e-07 0 0 3.7697452941727991e-07 0 0 3.8424591171789616e-07 0 0 3.9162288616006445e-07 0 0 3.9910650472960597e-07 0 0 4.0669781761882981e-07 0 0 4.1439787313457767e-07 0 0 4.2220771760462122e-07 0 0 4.3012839528215155e-07 0 0 4.3816094824755766e-07 0 0 4.4630641630847008e-07 0 0 4.5456583689676533e-07 0 0 4.6294024496254757e-07 0 0 4.7143067286605988e-07 0 0 4.8003815026484048e-07 0 0 4.8876370399848617e-07 0 0 4.9760835796865559e-07 0 0 5.0657313301526501e-07 0 0 5.1565904678791098e-07 0 0 5.24867113612277e-07 0 0 5.3419834435092758e-07 0 0 5.4365374625851394e-07 0 0 5.5323432283051543e-07 0 0 5.6294107364497891e-07 0 0 5.7277499419669373e-07 0 0 5.8273707572384076e-07 0 0 5.9282830502536243e-07 0 0 6.030496642693544e-07 0 0 6.1340213079131493e-07 0 0 6.2388667688127131e-07 0 0 6.3450426955955859e-07 0 0 6.4525587033978493e-07 0 0 6.5614243497827958e-07 0 0 6.671649132089602e-07 0 0 6.7832424846274078e-07 0 0 6.896213775697732e-07 0 0 7.0105723044380134e-07 0 0 7.1263272974732742e-07 0 0 7.2434879053562314e-07 0 0 7.3620631987844155e-07 0 0 7.4820621645829902e-07 0 0 7.6034937014234356e-07 0 0 7.7263666152734315e-07 0 0 7.8506896145490536e-07 0 0 7.9764713049495001e-07 0 0 8.1037201839581769e-07 0 0 8.2324446349768611e-07 0 0 8.3626529210729359e-07 0 0 8.4943531783129525e-07 0 0 8.6275534086484501e-07 0 0 8.7622614723256365e-07 0 0 8.8984850797869122e-07 0 0 9.0362317830229889e-07 0 0 9.1755089663420097e-07 0 0 9.3163238365119189e-07 0 0 9.4586834122338604e-07 0 0 9.6025945128925849e-07 0 0 9.7480637465475309e-07 0 0 9.8950974970903192e-07 0 0 1.0043701910528227e-06 0 0 1.0193882880320579e-06 0 0 1.0345646031704301e-06 0 0 1.0498996704936628e-06 0 0 1.0653939937378065e-06 0 0 1.0810480444326878e-06 0 0 1.0968622598528383e-06 0 0 1.1128370408248848e-06 0 0 1.1289727493820161e-06 0 0 1.145269706254169e-06 0 0 1.1617281881820591e-06 0 0 1.1783484250420285e-06 0 0 1.1951305967683474e-06 0 0 1.21207483005754e-06 0 0 1.2291811948394124e-06 0 0 1.2464497004971189e-06 0 0 1.2638802918173221e-06 0 0 1.2814728446517454e-06 0 0 1.2992271612671728e-06 0 0 1.3171429653612146e-06 0 0 1.3352198967188435e-06 0 0 1.3534575054827175e-06 0 0 1.3718552460074692e-06 0 0 1.3904124702674432e-06 0 0 1.4091284207826711e-06 0 0 1.4280022230275434e-06 0 0 1.4470328772814777e-06 0 0 1.4662192498793791e-06 0 0 1.4855600638154948e-06 0 0 1.5050538886501781e-06 0 0 1.5246991296664846e-06 0 0 1.5444940162169583e-06 0 0 1.5644365891990615e-06 0 0 1.5845246875898616e-06 0 0 1.6047559339671924e-06 0 0 1.6251277189378894e-06 0 0 1.6456371843870692e-06 0 0 1.6662812054564836e-06 0 0 1.687056371152296e-06 0 0 1.7079589634745048e-06 0 0 1.7289849349534174e-06 0 0 1.7501298844677735e-06 0 0 1.7713890312121705e-06 0 0 1.7927571866698827e-06 0 0 1.8142287244380515e-06 0 0 1.8357975477410534e-06 0 0 1.857457054457815e-06 0 0 1.8792000994765265e-06 0 0 1.9010189541802529e-06 0 0 1.9229052628549202e-06 0 0 1.9448499958016152e-06 0 0 1.9668433989246386e-06 0 0 1.9888749395583213e-06 0 0 2.0109332482898301e-06 0 0 2.0330060565302644e-06 0 0 2.0550801295871059e-06 0 0 2.0771411949950368e-06 0 0 2.099173865874277e-06 0 0 2.1211615591048171e-06 0 0 2.1430864081359485e-06 0 0 2.1649291702961981e-06 0 0 2.186669128531489e-06 0 0 2.2082839875859792e-06 0 0 2.2297497647557623e-06 0 0 2.2510406754985343e-06 0 0 2.272129014380119e-06 0 0 2.2929850320974628e-06 0 0 2.3135768096471393e-06 0 0 2.3338701311303939e-06 0 0 2.3538283572227333e-06 0 0 2.3734123020162782e-06 0 0 2.3925801168036954e-06 0 0 2.411287185460512e-06 0 0 2.4294860374564045e-06 0 0 2.447126286263637e-06 0 0 2.4641546031345188e-06 0 0 2.4805147390250879e-06 0 0 2.4961476110392127e-06 0 0 2.510991474427107e-06 0 0 2.5249822072906563e-06 0 0 2.5380537433466244e-06 0 0 2.5501386993748521e-06 0 0 2.5611692600426778e-06 0 0 2.5710784067356816e-06 0 0 2.5798016147801864e-06 0 0 2.587279207293011e-06 0 0 2.5934596714911941e-06 0 0 2.5983044840224497e-06 0 0 2.6017955570321755e-06 0 0 2.6039480277575554e-06 0 0 2.6048374670864233e-06 0 0 2.604719122243574e-06 
</DataArray>
<DataArray type="Float64" Name="saturation" format="ascii">
0.48774861398469238 0.48775065976762799 0.48775473797736546 0.48776085073766962 0.4877690012342123 0.48777919371525569 0.4877914334925636 0.48780572694254243 0.48782208150761075 0.48784050569779996 0.48786100909258723 0.48788360234296102 0.48790829717372158 0.487935106386018 0.48796404386012354 0.48799512455845118 0.4880283645288121 0.48806378090791902 0.48810139192513763 0.4881412169064886 0.4881832762789029 0.48822759157473494 0.48827418543653511 0.48832308162208765 0.4883743050097159 0.4884278816038603 0.48848383854093291 0.48854220409545368 0.48860300768647302 0.4886662798842859 0.48873205241744333 0.48880035818006623 0.48887123123946913 0.48894470684409802 0.48902082143179137 0.48909961263836915 0.48918111930655894 0.48926538149526577 0.48935244048919341 0.48944233880882748 0.48953512022078643 0.48963082974855182 0.48972951368358586 0.48983121959684778 0.48993599635071799 0.49004389411134186 0.49015496436140382 0.4902692599133448 0.49038683492303348 0.49050774490390581 0.49063204674158589 0.49075979870900122 0.4908910604820077 0.49102589315553941 0.49116435926029878 0.4913065227800032 0.4914524491692055 0.49160220537170524 0.49175585983957093 0.49191348255278983 0.49207514503956751 0.49224092039729589 0.49241088331421301 0.49258511009177519 0.49276367866776638 0.49294666864016717 0.49313416129180965 0.49332623961584376 0.49352298834204211 0.493724493963971 0.49393084476705795 0.49414213085758391 0.49435844419263408 0.49457987861103836 0.49480652986533546 0.49503849565479674 0.49527587565954584 0.49551877157581181 0.49576728715235641 0.49602152822811496 0.4962816027710949 0.49654762091857574 0.49681969501865619 0.49709793967319682 0.4973824717822074 0.49767341058973158 0.49797087773128146 0.49827499728287838 0.49858589581175849 0.49890370242880233 0.4992285488427527 0.49956056941628441 0.49989990122399508 0.50024668411238715 0.50060106076191446 0.50096317675117064 0.50133318062329768 0.50171122395469825 0.5020974614261382 0.50249205089632887 0.50289515347808256 0.50330693361713852 0.50372755917376133 0.50415720150721732 0.50459603556323862 0.50504423996459136 0.50550199710486476 0.50596949324561025 0.50644691861695645 0.50693446752183902 0.50743233844398561 0.50794073415980434 0.5084598618543299 0.50898993324138875 0.50953116468815118 0.51008377734424715 0.51064799727562726 0.5112240556033637 0.51181218864758871 0.5124126380767815 0.51302565106262299 0.51365148044064579 0.51429038487692136 0.51494262904103172 0.51560848378559032 0.51628822633258586 0.51698214046683466 0.51769051673684352 0.51841365266339967 0.51915185295621191 0.51990542973895404 0.52067470278306893 0.52145999975071167 0.52226165644723288 0.52308001708361318 0.5239154345492909 0.52476827069583609 0.52563889663195429 0.52652769303032199 0.52743505044678196 0.52836136965245439 0.52930706197934452 0.53027254968005699 0.53125826630225947 0.53226465707856674 0.53329217933255368 0.5343413029016375 0.53541251057760908 0.53650629856563259 0.53762317696257123 0.53876367025554339 0.53992831784165662 0.54111767456991677 0.54233231130635695 0.54357281552348713 0.54483979191521836 0.54613386303847422 0.54745566998276252 0.54880587306904594 0.55018515257931511 0.55159420951833726 0.55303376640912849 0.55450456812377336 0.55600738275129213 0.55754300250434252 0.55911224466662657 0.5607159525829617 0.56235499669406819 0.56403027561821928 0.56574271728199932 0.56749328010251188 0.56928295422348674 0.5711127628078333 0.5729837633892968 0.57489704928597529 0.57685375107856185 0.57885503815627737 0.58090212033355904 0.58299624954066398 0.58513872159143387 0.58733087803154649 0.5895741080706437 0.59186985060177721 0.59421959631164167 0.59662488988507367 0.59908733230726607 0.60160858326708699 0.60419036366478363 0.60683445822718518 0.60954271823329154 0.61231706435281508 0.61515948959984135 0.61807206240324208 0.62105692979480875 0.62411632071524736 0.62725254943714148 0.63046801910272743 0.63376522537277835 0.63714676018101601 0.64061531558619689 0.6441736877112727 0.64782478075572247 0.65157161106319328 0.65541731122183433 0.65936513416902121 0.66341845726537985 0.66758078629490192 0.67185575933825992 0.67624715045489259 0.68075887309564864 0.68539498315136227 0.69015968152315121 0.69505731607686472 0.7000923828162311 0.7052695260759605 0.71059353749626508 0.71606935349266332 0.72170205087792572 0.72749684022464212 0.73345905647477172 0.73959414620369701 0.74590765082709365 0.75240518489481278 0.75909240844117432 0.76597499214839126 0.77305857381997567 0.78034870434195303 0.78785078091583305 0.79556996485772802 0.80351108064467258 0.81167849211348364 0.82007595072535333 0.82870640952344388 0.83757179471778942 0.84667272456173948 0.85600816207471764 0.86557498380093045 0.8753674404911409 0.88537647619968673 0.89558885776917752 0.90598604329797294 0.91654267874867523 0.92722454163230694 0.93798561738990061 0.94876372040105328 0.95947345071336554 0.96999366681709809 0.98014156889918602 0.9896030688866988 0.99705575569001759 
</DataArray>
<DataArray type="Float64" Name="conductivity_out" format="ascii">