<?xml version="1.0"?>
<VTKFile type="UnstructuredGrid" version="0.1" byte_order="LittleEndian">
<UnstructuredGrid>
<Piece NumberOfPoints="251" NumberOfCells="250">
<Points>
<DataArray type="Float64" NumberOfComponents="3" format="ascii">
0 0 -0.17099999999979171 0 0 -0.1559999999997522 0 0 -0.15699999999975489 0 0 -0.1579999999997575 0 0 -0.15899999999976011 0 0 -0.1599999999997628 0 0 -0.16099999999976539 0 0 -0.161999999999768 0 0 -0.16299999999977069 0 0 -0.1639999999997733 0 0 -0.16499999999977599 0 0 -0.1659999999997786 0 0 -0.16699999999978121 0 0 -0.16799999999978391 0 0 -0.16899999999978649 0 0 -0.1699999999997891 0 0 -0.15499999999974959 0 0 -0.1719999999997944 0 0 -0.17299999999979701 0 0 -0.1739999999997997 0 0 -0.17499999999980231 0 0 -0.17599999999980501 0 0 -0.17699999999980759 0 0 -0.1779999999998102 0 0 -0.17899999999981281 0 0 -0.1799999999998155 0 0 -0.18099999999981811 0 0 -0.18199999999982069 0 0 -0.18299999999982339 0 0 -0.183999999999826 0 0 -0.18499999999982869 0 0 -0.1859999999998313 0 0 -0.13999999999971011 0 0 -0.12499999999967321 0 0 -0.12599999999967451 0 0 -0.12699999999967579 0 0 -0.1279999999996784 0 0 -0.12899999999968109 0 0 -0.1299999999996837 0 0 -0.13099999999968631 0 0 -0.13199999999968889 0 0 -0.13299999999969159 0 0 -0.1339999999996942 0 0 -0.13499999999969689 0 0 -0.1359999999996995 0 0 -0.13699999999970211 0 0 -0.1379999999997048 0 0 -0.13899999999970741 0 0 -0.18699999999983391 0 0 -0.14099999999971269 0 0 -0.1419999999997153 0 0 -0.14299999999971799 0 0 -0.1439999999997206 0 0 -0.14499999999972321 0 0 -0.14599999999972579 0 0 -0.14699999999972849 0 0 -0.1479999999997311 0 0 -0.14899999999973379 0 0 -0.1499999999997364 0 0 -0.15099999999973901 0 0 -0.1519999999997417 0 0 -0.15299999999974431 0 0 -0.15399999999974701 0 0 -0.2339999999999578 0 0 -0.21899999999991829 0 0 -0.2199999999999209 0 0 -0.22099999999992359 0 0 -0.2219999999999262 0 0 -0.22299999999992881 0 0 -0.22399999999993139 0 0 -0.22499999999993411 0 0 -0.2259999999999367 0 0 -0.22699999999993939 0 0 -0.227999999999942 0 0 -0.22899999999994469 0 0 -0.2299999999999473 0 0 -0.23099999999994991 0 0 -0.23199999999995249 0 0 -0.23299999999995519 0 0 -0.21799999999991571 0 0 -0.23499999999996049 0 0 -0.2359999999999631 0 0 -0.23699999999996571 0 0 -0.2379999999999684 0 0 -0.23899999999997101 0 0 -0.2399999999999736 0 0 -0.24099999999997629 0 0 -0.2419999999999789 0 0 -0.24299999999998159 0 0 -0.2439999999999842 0 0 -0.24499999999998681 0 0 -0.24599999999998939 0 0 -0.24699999999999209 0 0 -0.2479999999999947 0 0 -0.24899999999999739 0 0 -0.20299999999987611 0 0 -0.1879999999998366 0 0 -0.18899999999983921 0 0 -0.18999999999984191 0 0 -0.19099999999984449 0 0 -0.1919999999998471 0 0 -0.19299999999984971 0 0 -0.1939999999998524 0 0 -0.19499999999985501 0 0 -0.1959999999998577 0 0 -0.19699999999986029 0 0 -0.19799999999986301 0 0 -0.19899999999986559 0 0 -0.1999999999998682 0 0 -0.20099999999987081 0 0 -0.2019999999998735 0 0 -0.1239999999996748 0 0 -0.20399999999987881 0 0 -0.20499999999988139 0 0 -0.205999999999884 0 0 -0.20699999999988669 0 0 -0.2079999999998893 0 0 -0.20899999999989191 0 0 -0.2099999999998946 0 0 -0.21099999999989719 0 0 -0.21199999999989991 0 0 -0.21299999999990249 0 0 -0.2139999999999051 0 0 -0.21499999999990771 0 0 -0.2159999999999104 0 0 -0.21699999999991301 0 0 -0.045999999999900919 0 0 -0.03099999999994377 0 0 -0.031999999999941367 0 0 -0.032999999999938787 0 0 -0.033999999999935943 0 0 -0.034999999999933022 0 0 -0.035999999999930102 0 0 -0.036999999999927188 0 0 -0.037999999999924268 0 0 -0.038999999999921348 0 0 -0.039999999999918427 0 0 -0.040999999999915507 0 0 -0.041999999999912593 0 0 -0.042999999999909673 0 0 -0.043999999999906753 0 0 -0.044999999999903832 0 0 -0.02999999999994565 0 0 -0.046999999999897998 0 0 -0.047999999999895078 0 0 -0.048999999999892158 0 0 -0.049999999999889237 0 0 -0.050999999999886317 0 0 -0.051999999999883403 0 0 -0.052999999999880483 0 0 -0.053999999999877563 0 0 -0.054999999999874642 0 0 -0.055999999999871722 0 0 -0.056999999999868801 0 0 -0.057999999999865881 0 0 -0.058999999999862961 0 0 -0.059999999999860047 0 0 -0.060999999999857127 0 0 -0.014999999999969531 0 0 -0.25 0 0 -0.00099999999999810158 0 0 -0.001999999999996204 0 0 -0.0029999999999943271 0 0 -0.0039999999999924488 0 0 -0.004999999999990571 0 0 -0.0059999999999886811 0 0 -0.0069999999999867156 0 0 -0.007999999999984719 0 0 -0.008999999999982581 0 0 -0.0099999999999804221 0 0 -0.010999999999978201 0 0 -0.011999999999975971 0 0 -0.01299999999997375 0 0 -0.01399999999997158 0 0 -0.061999999999854213 0 0 -0.01599999999996761 0 0 -0.0169999999999659 0 0 -0.01799999999996427 0 0 -0.018999999999962731 0 0 -0.019999999999961209 0 0 -0.020999999999959669 0 0 -0.02199999999995814 0 0 -0.022999999999956611 0 0 -0.023999999999955082 0 0 -0.024999999999953549 0 0 -0.02599999999995202 0 0 -0.02699999999995048 0 0 -0.027999999999948951 0 0 -0.028999999999947419 0 0 -0.1089999999997172 0 0 -0.093999999999760914 0 0 -0.094999999999758 0 0 -0.095999999999755073 0 0 -0.096999999999752159 0 0 -0.097999999999749246 0 0 -0.098999999999746333 0 0 -0.099999999999743419 0 0 -0.10099999999974051 0 0 -0.10199999999973761 0 0 -0.10299999999973471 0 0 -0.10399999999973179 0 0 -0.1049999999997288 0 0 -0.1059999999997259 0 0 -0.106999999999723 0 0 -0.1079999999997201 0 0 -0.092999999999763827 0 0 -0.1099999999997143 0 0 -0.1109999999997113 0 0 -0.1119999999997084 0 0 -0.1129999999997055 0 0 -0.1139999999997026 0 0 -0.1149999999996997 0 0 -0.1159999999996968 0 0 -0.11699999999969379 0 0 -0.11799999999969089 0 0 -0.11899999999968799 0 0 -0.11999999999968509 0 0 -0.1209999999996822 0 0 -0.1219999999996793 0 0 -0.1229999999996764 0 0 -0.077999999999807557 0 0 -0.062999999999851286 0 0 -0.063999999999848373 0 0 -0.064999999999845445 0 0 -0.065999999999842532 0 0 -0.066999999999839618 0 0 -0.067999999999836705 0 0 -0.068999999999833792 0 0 -0.069999999999830878 0 0 -0.070999999999827965 0 0 -0.071999999999825051 0 0 -0.072999999999822124 0 0 -0.07399999999981921 0 0 -0.074999999999816297 0 0 -0.075999999999813383 0 0 -0.07699999999981047 0 0 0 0 0 -0.078999999999804643 0 0 -0.07999999999980173 0 0 -0.080999999999798802 0 0 -0.081999999999795889 0 0 -0.082999999999792975 0 0 -0.083999999999790062 0 0 -0.084999999999787149 0 0 -0.085999999999784235 0 0 -0.086999999999781322 0 0 -0.087999999999778394 0 0 -0.088999999999775481 0 0 -0.089999999999772567 0 0 -0.090999999999769654 0 0 -0.091999999999766741 
</DataArray>
</Points>
<Cells>
<DataArray type="UInt32" Name="connectivity" format="ascii">
17 18 2 3 3 4 4 5 5 6 6 7 7 8 8 9 9 10 10 11 11 12 12 13 13 14 14 15 15 0 0 17 1 2 18 19 19 20 20 21 21 22 22 23 23 24 24 25 25 26 26 27 27 28 28 29 29 30 30 31 31 48 48 96 49 50 34 35 35 36 36 37 37 38 38 39 39 40 40 41 41 42 42 43 43 44 44 45 45 46 46 47 47 32 32 49 96 97 50 51 51 52 52 53 53 54 54 55 55 56 56 57 57 58 58 59 59 60 60 61 61 62 62 16 16 1 80 81 65 66 66 67 67 68 68 69 69 70 70 71 71 72 72 73 73 74 74 75 75 76 76 77 77 78 78 63 63 80 64 65 81 82 82 83 83 84 84 85 85 86 86 87 87 88 88 89 89 90 90 91 91 92 92 93 93 94 94 159 112 113 97 98 98 99 99 100 100 101 101 102 102 103 103 104 104 105 105 106 106 107 107 108 108 109 109 110 110 95 95 112 33 34 113 114 114 115 115 116 116 117 117 118 118 119 119 120 120 121 121 122 122 123 123 124 124 125 125 79 79 64 143 144 128 129 129 130 130 131 131 132 132 133 133 134 134 135 135 136 136 137 137 138 138 139 139 140 140 141 141 126 126 143 127 128 144 145 145 146 146 147 147 148 148 149 149 150 150 151 151 152 152 153 153 154 154 155 155 156 156 157 157 174 174 221 175 176 160 161 161 162 162 163 163 164 164 165 165 166 166 167 167 168 168 169 169 170 170 171 171 172 172 173 173 158 158 175 221 222 176 177 177 178 178 179 179 180 180 181 181 182 182 183 183 184 184 185 185 186 186 187 187 188 188 142 142 127 206 207 191 192 192 193 193 194 194 195 195 196 196 197 197 198 198 199 199 200 200 201 201 202 202 203 203 204 204 189 189 206 190 191 207 208 208 209 209 210 210 211 211 212 212 213 213 214 214 215 215 216 216 217 217 218 218 219 219 111 111 33 237 238 222 223 223 224 224 225 225 226 226 227 227 228 228 229 229 230 230 231 231 232 232 233 233 234 234 235 235 220 220 237 236 160 238 239 239 240 240 241 241 242 242 243 243 244 244 245 245 246 246 247 247 248 248 249 249 250 250 205 205 190 
</DataArray>
<DataArray type="UInt32" Name="offsets" format="ascii">
2 4 6 8 10 12 14 16 18 20 22 24 26 28 30 32 34 36 38 40 42 44 46 48 50 52 54 56 58 60 62 64 66 68 70 72 74 76 78 80 82 84 86 88 90 92 94 96 98 100 102 104 106 108 110 112 114 116 118 120 122 124 126 128 130 132 134 136 138 140 142 144 146 148 150 152 154 156 158 160 162 164 166 168 170 172 174 176 178 180 182 184 186 188 190 192 194 196 198 200 202 204 206 208 210 212 214 216 218 220 222 224 226 228 230 232 234 236 238 240 242 244 246 248 250 252 254 256 258 260 262 264 266 268 270 272 274 276 278 280 282 284 286 288 290 292 294 296 298 300 302 304 306 308 310 312 314 316 318 320 322 324 326 328 330 332 334 336 338 340 342 344 346 348 350 352 354 356 358 360 362 364 366 368 370 372 374 376 378 380 382 384 386 388 390 392 394 396 398 400 402 404 406 408 410 412 414 416 418 420 422 424 426 428 430 432 434 436 438 440 442 444 446 448 450 452 454 456 458 460 462 464 466 468 470 472 474 476 478 480 482 484 486 488 490 492 494 496 498 500 
</DataArray>
<DataArray type="UInt32" Name="types" format="ascii">
3 3 3 3 3 3 3 3 3 3 3 3 3 3 3 3 3 3 3 3 3 3 3 3 3 3 3 3 3 3 3 3 3 3 3 3 3 3 3 3 3 3 3 3 3 3 3 3 3 3 3 3 3 3 3 3 3 3 3 3 3 3 3 3 3 3 3 3 3 3 3 3 3 3 3 3 3 3 3 3 3 3 3 3 3 3 3 3 3 3 3 3 3 3 3 3 3 3 3 3 3 3 3 3 3 3 3 3 3 3 3 3 3 3 3 3 3 3 3 3 3 3 3 3 3 3 3 3 3 3 3 3 3 3 3 3 3 3 3 3 3 3 3 3 3 3 3 3 3 3 3 3 3 3 3 3 3 3 3 3 3 3 3 3 3 3 3 3 3 3 3 3 3 3 3 3 3 3 3 3 3 3 3 3 3 3 3 3 3 3 3 3 3 3 3 3 3 3 3 3 3 3 3 3 3 3 3 3 3 3 3 3 3 3 3 3 3 3 3 3 3 3 3 3 3 3 3 3 3 3 3 3 3 3 3 3 3 3 3 3 3 3 3 3 3 3 3 3 3 3 
</DataArray>
</Cells>
<CellData Scalars="pressure_p0,water_content,conductivity_richards," Vectors="velocity_p0," Tensors="">
<DataArray type="Float64" Name="pressure_p0" format="ascii">
-2092.0542157957029 -2666.9572109811579 -2628.6414438570882 -2590.2905322216848 -2551.9119206738142 -2513.5131581883461 -2475.101896316814 -2436.6858872572648 -2398.2729817898689 -2359.8711270748709 -2321.4883643093608 -2283.1328262393417 -2244.8127345234984 -2206.5363969450327 -2168.3122044679026 -2130.148628133742 -2705.2304950429102 -2054.0375886854272 -2016.1074378093158 -1978.2725201702142 -1940.5416548106255 -1902.9237186734949 -1865.4276422766022 -1828.0624051965763 -1790.8370313584987 -1753.7605841270479 -1716.8421611951162 -1680.0908892658426 -1643.5159185239308 -1607.126416892168 -1570.9315640690297 -1534.9405453432485 -3269.580955286192 -3801.8991365074758 -3767.7487806164163 -3733.3890300847324 -3698.8237728237173 -3664.0570083685766 -3629.0928487058732 -3593.9355190522724 -3558.589358582637 -3523.0588211054287 -3487.3484756833773 -3451.4630071972915 -3415.4072168508701 -3379.1860226143381 -3342.8044596046434 -3306.2676803999643 -1499.1625451812574 -3232.7496724330313 -3195.7793379973164 -3158.6755761510626 -3121.4441290317841 -3084.0908566125072 -3046.6217364889135 -3009.0428635809503 -2971.3604497462302 -2933.5808233024991 -2895.7104284563757 -2857.7558246355593 -2819.7236857215971 -2781.6207991803185 -2743.454065086954 -206.60047137351856 -518.66104416003884 -494.5720151663711 -470.94500880173314 -447.78308279201417 -425.08887732067063 -402.86459675326995 -381.111990724733 -359.83233450279351 -339.0264085165503 -318.6944769067257 -298.83626491170753 -279.45093484690574 -260.53706035919333 -242.09259853556625 -224.11485930454063 -543.20863822017282 -189.54534366980647 -172.94462085711785 -156.79263091858161 -141.08282192370686 -125.80768374416525 -110.95864831490343 -96.525958412292169 -82.498488541420556 -68.863489545067338 -55.606204074614453 -42.709243977433545 -30.151468334828579 -17.905547226966618 -5.9283203878563011 -963.06396503849714 -1463.6067405833796 -1428.2822942046855 -1393.1983472364436 -1358.3640120441019 -1323.7883645577836 -1289.4804364112947 -1255.4492068256741 -1221.7035942333832 -1188.2524476392423 -1155.1045377142984 -1122.2685476188356 -1089.7530635508008 -1057.5665650159822 -1025.7174148162962 -994.21384875260264 -3835.8363205964379 -932.275713421555 -901.85688400848539 -871.81509579066085 -842.15778486638362 -812.89219235617486 -784.02535200720718 -755.56407748270863 -727.5149493318645 -699.88430163522185 -672.67820831995709 -645.90246913851252 -619.56259530293892 -593.66379476580687 -568.2109571366218 -5665.6832223946867 -5822.2479360535208 -5813.6947790813265 -5804.8751041258438 -5795.7883110324037 -5786.4337906677647 -5776.8109256700636 -5766.9190912195008 -5756.7576558296623 -5746.3259821593992 -5735.6234278451902 -5724.6493463538736 -5713.4030878556532 -5701.8840001172875 -5690.0914294153226 -5678.0247214692827 -5830.5351654893548 -5653.0662796757297 -5640.1732431575365 -5627.003466057814 -5613.5563059977649 -5599.8311260520859 -5585.8272958179059 -5571.5441925024606 -5556.981202029343 -5542.1377201631294 -5527.0131536521749 -5511.6069213893652 -5495.9184555905995 -5479.9472029907956 -5463.6926260571454 -5447.1542042194051 -5923.2964356191906 -5957.8584550262112 -5957.3466056547913 -5956.5792770921125 -5955.5564039899336 -5954.2778993156062 -5952.7436544388074 -5950.9535392399512 -5948.9074022402656 -5946.6050707535469 -5944.0463510595509 -5941.2310285990643 -5938.1588681905896 -5934.8296142686904 -5931.2429911439376 -5927.398703284478 -5430.3314351168938 -5918.9358538624319 -5914.3166048603298 -5909.4383169586372 -5904.3006003921109 -5898.9030476953767 -5893.2452341352891 -5887.3267181647425 -5881.1470418978988 -5874.7057316068258 -5868.002298239473 -5861.0362379589906 -5853.807032704337 -5846.3141507721393 -5838.5570474197266 -4317.0721277911616 -4740.3197748797102 -4714.0307419526325 -4687.4609525698215 -4660.6114305355013 -4633.4832705797389 -4606.0776399101724 -4578.3957797590383 -4550.439006924551 -4522.2087153056236 -4493.7063774289427 -4464.9335459673257 -4435.8918552483065 -4406.5830227518627 -4377.0088505961266 -4347.1712270099533 -4766.3270969171899 -4286.7136177492102 -4256.0978521311008 -4225.227078029211 -4194.1036357697621 -4162.7299602805715 -4131.1085824367556 -4099.242130382946 -4067.1333308306066 -4034.7850103289934 -4002.2000965082289 -3969.3816192929876 -3936.3327120852045 -3903.0566129141935 -3869.55666555261 -5122.1767476082114 -5413.2238358620125 -5395.8309443199241 -5378.1523204041296 -5360.1875473876426 -5341.9362332294004 -5323.3980119156158 -5304.5725448156973 -5285.4595220523934 -5266.0586638857694 -5246.3697221106395 -5226.3924814670445 -5206.1267610633495 -5185.5724158115481 -5164.7293378743043 -5143.5974581232713 -5958.1148688051599 -5100.467219036409 -5078.4689282618747 -5056.1819757837948 -5033.606508253677 -5010.7427199906397 -4987.5908545042257 -4964.1512060241748 -4940.4241210364971 -4916.409999825215 -4892.109298019107 -4867.5225281427756 -4842.6502611713076 -4817.4931280878409 -4792.0518214432504 
</DataArray>
<DataArray type="Float64" Name="velocity_p0" NumberOfComponents="3" format="ascii">
0 0 1.2104740901007951e-06 0 0 1.0307477568584401e-06 0 0 1.0421763652698724e-06 0 0 1.0536848095046271e-06 0 0 1.065272998264109e-06 0 0 1.0769408116909749e-06 0 0 1.0886880998552237e-06 0 0 1.1005146811509484e-06 0 0 1.112420340598004e-06 0 0 1.1244048280438011e-06 0 0 1.1364678562575371e-06 0 0 1.1486090989120439e-06 0 0 1.1608281884451232e-06 0 0 1.1731247137926858e-06 0 0 1.1854982179870679e-06 0 0 1.1979481956115028e-06 0 0 1.01939904844013e-06 0 0 1.2230752908800424e-06 0 0 1.2357511303311484e-06 0 0 1.2485008805749831e-06 0 0 1.2613237500591179e-06 0 0 1.2742188799385765e-06 0 0 1.2871853402356337e-06 0 0 1.3002221257658749e-06 0 0 1.3133281518152365e-06 0 0 1.3265022495522599e-06 0 0 1.3397431611590561e-06 0 0 1.3530495346629753e-06 0 0 1.3664199184501173e-06 0 0 1.3798527554409596e-06 0 0 1.3933463769058204e-06 0 0 1.4068989958993174e-06 0 0 8.5873091072931806e-07 0 0 7.1559352961204495e-07 0 0 7.2460865395738902e-07 0 0 7.3369766533255674e-07 0 0 7.4286092182495496e-07 0 0 7.5209877442692342e-07 0 0 7.6141156677465076e-07 0 0 7.7079963487145761e-07 0 0 7.8026330679502221e-07 0 0 7.898029023874949e-07 0 0 7.9941873292716639e-07 0 0 8.0911110078174771e-07 0 0 8.1888029904013063e-07 0 0 8.2872661112434091e-07 0 0 8.3865031037722323e-07 0 0 8.4865165962765999e-07 0 0 1.4205087002873434e-06 0 0 8.6888830407316309e-07 0 0 8.7912406807195655e-07 0 0 8.89438418613958e-07 0 0 8.9983155848563413e-07 0 0 9.1030367676095215e-07 0 0 9.2085494815431669e-07 0 0 9.3148553233704175e-07 0 0 9.4219557321349168e-07 0 0 9.5298519815533961e-07 0 0 9.6385451719116906e-07 0 0 9.7480362214908053e-07 0 0 9.8583258574989848e-07 0 0 9.9694146064615758e-07 0 0 1.0081302784064971e-06 0 0 2.0309707464903924e-06 0 0 1.8641967184783039e-06 0 0 1.8771220886139675e-06 0 0 1.8898720169781499e-06 0 0 1.9024302443202693e-06 0 0 1.9147796147387023e-06 0 0 1.9269020455781667e-06 0 0 1.9387785006952619e-06 0 0 1.9503889683484183e-06 0 0 1.9617124452560508e-06 0 0 1.972726928713084e-06 0 0 1.9834094190837753e-06 0 0 1.9937359355073927e-06 0 0 2.0036815482951363e-06 0 0 2.0132204322958602e-06 0 0 2.0223259465075646e-06 0 0 1.851111301622058e-06 0 0 2.0391269377911109e-06 0 0 2.0467662807845729e-06 0 0 2.0538604603300719e-06 0 0 2.0603814378573601e-06 0 0 2.0663019096811374e-06 0 0 2.0715959048496479e-06 0 0 2.0762395712756603e-06 0 0 2.0802122256752815e-06 0 0 2.0834977930586574e-06 0 0 2.0860868654117913e-06 0 0 2.0879798540170619e-06 0 0 2.0891924063746071e-06 0 0 2.0897669875006199e-06 0 0 2.0898235897161678e-06 0 0 1.643847092779999e-06 0 0 1.4341734453437667e-06 0 0 1.4478910458881102e-06 0 0 1.461659167936492e-06 0 0 1.4754753198361499e-06 0 0 1.489336842851157e-06 0 0 1.5032409011668781e-06 0 0 1.5171844712777033e-06 0 0 1.5311643307215929e-06 0 0 1.5451770461236799e-06 0 0 1.5592189605084779e-06 0 0 1.573286179839766e-06 0 0 1.5873745587455479e-06 0 0 1.6014796853845734e-06 0 0 1.6155968654088262e-06 0 0 1.6297211049780505e-06 0 0 7.0665192736114006e-07 0 0 1.6579691810112354e-06 0 0 1.6720813652763366e-06 0 0 1.6861772633614396e-06 0 0 1.7002500928452072e-06 0 0 1.7142926475123977e-06 0 0 1.7282972725414784e-06 0 0 1.7422558384472422e-06 0 0 1.7561597137682535e-06 0 0 1.7699997365033378e-06 0 0 1.7837661843192733e-06 0 0 1.7974487435714932e-06 0 0 1.8110364772085454e-06 0 0 1.8245177916627676e-06 0 0 1.8378804028713482e-06 0 0 1.9794199701069199e-07 0 0 1.3099703232177122e-07 0 0 1.3528026196625334e-07 0 0 1.3958632291418672e-07 0 0 1.43915877892593e-07 0 0 1.4826958802241673e-07 0 0 1.5264811277946874e-07 0 0 1.5705210995509351e-07 0 0 1.6148223561850959e-07 0 0 1.6593914407853068e-07 0 0 1.7042348784665227e-07 0 0 1.7493591760042718e-07 0 0 1.7947708214768556e-07 0 0 1.840476283905242e-07 0 0 1.8864820129155832e-07 0 0 1.9327944383831162e-07 0 0 1.2673596968797654e-07 0 0 2.0263649974741549e-07 0 0 2.0736358891366338e-07 0 0 2.1212389926905684e-07 0 0 2.1691806343636951e-07 0 0 2.2174671187116448e-07 0 0 2.2661047283076796e-07 0 0 2.315099723457996e-07 0 0 2.3644583419012296e-07 0 0 2.4141867985274028e-07 0 0 2.4642912850977236e-07 0 0 2.5147779699718338e-07 0 0 2.565652997834209e-07 0 0 2.6169224894333256e-07 0 0 2.6685925413187577e-07 0 0 2.7206692255868443e-07 0 0 6.5024044996843947e-08 0 0 5.8646920486287895e-09 0 0 9.7756388102751036e-09 0 0 1.3688312978472192e-08 0 0 1.760340502050174e-08 0 0 2.1521605229225772e-08 0 0 2.5443603671409535e-08 0 0 2.937009013946052e-08 0 0 3.3301754099871495e-08 0 0 3.7239284644807237e-08 0 0 4.1183370441786376e-08 0 0 4.5134699684368826e-08 0 0 4.9093960043099971e-08 0 0 5.3061838616198215e-08 0 0 5.7039021880779523e-08 0 0 6.1026195644527195e-08 0 0 2.7731585896328082e-07 0 0 6.9033254261305484e-08 0 0 7.3054506947660391e-08 0 0 7.7088485704273664e-08 0 0 8.1135872271027731e-08 0 0 8.5197347432998246e-08 0 0 8.9273590973078257e-08 0 0 9.3365281626921433e-08 0 0 9.747309703657787e-08 0 0 1.0159771370545102e-07 0 0 1.0573980695376299e-07 0 0 1.0990005087370299e-07 0 0 1.1407911828543019e-07 0 0 1.182776806940393e-07 0 0 1.2249640824632609e-07 0 0 5.810838239287692e-07 0 0 4.7055192560249769e-07 0 0 4.7748442521729224e-07 0 0 4.8447711765921957e-07 0 0 4.9153050618198608e-07 0 0 4.9864509061351217e-07 0 0 5.0582136731149858e-07 0 0 5.1305982911624943e-07 0 0 5.2036096530143276e-07 0 0 5.2772526152153035e-07 0 0 5.3515319975653429e-07 0 0 5.4264525825373863e-07 0 0 5.5020191146574666e-07 0 0 5.5782362998504398e-07 0 0 5.6551088047492418e-07 0 0 5.7326412559604276e-07 0 0 4.6367911217769167e-07 0 0 5.8897042989101893e-07 0 0 5.9692439365100795e-07 0 0 6.0494616103476517e-07 0 0 6.1303617342853771e-07 0 0 6.2119486767496804e-07 0 0 6.2942267596277814e-07 0 0 6.3772002571079284e-07 0 0 6.4608733944409468e-07 0 0 6.5452503466319377e-07 0 0 6.6303352370531417e-07 0 0 6.716132135975013e-07 0 0 6.8026450590067731e-07 0 0 6.8898779654480426e-07 0 0 6.9778347565395729e-07 0 0 3.6739480905986901e-07 0 0 2.8260666558973545e-07 0 0 2.8793994216323518e-07 0 0 2.9331628586530822e-07 0 0 2.987362913107986e-07 0 0 3.0420055052455344e-07 0 0 3.0970965291839732e-07 0 0 3.1526418526815292e-07 0 0 3.2086473169167497e-07 0 0 3.2651187362608413e-07 0 0 3.3220618980567516e-07 0 0 3.3794825624010341e-07 0 0 3.4373864619220458e-07 0 0 3.4957793015585527e-07 0 0 3.554666758341437e-07 0 0 3.6140544811717421e-07 0 0 1.9547821006529648e-09 0 0 3.7343531785951323e-07 0 0 3.7952753083263227e-07 0 0 3.8567200139281957e-07 0 0 3.9186928002637852e-07 0 0 3.9811991426892542e-07 0 0 4.0442444868103276e-07 0 0 4.1078342482281925e-07 0 0 4.1719738122842544e-07 0 0 4.2366685337955917e-07 0 0 4.3019237367794727e-07 0 0 4.3677447141705957e-07 0 0 4.434136727527036e-07 0 0 4.5011050067218159e-07 0 0 4.5686547496261507e-07 
</DataArray>
<DataArray type="Float64" Name="water_content" format="ascii">
0.25432766238443771 0.24272422463253984 0.24340197544995562 0.24409214094182047 0.24479499031837559 0.24551080036023004 0.24623985567215873 0.24698244894615107 0.2477388812340196 0.24850946222988224 0.24929451056283228 0.25009435410011227 0.25090933026110696 0.25173978634246624 0.25258607985466697 0.25344857887030942 0.24205862660484795 0.25522372068715615 0.25613715574879375 0.25706838161784629 0.25801782483189278 0.25898592484164784 0.25997313444826653 0.26097992025396111 0.2620067631259298 0.26305415867351578 0.26412261773842849 0.26521266689775047 0.2663248489793289 0.2674597235890076 0.26861786764898188 0.26979987594636456 0.23337479146769458 0.22668663642172984 0.22708106336665346 0.2274822703682805 0.2278903796505633 0.22830551634137658 0.22872780855698133 0.22915738748943992 0.22959438749709396 0.23003894619822196 0.23049120456799749 0.23095130703887468 0.23141940160453156 0.23189563992750825 0.2323801774506816 0.23287317351272313 0.27100636169082137 0.23388519880893888 0.23440456729743259 0.23493307309477141 0.23547089690096645 0.23601822409723661 0.23657524489398796 0.23714215448417997 0.2377191532022834 0.23830644668904402 0.23890424606227217 0.23951276809388647 0.24013223539344825 0.24076287659842927 0.2414049265714644 0.37133628244470929 0.32735731229711396 0.32986081129341555 0.33242235074518811 0.33504302372025668 0.33772385792961335 0.34046579747341099 0.34326968132923402 0.34613621799439409 0.34906595557151882 0.35205924643214431 0.35511620539544636 0.35823666010299271 0.36142009193256946 0.36466556534063832 0.36797164290189233 0.32491071081796719 0.37475671143352518 0.37822927190994488 0.38174922651114618 0.38531051169752384 0.388905417166165 0.39252415823356124 0.39615428609721293 0.39977983914024595 0.40338005241496 0.40692724673438008 0.41038300976629627 0.41369017028687405 0.41675094506514415 0.4191019773934056 0.29421962102900823 0.27223795707986614 0.27349531387010317 0.27477910395234312 0.27609001992811111 0.27742877568459001 0.27879610696449225 0.28019277192672526 0.28161955169298203 0.28307725087455182 0.28456669807267765 0.28608874634466758 0.28764427362668665 0.28923418310266763 0.29085940350707346 0.29252088934727222 0.22629887013185762 0.29595660486582992 0.29773287295030204 0.2995494828613221 0.30140751717780861 0.30330808276433635 0.30525230978884821 0.30724135042627143 0.3092763771945265 0.31135858086089696 0.3134891678467876 0.31566935704730237 0.31790037596850634 0.32018345606933374 0.32251982717640415 0.20996728877787801 0.20887587403086755 0.20893457119815842 0.20899520760690737 0.20905779793168244 0.20912235732119661 0.20918890140228694 0.20925744628404852 0.20932800856212663 0.20940060532317117 0.20947525414945697 0.20955197312367485 0.2096307808338968 0.20971169637872045 0.20979473937259735 0.20987992995134924 0.20881910190078334 0.21005683704807421 0.21014859649692885 0.21024258940485521 0.21033883860422475 0.21043736748612457 0.21053820000734119 0.21064136069757761 0.21074687466691028 0.21085476761349201 0.2109650658315084 0.21107779621939454 0.21119298628831995 0.21131066417094868 0.211430858630483 0.21155359906999904 0.20819026565735385 0.20795902748747747 0.20796244009784995 0.20796755671246209 0.20797437856953518 0.20798290732014688 0.20799314502861282 0.20800509417296428 0.20801875764552194 0.20803413875356669 0.20805124122010804 0.20807006918475041 0.20809062720465871 0.20811292025562356 0.20813695373322749 0.20816273345411304 0.2116789155420824 0.20821955700593003 0.2082506145883094 0.20828344592013553 0.20831805894602462 0.20835446204147268 0.20839266401487438 0.20843267410965621 0.20847450200652501 0.20851815782583444 0.20856365213007144 0.20861099592646498 0.20866020066971899 0.20871127826487268 0.20876424107029029 0.22120824733234476 0.21726748863357381 0.21749965176942687 0.21773589320000444 0.2179762749479664 0.21822086033532573 0.21846971401396947 0.21872290199716057 0.21898049169205375 0.21924255193326095 0.21950915301750162 0.21978036673937634 0.22005626642830206 0.22033692698664992 0.22062242492912762 0.22091283842345025 0.21703934303956587 0.22150873325693571 0.22181437958156114 0.22212527152006956 0.22244149616365166 0.2227631425302613 0.22309030161568333 0.22342306644630827 0.22376153213367544 0.22410579593084926 0.22445595729069578 0.22481211792612948 0.2251743818724023 0.22554285555151163 0.2259176478388038 0.21406152721143629 0.21180683875877268 0.21193740010182616 0.21207063163330597 0.21220656610650912 0.21234523697724106 0.21248667841544749 0.21263092531721461 0.21277801331714871 0.21292797880114686 0.21308085891956996 0.21323669160083134 0.213395515565413 0.21355737034032285 0.21372229627400663 0.21389033455172876 0.20795731805569373 0.21423591716012169 0.21441354819069974 0.21459446499941481 0.21477871320379566 0.21496633936117443 0.21515739098778908 0.21535191657848662 0.2155499656270474 0.21575158864715027 0.21595683719399966 0.21616576388663533 0.21637842243094849 0.21659486764342623 0.21681515547564897 
</DataArray>
<DataArray type="Float64" Name="conductivity_richards" format="ascii">