<?xml version="1.0"?>
<VTKFile type="UnstructuredGrid" version="0.1" byte_order="LittleEndian">
<UnstructuredGrid>
<Piece NumberOfPoints="251" NumberOfCells="250">
<Points>
<DataArray type="Float64" NumberOfComponents="3" format="ascii">
0 0 -0.17099999999979171 0 0 -0.1559999999997522 0 0 -0.15699999999975489 0 0 -0.1579999999997575 0 0 -0.15899999999976011 0 0 -0.1599999999997628 0 0 -0.16099999999976539 0 0 -0.161999999999768 0 0 -0.16299999999977069 0 0 -0.1639999999997733 0 0 -0.16499999999977599 0 0 -0.1659999999997786 0 0 -0.16699999999978121 0 0 -0.16799999999978391 0 0 -0.16899999999978649 0 0 -0.1699999999997891 0 0 -0.15499999999974959 0 0 -0.1719999999997944 0 0 -0.17299999999979701 0 0 -0.1739999999997997 0 0 -0.17499999999980231 0 0 -0.17599999999980501 0 0 -0.17699999999980759 0 0 -0.1779999999998102 0 0 -0.17899999999981281 0 0 -0.1799999999998155 0 0 -0.18099999999981811 0 0 -0.18199999999982069 0 0 -0.18299999999982339 0 0 -0.183999999999826 0 0 -0.18499999999982869 0 0 -0.1859999999998313 0 0 -0.13999999999971011 0 0 -0.12499999999967321 0 0 -0.12599999999967451 0 0 -0.12699999999967579 0 0 -0.1279999999996784 0 0 -0.12899999999968109 0 0 -0.1299999999996837 0 0 -0.13099999999968631 0 0 -0.13199999999968889 0 0 -0.13299999999969159 0 0 -0.1339999999996942 0 0 -0.13499999999969689 0 0 -0.1359999999996995 0 0 -0.13699999999970211 0 0 -0.1379999999997048 0 0 -0.13899999999970741 0 0 -0.18699999999983391 0 0 -0.14099999999971269 0 0 -0.1419999999997153 0 0 -0.14299999999971799 0 0 -0.1439999999997206 0 0 -0.14499999999972321 0 0 -0.14599999999972579 0 0 -0.14699999999972849 0 0 -0.1479999999997311 0 0 -0.14899999999973379 0 0 -0.1499999999997364 0 0 -0.15099999999973901 0 0 -0.1519999999997417 0 0 -0.15299999999974431 0 0 -0.15399999999974701 0 0 -0.2339999999999578 0 0 -0.21899999999991829 0 0 -0.2199999999999209 0 0 -0.22099999999992359 0 0 -0.2219999999999262 0 0 -0.22299999999992881 0 0 -0.22399999999993139 0 0 -0.22499999999993411 0 0 -0.2259999999999367 0 0 -0.22699999999993939 0 0 -0.227999999999942 0 0 -0.22899999999994469 0 0 -0.2299999999999473 0 0 -0.23099999999994991 0 0 -0.23199999999995249 0 0 -0.23299999999995519 0 0 -0.21799999999991571 0 0 -0.23499999999996049 0 0 -0.2359999999999631 0 0 -0.23699999999996571 0 0 -0.2379999999999684 0 0 -0.23899999999997101 0 0 -0.2399999999999736 0 0 -0.24099999999997629 0 0 -0.2419999999999789 0 0 -0.24299999999998159 0 0 -0.2439999999999842 0 0 -0.24499999999998681 0 0 -0.24599999999998939 0 0 -0.24699999999999209 0 0 -0.2479999999999947 0 0 -0.24899999999999739 0 0 -0.20299999999987611 0 0 -0.1879999999998366 0 0 -0.18899999999983921 0 0 -0.18999999999984191 0 0 -0.19099999999984449 0 0 -0.1919999999998471 0 0 -0.19299999999984971 0 0 -0.1939999999998524 0 0 -0.19499999999985501 0 0 -0.1959999999998577 0 0 -0.19699999999986029 0 0 -0.19799999999986301 0 0 -0.19899999999986559 0 0 -0.1999999999998682 0 0 -0.20099999999987081 0 0 -0.2019999999998735 0 0 -0.1239999999996748 0 0 -0.20399999999987881 0 0 -0.20499999999988139 0 0 -0.205999999999884 0 0 -0.20699999999988669 0 0 -0.2079999999998893 0 0 -0.20899999999989191 0 0 -0.2099999999998946 0 0 -0.21099999999989719 0 0 -0.21199999999989991 0 0 -0.21299999999990249 0 0 -0.2139999999999051 0 0 -0.21499999999990771 0 0 -0.2159999999999104 0 0 -0.21699999999991301 0 0 -0.045999999999900919 0 0 -0.03099999999994377 0 0 -0.031999999999941367 0 0 -0.032999999999938787 0 0 -0.033999999999935943 0 0 -0.034999999999933022 0 0 -0.035999999999930102 0 0 -0.036999999999927188 0 0 -0.037999999999924268 0 0 -0.038999999999921348 0 0 -0.039999999999918427 0 0 -0.040999999999915507 0 0 -0.041999999999912593 0 0 -0.042999999999909673 0 0 -0.043999999999906753 0 0 -0.044999999999903832 0 0 -0.02999999999994565 0 0 -0.046999999999897998 0 0 -0.047999999999895078 0 0 -0.048999999999892158 0 0 -0.049999999999889237 0 0 -0.050999999999886317 0 0 -0.051999999999883403 0 0 -0.052999999999880483 0 0 -0.053999999999877563 0 0 -0.054999999999874642 0 0 -0.055999999999871722 0 0 -0.056999999999868801 0 0 -0.057999999999865881 0 0 -0.058999999999862961 0 0 -0.059999999999860047 0 0 -0.060999999999857127 0 0 -0.014999999999969531 0 0 -0.25 0 0 -0.00099999999999810158 0 0 -0.001999999999996204 0 0 -0.0029999999999943271 0 0 -0.0039999999999924488 0 0 -0.004999999999990571 0 0 -0.0059999999999886811 0 0 -0.0069999999999867156 0 0 -0.007999999999984719 0 0 -0.008999999999982581 0 0 -0.0099999999999804221 0 0 -0.010999999999978201 0 0 -0.011999999999975971 0 0 -0.01299999999997375 0 0 -0.01399999999997158 0 0 -0.061999999999854213 0 0 -0.01599999999996761 0 0 -0.0169999999999659 0 0 -0.01799999999996427 0 0 -0.018999999999962731 0 0 -0.019999999999961209 0 0 -0.020999999999959669 0 0 -0.02199999999995814 0 0 -0.022999999999956611 0 0 -0.023999999999955082 0 0 -0.024999999999953549 0 0 -0.02599999999995202 0 0 -0.02699999999995048 0 0 -0.027999999999948951 0 0 -0.028999999999947419 0 0 -0.1089999999997172 0 0 -0.093999999999760914 0 0 -0.094999999999758 0 0 -0.095999999999755073 0 0 -0.096999999999752159 0 0 -0.097999999999749246 0 0 -0.098999999999746333 0 0 -0.099999999999743419 0 0 -0.10099999999974051 0 0 -0.10199999999973761 0 0 -0.10299999999973471 0 0 -0.10399999999973179 0 0 -0.1049999999997288 0 0 -0.1059999999997259 0 0 -0.106999999999723 0 0 -0.1079999999997201 0 0 -0.092999999999763827 0 0 -0.1099999999997143 0 0 -0.1109999999997113 0 0 -0.1119999999997084 0 0 -0.1129999999997055 0 0 -0.1139999999997026 0 0 -0.1149999999996997 0 0 -0.1159999999996968 0 0 -0.11699999999969379 0 0 -0.11799999999969089 0 0 -0.11899999999968799 0 0 -0.11999999999968509 0 0 -0.1209999999996822 0 0 -0.1219999999996793 0 0 -0.1229999999996764 0 0 -0.077999999999807557 0 0 -0.062999999999851286 0 0 -0.063999999999848373 0 0 -0.064999999999845445 0 0 -0.065999999999842532 0 0 -0.066999999999839618 0 0 -0.067999999999836705 0 0 -0.068999999999833792 0 0 -0.069999999999830878 0 0 -0.070999999999827965 0 0 -0.071999999999825051 0 0 -0.072999999999822124 0 0 -0.07399999999981921 0 0 -0.074999999999816297 0 0 -0.075999999999813383 0 0 -0.07699999999981047 0 0 0 0 0 -0.078999999999804643 0 0 -0.07999999999980173 0 0 -0.080999999999798802 0 0 -0.081999999999795889 0 0 -0.082999999999792975 0 0 -0.083999999999790062 0 0 -0.084999999999787149 0 0 -0.085999999999784235 0 0 -0.086999999999781322 0 0 -0.087999999999778394 0 0 -0.088999999999775481 0 0 -0.089999999999772567 0 0 -0.090999999999769654 0 0 -0.091999999999766741 
</DataArray>
</Points>
<Cells>
<DataArray type="UInt32" Name="connectivity" format="ascii">
17 18 2 3 3 4 4 5 5 6 6 7 7 8 8 9 9 10 10 11 11 12 12 13 13 14 14 15 15 0 0 17 1 2 18 19 19 20 20 21 21 22 22 23 23 24 24 25 25 26 26 27 27 28 28 29 29 30 30 31 31 48 48 96 49 50 34 35 35 36 36 37 37 38 38 39 39 40 40 41 41 42 42 43 43 44 44 45 45 46 46 47 47 32 32 49 96 97 50 51 51 52 52 53 53 54 54 55 55 56 56 57 57 58 58 59 59 60 60 61 61 62 62 16 16 1 80 81 65 66 66 67 67 68 68 69 69 70 70 71 71 72 72 73 73 74 74 75 75 76 76 77 77 78 78 63 63 80 64 65 81 82 82 83 83 84 84 85 85 86 86 87 87 88 88 89 89 90 90 91 91 92 92 93 93 94 94 159 112 113 97 98 98 99 99 100 100 101 101 102 102 103 103 104 104 105 105 106 106 107 107 108 108 109 109 110 110 95 95 112 33 34 113 114 114 115 115 116 116 117 117 118 118 119 119 120 120 121 121 122 122 123 123 124 124 125 125 79 79 64 143 144 128 129 129 130 130 131 131 132 132 133 133 134 134 135 135 136 136 137 137 138 138 139 139 140 140 141 141 126 126 143 127 128 144 145 145 146 146 147 147 148 148 149 149 150 150 151 151 152 152 153 153 154 154 155 155 156 156 157 157 174 174 221 175 176 160 161 161 162 162 163 163 164 164 165 165 166 166 167 167 168 168 169 169 170 170 171 171 172 172 173 173 158 158 175 221 222 176 177 177 178 178 179 179 180 180 181 181 182 182 183 183 184 184 185 185 186 186 187 187 188 188 142 142 127 206 207 191 192 192 193 193 194 194 195 195 196 196 197 197 198 198 199 199 200 200 201 201 202 202 203 203 204 204 189 189 206 190 191 207 208 208 209 209 210 210 211 211 212 212 213 213 214 214 215 215 216 216 217 217 218 218 219 219 111 111 33 237 238 222 223 223 224 224 225 225 226 226 227 227 228 228 229 229 230 230 231 231 232 232 233 233 234 234 235 235 220 220 237 236 160 238 239 239 240 240 241 241 242 242 243 243 244 244 245 245 246 246 247 247 248 248 249 249 250 250 205 205 190 
</DataArray>
<DataArray type="UInt32" Name="offsets" format="ascii">
2 4 6 8 10 12 14 16 18 20 22 24 26 28 30 32 34 36 38 40 42 44 46 48 50 52 54 56 58 60 62 64 66 68 70 72 74 76 78 80 82 84 86 88 90 92 94 96 98 100 102 104 106 108 110 112 114 116 118 120 122 124 126 128 130 132 134 136 138 140 142 144 146 148 150 152 154 156 158 160 162 164 166 168 170 172 174 176 178 180 182 184 186 188 190 192 194 196 198 200 202 204 206 208 210 212 214 216 218 220 222 224 226 228 230 232 234 236 238 240 242 244 246 248 250 252 254 256 258 260 262 264 266 268 270 272 274 276 278 280 282 284 286 288 290 292 294 296 298 300 302 304 306 308 310 312 314 316 318 320 322 324 326 328 330 332 334 336 338 340 342 344 346 348 350 352 354 356 358 360 362 364 366 368 370 372 374 376 378 380 382 384 386 388 390 392 394 396 398 400 402 404 406 408 410 412 414 416 418 420 422 424 426 428 430 432 434 436 438 440 442 444 446 448 450 452 454 456 458 460 462 464 466 468 470 472 474 476 478 480 482 484 486 488 490 492 494 496 498 500 
</DataArray>
<DataArray type="UInt32" Name="types" format="ascii">
3 3 3 3 3 3 3 3 3 3 3 3 3 3 3 3 3 3 3 3 3 3 3 3 3 3 3 3 3 3 3 3 3 3 3 3 3 3 3 3 3 3 3 3 3 3 3 3 3 3 3 3 3 3 3 3 3 3 3 3 3 3 3 3 3 3 3 3 3 3 3 3 3 3 3 3 3 3 3 3 3 3 3 3 3 3 3 3 3 3 3 3 3 3 3 3 3 3 3 3 3 3 3 3 3 3 3 3 3 3 3 3 3 3 3 3 3 3 3 3 3 3 3 3 3 3 3 3 3 3 3 3 3 3 3 3 3 3 3 3 3 3 3 3 3 3 3 3 3 3 3 3 3 3 3 3 3 3 3 3 3 3 3 3 3 3 3 3 3 3 3 3 3 3 3 3 3 3 3 3 3 3 3 3 3 3 3 3 3 3 3 3 3 3 3 3 3 3 3 3 3 3 3 3 3 3 3 3 3 3 3 3 3 3 3 3 3 3 3 3 3 3 3 3 3 3 3 3 3 3 3 3 3 3 3 3 3 3 3 3 3 3 3 3 3 3 3 3 3 3 
</DataArray>
</Cells>
<CellData Scalars="pressure_p0,water_content,conductivity_richards," Vectors="velocity_p0," Tensors="">
<DataArray type="Float64" Name="pressure_p0" format="ascii">
-2736.1439386878592 -3419.3886428478754 -3375.1356809393656 -3330.6552783558845 -3285.9563616147839 -3241.0481281220009 -3195.9400464849596 -3150.6418565845697 -3105.163569396133 -3059.5154665488176 -3013.7080996130508 -2967.7522891049725 -2921.6591231968741 -2875.4399561222372 -2829.1064062638161 -2782.6703539129267 -3463.405507908752 -2689.5395565990875 -2642.8698567487236 -2596.1477376513867 -2549.3863431634336 -2502.5990580072485 -2455.7995028770424 -2409.0015291123891 -2362.2192129254599 -2315.4668491677098 -2268.758944621522 -2222.1102108021259 -2175.535556254833 -2129.0500783324624 -2082.6690544376179 -2036.4079327142713 -4090.2537219603487 -4641.8022279946745 -4607.6247603455213 -4573.06747386596 -4538.1319677840165 -4502.8200283416336 -4467.1336327014906 -4431.0749528256692 -4394.6463593219596 -4357.8504252534349 -4320.6899299067391 -4283.1678625144232 -4245.2874259264772 -4207.0520402260736 -4168.4653462843389 -4129.5312092488512 -1990.282322172952 -4050.6372082919984 -4010.6862264054025 -3970.4055719173039 -3929.8002809708087 -3888.8756332047624 -3847.6371546147211 -3806.0906202987535 -3764.2420570811587 -3722.0977460069485 -3679.6642246997799 -3636.9482895758192 -3593.9569979057705 -3550.6976697171731 -3507.1778895287907 -262.63585513568262 -682.39528777067835 -649.67760346587943 -617.60578549186175 -586.18925777741197 -555.43673741794544 -525.35619269346216 -495.95479982029104 -467.23889835348223 -439.21394512836775 -411.88446659113401 -385.25400931534648 -359.32508842873102 -334.09913357434323 -309.57643189109751 -285.75606730366655 -715.7487484223825 -240.21227066400817 -218.48036965437942 -197.43369806094464 -177.06418676866187 -157.36202522185943 -138.3155044961735 -119.91081484720037 -102.13177300457426 -84.959436081069114 -68.371521278015621 -52.34146400552234 -36.836711515571096 -21.814991669893509 -7.2094175035915207 -1283.875957569705 -1944.3079822336165 -1898.5008116701722 -1852.876836940449 -1807.4521998852847 -1762.2431447803024 -1717.2660047238378 -1672.5371873444108 -1628.0731598111106 -1583.8904331302151 -1540.0055457113922 -1496.4350461868462 -1453.1954754668538 -1410.3033480152467 -1367.7751323285074 -1325.627230602327 -4675.5984606685379 -1242.5375184948919 -1201.6279863077734 -1161.1632778636413 -1121.1591293135898 -1081.6310705712199 -1042.5943988617114 -1004.0641513397018 -966.05507676284981 -928.5816062082838 -891.6578228194262 -855.29743057089695 -819.51372203915003 -784.31954516628093 -749.727269003841 -6221.7857012879103 -6325.0548242291316 -6319.5530652742827 -6313.8626829689256 -6307.9817601405075 -6301.9083304199166 -6295.6403789212382 -6289.1758429484616 -6282.5126127297308 -6275.6485321796845 -6268.5813996905545 -6261.3089689525868 -6253.8289498044096 -6246.1390091139965 -6238.236771690812 -6230.1198212298077 -6330.3698271560716 -6213.2319162935992 -6204.4559325902737 -6195.4551795140205 -6186.2270505064589 -6176.7689042632683 -6167.0780659190768 -6157.1518282693705 -6146.9874530300222 -6136.5821721351258 -6125.9331890737376 -6115.0376802661758 -6103.8927964805007 -6092.4956642897887 -6080.8433875707888 -6068.9330490446146 -6388.7947473330896 -6410.0570705723512 -6409.7439315917636 -6409.274574126699 -6408.648819426563 -6407.8664292285539 -6406.9271058203203 -6405.8304921184108 -6404.5761717626474 -6403.1636692265201 -6401.5924499437351 -6399.861920451086 -6397.971428547824 -6395.9202634716985 -6393.707656091904 -6391.3327791191441 -6056.761711860011 -6386.0926178274676 -6383.2253902730899 -6380.1920071991017 -6376.9913542927952 -6373.6222607183217 -6370.0834994546303 -6366.3737876530413 -6362.4917870148201 -6358.4361041891616 -6354.2052911920146 -6349.7978458461585 -6345.2122122430046 -6340.4467812265793 -6335.4998909001615 -5136.3448019139078 -5511.5750676009957 -5489.1283018583963 -5466.3233955723299 -5443.1580880266665 -5419.6301875865493 -5395.7375750593365 -5371.4782070996807 -5346.8501196578227 -5321.8514314701042 -5296.4803475906392 -5270.7351629630193 -5244.6142660308115 -5218.1161423855574 -5191.2393784508877 -5163.982665201278 -5533.6660192815543 -5108.3246999519361 -5079.9213865774946 -5051.1340087925364 -5021.9618372056175 -4992.4042699225765 -4962.4608364589931 -4932.1312016721649 -4901.4151697102916 -4870.3126879763931 -4838.823851104401 -4806.9489049447666 -4774.6882505567719 -4742.0424482046255 -4709.0122213544091 -5824.0791182543708 -6044.326421219781 -6031.6242060509639 -6018.6520807192956 -6005.4070467884776 -5991.8860948248048 -5978.0862062476244 -5964.0043552261295 -5949.6375106229316 -5934.9826379848782 -5920.0367015815182 -5904.7966664916157 -5889.2595007380842 -5873.4221774716752 -5857.2816772037604 -5840.8349900884514 -6410.2141102599353 -5807.011078186235 -5789.6279031564845 -5771.9266457070962 -5753.9043801816806 -5735.5582053079688 -5716.885246830705 -5697.8826601949495 -5678.5476332797352 -5658.8773891819947 -5638.8691890506052 -5618.5203349703825 -5597.8281728957518 -5576.7900956338308 -5555.4035458765702 
</DataArray>
<DataArray type="Float64" Name="velocity_p0" NumberOfComponents="3" format="ascii">
0 0 1.2313921713999735e-06 0 0 9.9930034864452802e-07 0 0 1.0137403598147192e-06 0 0 1.028326426757854e-06 0 0 1.0430589911034086e-06 0 0 1.0579384657860357e-06 0 0 1.0729652332774314e-06 0 0 1.0881396436960829e-06 0 0 1.1034620127892835e-06 0 0 1.1189326197758676e-06 0 0 1.1345517050421007e-06 0 0 1.1503194676782519e-06 0 0 1.1662360628460399e-06 0 0 1.1823015989644442e-06 0 0 1.1985161347001967e-06 0 0 1.2148796757501579e-06 0 0 9.8500592457982072e-07 0 0 1.2480535108418905e-06 0 0 1.2648635192366494e-06 0 0 1.2818219534981414e-06 0 0 1.2989284977826113e-06 0 0 1.3161827586595788e-06 0 0 1.3335842599415362e-06 0 0 1.3511324371472058e-06 0 0 1.3688266315714665e-06 0 0 1.3866660839313448e-06 0 0 1.404649927559445e-06 0 0 1.4227771811067673e-06 0 0 1.4410467407223266e-06 0 0 1.4594573716675105e-06 0 0 1.4780076993228859e-06 0 0 1.4966961995428934e-06 0 0 7.8767423998251061e-07 0 0 6.2076730869367196e-07 0 0 6.3100046197373092e-07 0 0 6.4135770403075799e-07 0 0 6.5183989001202227e-07 0 0 6.6244786923306144e-07 0 0 6.7318248493178215e-07 0 0 6.8404457400770382e-07 0 0 6.950349667448882e-07 0 0 7.0615448651693539e-07 0 0 7.1740394947498435e-07 0 0 7.287841642140455e-07 0 0 7.4029593141966003e-07 0 0 7.5194004349069936e-07 0 0 7.6371728413847634e-07 0 0 7.7562842795991134e-07 0 0 1.5155211883071915e-06 0 0 7.9985547518040829e-07 0 0 8.1217287795730838e-07 0 0 8.2462718159723937e-07 0 0 8.3721910767771314e-07 0 0 8.4994936544469435e-07 0 0 8.6281865114609415e-07 0 0 8.7582764732092571e-07 0 0 8.8897702204132669e-07 0 0 9.0226742810400382e-07 0 0 9.1569950216734668e-07 0 0 9.2927386383149613e-07 0 0 9.4299111465618019e-07 0 0 9.5685183711268353e-07 0 0 9.7085659346581505e-07 0 0 2.4347085946895143e-06 0 0 2.1650718197967761e-06 0 0 2.1852778743575073e-06 0 0 2.2053054473915544e-06 0 0 2.225128463817605e-06 0 0 2.2447189877138076e-06 0 0 2.2640471138016781e-06 0 0 2.2830808587449299e-06 0 0 2.301786054222284e-06 0 0 2.3201262443534151e-06 0 0 2.3380625908337063e-06 0 0 2.3555537901123634e-06 0 0 2.3725560081750153e-06 0 0 2.3890228400395761e-06 0 0 2.4049053030261436e-06 0 0 2.4201518753414535e-06 0 0 2.1447116048120371e-06 0 0 2.4485192357232017e-06 0 0 2.4615255905384368e-06 0 0 2.4736678836379405e-06 0 0 2.4848853627520905e-06 0 0 2.4951171211371658e-06 0 0 2.5043032282675406e-06 0 0 2.5123862795614826e-06 0 0 2.519313533028504e-06 0 0 2.5250399064784721e-06 0 0 2.5295323258228221e-06 0 0 2.5327764246178002e-06 0 0 2.5347880476956387e-06 0 0 2.5356377358124254e-06 0 0 2.5355580326849898e-06 0 0 1.833080452024019e-06 0 0 1.5344808106163494e-06 0 0 1.5535730285742441e-06 0 0 1.57279560859437e-06 0 0 1.5921461076647356e-06 0 0 1.6116218585974045e-06 0 0 1.6312199541876922e-06 0 0 1.650937230196971e-06 0 0 1.6707702470719698e-06 0 0 1.6907152703025171e-06 0 0 1.7107682493156023e-06 0 0 1.7309247947944269e-06 0 0 1.7511801543038338e-06 0 0 1.771529186096456e-06 0 0 1.7919663309625435e-06 0 0 1.8124855819820397e-06 0 0 6.106573834434331e-07 0 0 1.853743938833713e-06 0 0 1.8744684875361254e-06 0 0 1.8952459503773923e-06 0 0 1.9160675435189863e-06 0 0 1.93692380069027e-06 0 0 1.957804523503064e-06 0 0 1.9786987282252555e-06 0 0 1.9995945888137951e-06 0 0 2.0204793760079106e-06 0 0 2.0413393922939365e-06 0 0 2.0621599025665896e-06 0 0 2.0829250603363338e-06 0 0 2.1036178293645975e-06 0 0 2.1242199006573989e-06 0 0 1.2532264890649832e-07 0 0 7.9331192530303074e-08 0 0 8.2135532339336233e-08 0 0 8.4972953809345028e-08 0 0 8.7844450832412517e-08 0 0 9.0751017731109578e-08 0 0 9.3693649253003781e-08 0 0 9.6673340563283445e-08 0 0 9.969108723666266e-08 0 0 1.0274788524797572e-07 0 0 1.0584473096040846e-07 0 0 1.0898262111411734e-07 0 0 1.1216255281158606e-07 0 0 1.1538552350303171e-07 0 0 1.1865253097031972e-07 0 0 1.2196457330822863e-07 0 0 7.6558940925033258e-08 0 0 1.2872775642871411e-07 0 0 1.3218089479086611e-07 0 0 1.3568306313838277e-07 0 0 1.392352608212859e-07 0 0 1.4283848736973453e-07 0 0 1.4649374246612033e-07 0 0 1.5020202591763854e-07 0 0 1.5396433762676255e-07 0 0 1.5778167756092647e-07 0 0 1.6165504572069479e-07 0 0 1.6558544210737445e-07 0 0 1.6957386668833672e-07 0 0 1.7362131936294881e-07 0 0 1.7772879992601398e-07 0 0 1.8189730803024345e-07 0 0 3.815153232106083e-08 0 0 3.4018834539373343e-09 0 0 5.6714460922685743e-09 0 0 7.9434689493787627e-09 0 0 1.02189360183674e-08 0 0 1.2498831369831744e-08 0 0 1.4784139173535567e-08 0 0 1.7075843720217252e-08 0 0 1.937492944219042e-08 0 0 2.1682380934635583e-08 0 0 2.3999182975887008e-08 0 0 2.6326320547224533e-08 0 0 2.8664778852358526e-08 0 0 3.1015543336748074e-08 0 0 3.337959970546166e-08 0 0 3.5757933941218673e-08 0 0 1.8612784314894219e-07 0 0 4.0561381432820476e-08 0 0 4.2988468190681798e-08 0 0 4.543377984979368e-08 0 0 4.7898304019850668e-08 0 0 5.0383028678258527e-08 0 0 5.2888942182089101e-08 0 0 5.541703327898294e-08 0 0 5.7968291117220893e-08 0 0 6.0543705254404656e-08 0 0 6.3144265665673619e-08 0 0 6.577096275009419e-08 0 0 6.8424787336507529e-08 0 0 7.110673068773599e-08 0 0 7.3817784504020818e-08 0 0 4.7319567233368498e-07 0 0 3.6021023503300122e-07 0 0 3.6704456756256289e-07 0 0 3.7397447482264579e-07 0 0 3.8100091973802995e-07 0 0 3.8812486316874561e-07 0 0 3.9534726384298294e-07 0 0 4.0266907828776307e-07 0 0 4.1009126075982599e-07 0 0 4.1761476317299818e-07 0 0 4.2524053502541316e-07 0 0 4.3296952332320009e-07 0 0 4.4080267250368431e-07 0 0 4.4874092435509421e-07 0 0 4.5678521793430589e-07 0 0 4.6493648948183713e-07 0 0 3.5347051231010411e-07 0 0 4.8156369683044158e-07 0 0 4.900414902224639e-07 0 0 4.9862997657181096e-07 0 0 5.0733007664960528e-07 0 0 5.1614270782962074e-07 0 0 5.2506878397663302e-07 0 0 5.3410921533006965e-07 0 0 5.4326490838192199e-07 0 0 5.5253676574883331e-07 0 0 5.6192568603779151e-07 0 0 5.7143256370478373e-07 0 0 5.8105828890648156e-07 0 0 5.9080374734336795e-07 0 0 6.0066982009447448e-07 0 0 2.6306630965341042e-07 0 0 1.904214045362958e-07 0 0 1.9477899118725036e-07 0 0 1.9920160179674385e-07 0 0 2.0369023471746888e-07 0 0 2.0824588791726483e-07 0 0 2.1286955893486816e-07 0 0 2.1756224483627845e-07 0 0 2.2232494216855614e-07 0 0 2.2715864691416501e-07 0 0 2.3206435444397295e-07 0 0 2.3704305946950522e-07 0 0 2.4209575599499365e-07 0 0 2.4722343726796368e-07 0 0 2.5242709572992624e-07 0 0 2.5770772296590623e-07 0 0 1.1337970972598652e-09 0 0 2.6850384551122438e-07 0 0 2.740213192466961e-07 0 0 2.7961971850337828e-07 0 0 2.8530002980775777e-07 0 0 2.9106323851463997e-07 0 0 2.9691032875350108e-07 0 0 3.0284228337248666e-07 0 0 3.0886008388322503e-07 0 0 3.1496471040405673e-07 0 0 3.2115714160322759e-07 0 0 3.2743835464082684e-07 0 0 3.3380932511085547e-07 0 0 3.402710269815839e-07 0 0 3.4682443253584327e-07 
</DataArray>
<DataArray type="Float64" Name="water_content" format="ascii">
0.24152975961825102 0.23136779007513544 0.23194965514152194 0.23254378595066466 0.23315047452034221 0.23377002175338929 0.23440273777591303 0.23504894229030118 0.23570896494371735 0.23638314571280589 0.23707183530536399 0.23777539557977057 0.23849419998299637 0.23922863400805389 0.23997909567178188 0.24074599601389304 0.23079790729469851 0.24233082515737675 0.24314964596121955 0.24398669061126155 0.24484244356105628 0.24571740578433188 0.24661209545181573 0.24752704863796055 0.24846282005876857 0.24941998384192321 0.25039913433043864 0.25140088692103313 0.25242587893841195 0.25347477054661383 0.25454824569852263 0.25564701312457583 0.22351769700602539 0.21814579584548374 0.21845574449754335 0.21877198007623563 0.21909463007453384 0.2194238250797951 0.21975969887070482 0.2201023885179649 0.22045203448888684 0.2208087807560572 0.22117277491025161 0.22154416827778217 0.22192311604247111 0.22230977737245372 0.22270431555202258 0.22310689811873619 0.25677180736160238 0.22393688869154252 0.22436465435150951 0.22480118002133515 0.22524665676278344 0.2257012808379894 0.22616525389063352 0.22663878313460006 0.22712208155046279 0.2276153680901557 0.22811886789020575 0.22863281249392248 0.22915744008295935 0.22969299571868057 0.2302397315937898 0.36106831043982646 0.31272368409412443 0.31536195849051551 0.31807513824895711 0.3208654210916515 0.32373499746773837 0.32668603194082274 0.32972064028695736 0.33284086141960756 0.33604862306531136 0.33934569987220364 0.34273366232794367 0.34621381447231825 0.34978711788190631 0.35345409873419864 0.35721473385799118 0.31015812511569663 0.36501325231447085 0.36904690324489664 0.37316525382604548 0.37736259280297402 0.38163105416437537 0.3859600154365837 0.39033527418887115 0.39473787576787145 0.39914235435943396 0.40351389775551871 0.40780329287744366 0.41193644558788611 0.41578616920991085 0.41880982182088272 0.27902575492192694 0.25792338982259699 0.2591025499080713 0.26031010615941841 0.26154690745446696 0.26281383424508298 0.26411179983628658 0.26544175170587353 0.26680467286295562 0.2682015832431347 0.26963354113718996 0.27110164464914871 0.27260703317841284 0.27415088891917216 0.27573443836862743 0.27735895383350584 0.21784200962811362 0.28073621000479615 0.28249173762748331 0.28429380784847458 0.28614394347686972 0.28804372117486837 0.28999477238458909 0.29199878403049995 0.29405749893914135 0.29617271590642635 0.29834628932923957 0.30058012830189923 0.30287619505879959 0.30523650262156193 0.30766311148154929 0.20624548742323359 0.20559896806538291 0.20563308635907152 0.20566841251344023 0.20570496238820812 0.2057427523496049 0.20578179927412088 0.20582212055240368 0.20586373409330566 0.20590665832808688 0.2059509122147756 0.20599651524269302 0.20604348743714487 0.20609184936428504 0.20614162213615661 0.20619282741591419 0.20556604227555972 0.20629962493991399 0.20635526331567769 0.20641242647417446 0.206471138919195 0.20653142574110109 0.20659331262347821 0.2066568258500176 0.20672199231163502 0.20678883951383287 0.2068573955843141 0.20692768928085506 0.2069997499994457 0.20707360778270564 0.20714929332858498 0.20722683799935854 0.20520631539864165 0.2050763965332581 0.20507830608467653 0.20508116848454463 0.20508498507861445 0.20508975766146986 0.205095488476886 0.20510218021827881 0.20510983602924557 0.20511845950419627 0.20512805468907713 0.20513862608218603 0.20515017863508161 0.20516271775358577 0.20517624929888145 0.20519077958870605 0.20730627383092332 0.20522286396350348 0.20524043297882752 0.20525903060245898 0.20527866545624265 0.20529934662781701 0.20532108367251364 0.20534388661536346 0.20536776595321232 0.20539273265694669 0.20541879817383257 0.20544597442996976 0.20547427383286271 0.20550370927411157 0.20553429413222529 0.21394827506769931 0.21107808107498055 0.21124301849678728 0.21141142965147983 0.21158337931930793 0.21175893360947634 0.21193815999205518 0.21212112733100286 0.21230790591834364 0.2124985675095428 0.21269318536012466 0.21289183426358069 0.21309459059061653 0.21330153232978888 0.21351273912958613 0.21372829234200755 0.21091655390392769 0.21417277220270792 0.21440187048691384 0.21463565855421118 0.21487422698450209 0.21511766835757784 0.21536607730896073 0.21561955058778587 0.21587818711680362 0.21614208805458887 0.21641135686004537 0.21668609935929881 0.21696642381507603 0.21725244099867219 0.21754426426461132 0.20886335965105818 0.20738763354240919 0.20747095054611234 0.20755625895776258 0.20764359360713525 0.20773299004901918 0.20782448457455227 0.2079181142229371 0.20801391679354925 0.20811193085845153 0.20821219577532735 0.20831475170084823 0.208419639604489 0.20852690128280726 0.2086365793742016 0.20874871737416628 0.2050754389330999 0.20898055146239494 0.2091003389717016 0.20922276926592542 0.20934789037343865 0.20947575128264961 0.20960640196124364 0.2097398933760759 0.20987627751373955 0.2100156074018325 0.21015793713094832 0.21030332187741702 0.21045181792682227 0.21060348269832346 0.2107583747698113 
</DataArray>
<DataArray type="Float64" Name="conductivity_richards" format="ascii">