<?xml version="1.0"?>
<VTKFile type="UnstructuredGrid" version="0.1" byte_order="LittleEndian">
<UnstructuredGrid>
<Piece NumberOfPoints="251" NumberOfCells="250">
<Points>
<DataArray type="Float64" NumberOfComponents="3" format="ascii">
0 0 0 0 0 -0.25 0 0 -0.00099999999999810158 0 0 -0.001999999999996204 0 0 -0.0029999999999943271 0 0 -0.0039999999999924488 0 0 -0.004999999999990571 0 0 -0.0059999999999886811 0 0 -0.0069999999999867156 0 0 -0.007999999999984719 0 0 -0.008999999999982581 0 0 -0.0099999999999804221 0 0 -0.010999999999978201 0 0 -0.011999999999975971 0 0 -0.01299999999997375 0 0 -0.01399999999997158 0 0 -0.014999999999969531 0 0 -0.01599999999996761 0 0 -0.0169999999999659 0 0 -0.01799999999996427 0 0 -0.018999999999962731 0 0 -0.019999999999961209 0 0 -0.020999999999959669 0 0 -0.02199999999995814 0 0 -0.022999999999956611 0 0 -0.023999999999955082 0 0 -0.024999999999953549 0 0 -0.02599999999995202 0 0 -0.02699999999995048 0 0 -0.027999999999948951 0 0 -0.028999999999947419 0 0 -0.02999999999994565 0 0 -0.03099999999994377 0 0 -0.031999999999941367 0 0 -0.032999999999938787 0 0 -0.033999999999935943 0 0 -0.034999999999933022 0 0 -0.035999999999930102 0 0 -0.036999999999927188 0 0 -0.037999999999924268 0 0 -0.038999999999921348 0 0 -0.039999999999918427 0 0 -0.040999999999915507 0 0 -0.041999999999912593 0 0 -0.042999999999909673 0 0 -0.043999999999906753 0 0 -0.044999999999903832 0 0 -0.045999999999900919 0 0 -0.046999999999897998 0 0 -0.047999999999895078 0 0 -0.048999999999892158 0 0 -0.049999999999889237 0 0 -0.050999999999886317 0 0 -0.051999999999883403 0 0 -0.052999999999880483 0 0 -0.053999999999877563 0 0 -0.054999999999874642 0 0 -0.055999999999871722 0 0 -0.056999999999868801 0 0 -0.057999999999865881 0 0 -0.058999999999862961 0 0 -0.059999999999860047 0 0 -0.060999999999857127 0 0 -0.061999999999854213 0 0 -0.062999999999851286 0 0 -0.063999999999848373 0 0 -0.064999999999845445 0 0 -0.065999999999842532 0 0 -0.066999999999839618 0 0 -0.067999999999836705 0 0 -0.068999999999833792 0 0 -0.069999999999830878 0 0 -0.070999999999827965 0 0 -0.071999999999825051 0 0 -0.072999999999822124 0 0 -0.07399999999981921 0 0 -0.074999999999816297 0 0 -0.075999999999813383 0 0 -0.07699999999981047 0 0 -0.077999999999807557 0 0 -0.078999999999804643 0 0 -0.07999999999980173 0 0 -0.080999999999798802 0 0 -0.081999999999795889 0 0 -0.082999999999792975 0 0 -0.083999999999790062 0 0 -0.084999999999787149 0 0 -0.085999999999784235 0 0 -0.086999999999781322 0 0 -0.087999999999778394 0 0 -0.088999999999775481 0 0 -0.089999999999772567 0 0 -0.090999999999769654 0 0 -0.091999999999766741 0 0 -0.092999999999763827 0 0 -0.093999999999760914 0 0 -0.094999999999758 0 0 -0.095999999999755073 0 0 -0.096999999999752159 0 0 -0.097999999999749246 0 0 -0.098999999999746333 0 0 -0.099999999999743419 0 0 -0.10099999999974051 0 0 -0.10199999999973761 0 0 -0.10299999999973471 0 0 -0.10399999999973179 0 0 -0.1049999999997288 0 0 -0.1059999999997259 0 0 -0.106999999999723 0 0 -0.1079999999997201 0 0 -0.1089999999997172 0 0 -0.1099999999997143 0 0 -0.1109999999997113 0 0 -0.1119999999997084 0 0 -0.1129999999997055 0 0 -0.1139999999997026 0 0 -0.1149999999996997 0 0 -0.1159999999996968 0 0 -0.11699999999969379 0 0 -0.11799999999969089 0 0 -0.11899999999968799 0 0 -0.11999999999968509 0 0 -0.1209999999996822 0 0 -0.1219999999996793 0 0 -0.1229999999996764 0 0 -0.1239999999996748 0 0 -0.12499999999967321 0 0 -0.12599999999967451 0 0 -0.12699999999967579 0 0 -0.1279999999996784 0 0 -0.12899999999968109 0 0 -0.1299999999996837 0 0 -0.13099999999968631 0 0 -0.13199999999968889 0 0 -0.13299999999969159 0 0 -0.1339999999996942 0 0 -0.13499999999969689 0 0 -0.1359999999996995 0 0 -0.13699999999970211 0 0 -0.1379999999997048 0 0 -0.13899999999970741 0 0 -0.13999999999971011 0 0 -0.14099999999971269 0 0 -0.1419999999997153 0 0 -0.14299999999971799 0 0 -0.1439999999997206 0 0 -0.14499999999972321 0 0 -0.14599999999972579 0 0 -0.14699999999972849 0 0 -0.1479999999997311 0 0 -0.14899999999973379 0 0 -0.1499999999997364 0 0 -0.15099999999973901 0 0 -0.1519999999997417 0 0 -0.15299999999974431 0 0 -0.15399999999974701 0 0 -0.15499999999974959 0 0 -0.1559999999997522 0 0 -0.15699999999975489 0 0 -0.1579999999997575 0 0 -0.15899999999976011 0 0 -0.1599999999997628 0 0 -0.16099999999976539 0 0 -0.161999999999768 0 0 -0.16299999999977069 0 0 -0.1639999999997733 0 0 -0.16499999999977599 0 0 -0.1659999999997786 0 0 -0.16699999999978121 0 0 -0.16799999999978391 0 0 -0.16899999999978649 0 0 -0.1699999999997891 0 0 -0.17099999999979171 0 0 -0.1719999999997944 0 0 -0.17299999999979701 0 0 -0.1739999999997997 0 0 -0.17499999999980231 0 0 -0.17599999999980501 0 0 -0.17699999999980759 0 0 -0.1779999999998102 0 0 -0.17899999999981281 0 0 -0.1799999999998155 0 0 -0.18099999999981811 0 0 -0.18199999999982069 0 0 -0.18299999999982339 0 0 -0.183999999999826 0 0 -0.18499999999982869 0 0 -0.1859999999998313 0 0 -0.18699999999983391 0 0 -0.1879999999998366 0 0 -0.18899999999983921 0 0 -0.18999999999984191 0 0 -0.19099999999984449 0 0 -0.1919999999998471 0 0 -0.19299999999984971 0 0 -0.1939999999998524 0 0 -0.19499999999985501 0 0 -0.1959999999998577 0 0 -0.19699999999986029 0 0 -0.19799999999986301 0 0 -0.19899999999986559 0 0 -0.1999999999998682 0 0 -0.20099999999987081 0 0 -0.2019999999998735 0 0 -0.20299999999987611 0 0 -0.20399999999987881 0 0 -0.20499999999988139 0 0 -0.205999999999884 0 0 -0.20699999999988669 0 0 -0.2079999999998893 0 0 -0.20899999999989191 0 0 -0.2099999999998946 0 0 -0.21099999999989719 0 0 -0.21199999999989991 0 0 -0.21299999999990249 0 0 -0.2139999999999051 0 0 -0.21499999999990771 0 0 -0.2159999999999104 0 0 -0.21699999999991301 0 0 -0.21799999999991571 0 0 -0.21899999999991829 0 0 -0.2199999999999209 0 0 -0.22099999999992359 0 0 -0.2219999999999262 0 0 -0.22299999999992881 0 0 -0.22399999999993139 0 0 -0.22499999999993411 0 0 -0.2259999999999367 0 0 -0.22699999999993939 0 0 -0.227999999999942 0 0 -0.22899999999994469 0 0 -0.2299999999999473 0 0 -0.23099999999994991 0 0 -0.23199999999995249 0 0 -0.23299999999995519 0 0 -0.2339999999999578 0 0 -0.23499999999996049 0 0 -0.2359999999999631 0 0 -0.23699999999996571 0 0 -0.2379999999999684 0 0 -0.23899999999997101 0 0 -0.2399999999999736 0 0 -0.24099999999997629 0 0 -0.2419999999999789 0 0 -0.24299999999998159 0 0 -0.2439999999999842 0 0 -0.24499999999998681 0 0 -0.24599999999998939 0 0 -0.24699999999999209 0 0 -0.2479999999999947 0 0 -0.24899999999999739 
</DataArray>
</Points>
<Cells>
<DataArray type="UInt32" Name="connectivity" format="ascii">
0 2 2 3 3 4 4 5 5 6 6 7 7 8 8 9 9 10 10 11 11 12 12 13 13 14 14 15 15 16 16 17 17 18 18 19 19 20 20 21 21 22 22 23 23 24 24 25 25 26 26 27 27 28 28 29 29 30 30 31 31 32 32 33 33 34 34 35 35 36 36 37 37 38 38 39 39 40 40 41 41 42 42 43 43 44 44 45 45 46 46 47 47 48 48 49 49 50 50 51 51 52 52 53 53 54 54 55 55 56 56 57 57 58 58 59 59 60 60 61 61 62 62 63 63 64 64 65 65 66 66 67 67 68 68 69 69 70 70 71 71 72 72 73 73 74 74 75 75 76 76 77 77 78 78 79 79 80 80 81 81 82 82 83 83 84 84 85 85 86 86 87 87 88 88 89 89 90 90 91 91 92 92 93 93 94 94 95 95 96 96 97 97 98 98 99 99 100 100 101 101 102 102 103 103 104 104 105 105 106 106 107 107 108 108 109 109 110 110 111 111 112 112 113 113 114 114 115 115 116 116 117 117 118 118 119 119 120 120 121 121 122 122 123 123 124 124 125 125 126 126 127 127 128 128 129 129 130 130 131 131 132 132 133 133 134 134 135 135 136 136 137 137 138 138 139 139 140 140 141 141 142 142 143 143 144 144 145 145 146 146 147 147 148 148 149 149 150 150 151 151 152 152 153 153 154 154 155 155 156 156 157 157 158 158 159 159 160 160 161 161 162 162 163 163 164 164 165 165 166 166 167 167 168 168 169 169 170 170 171 171 172 172 173 173 174 174 175 175 176 176 177 177 178 178 179 179 180 180 181 181 182 182 183 183 184 184 185 185 186 186 187 187 188 188 189 189 190 190 191 191 192 192 193 193 194 194 195 195 196 196 197 197 198 198 199 199 200 200 201 201 202 202 203 203 204 204 205 205 206 206 207 207 208 208 209 209 210 210 211 211 212 212 213 213 214 214 215 215 216 216 217 217 218 218 219 219 220 220 221 221 222 222 223 223 224 224 225 225 226 226 227 227 228 228 229 229 230 230 231 231 232 232 233 233 234 234 235 235 236 236 237 237 238 238 239 239 240 240 241 241 242 242 243 243 244 244 245 245 246 246 247 247 248 248 249 249 250 250 1 
</DataArray>
<DataArray type="UInt32" Name="offsets" format="ascii">
2 4 6 8 10 12 14 16 18 20 22 24 26 28 30 32 34 36 38 40 42 44 46 48 50 52 54 56 58 60 62 64 66 68 70 72 74 76 78 80 82 84 86 88 90 92 94 96 98 100 102 104 106 108 110 112 114 116 118 120 122 124 126 128 130 132 134 136 138 140 142 144 146 148 150 152 154 156 158 160 162 164 166 168 170 172 174 176 178 180 182 184 186 188 190 192 194 196 198 200 202 204 206 208 210 212 214 216 218 220 222 224 226 228 230 232 234 236 238 240 242 244 246 248 250 252 254 256 258 260 262 264 266 268 270 272 274 276 278 280 282 284 286 288 290 292 294 296 298 300 302 304 306 308 310 312 314 316 318 320 322 324 326 328 330 332 334 336 338 340 342 344 346 348 350 352 354 356 358 360 362 364 366 368 370 372 374 376 378 380 382 384 386 388 390 392 394 396 398 400 402 404 406 408 410 412 414 416 418 420 422 424 426 428 430 432 434 436 438 440 442 444 446 448 450 452 454 456 458 460 462 464 466 468 470 472 474 476 478 480 482 484 486 488 490 492 494 496 498 500 
</DataArray>
<DataArray type="UInt32" Name="types" format="ascii">
3 3 3 3 3 3 3 3 3 3 3 3 3 3 3 3 3 3 3 3 3 3 3 3 3 3 3 3 3 3 3 3 3 3 3 3 3 3 3 3 3 3 3 3 3 3 3 3 3 3 3 3 3 3 3 3 3 3 3 3 3 3 3 3 3 3 3 3 3 3 3 3 3 3 3 3 3 3 3 3 3 3 3 3 3 3 3 3 3 3 3 3 3 3 3 3 3 3 3 3 3 3 3 3 3 3 3 3 3 3 3 3 3 3 3 3 3 3 3 3 3 3 3 3 3 3 3 3 3 3 3 3 3 3 3 3 3 3 3 3 3 3 3 3 3 3 3 3 3 3 3 3 3 3 3 3 3 3 3 3 3 3 3 3 3 3 3 3 3 3 3 3 3 3 3 3 3 3 3 3 3 3 3 3 3 3 3 3 3 3 3 3 3 3 3 3 3 3 3 3 3 3 3 3 3 3 3 3 3 3 3 3 3 3 3 3 3 3 3 3 3 3 3 3 3 3 3 3 3 3 3 3 3 3 3 3 3 3 3 3 3 3 3 3 3 3 3 3 3 3 
</DataArray>
</Cells>
<CellData Scalars="pressure_p0,saturation,conductivity_out," Vectors="velocity_p0," Tensors="">
<DataArray type="Float64" Name="pressure_p0" format="ascii">
-6533.8317206744923 -6533.737375914161 -6533.5496219520337 -6533.2683299027149 -6532.8933064250577 -6532.4242937083036 -6531.8609694537718 -6531.2029468522123 -6530.4497745570079 -6529.6009366534145 -6528.6558526240715 -6527.6138773110542 -6526.4743008747828 -6525.2363487500825 -6523.8991815998143 -6522.4618952664296 -6520.9235207219135 -6519.2830240165695 -6517.5393062271578 -6515.6912034049046 -6513.7374865239653 -6511.6768614309312 -6509.5079687960224 -6507.2293840666207 -6504.8396174238596 -6502.3371137429831 -6499.7202525582579 -6496.9873480332208 -6494.1366489371003 -6491.1663386282771 -6488.0745350456782 -6484.8592907090178 -6481.5185927288749 -6478.0503628275637 -6474.45245737185 -6470.7226674185486 -6466.8587187741032 -6462.8582720692466 -6458.7189228499046 -6454.4382016855143 -6450.0135742959792 -6445.442441698463 -6440.7221403753356 -6435.849942464527 -6430.8230559736339 -6425.6386250191381 -6420.2937300920885 -6414.7853883516809 -6409.1105539481505 -6403.266118376443 -6397.2489108621558 -6391.055698781227 -6384.6831881149428 -6378.1280239417865 -6371.3867909677238 -6364.4560140965023 -6357.3321590416053 -6350.0116329814764 -6342.490785259678 -6334.7659081316542 -6326.8332375597774 -6318.6889540583943 -6310.3291835905793 -6301.7499985183058 -6292.9474186078151 -6283.9174120918824 -6274.6558967907649 -6265.1587412935905 -6255.42176620194 -6245.4407454374023 -6235.21140761487 -6224.7294374833509 -6213.9904774360439 -6202.9901290914686 -6191.7239549473861 -6180.1874801092617 -6168.3761940950099 -6156.2855527177435 -6143.9109800482393 -6131.2478704588075 -6118.2915907502202 -6105.0374823633729 -6091.480863677285 -6077.6170323950391 -6063.4412680192172 -6048.948834418351 -6034.1349824859062 -6018.9949528932202 -6003.5239789378238 -5987.7172894884907 -5971.5701120283375 -5955.0776757972362 -5938.2352150347251 -5921.0379723245596 -5903.4812020420004 -5885.5601739048143 -5867.2701766289611 -5848.606521689795 -5829.564547189575 -5810.1396218319842 -5790.3271490042698 -5770.1225709674927 -5749.5213731553413 -5728.5190885818138 -5707.1113023579583 -5685.2936563178027 -5663.0618537534447 -5640.4116642591634 -5617.3389286842958 -5593.8395641944817 -5569.9095694407615 -5545.5450298358282 -5520.7421229366464 -5495.497123932475 -5469.8064112371267 -5443.666472184228 -5417.0739088239879 -5390.0254438198481 -5362.5179264432218 -5334.5483386643118 -5306.1138013367927 -5277.2115804740042 -5247.8390936140386 -5217.9939162708997 -5187.6737884687846 -5156.876621356093 -5125.6005038958774 -5093.843709628838 -5061.6047035049305 -5028.8821487795049 -4995.6749139693002 -4961.982079863712 -4927.8029465862473 -4893.1370407008862 -4857.9841223577414 -4822.3441924721628 -4786.2174999310992 -4749.6045488201944 -4712.5061056648547 -4674.9232066780887 -4636.8571650076792 -4598.3095779748583 -4559.2823342963056 -4519.777621280964 -4479.7979319927272 -4439.3460723697672 -4398.4251682908216 -4357.0386725783883 -4315.1903719283555 -4272.8843937552165 -4230.1252129415698 -4186.9176584801689 -4143.2669199964012 -4099.1785541385343 -4054.6584908227078 -4009.7130393191155 -3964.3488941653695 -3918.5731408925731 -3872.3932615490803 -3825.8171400064593 -3778.8530670316768 -3731.5097451089287 -3683.79629299407 -3635.7222499840532 -3587.2975798831685 -3538.5326746474057 -3489.4383576876212 -3440.0258868116262 -3390.306956784767 -3340.2937014878812 -3289.9986956509983 -3239.4349561404915 -3188.6159427767525 -3137.5555586588621 -3086.2681499720729 -3034.7685052532665 -2983.071854088922 -2931.1938652194408 -2879.1506440230241 -2826.9587293516656 -2774.6350896910785 -2722.1971186157616 -2669.6626295097062 -2617.0498495226184 -2564.3774127307665 -2511.6643524709812 -2458.9300928156372 -2406.194439155769 -2353.4775678588849 -2300.8000149673117 -2248.182663902373 -2195.6467321390478 -2143.2137568151734 -2090.905579238728 -2038.7443282561596 -1986.7524024442368 -1934.9524510874635 -1883.3673539026431 -1832.0201994718441 -1780.9342623446664 -1730.1329787704808 -1679.6399210211366 -1629.4787702644958 -1579.6732879491301 -1530.24728566062 -1481.2245934100233 -1432.6290263153655 -1384.4843496374388 -1336.8142421316375 -1289.6422576782834 -1242.9917851546652 -1196.8860065128977 -1151.347853028846 -1106.399959688498 -1062.0646176795094 -1018.3637249570688 -975.31873485465962 -932.95060271177499 -891.27973049201796 -850.32590936616589 -810.10826023555705 -770.64517217133812 -731.95423874425455 -694.05219221750838 -656.95483557092075 -620.67697231743693 -585.23233406164979 -550.63350573285379 -516.89184839971085 -484.01741953663623 -452.01889055877592 -420.90346136612328 -390.67677152818004 -361.34280758417356 -332.90380570887567 -305.36014866819676 -278.71025551197749 -252.95046174492936 -228.0748866525515 -204.07528282286765 -180.94086032550865 -158.65807381375271 -137.21035371865392 -116.57775010028661 -96.736433885870184 -77.657951267720975 -59.308014355775498 -41.644304099755779 -24.611641909911764 -8.1225799884738308 
</DataArray>
<DataArray type="Float64" Name="velocity_p0" NumberOfComponents="3" format="ascii">
0 0 6.6910498036830387e-10 0 0 2.007797384908883e-09 0 0 3.3479371020832195e-09 0 0 4.6904891951628279e-09 0 0 6.0364192585859154e-09 0 0 7.3866936300610332e-09 0 0 8.7422796013850143e-09 0 0 1.0104145628907099e-08 0 0 1.1473261542353155e-08 0 0 1.2850598753355886e-08 0 0 1.4237130461893127e-08 0 0 1.5633831861250205e-08 0 0 1.7041680341768125e-08 0 0 1.8461655692049657e-08 0 0 1.989474029843901e-08 0 0 2.1341919342353966e-08 0 0 2.2804180994846041e-08 0 0 2.4282516608894443e-08 0 0 2.5777920908746787e-08 0 0 2.729139217644204e-08 0 0 2.8823932435313689e-08 0 0 3.0376547630100152e-08 0 0 3.1950247803906424e-08 0 0 3.3546047271240715e-08 0 0 3.5164964788025071e-08 0 0 3.6808023716883164e-08 0 0 3.8476252189466283e-08 0 0 4.0170683263816734e-08 0 0 4.1892355078116687e-08 0 0 4.3642310999556139e-08 0 0 4.5421599769274379e-08 0 0 4.7231275642231722e-08 0 0 4.9072398522530144e-08 0 0 5.0946034094087933e-08 0 0 5.2853253946052404e-08 0 0 5.4795135693423041e-08 0 0 5.6772763092382762e-08 0 0 5.8787226150747163e-08 0 0 6.0839621232496048e-08 0 0 6.2931051157652786e-08 0 0 6.5062625295952817e-08 0 0 6.7235459655827611e-08 0 0 6.945067696686792e-08 0 0 7.17094067576161e-08 0 0 7.4012785426717772e-08 0 0 7.6361956309005168e-08 0 0 7.8758069735553004e-08 0 0 8.1202283087771853e-08 0 0 8.3695760846136416e-08 0 0 8.6239674632205637e-08 0 0 8.883520324569969e-08 0 0 9.1483532695058663e-08 0 0 9.4185856222187159e-08 0 0 9.6943374321524485e-08 0 0 9.9757294753003309e-08 0 0 1.0262883254915384e-07 0 0 1.0555921001638262e-07 0 0 1.0854965673054856e-07 0 0 1.1160140952637128e-07 0 0 1.1471571248132652e-07 0 0 1.178938168940546e-07 0 0 1.211369812563048e-07 0 0 1.2444647122011074e-07 0 0 1.2782355955882626e-07 0 0 1.3126952612292186e-07 0 0 1.3478565779030268e-07 0 0 1.3837324841097707e-07 0 0 1.420335987469318e-07 0 0 1.4576801640643361e-07 0 0 1.4957781577333476e-07 0 0 1.5346431793126777e-07 0 0 1.5742885058309802e-07 0 0 1.6147274796533737e-07 0 0 1.6559735075801489e-07 0 0 1.6980400598966111e-07 0 0 1.7409406693813859e-07 0 0 1.7846889302681729e-07 0 0 1.829298497165203e-07 0 0 1.8747830839339973e-07 0 0 1.9211564625248441e-07 0 0 1.9684324617810125e-07 0 0 2.0166249661934464e-07 0 0 2.0657479146270704e-07 0 0 2.1158152990086415e-07 0 0 2.1668411629816535e-07 0 0 2.2188396005281625e-07 0 0 2.2718247545553859e-07 0 0 2.3258108154595073e-07 0 0 2.380812019650733e-07 0 0 2.4368426480597496e-07 0 0 2.4939170246085445e-07 0 0 2.5520495146608864e-07 0 0 2.611254523449326e-07 0 0 2.6715464944717006e-07 0 0 2.7329399078754434e-07 0 0 2.7954492788091729e-07 0 0 2.859089155761538e-07 0 0 2.9238741188779738e-07 0 0 2.989818778259229e-07 0 0 3.0569377722360476e-07 0 0 3.1252457656359388e-07 0 0 3.1947574480263605e-07 0 0 3.265487531938311e-07 0 0 3.337450751081668e-07 0 0 3.4106618585391652e-07 0 0 3.4851356249436929e-07 0 0 3.5608868366399463e-07 0 0 3.6379302938317974e-07 0 0 3.7162808087083677e-07 0 0 3.7959532035557617e-07 0 0 3.8769623088495519e-07 0 0 3.9593229613279374e-07 0 0 4.0430500020442263e-07 0 0 4.1281582743958285e-07 0 0 4.2146626221338922e-07 0 0 4.3025778873425698e-07 0 0 4.3919189083942593e-07 0 0 4.4827005178728738e-07 0 0 4.574937540464801e-07 0 0 4.6686447908129804e-07 0 0 4.7638370713346564e-07 0 0 4.8605291699917105e-07 0 0 4.9587358580161651e-07 0 0 5.0584718875826004e-07 0 0 5.1597519894252198e-07 0 0 5.262590870387872e-07 0 0 5.3670032109111489e-07 0 0 5.4730036624377702e-07 0 0 5.5806068447406465e-07 0 0 5.689827343155343e-07 0 0 5.8006797057194727e-07 0 0 5.9131784401988441e-07 0 0 6.0273380109968569e-07 0 0 6.143172835935594e-07 0 0 6.2606972828971821e-07 0 0 6.3799256663096596e-07 0 0 6.5008722434678742e-07 0 0 6.623551210674586e-07 0 0 6.7479766991815406e-07 0 0 6.8741627709190958e-07 0 0 7.0021234139968569e-07 0 0 7.1318725379436363e-07 0 0 7.263423968688794e-07 0 0 7.3967914432367494e-07 0 0 7.5319886040294579e-07 0 0 7.6690289929606496e-07 0 0 7.8079260450189335e-07 0 0 7.948693081525113e-07 0 0 8.0913433029370722e-07 0 0 8.2358897811820586e-07 0 0 8.3823454514801851e-07 0 0 8.5307231036244271e-07 0 0 8.6810353726626948e-07 0 0 8.8332947289492975e-07 0 0 8.9875134675013893e-07 0 0 9.1437036966220206e-07 0 0 9.301877325715706e-07 0 0 9.4620460522470759e-07 0 0 9.6242213477724751e-07 0 0 9.7884144429646645e-07 0 0 9.9546363115641685e-07 0 0 1.0122897653166352e-06 0 0 1.0293208874756205e-06 0 0 1.0465580070895078e-06 0 0 1.0640021002448754e-06 0 0 1.0816541073752282e-06 0 0 1.0995149308082104e-06 0 0 1.1175854321308308e-06 0 0 1.1358664293582421e-06 0 0 1.1543586938908164e-06 0 0 1.1730629472427346e-06 0 0 1.1919798575246777e-06 0 0 1.2111100356605246e-06 0 0 1.2304540313171106e-06 0 0 1.2500123285255102e-06 0 0 1.2697853409674597e-06 0 0 1.2897734069015603e-06 0 0 1.3099767837002852e-06 0 0 1.3303956419659451e-06 0 0 1.3510300591923283e-06 0 0 1.3718800129351467e-06 0 0 1.3929453734513459e-06 0 0 1.4142258957639144e-06 0 0 1.4357212111056632e-06 0 0 1.4574308176906691e-06 0 0 1.4793540707583944e-06 0 0 1.5014901718297094e-06 0 0 1.5238381571104535e-06 0 0 1.54639688497034e-06 0 0 1.569165022421553e-06 0 0 1.5921410305113592e-06 0 0 1.6153231485389807e-06 0 0 1.6387093769966302e-06 0 0 1.6622974591270248e-06 0 0 1.6860848609801698e-06 0 0 1.7100687498415776e-06 0 0 1.7342459708932339e-06 0 0 1.7586130219568907e-06 0 0 1.7831660261550809e-06 0 0 1.807900702312724e-06 0 0 1.8328123329057648e-06 0 0 1.8578957293471902e-06 0 0 1.8831451943841329e-06 0 0 1.9085544813594831e-06 0 0 1.9341167500731445e-06 0 0 1.9598245189556112e-06 0 0 1.9856696132458887e-06 0 0 2.0116431088413769e-06 0 0 2.0377352714642788e-06 0 0 2.0639354907653718e-06 0 0 2.0902322089611934e-06 0 0 2.1166128435777585e-06 0 0 2.1430637038521291e-06 0 0 2.1695699003237606e-06 0 0 2.1961152471328101e-06 0 0 2.2226821565330158e-06 0 0 2.2492515251264269e-06 0 0 2.2758026113383449e-06 0 0 2.3023129036777867e-06 0 0 2.3287579793762035e-06 0 0 2.3551113530736306e-06 0 0 2.3813443153340057e-06 0 0 2.4074257609300789e-06 0 0 2.4333220070605992e-06 0 0 2.4589966019626304e-06 0 0 2.4844101247830783e-06 0 0 2.5095199781067246e-06 0 0 2.5342801752355813e-06 0 0 2.5586411252252629e-06 0 0 2.5825494198660116e-06 0 0 2.6059476283236232e-06 0 0 2.6287741071247789e-06 0 0 2.6509628357098573e-06 0 0 2.6724432910436515e-06 0 0 2.6931403789948061e-06 0 0 2.7129744456606548e-06 0 0 2.7318613989469854e-06 0 0 2.7497129801141252e-06 0 0 2.7664372375892645e-06 0 0 2.7819392725760719e-06 0 0 2.7961223503185998e-06 0 0 2.8088895066800452e-06 0 0 2.8201458353688403e-06 0 0 2.829801733992271e-06 0 0 2.8377775561486251e-06 0 0 2.8440104600634403e-06 0 0 2.8484650471186488e-06 0 0 2.851151671373027e-06 0 0 2.8521653417241648e-06 0 0 2.8518561662673479e-06 
</DataArray>
<DataArray type="Float64" Name="saturation" format="ascii">
0.48650095812690342 0.48650229630990538 0.48650495947616679 0.48650894959342833 0.48651426961374289 0.48652092347442522 0.48652891609931898 0.48653825340038004 0.48654894227957723 0.48656099063111002 0.48657440734394486 0.4865892023046689 0.48660538640066298 0.48662297152359402 0.48664197057322711 0.48666239746155915 0.48668426711727319 0.4867075954905164 0.48673239955800085 0.48675869732842958 0.48678650784824856 0.48681585120772625 0.48684674854736165 0.48687922206462364 0.48691329502102165 0.48694899174951206 0.48698633766223975 0.4870253592586189 0.48706608413375507 0.48710854098721107 0.48715275963211957 0.48719877100464537 0.48724660717380103 0.48729630135161972 0.48734788790368777 0.48740140236004292 0.48745688142644095 0.48751436299599715 0.48757388616120612 0.48763549122634575 0.48769921972027197 0.48776511440960935 0.48783321931234452 0.48790357971182918 0.48797624217120017 0.4880512545482244 0.48812866601057703 0.48820852705156093 0.48829088950627797 0.48837580656826102 0.48846333280657683 0.48855352418341197 0.48864643807215213 0.48874213327596716 0.48884067004691589 0.48894211010558242 0.48904651666125964 0.4891539544326946 0.48926448966941061 0.48937819017362427 0.48949512532277323 0.4896153660926742 0.48973898508133001 0.48986605653340481 0.48999665636539047 0.49013086219148516 0.49026875335020681 0.49041041093176685 0.49055591780622909 0.49070535865247994 0.49085881998803893 0.4910163901997372 0.49117815957529543 0.49134422033583275 0.49151466666933941 0.49168959476514873 0.49186910284944363 0.4920532912218365 0.49224226229306134 0.49243612062381964 0.49263497296482295 0.49283892829807757 0.49304809787945719 0.49326259528261374 0.49348253644427631 0.49370803971099197 0.49393922588736394 0.49417621828584513 0.4944191427781468 0.49466812784832637 0.49492330464761863 0.49518480705108076 0.49545277171612045 0.49572733814298287 0.49600864873727435 0.49629684887460257 0.49659208696741919 0.49689451453415168 0.49720428627071722 0.49752156012451398 0.49784649737099057 0.49817926269289653 0.49852002426232472 0.49886895382565744 0.4992262267915365 0.49959202232197963 0.49996652342677383 0.50034991706127951 0.50074239422778755 0.50114415008057533 0.50155538403481703 0.50197629987950743 0.50240710589456916 0.50284801497231746 0.50329924474346577 0.50376101770786696 0.50423356137018804 0.50471710838072981 0.50521189668161237 0.50571816965855398 0.50623617629848816 0.50676617135326674 0.50730841550971784 0.50786317556633265 0.50843072461687133 0.50901134224119371 0.50960531470363168 0.51021293515923882 0.51083450386826923 0.51147032841924878 0.51212072396103048 0.51278601344423524 0.51346652787250435 0.5141626065640108 0.51487459742369834 0.51560285722674171 0.51634775191374493 0.51710965689822364 0.51788895738694274 0.51868604871371171 0.51950133668727194 0.52033523795394065 0.52118818037571413 0.52206060342456717 0.52295295859372615 0.52386570982673519 0.52479933396517509 0.52575432121594412 0.52673117563905747 0.52773041565697354 0.52875257458650893 0.52979820119446308 0.5308678602781336 0.53196213327196851 0.53308161888166872 0.53422693374712604 0.53539871313566123 0.53659761166710052 0.53782430407232318 0.53907948598699429 0.54036387478229519 0.54167821043456676 0.54302325643588101 0.54439980074767225 0.54580865679967483 0.54725066453653837 0.54872669151462183 0.55023763405160353 0.55178441843169035 0.55336800216935811 0.55498937533471249 0.55664956194372839 0.55834962141679267 0.56009065010916059 0.56187378291711743 0.56370019496383339 0.56557110336909633 0.56748776910731458 0.5694514989583882 0.57146364755626244 0.57352561954018899 0.5756388718139388 0.57780491591842154 0.58002532052336941 0.58230171404394715 0.58463578738833344 0.58702929684247729 0.58948406709838164 0.59200199443236068 0.59458505003978845 0.59723528353284827 0.59995482660773281 0.60274589688758495 0.60561080194719863 0.60855194352510034 0.61157182192805615 0.61467304063227768 0.61785831108457057 0.62113045770534514 0.62449242309371411 0.62794727343275802 0.63149820409036517 0.63514854540772125 0.63890176866341031 0.64276149219603007 0.64673148766201383 0.65081568639777709 0.65501818584605076 0.65934325599502208 0.66379534576522436 0.66837908926251943 0.6730993117953985 0.67796103553041465 0.68296948463000473 0.68813008968111866 0.69344849117964869 0.69893054178298819 0.70458230697915702 0.71041006374333837 0.71642029665834939 0.72261969086075584 0.72901512103435728 0.73561363550179193 0.74242243425568155 0.74944883951379604 0.75670025706633748 0.76418412629241439 0.77190785623732072 0.77987874453634931 0.78810387520981062 0.7965899903905258 0.80534332981411039 0.81436943031168629 0.82367287546094281 0.83325698277678961 0.84312341205490571 0.85327167324436171 0.86369850474448395 0.87439708198936583 0.88535599930757258 0.8965579411191309 0.90797791344885692 0.91958082691982945 0.93131807149556356 0.94312241432010047 0.95489985257975252 0.96651524112516252 0.97776279963652679 0.98828744562920579 0.99665583441677474 
</DataArray>
<DataArray type="Float64" Name="conductivity_out" format="ascii">