<?xml version="1.0"?>
<VTKFile type="UnstructuredGrid" version="0.1" byte_order="LittleEndian">
<UnstructuredGrid>
<Piece NumberOfPoints="251" NumberOfCells="250">
<Points>
<DataArray type="Float64" NumberOfComponents="3" format="ascii">
0 0 0 0 0 -0.25 0 0 -0.00099999999999810158 0 0 -0.001999999999996204 0 0 -0.0029999999999943271 0 0 -0.0039999999999924488 0 0 -0.004999999999990571 0 0 -0.0059999999999886811 0 0 -0.0069999999999867156 0 0 -0.007999999999984719 0 0 -0.008999999999982581 0 0 -0.0099999999999804221 0 0 -0.010999999999978201 0 0 -0.011999999999975971 0 0 -0.01299999999997375 0 0 -0.01399999999997158 0 0 -0.014999999999969531 0 0 -0.01599999999996761 0 0 -0.0169999999999659 0 0 -0.01799999999996427 0 0 -0.018999999999962731 0 0 -0.019999999999961209 0 0 -0.020999999999959669 0 0 -0.02199999999995814 0 0 -0.022999999999956611 0 0 -0.023999999999955082 0 0 -0.024999999999953549 0 0 -0.02599999999995202 0 0 -0.02699999999995048 0 0 -0.027999999999948951 0 0 -0.028999999999947419 0 0 -0.02999999999994565 0 0 -0.03099999999994377 0 0 -0.031999999999941367 0 0 -0.032999999999938787 0 0 -0.033999999999935943 0 0 -0.034999999999933022 0 0 -0.035999999999930102 0 0 -0.036999999999927188 0 0 -0.037999999999924268 0 0 -0.038999999999921348 0 0 -0.039999999999918427 0 0 -0.040999999999915507 0 0 -0.041999999999912593 0 0 -0.042999999999909673 0 0 -0.043999999999906753 0 0 -0.044999999999903832 0 0 -0.045999999999900919 0 0 -0.046999999999897998 0 0 -0.047999999999895078 0 0 -0.048999999999892158 0 0 -0.049999999999889237 0 0 -0.050999999999886317 0 0 -0.051999999999883403 0 0 -0.052999999999880483 0 0 -0.053999999999877563 0 0 -0.054999999999874642 0 0 -0.055999999999871722 0 0 -0.056999999999868801 0 0 -0.057999999999865881 0 0 -0.058999999999862961 0 0 -0.059999999999860047 0 0 -0.060999999999857127 0 0 -0.061999999999854213 0 0 -0.062999999999851286 0 0 -0.063999999999848373 0 0 -0.064999999999845445 0 0 -0.065999999999842532 0 0 -0.066999999999839618 0 0 -0.067999999999836705 0 0 -0.068999999999833792 0 0 -0.069999999999830878 0 0 -0.070999999999827965 0 0 -0.071999999999825051 0 0 -0.072999999999822124 0 0 -0.07399999999981921 0 0 -0.074999999999816297 0 0 -0.075999999999813383 0 0 -0.07699999999981047 0 0 -0.077999999999807557 0 0 -0.078999999999804643 0 0 -0.07999999999980173 0 0 -0.080999999999798802 0 0 -0.081999999999795889 0 0 -0.082999999999792975 0 0 -0.083999999999790062 0 0 -0.084999999999787149 0 0 -0.085999999999784235 0 0 -0.086999999999781322 0 0 -0.087999999999778394 0 0 -0.088999999999775481 0 0 -0.089999999999772567 0 0 -0.090999999999769654 0 0 -0.091999999999766741 0 0 -0.092999999999763827 0 0 -0.093999999999760914 0 0 -0.094999999999758 0 0 -0.095999999999755073 0 0 -0.096999999999752159 0 0 -0.097999999999749246 0 0 -0.098999999999746333 0 0 -0.099999999999743419 0 0 -0.10099999999974051 0 0 -0.10199999999973761 0 0 -0.10299999999973471 0 0 -0.10399999999973179 0 0 -0.1049999999997288 0 0 -0.1059999999997259 0 0 -0.106999999999723 0 0 -0.1079999999997201 0 0 -0.1089999999997172 0 0 -0.1099999999997143 0 0 -0.1109999999997113 0 0 -0.1119999999997084 0 0 -0.1129999999997055 0 0 -0.1139999999997026 0 0 -0.1149999999996997 0 0 -0.1159999999996968 0 0 -0.11699999999969379 0 0 -0.11799999999969089 0 0 -0.11899999999968799 0 0 -0.11999999999968509 0 0 -0.1209999999996822 0 0 -0.1219999999996793 0 0 -0.1229999999996764 0 0 -0.1239999999996748 0 0 -0.12499999999967321 0 0 -0.12599999999967451 0 0 -0.12699999999967579 0 0 -0.1279999999996784 0 0 -0.12899999999968109 0 0 -0.1299999999996837 0 0 -0.13099999999968631 0 0 -0.13199999999968889 0 0 -0.13299999999969159 0 0 -0.1339999999996942 0 0 -0.13499999999969689 0 0 -0.1359999999996995 0 0 -0.13699999999970211 0 0 -0.1379999999997048 0 0 -0.13899999999970741 0 0 -0.13999999999971011 0 0 -0.14099999999971269 0 0 -0.1419999999997153 0 0 -0.14299999999971799 0 0 -0.1439999999997206 0 0 -0.14499999999972321 0 0 -0.14599999999972579 0 0 -0.14699999999972849 0 0 -0.1479999999997311 0 0 -0.14899999999973379 0 0 -0.1499999999997364 0 0 -0.15099999999973901 0 0 -0.1519999999997417 0 0 -0.15299999999974431 0 0 -0.15399999999974701 0 0 -0.15499999999974959 0 0 -0.1559999999997522 0 0 -0.15699999999975489 0 0 -0.1579999999997575 0 0 -0.15899999999976011 0 0 -0.1599999999997628 0 0 -0.16099999999976539 0 0 -0.161999999999768 0 0 -0.16299999999977069 0 0 -0.1639999999997733 0 0 -0.16499999999977599 0 0 -0.1659999999997786 0 0 -0.16699999999978121 0 0 -0.16799999999978391 0 0 -0.16899999999978649 0 0 -0.1699999999997891 0 0 -0.17099999999979171 0 0 -0.1719999999997944 0 0 -0.17299999999979701 0 0 -0.1739999999997997 0 0 -0.17499999999980231 0 0 -0.17599999999980501 0 0 -0.17699999999980759 0 0 -0.1779999999998102 0 0 -0.17899999999981281 0 0 -0.1799999999998155 0 0 -0.18099999999981811 0 0 -0.18199999999982069 0 0 -0.18299999999982339 0 0 -0.183999999999826 0 0 -0.18499999999982869 0 0 -0.1859999999998313 0 0 -0.18699999999983391 0 0 -0.1879999999998366 0 0 -0.18899999999983921 0 0 -0.18999999999984191 0 0 -0.19099999999984449 0 0 -0.1919999999998471 0 0 -0.19299999999984971 0 0 -0.1939999999998524 0 0 -0.19499999999985501 0 0 -0.1959999999998577 0 0 -0.19699999999986029 0 0 -0.19799999999986301 0 0 -0.19899999999986559 0 0 -0.1999999999998682 0 0 -0.20099999999987081 0 0 -0.2019999999998735 0 0 -0.20299999999987611 0 0 -0.20399999999987881 0 0 -0.20499999999988139 0 0 -0.205999999999884 0 0 -0.20699999999988669 0 0 -0.2079999999998893 0 0 -0.20899999999989191 0 0 -0.2099999999998946 0 0 -0.21099999999989719 0 0 -0.21199999999989991 0 0 -0.21299999999990249 0 0 -0.2139999999999051 0 0 -0.21499999999990771 0 0 -0.2159999999999104 0 0 -0.21699999999991301 0 0 -0.21799999999991571 0 0 -0.21899999999991829 0 0 -0.2199999999999209 0 0 -0.22099999999992359 0 0 -0.2219999999999262 0 0 -0.22299999999992881 0 0 -0.22399999999993139 0 0 -0.22499999999993411 0 0 -0.2259999999999367 0 0 -0.22699999999993939 0 0 -0.227999999999942 0 0 -0.22899999999994469 0 0 -0.2299999999999473 0 0 -0.23099999999994991 0 0 -0.23199999999995249 0 0 -0.23299999999995519 0 0 -0.2339999999999578 0 0 -0.23499999999996049 0 0 -0.2359999999999631 0 0 -0.23699999999996571 0 0 -0.2379999999999684 0 0 -0.23899999999997101 0 0 -0.2399999999999736 0 0 -0.24099999999997629 0 0 -0.2419999999999789 0 0 -0.24299999999998159 0 0 -0.2439999999999842 0 0 -0.24499999999998681 0 0 -0.24599999999998939 0 0 -0.24699999999999209 0 0 -0.2479999999999947 0 0 -0.24899999999999739 
</DataArray>
</Points>
<Cells>
<DataArray type="UInt32" Name="connectivity" format="ascii">
0 2 2 3 3 4 4 5 5 6 6 7 7 8 8 9 9 10 10 11 11 12 12 13 13 14 14 15 15 16 16 17 17 18 18 19 19 20 20 21 21 22 22 23 23 24 24 25 25 26 26 27 27 28 28 29 29 30 30 31 31 32 32 33 33 34 34 35 35 36 36 37 37 38 38 39 39 40 40 41 41 42 42 43 43 44 44 45 45 46 46 47 47 48 48 49 49 50 50 51 51 52 52 53 53 54 54 55 55 56 56 57 57 58 58 59 59 60 60 61 61 62 62 63 63 64 64 65 65 66 66 67 67 68 68 69 69 70 70 71 71 72 72 73 73 74 74 75 75 76 76 77 77 78 78 79 79 80 80 81 81 82 82 83 83 84 84 85 85 86 86 87 87 88 88 89 89 90 90 91 91 92 92 93 93 94 94 95 95 96 96 97 97 98 98 99 99 100 100 101 101 102 102 103 103 104 104 105 105 106 106 107 107 108 108 109 109 110 110 111 111 112 112 113 113 114 114 115 115 116 116 117 117 118 118 119 119 120 120 121 121 122 122 123 123 124 124 125 125 126 126 127 127 128 128 129 129 130 130 131 131 132 132 133 133 134 134 135 135 136 136 137 137 138 138 139 139 140 140 141 141 142 142 143 143 144 144 145 145 146 146 147 147 148 148 149 149 150 150 151 151 152 152 153 153 154 154 155 155 156 156 157 157 158 158 159 159 160 160 161 161 162 162 163 163 164 164 165 165 166 166 167 167 168 168 169 169 170 170 171 171 172 172 173 173 174 174 175 175 176 176 177 177 178 178 179 179 180 180 181 181 182 182 183 183 184 184 185 185 186 186 187 187 188 188 189 189 190 190 191 191 192 192 193 193 194 194 195 195 196 196 197 197 198 198 199 199 200 200 201 201 202 202 203 203 204 204 205 205 206 206 207 207 208 208 209 209 210 210 211 211 212 212 213 213 214 214 215 215 216 216 217 217 218 218 219 219 220 220 221 221 222 222 223 223 224 224 225 225 226 226 227 227 228 228 229 229 230 230 231 231 232 232 233 233 234 234 235 235 236 236 237 237 238 238 239 239 240 240 241 241 242 242 243 243 244 244 245 245 246 246 247 247 248 248 249 249 250 250 1 
</DataArray>
<DataArray type="UInt32" Name="offsets" format="ascii">
2 4 6 8 10 12 14 16 18 20 22 24 26 28 30 32 34 36 38 40 42 44 46 48 50 52 54 56 58 60 62 64 66 68 70 72 74 76 78 80 82 84 86 88 90 92 94 96 98 100 102 104 106 108 110 112 114 116 118 120 122 124 126 128 130 132 134 136 138 140 142 144 146 148 150 152 154 156 158 160 162 164 166 168 170 172 174 176 178 180 182 184 186 188 190 192 194 196 198 200 202 204 206 208 210 212 214 216 218 220 222 224 226 228 230 232 234 236 238 240 242 244 246 248 250 252 254 256 258 260 262 264 266 268 270 272 274 276 278 280 282 284 286 288 290 292 294 296 298 300 302 304 306 308 310 312 314 316 318 320 322 324 326 328 330 332 334 336 338 340 342 344 346 348 350 352 354 356 358 360 362 364 366 368 370 372 374 376 378 380 382 384 386 388 390 392 394 396 398 400 402 404 406 408 410 412 414 416 418 420 422 424 426 428 430 432 434 436 438 440 442 444 446 448 450 452 454 456 458 460 462 464 466 468 470 472 474 476 478 480 482 484 486 488 490 492 494 496 498 500 
</DataArray>
<DataArray type="UInt32" Name="types" format="ascii">
3 3 3 3 3 3 3 3 3 3 3 3 3 3 3 3 3 3 3 3 3 3 3 3 3 3 3 3 3 3 3 3 3 3 3 3 3 3 3 3 3 3 3 3 3 3 3 3 3 3 3 3 3 3 3 3 3 3 3 3 3 3 3 3 3 3 3 3 3 3 3 3 3 3 3 3 3 3 3 3 3 3 3 3 3 3 3 3 3 3 3 3 3 3 3 3 3 3 3 3 3 3 3 3 3 3 3 3 3 3 3 3 3 3 3 3 3 3 3 3 3 3 3 3 3 3 3 3 3 3 3 3 3 3 3 3 3 3 3 3 3 3 3 3 3 3 3 3 3 3 3 3 3 3 3 3 3 3 3 3 3 3 3 3 3 3 3 3 3 3 3 3 3 3 3 3 3 3 3 3 3 3 3 3 3 3 3 3 3 3 3 3 3 3 3 3 3 3 3 3 3 3 3 3 3 3 3 3 3 3 3 3 3 3 3 3 3 3 3 3 3 3 3 3 3 3 3 3 3 3 3 3 3 3 3 3 3 3 3 3 3 3 3 3 3 3 3 3 3 3 
</DataArray>
</Cells>
<CellData Scalars="pressure_p0,water_content,conductivity_richards," Vectors="velocity_p0," Tensors="">
<DataArray type="Float64" Name="pressure_p0" format="ascii">
-6479.3935964785969 -6479.2673603134281 -6479.015823807249 -6478.6388586186222 -6478.1362722516542 -6477.5078080779222 -6476.7531453658175 -6475.8718993174507 -6474.8636211132316 -6473.7277979642904 -6472.4638531729424 -6471.0711462014024 -6469.5489727489894 -6467.8965648381127 -6466.113090909309 -6464.1976559256827 -6462.1493014870903 -6459.9670059544333 -6457.6496845844795 -6455.1961896756366 -6452.6053107251282 -6449.8757745980583 -6447.0062457088643 -6443.9953262156996 -6440.8415562282853 -6437.5434140298194 -6434.0993163135472 -6430.5076184346181 -6426.7666146778811 -6422.8745385422935 -6418.829563042631 -6414.6298010292367 -6410.2733055265298 -6405.7580700910421 -6401.0820291897862 -6396.2430585997263 -6391.2389758291974 -6386.0675405621168 -6380.7264551258431 -6375.213364983565 -6369.5258592521259 -6363.6614712461997 -6357.6176790497393 -6351.3919061156721 -6344.9815218947788 -6338.3838424947608 -6331.5961313704756 -6324.6156000463434 -6317.4394088719682 -6310.0646678119665 -6302.4884372710831 -6294.7077289556073 -6286.7195067721968 -6278.520687765129 -6270.1081430930881 -6261.4786990465509 -6252.6291381068768 -6243.5562000481605 -6234.2565830829717 -6224.7269450530584 -6214.963904666115 -6204.9640427797076 -6194.7239037334411 -6184.2399967304646 -6173.5087972694055 -6162.5267486277862 -6151.2902633980211 -6139.7957250770287 -6128.0394897105343 -6116.0178875930833 -6103.7272250247988 -6091.1637861258878 -6078.3238347099041 -6065.2036162167187 -6051.7993597061777 -6038.107279913359 -6024.1235793663473 -6009.8444505674206 -5995.2660782384783 -5980.3846416315628 -5965.1963169052533 -5949.6972795676929 -5933.8837069870033 -5917.7517809697274 -5901.2976904079842 -5884.5176339959426 -5867.4078230161467 -5849.964484196239 -5832.1838626365388 -5814.0622248088748 -5795.5958616270746 -5776.7810915893606 -5757.6142639929485 -5738.091762221009 -5718.2100071021187 -5697.9654603422568 -5677.3546280293358 -5656.3740642101748 -5635.0203745397666 -5613.2902200025892 -5591.1803207056428 -5568.6874597428141 -5545.8084871300916 -5522.5403238110284 -5498.8799657318095 -5474.8244879851372 -5450.371049022091 -5425.5168949309773 -5400.2593637821128 -5374.5958900373516 -5348.5240090230727 -5322.0413614652207 -5295.1456980848816 -5267.8348842527348 -5240.1069047006176 -5211.9598682883116 -5183.3920128235022 -5154.4017099327466 -5124.9874699811544 -5095.1479470383192 -5064.8819438878891 -5034.1884170780577 -5003.0664820100392 -4971.5154180614645 -4939.534673741533 -4907.1238718743998 -4874.2828148073968 -4841.0114896402156 -4807.3100734711188 -4773.1789386562441 -4738.6186580775038 -4703.6300104147558 -4668.2139854174966 -4632.371789171204 -4596.1048493532526 -4559.4148204730918 -4522.3035890912142 -4484.7732790111413 -4446.8262564385213 -4408.4651351011344 -4369.6927813234015 -4330.5123190487475 -4290.9271348029324 -4250.940882591226 -4210.55748872201 -4169.7811565491766 -4128.6163711254285 -4087.067903758285 -4045.1408164603672 -4002.8404662852245 -3960.1725095397105 -3917.1429058636022 -3873.7579221669139 -3830.0241364149738 -3785.9484412511233 -3741.538047446531 -3696.8004871663134 -3651.7436170408664 -3606.3756210309293 -3560.7050130746311 -3514.7406395044263 -3468.4916812214387 -3421.9676556144609 -3375.1784182104793 -3328.1341640432065 -3280.8454287258064 -3233.323089213598 -3185.5783642421611 -3137.6228144259244 -3089.468342001891 -3041.127190202822 -2992.6119422438192 -2943.935519905825 -2895.1111816991997 -2846.1525205901489 -2797.0734612723627 -2747.8882569658572 -2698.6114857245993 -2649.2580462340948 -2599.8431530797652 -2550.3823314664924 -2500.8914113693545 -2451.386521095169 -2401.8840802341183 -2352.4007919802812 -2302.9536347995809 -2253.5598534232804 -2204.2369491447735 -2155.0026693971422 -2105.8749965885199 -2056.8721361720736 -2008.0125039270779 -1959.3147124272575 -1910.7975566723628 -1862.4799988586587 -1814.3811522638155 -1766.5202642215354 -1718.9166981610729 -1671.5899146867241 -1624.5594516722758 -1577.8449033453901 -1531.4658983369561 -1485.4420766704789 -1439.7930656667299 -1394.5384547391034 -1349.6977690553585 -1305.2904420417622 -1261.3357867060736 -1217.8529657562267 -1174.8609604921485 -1132.3785384487646 -1090.4242197688336 -1049.0162422850406 -1008.1725252914673 -967.9106319852973 -928.24773056034883 -889.20055393459916 -850.78535809433424 -813.01787903776199 -775.91328830070222 -739.48614704617853 -703.7503586981527 -668.71912009679704 -634.40487114835571 -600.81924293596876 -567.97300424812067 -535.87600646739611 -504.5371267425088 -473.96420933880324 -444.1640050236565 -415.14210828916077 -386.90289213900598 -359.44944006094909 -332.78347465783952 -306.90528220003841 -281.81363206177207 -257.50568956965776 -233.976920154315 -211.22098174386639 -189.2296008843511 -167.99242579287886 -147.49684585846848 -127.72776088554605 -108.66727235840168 -90.294248215422016 -72.583669988461367 -55.505573155314266 -39.023124705210698 -23.088409785862055 -7.6255595337128677 
</DataArray>
<DataArray type="Float64" Name="velocity_p0" NumberOfComponents="3" format="ascii">
0 0 9.0306084241906054e-10 0 0 2.70968269010793e-09 0 0 4.5178049052670951e-09 0 0 6.3284276700226805e-09 0 0 8.1425514118779676e-09 0 0 9.9611769014017179e-09 0 0 1.1785305349369374e-08 0 0 1.3615938503214281e-08 0 0 1.5454078743320929e-08 0 0 1.7300729178143801e-08 0 0 1.9156893738523232e-08 0 0 2.1023577271425419e-08 0 0 2.2901785632180644e-08 0 0 2.4792525775788979e-08 0 0 2.6696805846812055e-08 0 0 2.8615635267982691e-08 0 0 3.055002482711692e-08 0 0 3.250098676298692e-08 0 0 3.4469534848682333e-08 0 0 3.6456684473987751e-08 0 0 3.8463452725291638e-08 0 0 4.0490858463963583e-08 0 0 4.2539922402336948e-08 0 0 4.4611667177694111e-08 0 0 4.6707117424159395e-08 0 0 4.8827299841982907e-08 0 0 5.0973243264798981e-08 0 0 5.3145978724019409e-08 0 0 5.534653951109266e-08 0 0 5.7575961236844351e-08 0 0 5.9835281888396947e-08 0 0 6.2125541883186708e-08 0 0 6.4447784120273364e-08 0 0 6.6803054028913897e-08 0 0 6.9192399613864225e-08 0 0 7.1616871498363303e-08 0 0 7.4077522963445605e-08 0 0 7.6575409984863191e-08 0 0 7.9111591266417405e-08 0 0 8.1687128270537264e-08 0 0 8.4303085245621318e-08 0 0 8.6960529250249577e-08 0 0 8.9660530174279782e-08 0 0 9.2404160756582636e-08 0 0 9.5192496599701294e-08 0 0 9.8026616181533817e-08 0 0 1.0090760086318762e-07 0 0 1.0383653489430846e-07 0 0 1.0681450541466306e-07 0 0 1.0984260245293603e-07 0 0 1.1292191892194619e-07 0 0 1.1605355061103367e-07 0 0 1.1923859617490758e-07 0 0 1.2247815711961207e-07 0 0 1.2577333778527649e-07 0 0 1.2912524532580837e-07 0 0 1.3253498968535625e-07 0 0 1.3600368357202704e-07 0 0 1.3953244242834789e-07 0 0 1.4312238439881667e-07 0 0 1.4677463029448429e-07 0 0 1.5049030355498997e-07 0 0 1.5427053020738536e-07 0 0 1.5811643882219348e-07 0 0 1.6202916046709727e-07 0 0 1.6600982865751107e-07 0 0 1.7005957930495673e-07 0 0 1.7417955066262196e-07 0 0 1.7837088326831476e-07 0 0 1.8263471988544254e-07 0 0 1.8697220544126318e-07 0 0 1.9138448696263349e-07 0 0 1.9587271351028998e-07 0 0 2.0043803610990537e-07 0 0 2.0508160768213097e-07 0 0 2.0980458296958457e-07 0 0 2.1460811846284087e-07 0 0 2.1949337232336538e-07 0 0 2.244615043058868e-07 0 0 2.2951367567800952e-07 0 0 2.346510491386402e-07 0 0 2.3987478873442796e-07 0 0 2.4518605977478743e-07 0 0 2.5058602874566943e-07 0 0 2.560758632211498e-07 0 0 2.6165673177421715e-07 0 0 2.6732980388616902e-07 0 0 2.7309624985416478e-07 0 0 2.7895724069801878e-07 0 0 2.8491394806576216e-07 0 0 2.9096754413732315e-07 0 0 2.9711920152811124e-07 0 0 3.0337009319040122e-07 0 0 3.0972139231438069e-07 0 0 3.1617427222752119e-07 0 0 3.2272990629336092e-07 0 0 3.2938946780853947e-07 0 0 3.3615412989935089e-07 0 0 3.4302506541660533e-07 0 0 3.5000344682973785e-07 0 0 3.5709044611959058e-07 0 0 3.6428723466973282e-07 0 0 3.7159498315676243e-07 0 0 3.7901486143903751e-07 0 0 3.8654803844405872e-07 0 0 3.9419568205414508e-07 0 0 4.0195895899064628e-07 0 0 4.0983903469607496e-07 0 0 4.178370732146478e-07 0 0 4.2595423707046387e-07 0 0 4.3419168714356481e-07 0 0 4.4255058254328762e-07 0 0 4.5103208047929842e-07 0 0 4.5963733612955361e-07 0 0 4.6836750250482581e-07 0 0 4.7722373031017548e-07 0 0 4.8620716780247833e-07 0 0 4.9531896064371021e-07 0 0 5.0456025175008221e-07 0 0 5.1393218113596998e-07 0 0 5.2343588575280856e-07 0 0 5.3307249932205136e-07 0 0 5.4284315216178134e-07 0 0 5.5274897100711984e-07 0 0 5.6279107882235514e-07 0 0 5.7297059460583577e-07 0 0 5.8328863318586099e-07 0 0 5.9374630500705755e-07 0 0 6.0434471590701344e-07 0 0 6.1508496688136546e-07 0 0 6.2596815383756525e-07 0 0 6.3699536733539861e-07 0 0 6.4816769231379585e-07 0 0 6.5948620780268594e-07 0 0 6.7095198661875366e-07 0 0 6.825660950437199e-07 0 0 6.9432959248392289e-07 0 0 7.062435311098309e-07 0 0 7.1830895547364425e-07 0 0 7.305269021036438e-07 0 0 7.4289839907360243e-07 0 0 7.5542446554479891e-07 0 0 7.6810611127919777e-07 0 0 7.8094433612157412e-07 0 0 7.9394012944779299e-07 0 0 8.0709446957738935e-07 0 0 8.2040832314726158e-07 0 0 8.338826444442132e-07 0 0 8.4751837469234852e-07 0 0 8.6131644129346975e-07 0 0 8.7527775701547974e-07 0 0 8.8940321912604257e-07 0 0 9.0369370846742896e-07 0 0 9.1815008846749755e-07 0 0 9.3277320408316178e-07 0 0 9.4756388067074272e-07 0 0 9.6252292277819927e-07 0 0 9.7765111285343004e-07 0 0 9.9294920986247642e-07 0 0 1.0084179478112483e-06 0 0 1.0240580341637157e-06 0 0 1.0398701481486142e-06 0 0 1.0558549389471194e-06 0 0 1.0720130237521449e-06 0 0 1.0883449856903937e-06 0 0 1.104851371596728e-06 0 0 1.1215326896297166e-06 0 0 1.1383894067175384e-06 0 0 1.1554219458202712e-06 0 0 1.1726306829964395e-06 0 0 1.1900159442578701e-06 0 0 1.2075780021978831e-06 0 0 1.2253170723754398e-06 0 0 1.2432333094370332e-06 0 0 1.2613268029562775e-06 0 0 1.2795975729701933e-06 0 0 1.2980455651884234e-06 0 0 1.3166706458513225e-06 0 0 1.3354725962092107e-06 0 0 1.3544511065941108e-06 0 0 1.3736057700522893e-06 0 0 1.3929360755038219e-06 0 0 1.4124414003920878e-06 0 0 1.4321210027836117e-06 0 0 1.4519740128751676e-06 0 0 1.4719994238616868e-06 0 0 1.4921960821143353e-06 0 0 1.5125626766141771e-06 0 0 1.5330977275829299e-06 0 0 1.5537995742462263e-06 0 0 1.574666361660605e-06 0 0 1.5956960265288239e-06 0 0 1.6168862819237608e-06 0 0 1.6382346008311392e-06 0 0 1.6597381984182024e-06 0 0 1.681394012924464e-06 0 0 1.7031986850638041e-06 0 0 1.7251485358186309e-06 0 0 1.7472395424954466e-06 0 0 1.769467312903828e-06 0 0 1.7918270575063139e-06 0 0 1.814313559378696e-06 0 0 1.8369211418053272e-06 0 0 1.8596436333229122e-06 0 0 1.8824743300119375e-06 0 0 1.9054059548214752e-06 0 0 1.9284306136993282e-06 0 0 1.9515397482843274e-06 0 0 1.974724084904508e-06 0 0 1.9979735796107219e-06 0 0 2.0212773589628531e-06 0 0 2.0446236562756535e-06 0 0 2.0679997430208848e-06 0 0 2.0913918550800059e-06 0 0 2.1147851135391172e-06 0 0 2.138163439726095e-06 0 0 2.1615094642037457e-06 0 0 2.1848044294601275e-06 0 0 2.2080280860777596e-06 0 0 2.231158582225358e-06 0 0 2.2541723463997604e-06 0 0 2.2770439634633328e-06 0 0 2.2997460441798754e-06 0 0 2.3222490886586983e-06 0 0 2.3445213443906098e-06 0 0 2.3665286599132167e-06 0 0 2.3882343355988565e-06 0 0 2.4095989736462795e-06 0 0 2.4305803301046895e-06 0 0 2.4511331727146309e-06 0 0 2.4712091495638455e-06 0 0 2.4907566750995276e-06 0 0 2.5097208420002269e-06 0 0 2.5280433699091953e-06 0 0 2.5456626052248176e-06 0 0 2.5625135902499382e-06 0 0 2.5785282253295951e-06 0 0 2.5936355546091404e-06 0 0 2.6077622154185606e-06 0 0 2.6208331041583394e-06 0 0 2.6327723298372094e-06 0 0 2.6435045535363536e-06 0 0 2.6529568546643477e-06 0 0 2.6610613365930681e-06 0 0 2.6677588159208255e-06 0 0 2.673004208520119e-06 0 0 2.6767748561944862e-06 0 0 2.679084835548107e-06 0 0 2.6800153846186056e-06 0 0 2.679848241936473e-06 
</DataArray>
<DataArray type="Float64" Name="water_content" format="ascii">
0.20465635974906426 0.20465711949385051 0.20465863340509163 0.20466090236252138 0.20466392768580072 0.20466771113483145 0.20467225491017477 0.20467756165357423 0.20468363444858442 0.20469047682130498 0.20469809274122028 0.20470648662214602 0.20471566332328223 0.20472562815037409 0.20473638685698103 0.20474794564585413 0.20476031117042398 0.20477349053639843 0.20478749130347212 0.20480232148714839 0.20481798956067476 0.20483450445709311 0.20485187557140574 0.20487011276285882 0.20488922635734452 0.20490922714992307 0.20493012640746716 0.20495193587142929 0.20497466776073467 0.20499833477480134 0.20502295009668942 0.2050485273963818 0.20507508083419829 0.20510262506434576 0.20513117523860697 0.20516074701016995 0.2051913565376019 0.20522302048896934 0.2052557560461081 0.20528958090904664 0.20532451330058543 0.20536057197103638 0.20539777620312577 0.20543614581706496 0.20547570117579211 0.2055164631903903 0.20555845332568543 0.20560169360602937 0.2056462066212727 0.20569201553293226 0.20573914408055918 0.20578761658831246 0.20583745797174402 0.20588869374480176 0.20594135002705599 0.20599545355115703 0.20605103167052968 0.20610811236731275 0.20616672426055049 0.20622689661464383 0.20628865934807 0.2063520430423782 0.20641707895147102 0.20648379901118019 0.20655223584914648 0.20662242279501378 0.20669439389094749 0.2067681839024883 0.2068438283297524 0.20692136341899015 0.20700082617451471 0.2070822543710143 0.20716568656626011 0.2072511621142249 0.20733872117862501 0.20742840474690222 0.20752025464465981 0.20761431355056897 0.20771062501176288 0.20780923345973526 0.20791018422676177 0.20801352356286268 0.2081192986533269 0.20822755763681716 0.20833834962407805 0.20845172471726814 0.20856773402994 0.20868642970769141 0.20880786494951231 0.2089320940298538 0.2090591723214458 0.20918915631889123 0.2093221036630657 0.20945807316635331 0.20959712483874965 0.20973931991486489 0.2098847208818615 0.21003339150836153 0.2101853968743608 0.21034080340218875 0.21049967888855384 0.21066209253771667 0.2108281149958342 0.21099781838652079 0.21117127634767352 0.21134856406961122 0.21152975833457854 0.21171493755766974 0.21190418182922721 0.21209757295877432 0.2122951945205433 0.21249713190066202 0.21270347234606685 0.21291430501521022 0.21312972103063699 0.21334981353350457 0.21357467774012662 0.21380441100062358 0.21403911285976657 0.21427888512010512 0.21452383190747495 0.21477405973898311 0.21502967759357644 0.21529079698530088 0.21555753203936537 0.21582999957113097 0.21610831916814793 0.21639261327537321 0.21668300728370529 0.21697962962197845 0.21728261185256881 0.21759208877076863 0.21790819850809456 0.21823108263970353 0.21856088629609821 0.21889775827931299 0.21924185118378059 0.21959332152208993 0.21995232985585561 0.22031904093193136 0.2206936238242104 0.22107625208126863 0.22146710388011914 0.22186636218636036 0.22227421492101437 0.22269085513436718 0.22311648118713828 0.22355129693932441 0.22399551194707928 0.2244493416680105 0.22491300767529337 0.2253867378810242 0.22587076676925416 0.22636533563917188 0.22687069285892275 0.22738709413058245 0.22791480276682582 0.22845408997986177 0.22900523518323493 0.22956852630712438 0.23014426012780365 0.23073274261195964 0.23133428927660465 0.23194922556535147 0.23257788724186365 0.23322062080133077 0.23387778390086347 0.2345497458097463 0.2352368878805326 0.23593960404201442 0.2366583013151482 0.23739340035306933 0.23814533600638021 0.23891455791495009 0.23970153112751902 0.24050673675045392 0.24133067262705904 0.24217385404889857 0.24303681450064307 0.24392010644000378 0.24482430211436812 0.24574999441579701 0.24669779777608447 0.24766834910361535 0.24866230876378248 0.24968036160474028 0.25072321803027248 0.25179161512153658 0.25288631780941057 0.25400812009910667 0.25515784634862093 0.25633635260245924 0.2575445279818992 0.25878329613281759 0.26005361673181304 0.26135648705097181 0.26269294358115219 0.26406406371307173 0.26547096747475241 0.26691481932298999 0.26839682998542597 0.26991825834847682 0.27148041338478029 0.27308465611188221 0.27473240157156054 0.27642512081637949 0.2781643428867 0.27995165675732941 0.28178871322814514 0.28367722672721424 0.28561897698796285 0.28761581055360513 0.28966964205203316 0.29178245517238033 0.29395630326008737 0.29619330943004141 0.29849566607663264 0.30086563363465341 0.3033055384149721 0.30581776930276061 0.3084047730624031 0.31106904794039669 0.31381313519352227 0.31663960809168468 0.31955105784983989 0.32255007582712447 0.32563923118827326 0.32882104304557813 0.33209794587965036 0.3354722467615201 0.33894607254991271 0.34252130479187876 0.34619949947807277 0.34998178804592339 0.35386875500993742 0.35786028621342469 0.3619553797578608 0.36615190887710319 0.3704463218796728 0.37483325789693295 0.37930504692086764 0.38385104535297859 0.3884567275965588 0.39310239602960667 0.39776125231264076 0.40239630232285617 0.40695486504612155 0.41135724017505182 0.41546632693118757 0.4187127049483127 
</DataArray>
<DataArray type="Float64" Name="conductivity_richards" format="ascii">