<?xml version="1.0"?>
<VTKFile type="UnstructuredGrid" version="0.1" byte_order="LittleEndian">
<UnstructuredGrid>
<Piece NumberOfPoints="251" NumberOfCells="250">
<Points>
<DataArray type="Float64" NumberOfComponents="3" format="ascii">
0 0 -0.17099999999979171 0 0 -0.1559999999997522 0 0 -0.15699999999975489 0 0 -0.1579999999997575 0 0 -0.15899999999976011 0 0 -0.1599999999997628 0 0 -0.16099999999976539 0 0 -0.161999999999768 0 0 -0.16299999999977069 0 0 -0.1639999999997733 0 0 -0.16499999999977599 0 0 -0.1659999999997786 0 0 -0.16699999999978121 0 0 -0.16799999999978391 0 0 -0.16899999999978649 0 0 -0.1699999999997891 0 0 -0.15499999999974959 0 0 -0.1719999999997944 0 0 -0.17299999999979701 0 0 -0.1739999999997997 0 0 -0.17499999999980231 0 0 -0.17599999999980501 0 0 -0.17699999999980759 0 0 -0.1779999999998102 0 0 -0.17899999999981281 0 0 -0.1799999999998155 0 0 -0.18099999999981811 0 0 -0.18199999999982069 0 0 -0.18299999999982339 0 0 -0.183999999999826 0 0 -0.18499999999982869 0 0 -0.1859999999998313 0 0 -0.13999999999971011 0 0 -0.12499999999967321 0 0 -0.12599999999967451 0 0 -0.12699999999967579 0 0 -0.1279999999996784 0 0 -0.12899999999968109 0 0 -0.1299999999996837 0 0 -0.13099999999968631 0 0 -0.13199999999968889 0 0 -0.13299999999969159 0 0 -0.1339999999996942 0 0 -0.13499999999969689 0 0 -0.1359999999996995 0 0 -0.13699999999970211 0 0 -0.1379999999997048 0 0 -0.13899999999970741 0 0 -0.18699999999983391 0 0 -0.14099999999971269 0 0 -0.1419999999997153 0 0 -0.14299999999971799 0 0 -0.1439999999997206 0 0 -0.14499999999972321 0 0 -0.14599999999972579 0 0 -0.14699999999972849 0 0 -0.1479999999997311 0 0 -0.14899999999973379 0 0 -0.1499999999997364 0 0 -0.15099999999973901 0 0 -0.1519999999997417 0 0 -0.15299999999974431 0 0 -0.15399999999974701 0 0 -0.2339999999999578 0 0 -0.21899999999991829 0 0 -0.2199999999999209 0 0 -0.22099999999992359 0 0 -0.2219999999999262 0 0 -0.22299999999992881 0 0 -0.22399999999993139 0 0 -0.22499999999993411 0 0 -0.2259999999999367 0 0 -0.22699999999993939 0 0 -0.227999999999942 0 0 -0.22899999999994469 0 0 -0.2299999999999473 0 0 -0.23099999999994991 0 0 -0.23199999999995249 0 0 -0.23299999999995519 0 0 -0.21799999999991571 0 0 -0.23499999999996049 0 0 -0.2359999999999631 0 0 -0.23699999999996571 0 0 -0.2379999999999684 0 0 -0.23899999999997101 0 0 -0.2399999999999736 0 0 -0.24099999999997629 0 0 -0.2419999999999789 0 0 -0.24299999999998159 0 0 -0.2439999999999842 0 0 -0.24499999999998681 0 0 -0.24599999999998939 0 0 -0.24699999999999209 0 0 -0.2479999999999947 0 0 -0.24899999999999739 0 0 -0.20299999999987611 0 0 -0.1879999999998366 0 0 -0.18899999999983921 0 0 -0.18999999999984191 0 0 -0.19099999999984449 0 0 -0.1919999999998471 0 0 -0.19299999999984971 0 0 -0.1939999999998524 0 0 -0.19499999999985501 0 0 -0.1959999999998577 0 0 -0.19699999999986029 0 0 -0.19799999999986301 0 0 -0.19899999999986559 0 0 -0.1999999999998682 0 0 -0.20099999999987081 0 0 -0.2019999999998735 0 0 -0.1239999999996748 0 0 -0.20399999999987881 0 0 -0.20499999999988139 0 0 -0.205999999999884 0 0 -0.20699999999988669 0 0 -0.2079999999998893 0 0 -0.20899999999989191 0 0 -0.2099999999998946 0 0 -0.21099999999989719 0 0 -0.21199999999989991 0 0 -0.21299999999990249 0 0 -0.2139999999999051 0 0 -0.21499999999990771 0 0 -0.2159999999999104 0 0 -0.21699999999991301 0 0 -0.045999999999900919 0 0 -0.03099999999994377 0 0 -0.031999999999941367 0 0 -0.032999999999938787 0 0 -0.033999999999935943 0 0 -0.034999999999933022 0 0 -0.035999999999930102 0 0 -0.036999999999927188 0 0 -0.037999999999924268 0 0 -0.038999999999921348 0 0 -0.039999999999918427 0 0 -0.040999999999915507 0 0 -0.041999999999912593 0 0 -0.042999999999909673 0 0 -0.043999999999906753 0 0 -0.044999999999903832 0 0 -0.02999999999994565 0 0 -0.046999999999897998 0 0 -0.047999999999895078 0 0 -0.048999999999892158 0 0 -0.049999999999889237 0 0 -0.050999999999886317 0 0 -0.051999999999883403 0 0 -0.052999999999880483 0 0 -0.053999999999877563 0 0 -0.054999999999874642 0 0 -0.055999999999871722 0 0 -0.056999999999868801 0 0 -0.057999999999865881 0 0 -0.058999999999862961 0 0 -0.059999999999860047 0 0 -0.060999999999857127 0 0 -0.014999999999969531 0 0 -0.25 0 0 -0.00099999999999810158 0 0 -0.001999999999996204 0 0 -0.0029999999999943271 0 0 -0.0039999999999924488 0 0 -0.004999999999990571 0 0 -0.0059999999999886811 0 0 -0.0069999999999867156 0 0 -0.007999999999984719 0 0 -0.008999999999982581 0 0 -0.0099999999999804221 0 0 -0.010999999999978201 0 0 -0.011999999999975971 0 0 -0.01299999999997375 0 0 -0.01399999999997158 0 0 -0.061999999999854213 0 0 -0.01599999999996761 0 0 -0.0169999999999659 0 0 -0.01799999999996427 0 0 -0.018999999999962731 0 0 -0.019999999999961209 0 0 -0.020999999999959669 0 0 -0.02199999999995814 0 0 -0.022999999999956611 0 0 -0.023999999999955082 0 0 -0.024999999999953549 0 0 -0.02599999999995202 0 0 -0.02699999999995048 0 0 -0.027999999999948951 0 0 -0.028999999999947419 0 0 -0.1089999999997172 0 0 -0.093999999999760914 0 0 -0.094999999999758 0 0 -0.095999999999755073 0 0 -0.096999999999752159 0 0 -0.097999999999749246 0 0 -0.098999999999746333 0 0 -0.099999999999743419 0 0 -0.10099999999974051 0 0 -0.10199999999973761 0 0 -0.10299999999973471 0 0 -0.10399999999973179 0 0 -0.1049999999997288 0 0 -0.1059999999997259 0 0 -0.106999999999723 0 0 -0.1079999999997201 0 0 -0.092999999999763827 0 0 -0.1099999999997143 0 0 -0.1109999999997113 0 0 -0.1119999999997084 0 0 -0.1129999999997055 0 0 -0.1139999999997026 0 0 -0.1149999999996997 0 0 -0.1159999999996968 0 0 -0.11699999999969379 0 0 -0.11799999999969089 0 0 -0.11899999999968799 0 0 -0.11999999999968509 0 0 -0.1209999999996822 0 0 -0.1219999999996793 0 0 -0.1229999999996764 0 0 -0.077999999999807557 0 0 -0.062999999999851286 0 0 -0.063999999999848373 0 0 -0.064999999999845445 0 0 -0.065999999999842532 0 0 -0.066999999999839618 0 0 -0.067999999999836705 0 0 -0.068999999999833792 0 0 -0.069999999999830878 0 0 -0.070999999999827965 0 0 -0.071999999999825051 0 0 -0.072999999999822124 0 0 -0.07399999999981921 0 0 -0.074999999999816297 0 0 -0.075999999999813383 0 0 -0.07699999999981047 0 0 0 0 0 -0.078999999999804643 0 0 -0.07999999999980173 0 0 -0.080999999999798802 0 0 -0.081999999999795889 0 0 -0.082999999999792975 0 0 -0.083999999999790062 0 0 -0.084999999999787149 0 0 -0.085999999999784235 0 0 -0.086999999999781322 0 0 -0.087999999999778394 0 0 -0.088999999999775481 0 0 -0.089999999999772567 0 0 -0.090999999999769654 0 0 -0.091999999999766741 
</DataArray>
</Points>
<Cells>
<DataArray type="UInt32" Name="connectivity" format="ascii">
17 18 2 3 3 4 4 5 5 6 6 7 7 8 8 9 9 10 10 11 11 12 12 13 13 14 14 15 15 0 0 17 1 2 18 19 19 20 20 21 21 22 22 23 23 24 24 25 25 26 26 27 27 28 28 29 29 30 30 31 31 48 48 96 49 50 34 35 35 36 36 37 37 38 38 39 39 40 40 41 41 42 42 43 43 44 44 45 45 46 46 47 47 32 32 49 96 97 50 51 51 52 52 53 53 54 54 55 55 56 56 57 57 58 58 59 59 60 60 61 61 62 62 16 16 1 80 81 65 66 66 67 67 68 68 69 69 70 70 71 71 72 72 73 73 74 74 75 75 76 76 77 77 78 78 63 63 80 64 65 81 82 82 83 83 84 84 85 85 86 86 87 87 88 88 89 89 90 90 91 91 92 92 93 93 94 94 159 112 113 97 98 98 99 99 100 100 101 101 102 102 103 103 104 104 105 105 106 106 107 107 108 108 109 109 110 110 95 95 112 33 34 113 114 114 115 115 116 116 117 117 118 118 119 119 120 120 121 121 122 122 123 123 124 124 125 125 79 79 64 143 144 128 129 129 130 130 131 131 132 132 133 133 134 134 135 135 136 136 137 137 138 138 139 139 140 140 141 141 126 126 143 127 128 144 145 145 146 146 147 147 148 148 149 149 150 150 151 151 152 152 153 153 154 154 155 155 156 156 157 157 174 174 221 175 176 160 161 161 162 162 163 163 164 164 165 165 166 166 167 167 168 168 169 169 170 170 171 171 172 172 173 173 158 158 175 221 222 176 177 177 178 178 179 179 180 180 181 181 182 182 183 183 184 184 185 185 186 186 187 187 188 188 142 142 127 206 207 191 192 192 193 193 194 194 195 195 196 196 197 197 198 198 199 199 200 200 201 201 202 202 203 203 204 204 189 189 206 190 191 207 208 208 209 209 210 210 211 211 212 212 213 213 214 214 215 215 216 216 217 217 218 218 219 219 111 111 33 237 238 222 223 223 224 224 225 225 226 226 227 227 228 228 229 229 230 230 231 231 232 232 233 233 234 234 235 235 220 220 237 236 160 238 239 239 240 240 241 241 242 242 243 243 244 244 245 245 246 246 247 247 248 248 249 249 250 250 205 205 190 
</DataArray>
<DataArray type="UInt32" Name="offsets" format="ascii">
2 4 6 8 10 12 14 16 18 20 22 24 26 28 30 32 34 36 38 40 42 44 46 48 50 52 54 56 58 60 62 64 66 68 70 72 74 76 78 80 82 84 86 88 90 92 94 96 98 100 102 104 106 108 110 112 114 116 118 120 122 124 126 128 130 132 134 136 138 140 142 144 146 148 150 152 154 156 158 160 162 164 166 168 170 172 174 176 178 180 182 184 186 188 190 192 194 196 198 200 202 204 206 208 210 212 214 216 218 220 222 224 226 228 230 232 234 236 238 240 242 244 246 248 250 252 254 256 258 260 262 264 266 268 270 272 274 276 278 280 282 284 286 288 290 292 294 296 298 300 302 304 306 308 310 312 314 316 318 320 322 324 326 328 330 332 334 336 338 340 342 344 346 348 350 352 354 356 358 360 362 364 366 368 370 372 374 376 378 380 382 384 386 388 390 392 394 396 398 400 402 404 406 408 410 412 414 416 418 420 422 424 426 428 430 432 434 436 438 440 442 444 446 448 450 452 454 456 458 460 462 464 466 468 470 472 474 476 478 480 482 484 486 488 490 492 494 496 498 500 
</DataArray>
<DataArray type="UInt32" Name="types" format="ascii">
3 3 3 3 3 3 3 3 3 3 3 3 3 3 3 3 3 3 3 3 3 3 3 3 3 3 3 3 3 3 3 3 3 3 3 3 3 3 3 3 3 3 3 3 3 3 3 3 3 3 3 3 3 3 3 3 3 3 3 3 3 3 3 3 3 3 3 3 3 3 3 3 3 3 3 3 3 3 3 3 3 3 3 3 3 3 3 3 3 3 3 3 3 3 3 3 3 3 3 3 3 3 3 3 3 3 3 3 3 3 3 3 3 3 3 3 3 3 3 3 3 3 3 3 3 3 3 3 3 3 3 3 3 3 3 3 3 3 3 3 3 3 3 3 3 3 3 3 3 3 3 3 3 3 3 3 3 3 3 3 3 3 3 3 3 3 3 3 3 3 3 3 3 3 3 3 3 3 3 3 3 3 3 3 3 3 3 3 3 3 3 3 3 3 3 3 3 3 3 3 3 3 3 3 3 3 3 3 3 3 3 3 3 3 3 3 3 3 3 3 3 3 3 3 3 3 3 3 3 3 3 3 3 3 3 3 3 3 3 3 3 3 3 3 3 3 3 3 3 3 
</DataArray>
</Cells>
<CellData Scalars="pressure_p0,water_content,conductivity_richards," Vectors="velocity_p0," Tensors="">
<DataArray type="Float64" Name="pressure_p0" format="ascii">
-5096.8439665591895 -5714.2208896273241 -5680.5770613591612 -5645.9284233638027 -5610.2576269164492 -5573.5477085169714 -5535.7821379613415 -5496.944868086166 -5457.0203863308452 -5415.9937683568478 -5373.8507334930227 -5330.5777020221358 -5286.16185428074 -5240.591191537158 -5193.854598604672 -5145.9419081388496 -5746.8775960396506 -5046.5527015261732 -4995.0611908951159 -4942.3637330580013 -4888.4559185737453 -4833.3347029760316 -4776.9984806360262 -4719.4471595447758 -4660.682236867111 -4600.7068751051247 -4539.5259786950428 -4477.1462708463841 -4413.576370416602 -4348.826868598122 -4282.9104051777413 -4215.8417441105212 -6130.8751391186543 -6359.2627570465684 -6347.7059714274765 -6335.6929039126653 -6323.208763126604 -6310.2384553714246 -6296.7665887289604 -6282.7774779395695 -6268.2551501026855 -6253.183351261554 -6237.5455539022951 -6221.3249654115953 -6204.5045375369373 -6187.0669768938906 -6168.9947565652765 -6150.270128837391 -4147.6378481319443 -6110.7916410861089 -6090.0013131052347 -6068.4856759682425 -6046.2261119958084 -6023.2038855466717 -5999.4001649789152 -5974.7960461058892 -5949.3725771888294 -5923.1107855069358 -5895.9917055443293 -5867.9964088317083 -5839.1060354786086 -5809.3018274301494 -5778.5651634797687 -568.75328306793767 -1603.3827564571129 -1524.4870122232608 -1446.5952460391009 -1369.8065068465912 -1294.2196450916235 -1219.932904392763 -1147.0434789830033 -1075.6470353585282 -1005.8371965922124 -937.70498781651895 -871.33824144936784 -806.82096084114403 -744.23264115933785 -683.64754649776785 -625.13394238781495 -1683.1836069706219 -514.55935296615019 -462.59736173068086 -412.90299154209492 -365.50139385462279 -320.40612919884461 -277.6180364201731 -237.12400316351795 -198.89558020891315 -162.8873222664364 -129.03460791175678 -97.250382804126758 -67.419414470072752 -39.385491348075021 -12.897568907830371 -2925.39500763249 -4078.317952112734 -4007.9036348408426 -3936.4188888941981 -3863.8901882461914 -3790.3465532233822 -3715.8196124114784 -3640.3436610813778 -3563.955715681891 -3486.6955639195176 -3408.6058099185793 -3329.7319139267556 -3250.1222260019431 -3169.8280130860476 -3088.9034788399103 -3007.4057755810804 -6370.3777464798923 -2842.9342253551777 -2760.0894091021619 -2676.9294422932944 -2593.526072772283 -2509.9538615673578 -2426.2901181360121 -2342.6148211318714 -2259.0105236884365 -2175.5622421697199 -2092.3573272922631 -2009.4853164765232 -1927.0377662383794 -1845.1080633839194 -1763.7912137230119 -6614.1878798670059 -6616.9436949165383 -6616.8236255277534 -6616.6963999217342 -6616.5616397531112 -6616.4189460610696 -6616.2678982460066 -6616.1080530891149 -6615.9389438131839 -6615.7600790105498 -6615.5709415238425 -6615.3709872779345 -6615.1596440616104 -6614.9363102574025 -6614.7003535180047 -6614.451109387679 -6617.056966712782 -6613.9099319193647 -6613.6164959174357 -6613.3067640280678 -6612.9798885337859 -6612.6349800892294 -6612.2711059108206 -6611.8872878979037 -6611.4825006836436 -6611.0556696139538 -6610.6056686527354 -6610.1313182117283 -6609.6313829032752 -6609.1045692143307 -6608.5495231001096 -6607.9648274957381 -6618.1328766248871 -6618.4580726429576 -6618.4527968631937 -6618.4453656096266 -6618.4357577106584 -6618.4239448412391 -6618.4098914312144 -6618.3935545691111 -6618.3748839012151 -6618.3538214956116 -6618.3303016861064 -6618.304250895696 -6618.2755874392442 -6618.2442213050363 -6618.2100539147441 -6618.1729778614008 -6607.3489997443667 -6618.089624264363 -6618.043085087138 -6617.9931132933652 -6617.939552595868 -6617.8822358144907 -6617.8209844442008 -6617.7556081962121 -6617.685904511316 -6617.6116580445778 -6617.5326401205366 -6617.4486081579926 -6617.3593050633881 -6617.2644585918315 -6617.1637806746958 -6492.9877618739101 -6557.7196509425303 -6554.6245174460309 -6551.3844620889276 -6547.9933835684224 -6544.4449637867301 -6540.7326623648132 -6536.8497112830792 -6532.789109649495 -6528.5436183809798 -6524.1057549309644 -6519.4677880738354 -6514.6217327604936 -6509.5593450601154 -6504.2721172039865 -6498.7512727483381 -6560.6757524579261 -6486.9722568409798 -6480.69514761957 -6474.1465377155055 -6467.3162402140242 -6460.1937740636713 -6452.768360624259 -6445.0289205037079 -6436.9640707096614 -6428.5621221428755 -6419.811077460432 -6410.6986293379123 -6401.2121591607847 -6391.3387361763407 -6381.0651171386035 -6591.753058990811 -6606.7004889402415 -6606.0176731852753 -6605.2988567577268 -6604.5422671917022 -6603.746052266215 -6602.90827690269 -6602.0269199698596 -6601.0998709951637 -6600.1249267818148 -6599.0997879308889 -6598.0220552679311 -6596.8892261737055 -6595.6986908189365 -6594.4477283030183 -6593.1335026969318 -6618.4612070242692 -6590.3033189467624 -6588.7810768579411 -6587.1829952149928 -6585.5056002813635 -6583.7452775792626 -6581.8982672883521 -6579.9606595596051 -6577.928389747156 -6575.797233561304 -6573.5628021462817 -6571.220537086785 -6568.7657053477742 -6566.1933941524512 -6563.4985058038819 
</DataArray>
<DataArray type="Float64" Name="velocity_p0" NumberOfComponents="3" format="ascii">
0 0 8.4972455840740996e-07 0 0 5.2271496531431239e-07 0 0 5.4068015350277226e-07 0 0 5.5914972795404216e-07 0 0 5.781335792106524e-07 0 0 5.9764165496048053e-07 0 0 6.1768395920468421e-07 0 0 6.3827055138117509e-07 0 0 6.5941154072115679e-07 0 0 6.8111708292018033e-07 0 0 7.0339737669963875e-07 0 0 7.2626266027462058e-07 0 0 7.4972320771713092e-07 0 0 7.7378932520067823e-07 0 0 7.9847134711179479e-07 0 0 8.237796320086197e-07 0 0 5.0524433542911625e-07 0 0 8.7631652036915811e-07 0 0 9.0356592285972676e-07 0 0 9.3148317684954001e-07 0 0 9.6007869411464033e-07 0 0 9.8936288169621781e-07 0 0 1.0193461359675944e-06 0 0 1.0500388362544232e-06 0 0 1.0814513379402438e-06 0 0 1.1135939649878593e-06 0 0 1.1464770017908597e-06 0 0 1.1801106842615233e-06 0 0 1.2145051900499158e-06 0 0 1.2496706277711159e-06 0 0 1.285617025104997e-06 0 0 1.3223543156130391e-06 0 0 2.9607334718278166e-07 0 0 1.6566040210127273e-07 0 0 1.7244601939680862e-07 0 0 1.7947302156960343e-07 0 0 1.8674826648333972e-07 0 0 1.9427873305857114e-07 0 0 2.0207152069114587e-07 0 0 2.1013384867353492e-07 0 0 2.1847305529899076e-07 0 0 2.2709659686782337e-07 0 0 2.3601204664049086e-07 0 0 2.4522709369202324e-07 0 0 2.5474954166343327e-07 0 0 2.6458730741420037e-07 0 0 2.7474841957687071e-07 0 0 2.8524101701425129e-07 0 0 1.3598923240966763e-06 0 0 3.0725376440193735e-07 0 0 3.1879072803340386e-07 0 0 3.306928005718988e-07 0 0 3.4296864564948264e-07 0 0 3.5562702595621753e-07 0 0 3.6867680108039421e-07 0 0 3.821269252695846e-07 0 0 3.9598644511597264e-07 0 0 4.1026449716913652e-07 0 0 4.2497030547737763e-07 0 0 4.4011317906092621e-07 0 0 4.5570250931985905e-07 0 0 4.7174776737711302e-07 0 0 4.8825850136055151e-07 0 0 4.0289663350719616e-06 0 0 3.0233217325645517e-06 0 0 3.0893905002981483e-06 0 0 3.1560653198150158e-06 0 0 3.223280757781778e-06 0 0 3.2909610648402907e-06 0 0 3.35901877781381e-06 0 0 3.4273531440015398e-06 0 0 3.4958483515883612e-06 0 0 3.5643715514977131e-06 0 0 3.6327706600445159e-06 0 0 3.7008719375174873e-06 0 0 3.7684773475439418e-06 0 0 3.8353617168299747e-06 0 0 3.9012697365235567e-06 0 0 3.9659128774654383e-06 0 0 2.9579153700031753e-06 0 0 4.0900661795648399e-06 0 0 4.1488069688983164e-06 0 0 4.2047401919762092e-06 0 0 4.257374058437001e-06 0 0 4.3061753537144192e-06 0 0 4.3505743607430551e-06 0 0 4.3899742631935087e-06 0 0 4.4237670949170768e-06 0 0 4.4513594246489963e-06 0 0 4.4722131605271666e-06 0 0 4.4859118561758757e-06 0 0 4.4922769647159885e-06 0 0 4.4916143527306954e-06 0 0 4.4857924067801462e-06 0 0 2.0766429794326986e-06 0 0 1.3982407502986285e-06 0 0 1.4374091507219846e-06 0 0 1.4774069183123353e-06 0 0 1.5182432597135916e-06 0 0 1.5599271697707774e-06 0 0 1.6024674029081104e-06 0 0 1.6458724409610133e-06 0 0 1.6901504569835956e-06 0 0 1.7353092744885336e-06 0 0 1.7813563215012579e-06 0 0 1.8282985787261131e-06 0 0 1.8761425210241937e-06 0 0 1.9248940512928732e-06 0 0 1.9745584257080958e-06 0 0 2.0251401691459529e-06 0 0 1.5910943351306015e-07 0 0 2.1290696188814193e-06 0 0 2.1824217913533783e-06 0 0 2.2367000028312463e-06 0 0 2.2919034032046235e-06 0 0 2.3480296066359611e-06 0 0 2.4050744875020076e-06 0 0 2.4630319484713652e-06 0 0 2.5218936567918401e-06 0 0 2.5816487443010505e-06 0 0 2.6422834660423924e-06 0 0 2.703780811654373e-06 0 0 2.7661200629004492e-06 0 0 2.8292762898124338e-06 0 0 2.8932197769340239e-06 0 0 3.8314289533664836e-09 0 0 1.6434375447371096e-09 0 0 1.7425873039837604e-09 0 0 1.8469765853017341e-09 0 0 1.9568924817653363e-09 0 0 2.0726357804954008e-09 0 0 2.1945215753108078e-09 0 0 2.3228786772257653e-09 0 0 2.4580502773527145e-09 0 0 2.6003952334236268e-09 0 0 2.7502887636128783e-09 0 0 2.9081231626756374e-09 0 0 3.0743085403507544e-09 0 0 3.2492735845106301e-09 0 0 3.4334663473144322e-09 0 0 3.627355056864876e-09 0 0 1.5492526978139588e-09 0 0 4.0461991510612976e-09 0 0 4.2721995263805194e-09 0 0 4.5099876324233919e-09 0 0 4.7601456404906062e-09 0 0 5.0232813089139713e-09 0 0 5.3000289792942999e-09 0 0 5.5910506015045239e-09 0 0 5.8970367859364009e-09 0 0 6.218707885854049e-09 0 0 6.5568151069050053e-09 0 0 6.9121416469799749e-09 0 0 7.2855038649570961e-09 0 0 7.677752478474603e-09 0 0 8.0897737913795627e-09 0 0 8.5224909503501971e-09 0 0 5.7785841957470933e-10 0 0 4.5530083786881277e-11 0 0 7.6049944566897691e-11 0 0 1.068202169561309e-10 0 0 1.3794213635442919e-10 0 0 1.6951799658796216e-10 0 0 2.0165142764644072e-10 0 0 2.3444746169357818e-10 0 0 2.6801281596683715e-10 0 0 3.0245628503098148e-10 0 0 3.3788902914926421e-10 0 0 3.7442486818040843e-10 0 0 4.1218057956055535e-10 0 0 4.5127620245999848e-10 0 0 4.9183534807270463e-10 0 0 5.3398551626854962e-10 0 0 8.9768652317057088e-09 0 0 6.2359031628211917e-10 0 0 6.7132234921149219e-10 0 0 7.2120089614441379e-10 0 0 7.7337792862199956e-10 0 0 8.2801138025017267e-10 0 0 8.8526552706488911e-10 0 0 9.4531137763146392e-10 0 0 1.0083270764491463e-09 0 0 1.0744983185291375e-09 0 0 1.144018777762138e-09 0 0 1.2170905480498344e-09 0 0 1.293924600227527e-09 0 0 1.3747412513569759e-09 0 0 1.459770651926939e-09 0 0 8.4796793038026967e-08 0 0 4.324934805444578e-08 0 0 4.5294704690555265e-08 0 0 4.7427973803786119e-08 0 0 4.965244726042701e-08 0 0 5.1971515575770062e-08 0 0 5.4388669435811993e-08 0 0 5.6907499693495889e-08 0 0 5.9531699126282455e-08 0 0 6.2265064740192092e-08 0 0 6.5111499285372378e-08 0 0 6.8075012730769625e-08 0 0 7.1159723688933253e-08 0 0 7.4369860793699563e-08 0 0 7.7709764023695128e-08 0 0 8.1183885968646418e-08 0 0 4.1288708092361908e-08 0 0 8.8553166605030955e-08 0 0 9.2457804085515676e-08 0 0 9.6515619948681556e-08 0 0 1.0073164665389264e-07 0 0 1.0511103551485814e-07 0 0 1.0965905748373799e-07 0 0 1.1438110385685239e-07 0 0 1.1928268689539551e-07 0 0 1.2436944036180719e-07 0 0 1.2964711996679796e-07 0 0 1.3512160372740177e-07 0 0 1.4079889223138499e-07 0 0 1.4668510880750598e-07 0 0 1.5278649960002336e-07 0 0 2.0145913207536118e-08 0 0 9.4538973558590024e-09 0 0 9.9546288331508326e-09 0 0 1.0480143336449338e-08 0 0 1.1031568103864084e-08 0 0 1.1610075369321916e-08 0 0 1.2216883821103223e-08 0 0 1.2853260087877001e-08 0 0 1.352052025108122e-08 0 0 1.4220031385248787e-08 0 0 1.4953213121329363e-08 0 0 1.5721539237576955e-08 0 0 1.6526539272076623e-08 0 0 1.7369800159512012e-08 0 0 1.8252967889945338e-08 0 0 1.9177749187097863e-08 0 0 1.5160076383590263e-11 0 0 2.1159293257854543e-08 0 0 2.2219788527758997e-08 0 0 2.3329365839723685e-08 0 0 2.4490061411623918e-08 0 0 2.5703982631183287e-08 0 0 2.6973309841405103e-08 0 0 2.8300298133725251e-08 0 0 2.9687279147486349e-08 0 0 3.1136662873939678e-08 0 0 3.2650939462201642e-08 0 0 3.4232681024900023e-08 0 0 3.5884543440914798e-08 0 0 3.760926815374085e-08 0 0 3.9409683961852851e-08 
</DataArray>
<DataArray type="Float64" Name="water_content" format="ascii">
0.21426558744547719 0.20962522483692159 0.20986208478660745 0.2101078105514356 0.21036271040845078 0.2106271034460597 0.21090132002391754 0.21118570226087671 0.211480604551781 0.21178639411325356 0.21210345156211746 0.21243217152843896 0.21277296330561429 0.21312625154010356 0.21349247696361656 0.21387209717077052 0.20939693280084754 0.21467344163957114 0.21509617310746965 0.21553431570095694 0.21598842482851469 0.2164590785839795 0.21694687894969816 0.21745245307977668 0.21797645466948412 0.2185195654173776 0.21908249658726764 0.21966599067774514 0.2202708232076509 0.22089780462658656 0.22154778236035128 0.22222164300204655 0.20682560636707648 0.20538765869248043 0.2054588984270932 0.20553311880811242 0.20561043181411165 0.20569095314014343 0.20577480231059764 0.20586210279611544 0.20595298213475968 0.20604757205755314 0.20614600861871801 0.20624843233088436 0.20635498830556043 0.20646582639917693 0.20658110136504018 0.20670097301155169 0.22292031466052786 0.2069551718518689 0.20708984545749218 0.2072298089341994 0.20737524998677376 0.20752636247936168 0.20768334664986809 0.20784640933452347 0.20801576420327178 0.20819163200667612 0.20837424083508496 0.20856382639085363 0.20876063227447159 0.20896491028550412 0.2091769207393217 0.32251499420799268 0.26759211349721457 0.27016419139723324 0.27285552388962642 0.27567300922639637 0.27862400792327996 0.2817163677519211 0.28495844670397208 0.28835913240705613 0.29192785590677028 0.29567459697140241 0.29960987706152442 0.30374473474553348 0.30809067651224897 0.31265959346287886 0.31746363101800101 0.26513282827894674 0.32782566482470704 0.33340699793690548 0.33926915281467074 0.34542029519501677 0.3518654806130308 0.35860508583378903 0.36563258450566122 0.37293133642674037 0.38046981163403415 0.38819412567542144 0.39601537727773606 0.40378496027745586 0.41123216622618697 0.41741542189163383 0.23843914048849912 0.22364476947890644 0.22439602633692082 0.22517515375221864 0.22598327299691875 0.22682156144727703 0.22769125618585723 0.22859365787733099 0.2295301349408965 0.23050212804433406 0.2315111549469078 0.23255881572068748 0.23364679838240821 0.23477688497070545 0.23595095810646 0.23717100807704838 0.20531929123302967 0.23975758453287344 0.24112870192157065 0.2425549965386245 0.24403912487131241 0.24558390727839141 0.2471923401588009 0.24886760908546859 0.25061310296953554 0.25243242931940124 0.25432943065579433 0.25630820213772487 0.2583731104434861 0.26052881393427629 0.26278028410343485 0.20385526666635273 0.20383909701983599 0.20383980135124366 0.20384054767832246 0.20384133822355144 0.20384217533075061 0.20384306147113324 0.20384399924911162 0.20384499140786749 0.20384604083570815 0.20384715057270691 0.2038483238176384 0.2038495639352173 0.20385087446365163 0.2038522591225205 0.20385372182098621 0.20383843257766851 0.20385689797298046 0.2038586202715692 0.20386043831882103 0.20386235710749373 0.20386438187685862 0.20386651812357351 0.20386877161298389 0.20387114839086515 0.20387365479561864 0.20387629747093497 0.20387908337893712 0.20388201981381834 0.20388511441598736 0.20388837518673539 0.20389181050343919 0.20383212207975165 0.20383021496527198 0.20383024590420817 0.2038302894836144 0.20383034582770049 0.20383041510264283 0.20383049751712315 0.20383059332289377 0.2038307028153713 0.20383082633443567 0.20383096426534797 0.20383111703978815 0.20383128513701521 0.20383146908515176 0.20383166946259565 0.20383188689956097 0.20389542913531428 0.20383237574217089 0.20383264868306927 0.20383294175803579 0.20383325588423518 0.20383359204279602 0.20383395128135359 0.20383433471675202 0.20383474353791123 0.20383517900886269 0.20383564247196007 0.20383613535127021 0.2038366591561499 0.20383721548501499 0.20383780602930759 0.20457465500710628 0.20418841546966116 0.20420677721931679 0.20422601006003116 0.20424615181376948 0.20426724176051511 0.20428932068651068 0.20431243093302814 0.2043366164457574 0.2043619228261852 0.20438839738428233 0.20441608919254722 0.20444504914144129 0.20447532999625329 0.20450698645543225 0.2045400752104311 0.20417088840075232 0.20461078670872129 0.20464853336060534 0.20468796025652258 0.20472913500681086 0.20477212760835251 0.20481701051644588 0.20486385871864951 0.20491274981067728 0.20496376407442829 0.20501698455824102 0.20507249715946846 0.20513039070947781 0.20519075706118561 0.20525369117924752 0.20398720917414309 0.20389924025973294 0.20390325347912158 0.20390747883845248 0.20391192684334442 0.20391660847878798 0.2039215352285102 0.20392671909499427 0.20393217262016955 0.2039379089067877 0.20394394164050053 0.20395028511265562 0.20395695424382529 0.2039639646080853 0.20397133245805948 0.20397907475074617 0.20383019658422646 0.20399575417468768 0.20400472898552835 0.20401415365564451 0.20402404907983185 0.20403443702957003 0.2040453401847897 0.20405678216655729 0.20406878757069413 0.2040813820023486 0.20409459211153969 0.20410844562968994 0.20412297140716751 0.20413819945185638 0.20415416096877481 
</DataArray>
<DataArray type="Float64" Name="conductivity_richards" format="ascii">