<?xml version="1.0"?>
<VTKFile type="UnstructuredGrid" version="0.1" byte_order="LittleEndian">
<UnstructuredGrid>
<Piece NumberOfPoints="251" NumberOfCells="250">
<Points>
<DataArray type="Float64" NumberOfComponents="3" format="ascii">
0 0 -0.25 0 0 -0.24899999999999739 0 0 -0.2479999999999947 0 0 -0.24699999999999209 0 0 -0.24599999999998939 0 0 -0.24499999999998681 0 0 -0.24299999999998159 0 0 -0.2439999999999842 0 0 -0.23499999999996049 0 0 -0.2359999999999631 0 0 -0.23699999999996571 0 0 -0.2379999999999684 0 0 -0.23899999999997101 0 0 -0.2399999999999736 0 0 -0.24099999999997629 0 0 -0.2419999999999789 0 0 -0.22699999999993939 0 0 -0.227999999999942 0 0 -0.22899999999994469 0 0 -0.2299999999999473 0 0 -0.23099999999994991 0 0 -0.23199999999995249 0 0 -0.23299999999995519 0 0 -0.2339999999999578 0 0 -0.22499999999993411 0 0 -0.2259999999999367 0 0 -0.22399999999993139 0 0 -0.22299999999992881 0 0 -0.2219999999999262 0 0 -0.22099999999992359 0 0 -0.2199999999999209 0 0 -0.21899999999991829 0 0 -0.21799999999991571 0 0 -0.21699999999991301 0 0 -0.21499999999990771 0 0 -0.2159999999999104 0 0 -0.21299999999990249 0 0 -0.2139999999999051 0 0 -0.21199999999989991 0 0 -0.21099999999989719 0 0 -0.2099999999998946 0 0 -0.20899999999989191 0 0 -0.2079999999998893 0 0 -0.20399999999987881 0 0 -0.20499999999988139 0 0 -0.205999999999884 0 0 -0.20699999999988669 0 0 -0.18899999999983921 0 0 -0.1879999999998366 0 0 -0.19099999999984449 0 0 -0.18999999999984191 0 0 -0.19299999999984971 0 0 -0.1919999999998471 0 0 -0.19499999999985501 0 0 -0.1939999999998524 0 0 -0.19699999999986029 0 0 -0.1959999999998577 0 0 -0.19899999999986559 0 0 -0.19799999999986301 0 0 -0.20099999999987081 0 0 -0.1999999999998682 0 0 -0.20299999999987611 0 0 -0.2019999999998735 0 0 -0.13099999999968631 0 0 -0.13199999999968889 0 0 -0.1299999999996837 0 0 -0.12899999999968109 0 0 -0.1279999999996784 0 0 -0.12699999999967579 0 0 -0.12599999999967451 0 0 -0.13999999999971011 0 0 -0.13899999999970741 0 0 -0.1379999999997048 0 0 -0.13699999999970211 0 0 -0.1359999999996995 0 0 -0.13499999999969689 0 0 -0.13299999999969159 0 0 -0.1339999999996942 0 0 -0.14699999999972849 0 0 -0.1479999999997311 0 0 -0.14599999999972579 0 0 -0.14499999999972321 0 0 -0.1439999999997206 0 0 -0.14299999999971799 0 0 -0.1419999999997153 0 0 -0.14099999999971269 0 0 -0.1559999999997522 0 0 -0.15499999999974959 0 0 -0.15399999999974701 0 0 -0.15299999999974431 0 0 -0.1519999999997417 0 0 -0.15099999999973901 0 0 -0.14899999999973379 0 0 -0.1499999999997364 0 0 -0.16299999999977069 0 0 -0.1639999999997733 0 0 -0.161999999999768 0 0 -0.16099999999976539 0 0 -0.1599999999997628 0 0 -0.15899999999976011 0 0 -0.1579999999997575 0 0 -0.15699999999975489 0 0 -0.17099999999979171 0 0 -0.1699999999997891 0 0 -0.16899999999978649 0 0 -0.16799999999978391 0 0 -0.16699999999978121 0 0 -0.16499999999977599 0 0 -0.1659999999997786 0 0 -0.1779999999998102 0 0 -0.17899999999981281 0 0 -0.17699999999980759 0 0 -0.17599999999980501 0 0 -0.17499999999980231 0 0 -0.1739999999997997 0 0 -0.17299999999979701 0 0 -0.1719999999997944 0 0 -0.18699999999983391 0 0 -0.1859999999998313 0 0 -0.18499999999982869 0 0 -0.183999999999826 0 0 -0.18299999999982339 0 0 -0.18199999999982069 0 0 -0.1799999999998155 0 0 -0.18099999999981811 0 0 -0.068999999999833792 0 0 -0.069999999999830878 0 0 -0.067999999999836705 0 0 -0.066999999999839618 0 0 -0.065999999999842532 0 0 -0.064999999999845445 0 0 -0.063999999999848373 0 0 -0.062999999999851286 0 0 -0.077999999999807557 0 0 -0.07699999999981047 0 0 -0.075999999999813383 0 0 -0.074999999999816297 0 0 -0.07399999999981921 0 0 -0.072999999999822124 0 0 -0.070999999999827965 0 0 -0.071999999999825051 0 0 -0.083999999999790062 0 0 -0.084999999999787149 0 0 -0.082999999999792975 0 0 -0.081999999999795889 0 0 -0.080999999999798802 0 0 -0.07999999999980173 0 0 -0.078999999999804643 0 0 -0.092999999999763827 0 0 -0.091999999999766741 0 0 -0.090999999999769654 0 0 -0.089999999999772567 0 0 -0.088999999999775481 0 0 -0.087999999999778394 0 0 -0.085999999999784235 0 0 -0.086999999999781322 0 0 -0.099999999999743419 0 0 -0.10099999999974051 0 0 -0.098999999999746333 0 0 -0.097999999999749246 0 0 -0.096999999999752159 0 0 -0.095999999999755073 0 0 -0.094999999999758 0 0 -0.093999999999760914 0 0 -0.1089999999997172 0 0 -0.1079999999997201 0 0 -0.106999999999723 0 0 -0.1059999999997259 0 0 -0.1049999999997288 0 0 -0.10399999999973179 0 0 -0.10199999999973761 0 0 -0.10299999999973471 0 0 -0.1159999999996968 0 0 -0.11699999999969379 0 0 -0.1149999999996997 0 0 -0.1139999999997026 0 0 -0.1129999999997055 0 0 -0.1119999999997084 0 0 -0.1109999999997113 0 0 -0.1099999999997143 0 0 -0.12499999999967321 0 0 -0.1239999999996748 0 0 -0.1229999999996764 0 0 -0.1219999999996793 0 0 -0.1209999999996822 0 0 -0.11999999999968509 0 0 -0.11799999999969089 0 0 -0.11899999999968799 0 0 -0.047999999999895078 0 0 -0.046999999999897998 0 0 -0.049999999999889237 0 0 -0.048999999999892158 0 0 -0.051999999999883403 0 0 -0.050999999999886317 0 0 -0.053999999999877563 0 0 -0.052999999999880483 0 0 -0.055999999999871722 0 0 -0.054999999999874642 0 0 -0.057999999999865881 0 0 -0.056999999999868801 0 0 -0.059999999999860047 0 0 -0.058999999999862961 0 0 -0.061999999999854213 0 0 -0.060999999999857127 0 0 -0.042999999999909673 0 0 -0.043999999999906753 0 0 -0.044999999999903832 0 0 -0.045999999999900919 0 0 -0.041999999999912593 0 0 -0.040999999999915507 0 0 -0.039999999999918427 0 0 -0.038999999999921348 0 0 -0.037999999999924268 0 0 -0.035999999999930102 0 0 -0.036999999999927188 0 0 -0.033999999999935943 0 0 -0.034999999999933022 0 0 -0.032999999999938787 0 0 -0.031999999999941367 0 0 -0.03099999999994377 0 0 -0.02999999999994565 0 0 -0.028999999999947419 0 0 -0.027999999999948951 0 0 -0.02699999999995048 0 0 -0.02599999999995202 0 0 -0.023999999999955082 0 0 -0.024999999999953549 0 0 -0.01599999999996761 0 0 -0.0169999999999659 0 0 -0.01799999999996427 0 0 -0.018999999999962731 0 0 -0.019999999999961209 0 0 -0.020999999999959669 0 0 -0.02199999999995814 0 0 -0.022999999999956611 0 0 -0.007999999999984719 0 0 -0.008999999999982581 0 0 -0.0099999999999804221 0 0 -0.010999999999978201 0 0 -0.011999999999975971 0 0 -0.01299999999997375 0 0 -0.01399999999997158 0 0 -0.014999999999969531 0 0 -0.0059999999999886811 0 0 -0.0069999999999867156 0 0 -0.004999999999990571 0 0 -0.0039999999999924488 0 0 -0.0029999999999943271 0 0 -0.001999999999996204 0 0 -0.00099999999999810158 0 0 0 
</DataArray>
</Points>
<Cells>
<DataArray type="UInt32" Name="connectivity" format="ascii">
1 0 2 1 3 2 4 3 5 4 7 5 15 6 6 7 23 8 8 9 9 10 10 11 11 12 12 13 13 14 14 15 16 17 17 18 18 19 19 20 20 21 21 22 22 23 24 25 25 16 26 24 27 26 28 27 29 28 30 29 31 30 32 31 33 32 34 35 35 33 36 37 37 34 38 36 39 38 40 39 41 40 42 41 46 42 61 43 43 44 44 45 45 46 48 47 50 49 47 50 52 51 49 52 54 53 51 54 56 55 53 56 58 57 55 58 60 59 57 60 62 61 59 62 63 64 64 76 65 63 66 65 67 66 68 67 69 68 180 69 70 85 71 70 72 71 73 72 74 73 75 74 76 77 77 75 80 78 78 79 81 80 82 81 83 82 84 83 85 84 87 86 88 87 89 88 90 89 91 90 93 91 79 92 92 93 96 94 94 95 97 96 98 97 99 98 100 99 101 100 86 101 102 116 103 102 104 103 105 104 106 105 108 106 95 107 107 108 109 110 110 123 111 109 112 111 113 112 114 113 115 114 116 115 117 48 118 117 119 118 120 119 121 120 122 121 123 124 124 122 127 125 125 126 128 127 129 128 130 129 131 130 132 131 134 133 135 134 136 135 137 136 138 137 140 138 126 139 139 140 141 142 142 154 143 141 144 143 145 144 146 145 147 146 133 147 148 163 149 148 150 149 151 150 152 151 153 152 154 155 155 153 156 157 157 170 158 156 159 158 160 159 161 160 162 161 163 162 165 164 166 165 167 166 168 167 169 168 170 171 171 169 174 172 172 173 175 174 176 175 177 176 178 177 179 178 164 179 181 180 182 181 183 182 184 183 185 184 187 185 173 186 186 187 188 191 189 188 190 193 191 190 192 195 193 192 194 197 195 194 196 199 197 196 198 201 199 198 200 203 201 200 202 132 203 202 204 205 205 206 206 207 207 189 208 204 209 208 210 209 211 210 212 211 214 212 216 213 213 214 217 215 215 216 218 217 219 218 220 219 221 220 222 221 223 222 224 223 226 224 234 225 225 226 227 228 228 229 229 230 230 231 231 232 232 233 233 234 235 236 236 237 237 238 238 239 239 240 240 241 241 242 242 227 243 244 244 235 245 243 246 245 247 246 248 247 249 248 250 249 
</DataArray>
<DataArray type="UInt32" Name="offsets" format="ascii">
2 4 6 8 10 12 14 16 18 20 22 24 26 28 30 32 34 36 38 40 42 44 46 48 50 52 54 56 58 60 62 64 66 68 70 72 74 76 78 80 82 84 86 88 90 92 94 96 98 100 102 104 106 108 110 112 114 116 118 120 122 124 126 128 130 132 134 136 138 140 142 144 146 148 150 152 154 156 158 160 162 164 166 168 170 172 174 176 178 180 182 184 186 188 190 192 194 196 198 200 202 204 206 208 210 212 214 216 218 220 222 224 226 228 230 232 234 236 238 240 242 244 246 248 250 252 254 256 258 260 262 264 266 268 270 272 274 276 278 280 282 284 286 288 290 292 294 296 298 300 302 304 306 308 310 312 314 316 318 320 322 324 326 328 330 332 334 336 338 340 342 344 346 348 350 352 354 356 358 360 362 364 366 368 370 372 374 376 378 380 382 384 386 388 390 392 394 396 398 400 402 404 406 408 410 412 414 416 418 420 422 424 426 428 430 432 434 436 438 440 442 444 446 448 450 452 454 456 458 460 462 464 466 468 470 472 474 476 478 480 482 484 486 488 490 492 494 496 498 500 
</DataArray>
<DataArray type="UInt32" Name="types" format="ascii">
3 3 3 3 3 3 3 3 3 3 3 3 3 3 3 3 3 3 3 3 3 3 3 3 3 3 3 3 3 3 3 3 3 3 3 3 3 3 3 3 3 3 3 3 3 3 3 3 3 3 3 3 3 3 3 3 3 3 3 3 3 3 3 3 3 3 3 3 3 3 3 3 3 3 3 3 3 3 3 3 3 3 3 3 3 3 3 3 3 3 3 3 3 3 3 3 3 3 3 3 3 3 3 3 3 3 3 3 3 3 3 3 3 3 3 3 3 3 3 3 3 3 3 3 3 3 3 3 3 3 3 3 3 3 3 3 3 3 3 3 3 3 3 3 3 3 3 3 3 3 3 3 3 3 3 3 3 3 3 3 3 3 3 3 3 3 3 3 3 3 3 3 3 3 3 3 3 3 3 3 3 3 3 3 3 3 3 3 3 3 3 3 3 3 3 3 3 3 3 3 3 3 3 3 3 3 3 3 3 3 3 3 3 3 3 3 3 3 3 3 3 3 3 3 3 3 3 3 3 3 3 3 3 3 3 3 3 3 3 3 3 3 3 3 3 3 3 3 3 3 
</DataArray>
</Cells>
<CellData Scalars="pressure_p0,water_content,conductivity_richards," Vectors="velocity_p0," Tensors="">
<DataArray type="Float64" Name="pressure_p0" format="ascii">
-7.0252297711658915 -21.251923812400442 -35.871345995099695 -50.946611254006626 -66.517619844833092 -82.61512053314101 -116.48608781520383 -99.264238032838676 -276.5734816267593 -254.30217817076283 -232.69048262090166 -211.73334954361502 -191.42434316843421 -171.75553972564327 -152.71740927562513 -134.29866806196299 -451.10805590602348 -424.17960334927511 -397.91313681021165 -372.31143623113348 -347.37632716254473 -323.1086345495911 -299.50813176397639 -506.93530884245001 -478.69480773131897 -535.82419038392686 -565.35530592278724 -595.52176972679433 -626.3159962470969 -657.72973767575922 -689.75412043340248 -722.37968063582014 -755.59639857709089 -823.76064998551453 -789.39373225836516 -894.15685153962522 -858.68566205442107 -930.16190419993632 -966.6881375131569 -1003.7225288511898 -1041.2517428063074 -1079.2621576790941 -1117.7398911385567 -1276.0386108300108 -1235.834786320584 -1196.0406295866728 -1156.6708250650336 -1917.994733506034 -1829.1094830055699 -1873.4608633979196 -1741.0141794596254 -1784.9555678573622 -1653.8295776245404 -1697.300451614381 -1567.6773873250536 -1610.6167983276337 -1482.6798398189001 -1525.0266363209466 -1398.9592059074685 -1440.6522791626953 -1316.6372743091724 -1357.61582450778 -4356.6670470246609 -4320.4549534714879 -4392.5323900968451 -4428.0483645361037 -4463.2125367276394 -4498.0226559588482 -4532.4766510784521 -4566.5726254375986 -4018.653074179515 -4057.5216177766583 -4096.0714121455885 -4134.2982425557293 -4172.1981036899406 -4209.7671980833711 -4283.8989162422058 -4247.0019331930653 -3779.0112528298682 -3738.0476881464701 -3819.6916770027638 -3860.0832021860815 -3900.1802994559566 -3939.977663577542 -3979.4702089485027 -3400.9138393924568 -3443.9072583847296 -3486.6720282727429 -3529.2005039984087 -3571.4852817198989 -3613.5191968778622 -3696.8069712588685 -3655.2953229087052 -3094.2508220921923 -3049.732553268494 -3138.6103458387483 -3182.8015347734067 -3226.8150420837978 -3270.6417644541207 -3314.2728423033159 -3357.6996581059993 -2689.1017430974753 -2734.5159331054238 -2779.8567059692805 -2825.112574891622 -2870.2722819680366 -2915.3248030662053 -3005.0653713854117 -2960.2593501519368 -2370.1584362896169 -2324.596924856352 -2415.7462853763336 -2461.3472786419015 -2506.9484224443841 -2552.5369228103909 -2598.1001903934948 -2643.6258498655457 -1962.6962147212257 -2007.5505373022393 -2052.5430492531364 -2097.6592263154371 -2142.8846831434626 -2188.2051814780721 -2279.07513573506 -2233.6066386506254 -5921.5654579845668 -5906.9816366936229 -5935.8658643794124 -5949.8855390661138 -5963.6271616645363 -5977.0934087110127 -5990.2869518409807 -5779.78688776119 -5796.7342646401594 -5813.3769122149979 -5829.7174607605557 -5845.7585550814883 -5861.5028512839654 -5892.1117168290075 -5876.9530146168836 -5652.4058735960443 -5632.9284132204612 -5671.5583450637596 -5690.3882614665526 -5708.8980910350529 -5727.0903313752187 -5744.9675069638361 -5762.5321675599789 -5465.1301230805093 -5487.2902608344211 -5509.107451052736 -5530.583765889347 -5551.7213301302454 -5572.5223229982503 -5613.123565827088 -5592.9889753353264 -5300.2454884480694 -5275.2747489135345 -5324.8590393298127 -5349.1169260326033 -5373.0207512130837 -5396.5721947501697 -5419.7730106221188 -5442.6250235217012 -5090.368357911937 -5117.8747679179123 -5145.0158103308795 -5171.7923634402496 -5198.2054070177574 -5249.9453787359216 -5224.2560205377486 -4887.542455404614 -4857.0948886816132 -4917.621721189018 -4947.3326224374778 -4976.6752293658501 -5005.6497347300592 -5034.2564502982168 -5062.4958076915473 -4600.3088543150589 -4633.6837814812643 -4666.6960157402409 -4699.3443274527253 -4731.6276450438581 -4763.5450514983213 -4826.2792180459164 -4795.0957808460516 -6157.243327419048 -6166.4253929062634 -6138.1804322536482 -6147.8291264192712 -6118.1699896659138 -6128.2948587696901 -6097.1925590650244 -6107.8033797451762 -6075.2282827205563 -6086.3350328244396 -6052.256928598169 -6063.8697683418332 -6028.2579341052988 -6040.3871831883489 -6003.210453661135 -6015.866567179517 -6200.8783294197028 -6192.6018729404605 -6184.1023891323057 -6175.3776494230242 -6208.9339495216536 -6216.7708876757451 -6224.3912608026994 -6231.7971473588186 -6238.9905864105585 -6245.973576738912 -6259.3159997533585 -6252.7480759731325 -6271.8395687407938 -6265.6792209216183 -6277.7988281410953 -6283.5587389935545 -6289.1209954101378 -6294.4872450700332 -6299.6590885716723 -6304.6380788100905 -6309.4257203791858 -6314.0234689985155 -6322.6548626236217 -6318.4327309642067 -6347.07335470617 -6344.1274538464531 -6341.0024792398353 -6337.6974369693289 -6334.2112796259444 -6330.5429076804921 -6326.6911698733948 -6364.2954203194322 -6362.7527925283557 -6361.0370972541114 -6359.1477753030595 -6357.0842144729177 -6354.8457453704086 -6352.4316416384718 -6349.8411223974626 -6366.86343403513 -6365.6654844315744 -6367.8896616700731 -6368.7445031155712 -6369.4282391259621 -6369.9410944146457 -6370.283237580039 -6370.4547810500981 
</DataArray>
<DataArray type="Float64" Name="velocity_p0" NumberOfComponents="3" format="ascii">
0 0 2.4716153179091753e-06 0 0 2.4716642094186804e-06 0 0 2.4708525476718431e-06 0 0 2.4689674119807126e-06 0 0 2.4659427524805434e-06 0 0 2.461762280181882e-06 0 0 2.4499963491780625e-06 0 0 2.4564373087662054e-06 0 0 2.3640129956357774e-06 0 0 2.3776130936116576e-06 0 0 2.3905061961135205e-06 0 0 2.4026392480701247e-06 0 0 2.4139579666554365e-06 0 0 2.4244072747840382e-06 0 0 2.4339322506789884e-06 0 0 2.4424790484654702e-06 0 0 2.2530737180895054e-06 0 0 2.2703005848086697e-06 0 0 2.2871356643359412e-06 0 0 2.3035406061151175e-06 0 0 2.3194750391527405e-06 0 0 2.3348956215916283e-06 0 0 2.3497573020533248e-06 0 0 2.2175869395327116e-06 0 0 2.2354912103632599e-06 0 0 2.1993931077897398e-06 0 0 2.1809395540895228e-06 0 0 2.1622543597496536e-06 0 0 2.1433638127918074e-06 0 0 2.1242925017473981e-06 0 0 2.1050634087624429e-06 0 0 2.0856980009300072e-06 0 0 2.0662163190633918e-06 0 0 2.0269776755056167e-06 0 0 2.0466370633496178e-06 0 0 1.9874824445595435e-06 0 0 2.0072544171921854e-06 0 0 1.967675878875172e-06 0 0 1.9478478732533418e-06 0 0 1.928010675552323e-06 0 0 1.9081756875426646e-06 0 0 1.8883535204731428e-06 0 0 1.8685540471808947e-06 0 0 1.7897573510257841e-06 0 0 1.8093804454003578e-06 0 0 1.8290592709464219e-06 0 0 1.8487864509021813e-06 0 0 1.5057703102259521e-06 0 0 1.5422661458250755e-06 0 0 1.5239585720818679e-06 0 0 1.5792298288718182e-06 0 0 1.5606907451173055e-06 0 0 1.6166406545959497e-06 0 0 1.597880795147253e-06 0 0 1.6544740470773724e-06 0 0 1.6355062219926204e-06 0 0 1.6927012316935614e-06 0 0 1.6735403960462554e-06 0 0 1.7312885678173724e-06 0 0 1.7119521921081668e-06 0 0 1.7701968405159421e-06 0 0 1.7507052772666125e-06 0 0 6.8834207044807204e-07 0 0 6.9903747543991026e-07 0 0 6.7776638182245291e-07 0 0 6.6730966749826456e-07 0 0 6.5697114719058344e-07 0 0 6.4675012910822078e-07 0 0 6.3664582048446129e-07 0 0 6.2665745436247515e-07 0 0 7.8899719404999461e-07 0 0 7.7731823634538682e-07 0 0 7.6576465666712892e-07 0 0 7.543357773077349e-07 0 0 7.4303088540227292e-07 0 0 7.3184933654278565e-07 0 0 7.0985333198952674e-07 0 0 7.2079040044223924e-07 0 0 8.617405234416905e-07 0 0 8.7431521318802084e-07 0 0 8.4929565118474198e-07 0 0 8.369799988712157e-07 0 0 8.2479303116796912e-07 0 0 8.1273397370913859e-07 0 0 8.0080219766121134e-07 0 0 9.79652836344034e-07 0 0 9.6601994377268354e-07 0 0 9.5252107588913948e-07 0 0 9.3915577111887336e-07 0 0 9.2592356544324168e-07 0 0 9.1282392152290459e-07 0 0 8.870203040023339e-07 0 0 8.9985633769077799e-07 0 0 1.0788697443877591e-06 0 0 1.0935885681800411e-06 0 0 1.0642877418899146e-06 0 0 1.0498423125824828e-06 0 0 1.0355331732868206e-06 0 0 1.0213600181700384e-06 0 0 1.0073225047412948e-06 0 0 9.9342019355558159e-07 0 0 1.2162821334906057e-06 0 0 1.2004644206659253e-06 0 0 1.1847840775599081e-06 0 0 1.1692411995479895e-06 0 0 1.153835770872132e-06 0 0 1.1385679017651282e-06 0 0 1.1084444269433815e-06 0 0 1.1234374802866577e-06 0 0 1.3308316323918902e-06 0 0 1.3477373309127364e-06 0 0 1.3140601904471106e-06 0 0 1.2974236637531343e-06 0 0 1.2809227819409607e-06 0 0 1.2645577195529645e-06 0 0 1.2483290482328086e-06 0 0 1.2322370646721624e-06 0 0 1.4877034569253647e-06 0 0 1.4697599865065573e-06 0 0 1.4519415416530152e-06 0 0 1.4342497748384244e-06 0 0 1.4166861378175642e-06 0 0 1.3992519458814428e-06 0 0 1.3647765347184799e-06 0 0 1.3819483864680999e-06 0 0 2.2201519122618927e-07 0 0 2.2678943818065774e-07 0 0 2.1730640490853292e-07 0 0 2.1266214470594137e-07 0 0 2.0808143894841204e-07 0 0 2.0356342245902434e-07 0 0 1.9910712116679347e-07 0 0 2.6745172547479853e-07 0 0 2.6212031445006185e-07 0 0 2.5686179026333028e-07 0 0 2.5167522987045531e-07 0 0 2.4655972462066901e-07 0 0 2.4151431641752719e-07 0 0 2.3163007899401644e-07 0 0 2.3653809358172051e-07 0 0 3.0688963101269623e-07 0 0 3.1283716380952068e-07 0 0 3.0102230783067609e-07 0 0 2.952342852834509e-07 0 0 2.8952469150462997e-07 0 0 2.8389253569213579e-07 0 0 2.7833694229459034e-07 0 0 2.7285694476874937e-07 0 0 3.6341334495404773e-07 0 0 3.5679165491718943e-07 0 0 3.5025737245290652e-07 0 0 3.4380960542648617e-07 0 0 3.3744738413353605e-07 0 0 3.3116996259237608e-07 0 0 3.1886581325261821e-07 0 0 3.2497636671406914e-07 0 0 4.1228700258303742e-07 0 0 4.1963978200720568e-07 0 0 4.0502868027454932e-07 0 0 3.9786394290594567e-07 0 0 3.9079187926751451e-07 0 0 3.8381168455387121e-07 0 0 3.7692244234220886e-07 0 0 3.7012333238304418e-07 0 0 4.7382677130310485e-07 0 0 4.6578860967040823e-07 0 0 4.5785093001462749e-07 0 0 4.5001288068809342e-07 0 0 4.422735801367817e-07 0 0 4.2708788798128048e-07 0 0 4.3463222408775541e-07 0 0 5.3297822505999208e-07 0 0 5.4185049948498603e-07 0 0 5.2421312325419253e-07 0 0 5.1555437049879341e-07 0 0 5.0700127468539687e-07 0 0 4.9855273403797327e-07 0 0 4.902080490662895e-07 0 0 4.8196626335015867e-07 0 0 6.1678425813719851e-07 0 0 6.0702545375863233e-07 0 0 5.9738025792359546e-07 0 0 5.8784788225558622e-07 0 0 5.7842753347570839e-07 0 0 5.6911841356250533e-07 0 0 5.5083076614924169e-07 0 0 5.5991971990373554e-07 0 0 1.3902728104740635e-07 0 0 1.3542999745824607e-07 0 0 1.4636251459949758e-07 0 0 1.4267113592801632e-07 0 0 1.5389160706112911e-07 0 0 1.5010232595205907e-07 0 0 1.6162225071477283e-07 0 0 1.5773126541628314e-07 0 0 1.6956199701492131e-07 0 0 1.6556551187660016e-07 0 0 1.7771842744122528e-07 0 0 1.7361265340278976e-07 0 0 1.8609910951412793e-07 0 0 1.8188026462617452e-07 0 0 1.9471159572907979e-07 0 0 1.9037590568971718e-07 0 0 1.2148744148467725e-07 0 0 1.2490797702400215e-07 0 0 1.2837126786305121e-07 0 0 1.3187833203394577e-07 0 0 1.1810870587833026e-07 0 0 1.1477081434262374e-07 0 0 1.1147281054405152e-07 0 0 1.0821373770245765e-07 0 0 1.0499263861339413e-07 0 0 1.0180855567047521e-07 0 0 9.5547605918702112e-08 0 0 9.8660530887355555e-08 0 0 8.9423220366670872e-08 0 0 9.2468822079731577e-08 0 0 8.6409841474979585e-08 0 0 8.3427725817328606e-08 0 0 8.0475913541310872e-08 0 0 7.7553444546022798e-08 0 0 7.4659358497933647e-08 0 0 7.1792694846232278e-08 0 0 6.895249283735764e-08 0 0 6.6137791529111031e-08 0 0 6.0581046380737763e-08 0 0 6.3347629803737662e-08 0 0 4.1794363714427786e-08 0 0 4.442282617626629e-08 0 0 4.7068134352792284e-08 0 0 4.9731250362490341e-08 0 0 5.2413150924574521e-08 0 0 5.5114768576367956e-08 0 0 5.7837079828582167e-08 0 0 2.1257631539619798e-08 0 0 2.3785973034827712e-08 0 0 2.6323460865029467e-08 0 0 2.8871057629585593e-08 0 0 3.1429661760235164e-08 0 0 3.4000364057893389e-08 0 0 3.6584062859386319e-08 0 0 3.9181784765290519e-08 0 0 1.6224563959775631e-08 0 0 1.873747374537735e-08 0 0 1.3717885541821721e-08 0 0 1.1216502751175354e-08 0 0 8.7194528569343343e-09 0 0 6.225773113818619e-09 0 0 3.7345007652798694e-09 0 0 1.2446730472638223e-09 
</DataArray>
<DataArray type="Float64" Name="water_content" format="ascii">
0.41885248054925839 0.41592679536445354 0.41219144869345681 0.40817738335376186 0.40400744978194325 0.39975327305314767 0.39116901307317786 0.39546252041823571 0.35871901009228546 0.36250838143839892 0.36638379730006176 0.37034239841270594 0.37438000723694492 0.37849079466388275 0.38266684737402934 0.38689759304919358 0.33466560474660173 0.33783969187536561 0.34109945948461762 0.34444624321367168 0.34788110532825578 0.35140476046774094 0.35501748550551471 0.32856811586123702 0.33157564972026776 0.32564117079100641 0.32279289470589057 0.32002130854161898 0.31732439687234126 0.31470012673481262 0.31214646298283488 0.30966138074711735 0.30724287547896501 0.30259772572873345 0.30488897097676626 0.29819564885580957 0.30036723785108843 0.29608114644447769 0.29402196649337414 0.29201639436870086 0.2900627656887409 0.28815946663125591 0.28630493386882594 0.27934493953315681 0.28101904813105405 0.28273616394666751 0.28449765420170192 0.25859655839117324 0.26095260081059912 0.25976088426207872 0.26342143688088626 0.26217250851201634 0.26600982597445166 0.26470024565525996 0.26872502991504565 0.26735110154771369 0.27157485197748399 0.27013260371520076 0.27456767783578739 0.27305284143250197 0.27771251760362425 0.27612050729674498 0.22082029080853371 0.2211750642251149 0.22047240945544638 0.2201312836713924 0.21979678023960089 0.21946876910575391 0.21914712328242875 0.21883171877291896 0.22427890979644605 0.22386365774078304 0.22345652066232488 0.22305733184219856 0.22266592878377073 0.22228215306445342 0.2215368695724772 0.2219058502061669 0.22695074061601778 0.22742785060174239 0.22648304316932777 0.22602455778404745 0.22557508928375203 0.22513444765673191 0.22470244790373059 0.2316095485726006 0.23104921797915201 0.23050011913818874 0.22996200167784428 0.22943462225048605 0.22891774429782089 0.22791457911018159 0.22841113781560529 0.23586898254482447 0.23652911358329123 0.23522237232059118 0.2345889661427574 0.23396845664685736 0.23336054552839461 0.23276494321507735 0.23218136857506411 0.24233832337346289 0.24155736876437495 0.24079285379477405 0.24004437225994962 0.23931153069926159 0.23859394787961674 0.23720309196291056 0.23789125433610661 0.24830235061266998 0.24923114834708154 0.2473937651380321 0.2465048639513045 0.24563513641892831 0.24478408867943408 0.24395124299736293 0.24313613705300746 0.25745885067512397 0.2563470154514258 0.25526033292376948 0.25419810816229921 0.25315967009873597 0.2521443706194072 0.25018070440541224 0.25115158367225993 0.20820192278685956 0.20830002519114704 0.20810601225946065 0.20801225743972318 0.20792062289888058 0.20783107392166705 0.20774357649539432 0.20916834382419275 0.20905131233327368 0.2089367899378593 0.20882473415174296 0.20871510332320878 0.20860785662731735 0.20840035638589224 0.20850295405163111 0.21006157112046803 0.21020031071916567 0.2099257126163192 0.20979268542237411 0.20966244072095508 0.20953493065921047 0.20941010833048723 0.20928792775006611 0.21142025905542444 0.21125655455981213 0.21109616707882306 0.21093903825010082 0.21078511088287621 0.21063432889881004 0.21034198219198083 0.21048663730776859 0.21266422414535871 0.21285671334135411 0.21247556374081555 0.21229066351448794 0.21210945625066324 0.21193187608153929 0.2117578584554477 0.21158734010859545 0.2143174155540595 0.21409607946426526 0.21387909437209318 0.21366638091675549 0.21345786139781231 0.21305310136529254 0.21325345972078003 0.21599563068864736 0.21625484527360356 0.21574146707445868 0.2154922601403278 0.21524791761061662 0.21500834923401285 0.21477346672985217 0.21454318369971398 0.21852243447443803 0.21821915209257658 0.21792175605885789 0.21763013345126925 0.21734417391765037 0.21706376960182749 0.2165192072247617 0.21678881507238409 0.20665623753722245 0.20659748267575051 0.20677856040939974 0.2067165888266429 0.20690746278143926 0.20684217671891317 0.20704314725614761 0.2069744442226758 0.20718582598169069 0.2071135986994771 0.20733572088152039 0.20725985715077949 0.2074930639098217 0.20741344648356758 0.20765809731501994 0.20757460376508624 0.20637797013456577 0.20643056657683692 0.206484669638206 0.2065403009479484 0.20632685924420419 0.20627721338198463 0.20622901256259335 0.20618223733438124 0.20613686877474754 0.20609288848569196 0.20600902172476879 0.20605027858953023 0.20593050020075657 0.20596910104213473 0.20589320336449199 0.20585719519839893 0.20582246086534642 0.20578898602276163 0.20575675681950972 0.20572575989290368 0.20569598236584069 0.20566741184406243 0.20561384463795479 0.20564003641353623 0.20546278319153882 0.2054809699366327 0.20550027347253391 0.20552070195204344 0.20554226399440348 0.20556496868083024 0.20558882555635172 0.2053566671425637 0.2053661579555969 0.20537671684158898 0.20538834829729238 0.20540105725891603 0.20541484913012137 0.20542972978308499 0.20544570554615552 0.20534087400237558 0.205348240357832 0.20533456493346208 0.20532931046404415 0.20532510835088022 0.2053219567997816 0.20531985446526685 0.20531880045030254 
</DataArray>
<DataArray type="Float64" Name="conductivity_richards" format="ascii">