<?xml version="1.0"?>
<VTKFile type="UnstructuredGrid" version="0.1" byte_order="LittleEndian">
<UnstructuredGrid>
<Piece NumberOfPoints="251" NumberOfCells="250">
<Points>
<DataArray type="Float64" NumberOfComponents="3" format="ascii">
0 0 -0.25 0 0 -0.24899999999999739 0 0 -0.2479999999999947 0 0 -0.24699999999999209 0 0 -0.24599999999998939 0 0 -0.24499999999998681 0 0 -0.24299999999998159 0 0 -0.2439999999999842 0 0 -0.23499999999996049 0 0 -0.2359999999999631 0 0 -0.23699999999996571 0 0 -0.2379999999999684 0 0 -0.23899999999997101 0 0 -0.2399999999999736 0 0 -0.24099999999997629 0 0 -0.2419999999999789 0 0 -0.22699999999993939 0 0 -0.227999999999942 0 0 -0.22899999999994469 0 0 -0.2299999999999473 0 0 -0.23099999999994991 0 0 -0.23199999999995249 0 0 -0.23299999999995519 0 0 -0.2339999999999578 0 0 -0.22499999999993411 0 0 -0.2259999999999367 0 0 -0.22399999999993139 0 0 -0.22299999999992881 0 0 -0.2219999999999262 0 0 -0.22099999999992359 0 0 -0.2199999999999209 0 0 -0.21899999999991829 0 0 -0.21799999999991571 0 0 -0.21699999999991301 0 0 -0.21499999999990771 0 0 -0.2159999999999104 0 0 -0.21299999999990249 0 0 -0.2139999999999051 0 0 -0.21199999999989991 0 0 -0.21099999999989719 0 0 -0.2099999999998946 0 0 -0.20899999999989191 0 0 -0.2079999999998893 0 0 -0.20399999999987881 0 0 -0.20499999999988139 0 0 -0.205999999999884 0 0 -0.20699999999988669 0 0 -0.18899999999983921 0 0 -0.1879999999998366 0 0 -0.19099999999984449 0 0 -0.18999999999984191 0 0 -0.19299999999984971 0 0 -0.1919999999998471 0 0 -0.19499999999985501 0 0 -0.1939999999998524 0 0 -0.19699999999986029 0 0 -0.1959999999998577 0 0 -0.19899999999986559 0 0 -0.19799999999986301 0 0 -0.20099999999987081 0 0 -0.1999999999998682 0 0 -0.20299999999987611 0 0 -0.2019999999998735 0 0 -0.13099999999968631 0 0 -0.13199999999968889 0 0 -0.1299999999996837 0 0 -0.12899999999968109 0 0 -0.1279999999996784 0 0 -0.12699999999967579 0 0 -0.12599999999967451 0 0 -0.13999999999971011 0 0 -0.13899999999970741 0 0 -0.1379999999997048 0 0 -0.13699999999970211 0 0 -0.1359999999996995 0 0 -0.13499999999969689 0 0 -0.13299999999969159 0 0 -0.1339999999996942 0 0 -0.14699999999972849 0 0 -0.1479999999997311 0 0 -0.14599999999972579 0 0 -0.14499999999972321 0 0 -0.1439999999997206 0 0 -0.14299999999971799 0 0 -0.1419999999997153 0 0 -0.14099999999971269 0 0 -0.1559999999997522 0 0 -0.15499999999974959 0 0 -0.15399999999974701 0 0 -0.15299999999974431 0 0 -0.1519999999997417 0 0 -0.15099999999973901 0 0 -0.14899999999973379 0 0 -0.1499999999997364 0 0 -0.16299999999977069 0 0 -0.1639999999997733 0 0 -0.161999999999768 0 0 -0.16099999999976539 0 0 -0.1599999999997628 0 0 -0.15899999999976011 0 0 -0.1579999999997575 0 0 -0.15699999999975489 0 0 -0.17099999999979171 0 0 -0.1699999999997891 0 0 -0.16899999999978649 0 0 -0.16799999999978391 0 0 -0.16699999999978121 0 0 -0.16499999999977599 0 0 -0.1659999999997786 0 0 -0.1779999999998102 0 0 -0.17899999999981281 0 0 -0.17699999999980759 0 0 -0.17599999999980501 0 0 -0.17499999999980231 0 0 -0.1739999999997997 0 0 -0.17299999999979701 0 0 -0.1719999999997944 0 0 -0.18699999999983391 0 0 -0.1859999999998313 0 0 -0.18499999999982869 0 0 -0.183999999999826 0 0 -0.18299999999982339 0 0 -0.18199999999982069 0 0 -0.1799999999998155 0 0 -0.18099999999981811 0 0 -0.068999999999833792 0 0 -0.069999999999830878 0 0 -0.067999999999836705 0 0 -0.066999999999839618 0 0 -0.065999999999842532 0 0 -0.064999999999845445 0 0 -0.063999999999848373 0 0 -0.062999999999851286 0 0 -0.077999999999807557 0 0 -0.07699999999981047 0 0 -0.075999999999813383 0 0 -0.074999999999816297 0 0 -0.07399999999981921 0 0 -0.072999999999822124 0 0 -0.070999999999827965 0 0 -0.071999999999825051 0 0 -0.083999999999790062 0 0 -0.084999999999787149 0 0 -0.082999999999792975 0 0 -0.081999999999795889 0 0 -0.080999999999798802 0 0 -0.07999999999980173 0 0 -0.078999999999804643 0 0 -0.092999999999763827 0 0 -0.091999999999766741 0 0 -0.090999999999769654 0 0 -0.089999999999772567 0 0 -0.088999999999775481 0 0 -0.087999999999778394 0 0 -0.085999999999784235 0 0 -0.086999999999781322 0 0 -0.099999999999743419 0 0 -0.10099999999974051 0 0 -0.098999999999746333 0 0 -0.097999999999749246 0 0 -0.096999999999752159 0 0 -0.095999999999755073 0 0 -0.094999999999758 0 0 -0.093999999999760914 0 0 -0.1089999999997172 0 0 -0.1079999999997201 0 0 -0.106999999999723 0 0 -0.1059999999997259 0 0 -0.1049999999997288 0 0 -0.10399999999973179 0 0 -0.10199999999973761 0 0 -0.10299999999973471 0 0 -0.1159999999996968 0 0 -0.11699999999969379 0 0 -0.1149999999996997 0 0 -0.1139999999997026 0 0 -0.1129999999997055 0 0 -0.1119999999997084 0 0 -0.1109999999997113 0 0 -0.1099999999997143 0 0 -0.12499999999967321 0 0 -0.1239999999996748 0 0 -0.1229999999996764 0 0 -0.1219999999996793 0 0 -0.1209999999996822 0 0 -0.11999999999968509 0 0 -0.11799999999969089 0 0 -0.11899999999968799 0 0 -0.047999999999895078 0 0 -0.046999999999897998 0 0 -0.049999999999889237 0 0 -0.048999999999892158 0 0 -0.051999999999883403 0 0 -0.050999999999886317 0 0 -0.053999999999877563 0 0 -0.052999999999880483 0 0 -0.055999999999871722 0 0 -0.054999999999874642 0 0 -0.057999999999865881 0 0 -0.056999999999868801 0 0 -0.059999999999860047 0 0 -0.058999999999862961 0 0 -0.061999999999854213 0 0 -0.060999999999857127 0 0 -0.042999999999909673 0 0 -0.043999999999906753 0 0 -0.044999999999903832 0 0 -0.045999999999900919 0 0 -0.041999999999912593 0 0 -0.040999999999915507 0 0 -0.039999999999918427 0 0 -0.038999999999921348 0 0 -0.037999999999924268 0 0 -0.035999999999930102 0 0 -0.036999999999927188 0 0 -0.033999999999935943 0 0 -0.034999999999933022 0 0 -0.032999999999938787 0 0 -0.031999999999941367 0 0 -0.03099999999994377 0 0 -0.02999999999994565 0 0 -0.028999999999947419 0 0 -0.027999999999948951 0 0 -0.02699999999995048 0 0 -0.02599999999995202 0 0 -0.023999999999955082 0 0 -0.024999999999953549 0 0 -0.01599999999996761 0 0 -0.0169999999999659 0 0 -0.01799999999996427 0 0 -0.018999999999962731 0 0 -0.019999999999961209 0 0 -0.020999999999959669 0 0 -0.02199999999995814 0 0 -0.022999999999956611 0 0 -0.007999999999984719 0 0 -0.008999999999982581 0 0 -0.0099999999999804221 0 0 -0.010999999999978201 0 0 -0.011999999999975971 0 0 -0.01299999999997375 0 0 -0.01399999999997158 0 0 -0.014999999999969531 0 0 -0.0059999999999886811 0 0 -0.0069999999999867156 0 0 -0.004999999999990571 0 0 -0.0039999999999924488 0 0 -0.0029999999999943271 0 0 -0.001999999999996204 0 0 -0.00099999999999810158 0 0 0 
</DataArray>
</Points>
<Cells>
<DataArray type="UInt32" Name="connectivity" format="ascii">
1 0 2 1 3 2 4 3 5 4 7 5 15 6 6 7 23 8 8 9 9 10 10 11 11 12 12 13 13 14 14 15 16 17 17 18 18 19 19 20 20 21 21 22 22 23 24 25 25 16 26 24 27 26 28 27 29 28 30 29 31 30 32 31 33 32 34 35 35 33 36 37 37 34 38 36 39 38 40 39 41 40 42 41 46 42 61 43 43 44 44 45 45 46 48 47 50 49 47 50 52 51 49 52 54 53 51 54 56 55 53 56 58 57 55 58 60 59 57 60 62 61 59 62 63 64 64 76 65 63 66 65 67 66 68 67 69 68 180 69 70 85 71 70 72 71 73 72 74 73 75 74 76 77 77 75 80 78 78 79 81 80 82 81 83 82 84 83 85 84 87 86 88 87 89 88 90 89 91 90 93 91 79 92 92 93 96 94 94 95 97 96 98 97 99 98 100 99 101 100 86 101 102 116 103 102 104 103 105 104 106 105 108 106 95 107 107 108 109 110 110 123 111 109 112 111 113 112 114 113 115 114 116 115 117 48 118 117 119 118 120 119 121 120 122 121 123 124 124 122 127 125 125 126 128 127 129 128 130 129 131 130 132 131 134 133 135 134 136 135 137 136 138 137 140 138 126 139 139 140 141 142 142 154 143 141 144 143 145 144 146 145 147 146 133 147 148 163 149 148 150 149 151 150 152 151 153 152 154 155 155 153 156 157 157 170 158 156 159 158 160 159 161 160 162 161 163 162 165 164 166 165 167 166 168 167 169 168 170 171 171 169 174 172 172 173 175 174 176 175 177 176 178 177 179 178 164 179 181 180 182 181 183 182 184 183 185 184 187 185 173 186 186 187 188 191 189 188 190 193 191 190 192 195 193 192 194 197 195 194 196 199 197 196 198 201 199 198 200 203 201 200 202 132 203 202 204 205 205 206 206 207 207 189 208 204 209 208 210 209 211 210 212 211 214 212 216 213 213 214 217 215 215 216 218 217 219 218 220 219 221 220 222 221 223 222 224 223 226 224 234 225 225 226 227 228 228 229 229 230 230 231 231 232 232 233 233 234 235 236 236 237 237 238 238 239 239 240 240 241 241 242 242 227 243 244 244 235 245 243 246 245 247 246 248 247 249 248 250 249 
</DataArray>
<DataArray type="UInt32" Name="offsets" format="ascii">
2 4 6 8 10 12 14 16 18 20 22 24 26 28 30 32 34 36 38 40 42 44 46 48 50 52 54 56 58 60 62 64 66 68 70 72 74 76 78 80 82 84 86 88 90 92 94 96 98 100 102 104 106 108 110 112 114 116 118 120 122 124 126 128 130 132 134 136 138 140 142 144 146 148 150 152 154 156 158 160 162 164 166 168 170 172 174 176 178 180 182 184 186 188 190 192 194 196 198 200 202 204 206 208 210 212 214 216 218 220 222 224 226 228 230 232 234 236 238 240 242 244 246 248 250 252 254 256 258 260 262 264 266 268 270 272 274 276 278 280 282 284 286 288 290 292 294 296 298 300 302 304 306 308 310 312 314 316 318 320 322 324 326 328 330 332 334 336 338 340 342 344 346 348 350 352 354 356 358 360 362 364 366 368 370 372 374 376 378 380 382 384 386 388 390 392 394 396 398 400 402 404 406 408 410 412 414 416 418 420 422 424 426 428 430 432 434 436 438 440 442 444 446 448 450 452 454 456 458 460 462 464 466 468 470 472 474 476 478 480 482 484 486 488 490 492 494 496 498 500 
</DataArray>
<DataArray type="UInt32" Name="types" format="ascii">
3 3 3 3 3 3 3 3 3 3 3 3 3 3 3 3 3 3 3 3 3 3 3 3 3 3 3 3 3 3 3 3 3 3 3 3 3 3 3 3 3 3 3 3 3 3 3 3 3 3 3 3 3 3 3 3 3 3 3 3 3 3 3 3 3 3 3 3 3 3 3 3 3 3 3 3 3 3 3 3 3 3 3 3 3 3 3 3 3 3 3 3 3 3 3 3 3 3 3 3 3 3 3 3 3 3 3 3 3 3 3 3 3 3 3 3 3 3 3 3 3 3 3 3 3 3 3 3 3 3 3 3 3 3 3 3 3 3 3 3 3 3 3 3 3 3 3 3 3 3 3 3 3 3 3 3 3 3 3 3 3 3 3 3 3 3 3 3 3 3 3 3 3 3 3 3 3 3 3 3 3 3 3 3 3 3 3 3 3 3 3 3 3 3 3 3 3 3 3 3 3 3 3 3 3 3 3 3 3 3 3 3 3 3 3 3 3 3 3 3 3 3 3 3 3 3 3 3 3 3 3 3 3 3 3 3 3 3 3 3 3 3 3 3 3 3 3 3 3 3 
</DataArray>
</Cells>
<CellData Scalars="pressure_p0,water_content,conductivity_richards," Vectors="velocity_p0," Tensors="">
<DataArray type="Float64" Name="pressure_p0" format="ascii">
-11.928670837198005 -36.365835475797013 -62.096518715537215 -89.330335082036953 -118.19831364351637 -148.79827084880588 -215.47868370317062 -181.20570627296445 -559.57809601124427 -509.77405003602297 -461.87740397126106 -415.91492732155831 -371.90576214493495 -329.86074234803925 -289.78167212467031 -251.66054681211833 -958.04978325356092 -896.15502422775535 -835.81772488419369 -777.10140103690912 -720.0659237147579 -664.76702752486665 -611.25579207234682 -1086.2421885335684 -1021.4353114606583 -1152.3986834193693 -1219.8311502043011 -1288.4644012860745 -1358.2220561107572 -1429.026867880892 -1500.8010284689221 -1573.4664522590276 -1646.9450396737127 -1796.0306824526238 -1721.1589211636951 -1947.441690308643 -1871.4835718330451 -2023.8301653710566 -2100.5753091885722 -2177.6047619696928 -2254.8476212477212 -2332.2345578134891 -2409.6979190030461 -2719.0260389807918 -2641.8970113092546 -2564.5922239959864 -2487.1718200257546 -3820.3871889975508 -3682.1508328370237 -3751.6813842803631 -3540.7317594265119 -3611.8240981323097 -3396.3828515152018 -3468.9064431887036 -3249.3901745689341 -3323.1977872230132 -3100.0737031427961 -3175.0010758175958 -2948.7877698796592 -3024.6534254737689 -2795.9211905418497 -2872.5264170665496 -6157.8470262217088 -6140.0373932535649 -6175.0820822620153 -6191.7568744558466 -6207.8855661903453 -6223.4821579250265 -6238.5604782775299 -6253.1341794102636 -5975.1170083794095 -5998.0528812351904 -6020.2956472278129 -6041.8603847146587 -6062.7621276104037 -6083.0158496129079 -6121.6387292283816 -6102.6364485608883 -5822.1012353225424 -5793.8916696440465 -5849.5125185722072 -5876.1403561057778 -5901.9996837625176 -5927.1055159551142 -5951.4729238528198 -5537.750707403753 -5572.8597744025092 -5607.0587374668776 -5640.3606296181624 -5672.7788148497748 -5704.3269595387555 -5764.8691106516189 -5735.0190004921587 -5265.4959335726908 -5222.6887033271396 -5307.3051568323626 -5348.1254068027301 -5387.9663570976036 -5426.8382794665386 -5464.7520025826943 -5501.718871038378 -4843.4650795289908 -4894.4899975275757 -4944.4730901601542 -4993.4166290947178 -5041.3239010330799 -5088.1991541364914 -5178.8751159231215 -5134.0475492110099 -4457.1648351971708 -4397.8618463039529 -4515.4504000009201 -4572.7108695456791 -4628.9399972571591 -4684.1329082098273 -4738.286047116846 -4791.3971275973572 -3888.241664498295 -3955.2201737670202 -4021.2999817723075 -4086.4602134685574 -4150.6818136451056 -4213.9474995813089 -4337.5505802545813 -4276.241714068191 -6589.3321635596767 -6587.8598024542707 -6590.7388017367848 -6592.0824218169573 -6593.3656264366364 -6594.5909236662965 -6595.7607299771298 -6573.3548714879307 -6575.4634184815723 -6577.4806262802667 -6579.4101144011684 -6581.2553745017349 -6583.0197774425596 -6586.3189106105228 -6584.7065766856831 -6555.7054351716142 -6552.7195891651809 -6558.5660224779731 -6561.3061073163153 -6563.9302955096446 -6566.4430373176037 -6568.8486310984044 -6571.1512362455824 -6523.6987543615305 -6527.8776871099453 -6531.8872956620253 -6535.7337071968104 -6539.422866383421 -6542.960535798662 -6549.6035697157004 -6546.352299542923 -6489.1502167227554 -6483.3728859093808 -6494.7021684723732 -6500.036462438964 -6505.160608387524 -6510.0819100090084 -6514.8074679753827 -6519.3441826131802 -6435.9269636752897 -6443.5163614128132 -6450.8202281776212 -6457.8478265350586 -6464.6081908818769 -6477.3622416849557 -6471.1101327769102 -6373.9801173925662 -6363.7454808888033 -6383.8468518496611 -6393.3567879875136 -6402.5207982800084 -6411.3495253382353 -6419.8533816198033 -6428.0425445439223 -6267.2167277554363 -6280.8213972022631 -6293.9612629314952 -6306.6491958716942 -6318.8978577519656 -6330.7196967261243 -6353.1316094271715 -6342.1269435436261 -6608.0353323525851 -6608.5795351838842 -6606.8633052610403 -6607.4636773872717 -6605.5710742998544 -6606.2328964385624 -6604.1473864295967 -6604.8764030950806 -6602.5800134035617 -6603.382464807185 -6600.8556815261718 -6601.738339778487 -6598.9599971572079 -6599.9302038636943 -6596.8773685432761 -6597.9430743858393 -6610.5053120410903 -6610.0592980250512 -6609.5903816633599 -6609.0974980360243 -6610.9294424999134 -6611.3326641021522 -6611.7159090525411 -6612.0800685988415 -6612.425994518695 -6612.7545005552893 -6613.3623260421973 -6613.0663638027527 -6613.9093457345134 -6613.6430950293197 -6614.1617215363476 -6614.4008353693971 -6614.6272708272591 -6614.8415832217033 -6615.0443005988054 -6615.2359247129598 -6615.4169319595985 -6615.5877742674784 -6615.9006545258162 -6615.7488799513521 -6616.7314072401568 -6616.6353617726063 -6616.5322459915315 -6616.4217942835076 -6616.3037207680627 -6616.1777230216649 -6616.0434814811124 -6617.2714984165523 -6617.2244701193194 -6617.1719007160973 -6617.1136532204055 -6617.0495779771773 -6616.9795081294324 -6616.9032592771719 -6616.8206304096757 -6617.3494067247284 -6617.313108098665 -6617.3804885283789 -6617.4064346131654 -6617.4273117370503 -6617.4431731401655 -6617.4540586557196 -6617.4599947930446 
</DataArray>
<DataArray type="Float64" Name="velocity_p0" NumberOfComponents="3" format="ascii">
0 0 4.1570226648339779e-06 0 0 4.1608193394071823e-06 0 0 4.160532509772336e-06 0 0 4.1547807486470168e-06 0 0 4.1433204496430367e-06 0 0 4.1262632468383276e-06 0 0 4.0766011351438174e-06 0 0 4.1038969284549283e-06 0 0 3.7311448516660389e-06 0 0 3.7830562595637683e-06 0 0 3.8331655750019289e-06 0 0 3.8811615342731933e-06 0 0 3.9267041312002071e-06 0 0 3.9694251339516196e-06 0 0 4.0089294841312635e-06 0 0 4.0447993662590992e-06 0 0 3.337930752183843e-06 0 0 3.3959091944686422e-06 0 0 3.4535651201277202e-06 0 0 3.5107500794548116e-06 0 0 3.5672977950405029e-06 0 0 3.6230218358056113e-06 0 0 3.6777145672031934e-06 0 0 3.2215204016134431e-06 0 0 3.2797619741600213e-06 0 0 3.1633102205225347e-06 0 0 3.1052238800835972e-06 0 0 3.0473431352396933e-06 0 0 2.9897402055301986e-06 0 0 2.9324787801029958e-06 0 0 2.8756149228103884e-06 0 0 2.8191978852549873e-06 0 0 2.7632708356791278e-06 0 0 2.6530328019279853e-06 0 0 2.7078715113763669e-06 0 0 2.5451476167715224e-06 0 0 2.5987832701054879e-06 0 0 2.4921470955861888e-06 0 0 2.4397998828083982e-06 0 0 2.3881214069838321e-06 0 0 2.3371246428408092e-06 0 0 2.286820373275699e-06 0 0 2.2372174229111159e-06 0 0 2.045937816291537e-06 0 0 2.0926795769063006e-06 0 0 2.1401422138112405e-06 0 0 2.1883228663365664e-06 0 0 1.4306507030075146e-06 0 0 1.5035871600250536e-06 0 0 1.4667801831092593e-06 0 0 1.5792565328965473e-06 0 0 1.5410774271097993e-06 0 0 1.6577021473658963e-06 0 0 1.6181297781894144e-06 0 0 1.7389625199571964e-06 0 0 1.6979782988051357e-06 0 0 1.8230702027701491e-06 0 0 1.7806586842144044e-06 0 0 1.910050307689517e-06 0 0 1.8661999708577677e-06 0 0 1.9999186736300938e-06 0 0 1.954622889328184e-06 0 0 2.619996719748235e-07 0 0 2.7125705660783934e-07 0 0 2.5301203512592064e-07 0 0 2.4428810399605407e-07 0 0 2.358219614685624e-07 0 0 2.276076033531823e-07 0 0 2.1963925908448051e-07 0 0 2.1191117943355475e-07 0 0 3.5577481965267073e-07 0 0 3.4413375388694509e-07 0 0 3.328132004234758e-07 0 0 3.2180659008498537e-07 0 0 3.1110740231997875e-07 0 0 3.0070921637166981e-07 0 0 2.8079030154253963e-07 0 0 2.9060563817084314e-07 0 0 4.3272715706929274e-07 0 0 4.4680053781892897e-07 0 0 4.1902184749017784e-07 0 0 4.0567765781176571e-07 0 0 3.926876344874429e-07 0 0 3.8004503048383447e-07 0 0 3.6774302637180464e-07 0 0 5.7348722993799353e-07 0 0 5.5621369737861334e-07 0 0 5.3936540746691744e-07 0 0 5.2293507987751257e-07 0 0 5.0691539610459493e-07 0 0 4.9129929131321471e-07 0 0 4.6124898873801156e-07 0 0 4.7607952153728795e-07 0 0 7.0692654178869503e-07 0 0 7.2786751624511096e-07 0 0 6.8647002819760201e-07 0 0 6.6649049968033352e-07 0 0 6.4698048811392472e-07 0 0 6.2793256960785735e-07 0 0 6.093393157428223e-07 0 0 5.9119331768839538e-07 0 0 9.1373612156574642e-07 0 0 8.8864929362861516e-07 0 0 8.6410698042472818e-07 0 0 8.4010168047024587e-07 0 0 8.1662595442804753e-07 0 0 7.9367214669758805e-07 0 0 7.4930044097593916e-07 0 0 7.7123281189258059e-07 0 0 1.1052167194205999e-06 0 0 1.1349272724732548e-06 0 0 1.0761098516619544e-06 0 0 1.0475994049038001e-06 0 0 1.0196780837258441e-06 0 0 9.9233849261830111e-07 0 0 9.6557325565643866e-07 0 0 9.3937495343758013e-07 0 0 1.3951927128548022e-06 0 0 1.3604000908480971e-06 0 0 1.326266316412218e-06 0 0 1.2927849442291793e-06 0 0 1.2599493173512432e-06 0 0 1.2277526576704651e-06 0 0 1.1652487175702705e-06 0 0 1.1961880793102897e-06 0 0 2.0498988169017239e-08 0 0 2.1458974785860971e-08 0 0 1.9578717912726733e-08 0 0 1.8696675754479455e-08 0 0 1.7851355181349158e-08 0 0 1.7041492280149819e-08 0 0 1.6265671574412931e-08 0 0 3.0763694876998351e-08 0 0 2.9426363265320764e-08 0 0 2.8142489149650097e-08 0 0 2.6910165771057504e-08 0 0 2.5727491151849916e-08 0 0 2.4592773206077383e-08 0 0 2.24602143515002e-08 0 0 2.3504219146839643e-08 0 0 4.1794199751185317e-08 0 0 4.3634963512685774e-08 0 0 4.0024309747601084e-08 0 0 3.8322895957388312e-08 0 0 3.6687752035300049e-08 0 0 3.511635739942861e-08 0 0 3.3606632839911061e-08 0 0 3.21564481862207e-08 0 0 6.1222532756818553e-08 0 0 5.8720304093460719e-08 0 0 5.6310599168669606e-08 0 0 5.399046256981315e-08 0 0 5.1757057235829973e-08 0 0 4.9607482370811903e-08 0 0 4.5549064818333142e-08 0 0 4.7539044312377089e-08 0 0 8.1592766361083958e-08 0 0 8.4950621356077013e-08 0 0 7.8353806461637561e-08 0 0 7.5230173226952352e-08 0 0 7.2218341278173069e-08 0 0 6.9314971773119194e-08 0 0 6.6516695563495198e-08 0 0 6.3820314504323787e-08 0 0 1.1210135104216819e-07 0 0 1.0780456429555982e-07 0 0 1.0365390767020263e-07 0 0 9.9645245858604614e-08 0 0 9.5774473621504181e-08 0 0 8.843101951074596e-08 0 0 9.2037723708758453e-08 0 0 1.4663529683035707e-07 0 0 1.522598954058875e-07 0 0 1.4119288186540766e-07 0 0 1.3592785486645157e-07 0 0 1.3083547269724725e-07 0 0 1.2591116426101578e-07 0 0 1.2115035158032207e-07 0 0 1.1654848553389167e-07 0 0 2.0441769086635804e-07 0 0 1.9715319642546273e-07 0 0 1.9011217655449284e-07 0 0 1.8328918986356154e-07 0 0 1.7667887383590164e-07 0 0 1.7027594547633398e-07 0 0 1.5807155537712187e-07 0 0 1.6407520189681533e-07 0 0 7.920387467931313e-09 0 0 7.5381533335660218e-09 0 0 8.7386848411706553e-09 0 0 8.3203067262379486e-09 0 0 9.6340487350574805e-09 0 0 9.1763159702303922e-09 0 0 1.061327568853947e-08 0 0 1.0112737348580289e-08 0 0 1.1683640029741783e-08 0 0 1.1136590031778928e-08 0 0 1.2852958425493332e-08 0 0 1.225541969929471e-08 0 0 1.4129613555149437e-08 0 0 1.3477321980843836e-08 0 0 1.5522586888451124e-08 0 0 1.4810974800973689e-08 0 0 6.1715346412417177e-09 0 0 6.4902239054620977e-09 0 0 6.8237720383697187e-09 0 0 7.1728583416211487e-09 0 0 5.8670606030487842e-09 0 0 5.5761816470126362e-09 0 0 5.2983003269952447e-09 0 0 5.0328411082997616e-09 0 0 4.7792495985085498e-09 0 0 4.5369917933890073e-09 0 0 4.0844388078804707e-09 0 0 4.3055533387373285e-09 0 0 3.6712902220903514e-09 0 0 3.8731709948008804e-09 0 0 3.4783536636612592e-09 0 0 3.2939346833658787e-09 0 0 3.1176221860432641e-09 0 0 2.9490199849324024e-09 0 0 2.787746181114644e-09 0 0 2.6334325580645238e-09 0 0 2.4857239876772485e-09 0 0 2.3442778510858113e-09 0 0 2.0788615535743985e-09 0 0 2.2087634704359305e-09 0 0 1.3019620035128732e-09 0 0 1.4006712259933284e-09 0 0 1.5030325873861249e-09 0 0 1.6093002944267514e-09 0 0 1.7197971103227116e-09 0 0 1.8346716199482874e-09 0 0 1.9542636502263143e-09 0 0 6.154506619053539e-10 0 0 6.9330879641787573e-10 0 0 7.7301144858109227e-10 0 0 8.5476675587836123e-10 0 0 9.3872719278506854e-10 0 0 1.0252296956269973e-09 0 0 1.1144364807547409e-09 0 0 1.2066580454486697e-09 0 0 4.6443451167709396e-10 0 0 5.3923272193084627e-10 0 0 3.9089731406921548e-10 0 0 3.1840623935694911e-10 0 0 2.4676812007993162e-10 0 0 1.7579157046529864e-10 0 0 1.0528658768164124e-10 0 0 3.5064155903011433e-11 
</DataArray>
<DataArray type="Float64" Name="water_content" format="ascii">
0.41766122225154068 0.4120293194529373 0.40519786654240542 0.39803629295268023 0.39079016343978124 0.38359615082464416 0.36966801325582027 0.37653792301706934 0.32337218405296875 0.32830924827596752 0.33347822932642485 0.33888723757604444 0.344542974647367 0.35044999693213547 0.35660970352586929 0.3630189356406901 0.29452128475133432 0.29809733557469997 0.30183989808694067 0.30575789302172979 0.30986056196259898 0.31415739991919966 0.31865805501786149 0.28783487735561269 0.29110318839012433 0.28470858194829585 0.28171693353574745 0.27885295922056197 0.27611007172739532 0.27348205597127084 0.27096305349537053 0.26854754564519945 0.2662303361196503 0.261871533165693 0.26400653336732688 0.2578508587557341 0.25982100162146582 0.25595726278088626 0.25413659513423004 0.25238544630185422 0.25070060244325165 0.24907903281054261 0.24751787794428193 0.24182561288007909 0.24317064954245976 0.24456616551135779 0.24601443861964267 0.22647645653719503 0.22809066982772563 0.22726980896443538 0.22981919021677319 0.22894009472456622 0.23167109303932176 0.23072911695772785 0.23365637455287908 0.23264639757591379 0.23578607118337802 0.23470243695288723 0.23807239675096378 0.23690884182856239 0.24052890054092407 0.23927847256925527 0.20665240625011699 0.20676666148699926 0.2065422201797501 0.20643597235090369 0.20633353565226997 0.20623478669765941 0.20613960571886863 0.20604787643985456 0.20784426290571606 0.2076922415639843 0.20754548941591172 0.20740384034592022 0.20726713313801387 0.20713521131584947 0.20688512075608234 0.20700792299476078 0.2088770057817248 0.20907100991411315 0.2086895853099765 0.20850854314067208 0.20833368012465564 0.20816480308646493 0.20800172461503635 0.21088693053177654 0.21063204139042591 0.21038563117787423 0.21014743589898063 0.20991719990910473 0.20969467556512661 0.20927180948621538 0.20947962292483568 0.21293265311858839 0.21326599653596637 0.21261024471650095 0.21229842699389403 0.2119968671908587 0.21170524363364113 0.21142324527486606 0.21115057126489895 0.21637197973555231 0.21593718715657012 0.21551656931085258 0.21510966803120052 0.21471604176468764 0.21433526483918169 0.21361063139202102 0.2139669267398504 0.21985479898295449 0.22042177240371275 0.21930637339651149 0.21877587047499952 0.21826268979522184 0.21776625444395031 0.21728600984738128 0.21682142265964971 0.22570960499800496 0.22496829210369784 0.22425159841095577 0.22355864489583199 0.22288859068647732 0.22224063100034891 0.22100794490527981 0.22161399519377339 0.20400147956678666 0.20401016180928028 0.20399318709331068 0.20398526814520385 0.20397770711044444 0.20397048896115649 0.20396359923380611 0.20409582160384637 0.20408335511204101 0.20407143321950943 0.20406003393651073 0.20404913608574016 0.20403871925586958 0.20401925070343319 0.20402876377709678 0.20420036335486683 0.20421808321425705 0.20418339610037439 0.20416715206543953 0.20415160286479975 0.20413672113513204 0.20412248050528006 0.20410885551214422 0.20439082613595017 0.20436589378386893 0.20434198996845429 0.20431907590669771 0.20429711410374662 0.20427606833498579 0.20423658612130652 0.20425590361013107 0.20459769958277807 0.20463242494330264 0.20456436443893644 0.20453236891756124 0.20450166405630582 0.20447220246539366 0.20444393828437957 0.20441682714286977 0.20491904119402554 0.20487302138674135 0.20482879539075738 0.20478629990722047 0.20474547361443476 0.20466859278444291 0.20470625709352808 0.20529716238982049 0.20536006592080025 0.20523663662939451 0.20517840754275407 0.20512239648018862 0.20506852716133103 0.20501672561180362 0.20496692013166357 0.20595948598871747 0.20587432480181833 0.20579228653124279 0.20571326795543726 0.20563716889285311 0.20556389211844484 0.20542543082701292 0.20549334328287711 0.20389139623393354 0.20388819885841558 0.20389828338161126 0.20389475524644779 0.20390587860979653 0.20390198845138691 0.2039142485919454 0.20390996236560427 0.20392346586072641 0.20391874654155684 0.20393360924742654 0.20392841660368172 0.20394476435140507 0.20393905470703405 0.20395702403706034 0.20395075001950108 0.20387688685111693 0.2038795063778237 0.2038822606472907 0.20388515595037932 0.20387439605105084 0.20387202822388556 0.20386977786858362 0.20386763972747349 0.20386560877724488 0.20386368022026891 0.20386011217410355 0.20386184947623598 0.20385690141150609 0.20385846414434688 0.20385542018702218 0.20385401686235577 0.20385268800238149 0.2038514303390524 0.20385024076532746 0.20384911632935632 0.20384805422891558 0.20384705180609086 0.20384521605294381 0.20384610654219879 0.20384034231659243 0.20384090574362337 0.20384151065802605 0.20384215862040081 0.20384285131054611 0.20384359050564549 0.20384437808380471 0.20383717419106273 0.20383745004220399 0.20383775839832277 0.20383810006389894 0.20383847591786225 0.20383888694019797 0.20383933421396402 0.20383981891984143 0.20383671721411201 0.20383693012557327 0.20383653490332537 0.20383638271697613 0.203836260263066 0.20383616722897496 0.20383610338080607 0.20383606856289524 
</DataArray>
<DataArray type="Float64" Name="conductivity_richards" format="ascii">