<?xml version="1.0"?>
<VTKFile type="UnstructuredGrid" version="0.1" byte_order="LittleEndian">
<UnstructuredGrid>
<Piece NumberOfPoints="251" NumberOfCells="250">
<Points>
<DataArray type="Float64" NumberOfComponents="3" format="ascii">
0 0 0 0 0 -0.25 0 0 -0.00099999999999810158 0 0 -0.001999999999996204 0 0 -0.0029999999999943271 0 0 -0.0039999999999924488 0 0 -0.004999999999990571 0 0 -0.0059999999999886811 0 0 -0.0069999999999867156 0 0 -0.007999999999984719 0 0 -0.008999999999982581 0 0 -0.0099999999999804221 0 0 -0.010999999999978201 0 0 -0.011999999999975971 0 0 -0.01299999999997375 0 0 -0.01399999999997158 0 0 -0.014999999999969531 0 0 -0.01599999999996761 0 0 -0.0169999999999659 0 0 -0.01799999999996427 0 0 -0.018999999999962731 0 0 -0.019999999999961209 0 0 -0.020999999999959669 0 0 -0.02199999999995814 0 0 -0.022999999999956611 0 0 -0.023999999999955082 0 0 -0.024999999999953549 0 0 -0.02599999999995202 0 0 -0.02699999999995048 0 0 -0.027999999999948951 0 0 -0.028999999999947419 0 0 -0.02999999999994565 0 0 -0.03099999999994377 0 0 -0.031999999999941367 0 0 -0.032999999999938787 0 0 -0.033999999999935943 0 0 -0.034999999999933022 0 0 -0.035999999999930102 0 0 -0.036999999999927188 0 0 -0.037999999999924268 0 0 -0.038999999999921348 0 0 -0.039999999999918427 0 0 -0.040999999999915507 0 0 -0.041999999999912593 0 0 -0.042999999999909673 0 0 -0.043999999999906753 0 0 -0.044999999999903832 0 0 -0.045999999999900919 0 0 -0.046999999999897998 0 0 -0.047999999999895078 0 0 -0.048999999999892158 0 0 -0.049999999999889237 0 0 -0.050999999999886317 0 0 -0.051999999999883403 0 0 -0.052999999999880483 0 0 -0.053999999999877563 0 0 -0.054999999999874642 0 0 -0.055999999999871722 0 0 -0.056999999999868801 0 0 -0.057999999999865881 0 0 -0.058999999999862961 0 0 -0.059999999999860047 0 0 -0.060999999999857127 0 0 -0.061999999999854213 0 0 -0.062999999999851286 0 0 -0.063999999999848373 0 0 -0.064999999999845445 0 0 -0.065999999999842532 0 0 -0.066999999999839618 0 0 -0.067999999999836705 0 0 -0.068999999999833792 0 0 -0.069999999999830878 0 0 -0.070999999999827965 0 0 -0.071999999999825051 0 0 -0.072999999999822124 0 0 -0.07399999999981921 0 0 -0.074999999999816297 0 0 -0.075999999999813383 0 0 -0.07699999999981047 0 0 -0.077999999999807557 0 0 -0.078999999999804643 0 0 -0.07999999999980173 0 0 -0.080999999999798802 0 0 -0.081999999999795889 0 0 -0.082999999999792975 0 0 -0.083999999999790062 0 0 -0.084999999999787149 0 0 -0.085999999999784235 0 0 -0.086999999999781322 0 0 -0.087999999999778394 0 0 -0.088999999999775481 0 0 -0.089999999999772567 0 0 -0.090999999999769654 0 0 -0.091999999999766741 0 0 -0.092999999999763827 0 0 -0.093999999999760914 0 0 -0.094999999999758 0 0 -0.095999999999755073 0 0 -0.096999999999752159 0 0 -0.097999999999749246 0 0 -0.098999999999746333 0 0 -0.099999999999743419 0 0 -0.10099999999974051 0 0 -0.10199999999973761 0 0 -0.10299999999973471 0 0 -0.10399999999973179 0 0 -0.1049999999997288 0 0 -0.1059999999997259 0 0 -0.106999999999723 0 0 -0.1079999999997201 0 0 -0.1089999999997172 0 0 -0.1099999999997143 0 0 -0.1109999999997113 0 0 -0.1119999999997084 0 0 -0.1129999999997055 0 0 -0.1139999999997026 0 0 -0.1149999999996997 0 0 -0.1159999999996968 0 0 -0.11699999999969379 0 0 -0.11799999999969089 0 0 -0.11899999999968799 0 0 -0.11999999999968509 0 0 -0.1209999999996822 0 0 -0.1219999999996793 0 0 -0.1229999999996764 0 0 -0.1239999999996748 0 0 -0.12499999999967321 0 0 -0.12599999999967451 0 0 -0.12699999999967579 0 0 -0.1279999999996784 0 0 -0.12899999999968109 0 0 -0.1299999999996837 0 0 -0.13099999999968631 0 0 -0.13199999999968889 0 0 -0.13299999999969159 0 0 -0.1339999999996942 0 0 -0.13499999999969689 0 0 -0.1359999999996995 0 0 -0.13699999999970211 0 0 -0.1379999999997048 0 0 -0.13899999999970741 0 0 -0.13999999999971011 0 0 -0.14099999999971269 0 0 -0.1419999999997153 0 0 -0.14299999999971799 0 0 -0.1439999999997206 0 0 -0.14499999999972321 0 0 -0.14599999999972579 0 0 -0.14699999999972849 0 0 -0.1479999999997311 0 0 -0.14899999999973379 0 0 -0.1499999999997364 0 0 -0.15099999999973901 0 0 -0.1519999999997417 0 0 -0.15299999999974431 0 0 -0.15399999999974701 0 0 -0.15499999999974959 0 0 -0.1559999999997522 0 0 -0.15699999999975489 0 0 -0.1579999999997575 0 0 -0.15899999999976011 0 0 -0.1599999999997628 0 0 -0.16099999999976539 0 0 -0.161999999999768 0 0 -0.16299999999977069 0 0 -0.1639999999997733 0 0 -0.16499999999977599 0 0 -0.1659999999997786 0 0 -0.16699999999978121 0 0 -0.16799999999978391 0 0 -0.16899999999978649 0 0 -0.1699999999997891 0 0 -0.17099999999979171 0 0 -0.1719999999997944 0 0 -0.17299999999979701 0 0 -0.1739999999997997 0 0 -0.17499999999980231 0 0 -0.17599999999980501 0 0 -0.17699999999980759 0 0 -0.1779999999998102 0 0 -0.17899999999981281 0 0 -0.1799999999998155 0 0 -0.18099999999981811 0 0 -0.18199999999982069 0 0 -0.18299999999982339 0 0 -0.183999999999826 0 0 -0.18499999999982869 0 0 -0.1859999999998313 0 0 -0.18699999999983391 0 0 -0.1879999999998366 0 0 -0.18899999999983921 0 0 -0.18999999999984191 0 0 -0.19099999999984449 0 0 -0.1919999999998471 0 0 -0.19299999999984971 0 0 -0.1939999999998524 0 0 -0.19499999999985501 0 0 -0.1959999999998577 0 0 -0.19699999999986029 0 0 -0.19799999999986301 0 0 -0.19899999999986559 0 0 -0.1999999999998682 0 0 -0.20099999999987081 0 0 -0.2019999999998735 0 0 -0.20299999999987611 0 0 -0.20399999999987881 0 0 -0.20499999999988139 0 0 -0.205999999999884 0 0 -0.20699999999988669 0 0 -0.2079999999998893 0 0 -0.20899999999989191 0 0 -0.2099999999998946 0 0 -0.21099999999989719 0 0 -0.21199999999989991 0 0 -0.21299999999990249 0 0 -0.2139999999999051 0 0 -0.21499999999990771 0 0 -0.2159999999999104 0 0 -0.21699999999991301 0 0 -0.21799999999991571 0 0 -0.21899999999991829 0 0 -0.2199999999999209 0 0 -0.22099999999992359 0 0 -0.2219999999999262 0 0 -0.22299999999992881 0 0 -0.22399999999993139 0 0 -0.22499999999993411 0 0 -0.2259999999999367 0 0 -0.22699999999993939 0 0 -0.227999999999942 0 0 -0.22899999999994469 0 0 -0.2299999999999473 0 0 -0.23099999999994991 0 0 -0.23199999999995249 0 0 -0.23299999999995519 0 0 -0.2339999999999578 0 0 -0.23499999999996049 0 0 -0.2359999999999631 0 0 -0.23699999999996571 0 0 -0.2379999999999684 0 0 -0.23899999999997101 0 0 -0.2399999999999736 0 0 -0.24099999999997629 0 0 -0.2419999999999789 0 0 -0.24299999999998159 0 0 -0.2439999999999842 0 0 -0.24499999999998681 0 0 -0.24599999999998939 0 0 -0.24699999999999209 0 0 -0.2479999999999947 0 0 -0.24899999999999739 
</DataArray>
</Points>
<Cells>
<DataArray type="UInt32" Name="connectivity" format="ascii">
0 2 2 3 3 4 4 5 5 6 6 7 7 8 8 9 9 10 10 11 11 12 12 13 13 14 14 15 15 16 16 17 17 18 18 19 19 20 20 21 21 22 22 23 23 24 24 25 25 26 26 27 27 28 28 29 29 30 30 31 31 32 32 33 33 34 34 35 35 36 36 37 37 38 38 39 39 40 40 41 41 42 42 43 43 44 44 45 45 46 46 47 47 48 48 49 49 50 50 51 51 52 52 53 53 54 54 55 55 56 56 57 57 58 58 59 59 60 60 61 61 62 62 63 63 64 64 65 65 66 66 67 67 68 68 69 69 70 70 71 71 72 72 73 73 74 74 75 75 76 76 77 77 78 78 79 79 80 80 81 81 82 82 83 83 84 84 85 85 86 86 87 87 88 88 89 89 90 90 91 91 92 92 93 93 94 94 95 95 96 96 97 97 98 98 99 99 100 100 101 101 102 102 103 103 104 104 105 105 106 106 107 107 108 108 109 109 110 110 111 111 112 112 113 113 114 114 115 115 116 116 117 117 118 118 119 119 120 120 121 121 122 122 123 123 124 124 125 125 126 126 127 127 128 128 129 129 130 130 131 131 132 132 133 133 134 134 135 135 136 136 137 137 138 138 139 139 140 140 141 141 142 142 143 143 144 144 145 145 146 146 147 147 148 148 149 149 150 150 151 151 152 152 153 153 154 154 155 155 156 156 157 157 158 158 159 159 160 160 161 161 162 162 163 163 164 164 165 165 166 166 167 167 168 168 169 169 170 170 171 171 172 172 173 173 174 174 175 175 176 176 177 177 178 178 179 179 180 180 181 181 182 182 183 183 184 184 185 185 186 186 187 187 188 188 189 189 190 190 191 191 192 192 193 193 194 194 195 195 196 196 197 197 198 198 199 199 200 200 201 201 202 202 203 203 204 204 205 205 206 206 207 207 208 208 209 209 210 210 211 211 212 212 213 213 214 214 215 215 216 216 217 217 218 218 219 219 220 220 221 221 222 222 223 223 224 224 225 225 226 226 227 227 228 228 229 229 230 230 231 231 232 232 233 233 234 234 235 235 236 236 237 237 238 238 239 239 240 240 241 241 242 242 243 243 244 244 245 245 246 246 247 247 248 248 249 249 250 250 1 
</DataArray>
<DataArray type="UInt32" Name="offsets" format="ascii">
2 4 6 8 10 12 14 16 18 20 22 24 26 28 30 32 34 36 38 40 42 44 46 48 50 52 54 56 58 60 62 64 66 68 70 72 74 76 78 80 82 84 86 88 90 92 94 96 98 100 102 104 106 108 110 112 114 116 118 120 122 124 126 128 130 132 134 136 138 140 142 144 146 148 150 152 154 156 158 160 162 164 166 168 170 172 174 176 178 180 182 184 186 188 190 192 194 196 198 200 202 204 206 208 210 212 214 216 218 220 222 224 226 228 230 232 234 236 238 240 242 244 246 248 250 252 254 256 258 260 262 264 266 268 270 272 274 276 278 280 282 284 286 288 290 292 294 296 298 300 302 304 306 308 310 312 314 316 318 320 322 324 326 328 330 332 334 336 338 340 342 344 346 348 350 352 354 356 358 360 362 364 366 368 370 372 374 376 378 380 382 384 386 388 390 392 394 396 398 400 402 404 406 408 410 412 414 416 418 420 422 424 426 428 430 432 434 436 438 440 442 444 446 448 450 452 454 456 458 460 462 464 466 468 470 472 474 476 478 480 482 484 486 488 490 492 494 496 498 500 
</DataArray>
<DataArray type="UInt32" Name="types" format="ascii">
3 3 3 3 3 3 3 3 3 3 3 3 3 3 3 3 3 3 3 3 3 3 3 3 3 3 3 3 3 3 3 3 3 3 3 3 3 3 3 3 3 3 3 3 3 3 3 3 3 3 3 3 3 3 3 3 3 3 3 3 3 3 3 3 3 3 3 3 3 3 3 3 3 3 3 3 3 3 3 3 3 3 3 3 3 3 3 3 3 3 3 3 3 3 3 3 3 3 3 3 3 3 3 3 3 3 3 3 3 3 3 3 3 3 3 3 3 3 3 3 3 3 3 3 3 3 3 3 3 3 3 3 3 3 3 3 3 3 3 3 3 3 3 3 3 3 3 3 3 3 3 3 3 3 3 3 3 3 3 3 3 3 3 3 3 3 3 3 3 3 3 3 3 3 3 3 3 3 3 3 3 3 3 3 3 3 3 3 3 3 3 3 3 3 3 3 3 3 3 3 3 3 3 3 3 3 3 3 3 3 3 3 3 3 3 3 3 3 3 3 3 3 3 3 3 3 3 3 3 3 3 3 3 3 3 3 3 3 3 3 3 3 3 3 3 3 3 3 3 3 
</DataArray>
</Cells>
<CellData Scalars="pressure_p0,water_content,conductivity_richards," Vectors="velocity_p0," Tensors="">
<DataArray type="Float64" Name="pressure_p0" format="ascii">
-6233.0369451081833 -6232.8267909526694 -6232.4074388742865 -6231.7788013663312 -6230.9407472224902 -6229.8931016053966 -6228.6356461380483 -6227.1681190181444 -6225.490215155367 -6223.6015863316406 -6221.5018413844282 -6219.1905464131141 -6216.6672250085367 -6213.931358505728 -6210.9823862599505 -6207.8197059460999 -6204.4426738815646 -6200.8506053726305 -6197.0427750845301 -6193.0184174352325 -6188.7767270131026 -6184.3168590185087 -6179.6379297295352 -6174.7390169918954 -6169.6191607331793 -6164.2773635015747 -6158.7125910291943 -6152.9237728201406 -6146.9098027634573 -6140.6695397711155 -6134.201808441172 -6127.5053997462692 -6120.5790717476139 -6113.4215503345931 -6106.0315299901858 -6098.4076745823277 -6090.5486181813912 -6082.4529659039272 -6074.1192947828395 -6065.5461546641482 -6056.7320691304794 -6047.6755364514775 -6038.3750305612539 -6028.8290020630438 -6019.0358792612233 -6008.9940692208202 -5998.7019588546682 -5988.157916038348 -5977.3602907530349 -5966.3074162563971 -5954.9976102816581 -5943.42917626495 -5931.6004046010485 -5919.5095739276258 -5907.1549524380807 -5894.53479922305 -5881.647365640687 -5868.490896715768 -5855.0636325676696 -5841.3638098672964 -5827.3896633229651 -5813.1394271953031 -5798.6113368411225 -5783.8036302863275 -5768.7145498277932 -5753.342343664207 -5737.6852675558293 -5721.7415865131006 -5705.509576514025 -5688.9875262502374 -5672.1737389016271 -5655.0665339394109 -5637.6642489574688 -5619.9652415318196 -5601.9678911079827 -5583.6706009160698 -5565.0717999133321 -5546.1699447539168 -5526.9635217855566 -5507.4510490728644 -5487.6310784469115 -5467.502197580734 -5447.0630320903565 -5426.3122476609424 -5405.2485521976305 -5383.8706980005391 -5362.1774839634836 -5340.1677577958544 -5317.8404182670711 -5295.1944174730343 -5272.2287631239251 -5248.9425208526936 -5225.3348165435127 -5201.4048386794821 -5177.151840708776 -5152.5751434284393 -5127.6741373849472 -5102.448285290664 -5076.897124455244 -5051.0202692309904 -5024.8174134711508 -4998.2883330000968 -4971.4328880942558 -4944.2510259726423 -4916.7427832957983 -4888.9082886718516 -4860.7477651684403 -4832.2615328291176 -4803.4500111928355 -4774.3137218150714 -4744.8532907890667 -4715.0694512656373 -4684.9630459699274 -4654.5350297134464 -4623.7864718996298 -4592.718559021172 -4561.3325971472659 -4529.6300143988437 -4497.6123634098494 -4465.2813237725259 -4432.6387044645908 -4399.686446256178 -4366.4266240943007 -4332.8614494625162 -4298.9932727135347 -4264.824585372171 -4230.3580224063599 -4195.5963644634612 -4160.5425400692566 -4125.1996277870621 -4089.5708583339438 -4053.6596166513636 -4017.4694439271921 -3981.0040395661117 -3944.2672631052719 -3907.2631360720388 -3869.9958437805608 -3832.4697370637796 -3794.6893339374983 -3756.6593211929303 -3718.3845559141555 -3679.8700669167638 -3641.1210561039125 -3602.1428997359285 -3562.9411496094567 -3523.5215341421072 -3483.8899593584551 -3444.0525097731329 -3404.0154491666517 -3363.7852212495227 -3323.3684502101273 -3282.7719411416865 -3242.0026803435994 -3201.0678354922757 -3159.9747556765305 -3118.7309712924871 -3077.3441937928069 -3035.822315285016 -2994.1734079735197 -2952.4057234398379 -2910.5276917554993 -2868.5479204218545 -2826.4751931310243 -2784.31846834209 -2742.0868776664565 -2699.7897240562897 -2657.4364797897661 -2615.036784246784 -2572.600441468684 -2530.1374174953767 -2487.6578374732153 -2445.1719825268224 -2402.6902863879668 -2360.2233317744726 -2317.7818465120763 -2275.3766993919944 -2233.0188957569012 -2190.7195728078987 -2148.4899946249607 -2106.3415468932681 -2064.2857313277163 -2022.3341597878318 -1980.4985480752134 -1938.7907094055959 -1897.2225475474847 -1855.8060496192952 -1814.5532785368637 -1773.4763651031171 -1732.5874997316891 -1691.8989237961703 -1651.422920596709 -1611.1718059356203 -1571.1579182936689 -1531.3936085986938 -1491.8912295782447 -1452.6631246879206 -1413.7216166071607 -1375.078995294271 -1336.7475055925324 -1298.7393343793278 -1261.066597250287 -1223.7413247306056 -1186.7754480057545 -1150.1807841639511 -1113.9690209429116 -1078.1517009735194 -1042.7402055132093 -1007.7457376620193 -973.17930505434606 -939.05170201959663 -905.37349120500505 -872.15498465384508 -839.40622433230271 -807.13696209805539 -775.35663910333756 -744.07436462480325 -713.29889431173933 -683.03860784313542 -653.30148598263531 -624.09508701831828 -595.4265225714646 -567.30243275470389 -539.72896065487703 -512.71172610929102 -486.25579873516756 -460.36567016036963 -435.04522538797318 -410.29771320676196 -386.12571553247153 -362.53111552834116 -339.51506430501649 -317.07794593450194 -295.21934042427722 -273.9379841764503 -253.23172728917322 -233.09748682285084 -213.53119482020398 -194.52773938729877 -176.08089643190439 -158.18324858195689 -140.82608613873541 -123.99928223739633 -107.69112989371598 -91.888120692306757 -76.574629970909172 -61.732442880081202 -47.33998578698953 -33.370937469992796 -19.791203341052402 -6.5468923938723211 
</DataArray>
<DataArray type="Float64" Name="velocity_p0" NumberOfComponents="3" format="ascii">
0 0 1.5502935580204548e-09 0 0 4.651316240295673e-09 0 0 7.7536452954031246e-09 0 0 1.0858151161857761e-08 0 0 1.39657041693266e-08 0 0 1.7077174495333652e-08 0 0 2.0193432121554078e-08 0 0 2.3315346790138292e-08 0 0 2.6443787960181474e-08 0 0 2.9579624764549749e-08 0 0 3.2723725966024854e-08 0 0 3.5876959914291315e-08 0 0 3.9040194502624388e-08 0 0 4.221429712466066e-08 0 0 4.5400134631477838e-08 0 0 4.8598573288310444e-08 0 0 5.1810478732174365e-08 0 0 5.5036715928755411e-08 0 0 5.8278149130036166e-08 0 0 6.153564183175292e-08 0 0 6.4810056731264746e-08 0 0 6.8102255685229996e-08 0 0 7.1413099667730506e-08 0 0 7.4743448728573517e-08 0 0 7.8094161951616343e-08 0 0 8.1466097413409284e-08 0 0 8.4860112141871907e-08 0 0 8.8277062075529971e-08 0 0 9.1717802022657136e-08 0 0 9.5183185620832609e-08 0 0 9.8674065296558489e-08 0 0 1.021912922252783e-07 0 0 1.0573571629160375e-07 0 0 1.0930818604998523e-07 0 0 1.1290954868519142e-07 0 0 1.1654064997372918e-07 0 0 1.2020233424489213e-07 0 0 1.2389544434267897e-07 0 0 1.276208215876288e-07 0 0 1.3137930573921563e-07 0 0 1.3517173495856241e-07 0 0 1.3899894577113186e-07 0 0 1.4286177303035189e-07 0 0 1.4676104988114439e-07 0 0 1.5069760772392843e-07 0 0 1.5467227617910011e-07 0 0 1.5868588305179246e-07 0 0 1.6273925429692394e-07 0 0 1.6683321398494897e-07 0 0 1.7096858426754073e-07 0 0 1.7514618534403369e-07 0 0 1.7936683542813567e-07 0 0 1.8363135071503317e-07 0 0 1.8794054534875429e-07 0 0 1.92295231390466e-07 0 0 1.966962187864585e-07 0 0 2.0114431533710741e-07 0 0 2.0564032666577827e-07 0 0 2.1018505618883172e-07 0 0 2.1477930508516396e-07 0 0 2.1942387226669796e-07 0 0 2.2411955434928081e-07 0 0 2.2886714562376812e-07 0 0 2.3366743802757026e-07 0 0 2.3852122111657982e-07 0 0 2.4342928203766082e-07 0 0 2.4839240550094233e-07 0 0 2.5341137375327174e-07 0 0 2.5848696655126142e-07 0 0 2.6361996113513579e-07 0 0 2.6881113220255132e-07 0 0 2.7406125188319627e-07 0 0 2.7937108971282923e-07 0 0 2.8474141260848675e-07 0 0 2.9017298484327861e-07 0 0 2.9566656802163496e-07 0 0 3.0122292105465385e-07 0 0 3.0684280013540235e-07 0 0 3.1252695871469489e-07 0 0 3.1827614747659533e-07 0 0 3.240911143140039e-07 0 0 3.2997260430435996e-07 0 0 3.3592135968514495e-07 0 0 3.4193811982906781e-07 0 0 3.48023621219403e-07 0 0 3.541785974250629e-07 0 0 3.604037790749861e-07 0 0 3.6669989383246139e-07 0 0 3.7306766636906337e-07 0 0 3.7950781833782343e-07 0 0 3.8602106834588566e-07 0 0 3.9260813192657979e-07 0 0 3.9926972151056403e-07 0 0 4.0600654639621611e-07 0 0 4.1281931271867247e-07 0 0 4.1970872341849014e-07 0 0 4.2667547820831183e-07 0 0 4.3372027353863548e-07 0 0 4.4084380256174912e-07 0 0 4.4804675509474527e-07 0 0 4.5532981757991201e-07 0 0 4.6269367304367435e-07 0 0 4.7013900105344336e-07 0 0 4.776664776718741e-07 0 0 4.852767754090453e-07 0 0 4.9297056317176476e-07 0 0 5.0074850620997959e-07 0 0 5.086112660601352e-07 0 0 5.1655950048519932e-07 0 0 5.2459386341108224e-07 0 0 5.3271500485929015e-07 0 0 5.4092357087515522e-07 0 0 5.4922020345194765e-07 0 0 5.5760554045008551e-07 0 0 5.6608021551134033e-07 0 0 5.7464485796746172e-07 0 0 5.8330009274315103e-07 0 0 5.9204654025272843e-07 0 0 6.0088481629009567e-07 0 0 6.0981553191198638e-07 0 0 6.1883929331324541e-07 0 0 6.2795670169416332e-07 0 0 6.3716835311957065e-07 0 0 6.4647483836857471e-07 0 0 6.5587674277448273e-07 0 0 6.6537464605453913e-07 0 0 6.7496912212879062e-07 0 0 6.8466073892708653e-07 0 0 6.9445005818367113e-07 0 0 7.043376352186476e-07 0 0 7.1432401870524956e-07 0 0 7.2440975042245578e-07 0 0 7.3459536499131743e-07 0 0 7.4488138959493031e-07 0 0 7.5526834367999925e-07 0 0 7.6575673863966564e-07 0 0 7.7634707747613233e-07 0 0 7.8703985444168997e-07 0 0 7.9783555465694776e-07 0 0 8.0873465370471458e-07 0 0 8.1973761719852022e-07 0 0 8.3084490032348313e-07 0 0 8.420569473480676e-07 0 0 8.5337419110508082e-07 0 0 8.6479705244018583e-07 0 0 8.7632593962517019e-07 0 0 8.8796124773422578e-07 0 0 8.9970335798121201e-07 0 0 9.1155263701494263e-07 0 0 9.2350943617006797e-07 0 0 9.3557409067083106e-07 0 0 9.4774691878445817e-07 0 0 9.6002822092146724e-07 0 0 9.7241827867913219e-07 0 0 9.8491735382449746e-07 0 0 9.9752568721341068e-07 0 0 1.0102434976412116e-06 0 0 1.0230709806208969e-06 0 0 1.0360083070837291e-06 0 0 1.0490556219979129e-06 0 0 1.0622130428994171e-06 0 0 1.0754806583298432e-06 0 0 1.0888585261747071e-06 0 0 1.1023466718962358e-06 0 0 1.1159450866530328e-06 0 0 1.1296537253004764e-06 0 0 1.143472504262077e-06 0 0 1.1574012992653524e-06 0 0 1.1714399429316962e-06 0 0 1.1855882222113978e-06 0 0 1.1998458756530461e-06 0 0 1.2142125904964027e-06 0 0 1.2286879995769946e-06 0 0 1.2432716780294503e-06 0 0 1.2579631397763407e-06 0 0 1.272761833787832e-06 0 0 1.2876671400963011e-06 0 0 1.3026783655497492e-06 0 0 1.3177947392857444e-06 0 0 1.3330154079068075e-06 0 0 1.3483394303369315e-06 0 0 1.3637657723367855e-06 0 0 1.3792933006549052e-06 0 0 1.394920776788411e-06 0 0 1.4106468503273964e-06 0 0 1.4264700518537202e-06 0 0 1.4423887853623639e-06 0 0 1.4584013201738601e-06 0 0 1.4745057823007031e-06 0 0 1.4907001452305662e-06 0 0 1.5069822200859434e-06 0 0 1.5233496451162323e-06 0 0 1.5397998744765151e-06 0 0 1.5563301662432255e-06 0 0 1.5729375696145779e-06 0 0 1.5896189112392784e-06 0 0 1.6063707806141716e-06 0 0 1.6231895144873242e-06 0 0 1.6400711802000584e-06 0 0 1.6570115578963608e-06 0 0 1.6740061215255908e-06 0 0 1.6910500185591467e-06 0 0 1.7081380483392542e-06 0 0 1.7252646389731251e-06 0 0 1.7424238226837437e-06 0 0 1.7596092095242705e-06 0 0 1.7768139593612178e-06 0 0 1.7940307520304651e-06 0 0 1.8112517555685179e-06 0 0 1.8284685924230571e-06 0 0 1.8456723035494995e-06 0 0 1.8628533103042009e-06 0 0 1.880001374054066e-06 0 0 1.8971055534322455e-06 0 0 1.9141541591866696e-06 0 0 1.9311347065890093e-06 0 0 1.9480338654000216e-06 0 0 1.9648374074249015e-06 0 0 1.9815301517392626e-06 0 0 1.9980959077274095e-06 0 0 2.0145174161514127e-06 0 0 2.030776288565475e-06 0 0 2.0468529455105708e-06 0 0 2.0627265540741342e-06 0 0 2.0783749655850249e-06 0 0 2.0937746544441086e-06 0 0 2.1089006593733867e-06 0 0 2.123726528717748e-06 0 0 2.1382242718631085e-06 0 0 2.152364319367474e-06 0 0 2.166115495057383e-06 0 0 2.1794450041556889e-06 0 0 2.1923184425159446e-06 0 0 2.2046998333023001e-06 0 0 2.2165516990432227e-06 0 0 2.2278351790130904e-06 0 0 2.2385102045128132e-06 0 0 2.2485357480651621e-06 0 0 2.2578701671911532e-06 0 0 2.2664716699066538e-06 0 0 2.2742989384454433e-06 0 0 2.2813119619246103e-06 0 0 2.2874731514794565e-06 0 0 2.2927488505769303e-06 0 0 2.2971114262332125e-06 0 0 2.3005422774037105e-06 0 0 2.3030364512479841e-06 0 0 2.304610567666065e-06 0 0 2.305319720299663e-06 0 0 2.3053315321035212e-06 
</DataArray>
<DataArray type="Float64" Name="water_content" format="ascii">
0.20617440531677866 0.20617573138313761 0.20617837764503164 0.20618234497977023 0.20618763470316559 0.2061942485697893 0.20620218877331459 0.20621145794694531 0.20622205916393116 0.20623399593817013 0.20624727222489919 0.20626189242147319 0.20627786136823345 0.20629518434946695 0.20631386709445665 0.20633391577862478 0.20635533702476977 0.20637813790439846 0.20640232593915514 0.20642790910234862 0.20645489582057916 0.20648329497546719 0.20651311590548538 0.20654436840789625 0.20657706274079726 0.20661120962527579 0.20664682024767603 0.20668390626198019 0.20672247979230723 0.20676255343553079 0.20680414026401964 0.20684725382850377 0.20689190816106856 0.20693811777828069 0.20698589768444881 0.20703526337502248 0.20708623084013306 0.20713881656827998 0.20719303755016655 0.20724891128268924 0.20730645577308424 0.20736568954323625 0.20742663163415331 0.20748930161061274 0.20755371956598304 0.20761990612722603 0.20768788246008552 0.20775767027446676 0.20782929183001309 0.20790276994188461 0.20797812798674581 0.20805538990896727 0.20813458022704875 0.20821572404026928 0.20829884703557194 0.20838397549468962 0.20847113630151967 0.20856035694975428 0.20865166555077497 0.20874509084181914 0.20884066219442632 0.20893840962317387 0.20903836379471019 0.2091405560370948 0.20924501834945516 0.20935178341196975 0.20946088459618772 0.20957235597569562 0.20968623233714262 0.2098025491916343 0.20992134278650845 0.21004265011750342 0.21016650894133243 0.21029295778867663 0.21042203597761031 0.21055378362747224 0.21068824167319744 0.21082545188012447 0.21096545685929366 0.21110830008325226 0.21125402590238318 0.21140267956177444 0.21155430721864737 0.21170895596036207 0.21186667382301871 0.21202750981067564 0.21219151391520383 0.21235873713680004 0.21252923150517994 0.21270305010147517 0.21288024708085745 0.2130608776959152 0.21324499832080793 0.2134326664762255 0.21362394085517988 0.21381888134965846 0.21401754907816839 0.21422000641420386 0.21442631701566789 0.21463654585528313 0.21485075925202579 0.21506902490361968 0.21529141192012796 0.21551799085868201 0.21574883375938803 0.21598401418245461 0.21622360724658485 0.21646768966867957 0.21671633980489924 0.21696963769313549 0.21722766509694263 0.21749050555098537 0.21775824440805702 0.21803096888772899 0.21830876812669137 0.21859173323084918 0.21887995732924065 0.21917353562984665 0.21947256547736399 0.21977714641301768 0.22008738023649066 0.22040337107005353 0.2207252254249791 0.22105305227033173 0.22138696310422351 0.22172707202763603 0.22207349582090685 0.22242635402298883 0.22278576901359187 0.22315186609832158 0.22352477359693645 0.22390462293484864 0.22429154873799956 0.22468568893124757 0.22508718484041115 0.22549618129811672 0.22591282675360735 0.22633727338667586 0.22676967722589231 0.22721019827130387 0.22765900062179367 0.22811625260729218 0.2285821269260441 0.22905680078714319 0.22954045605855578 0.23003327942086488 0.2305354625269751 0.23104720216803204 0.23156870044581768 0.23210016495189773 0.23264180895380715 0.23319385158857248 0.23375651806388359 0.23433003986723996 0.23491465498341046 0.23551060812056013 0.23611815094541178 0.23673754232782551 0.237369048595195 0.2380129437970743 0.23866950998046588 0.23933903747621721 0.24002182519698867 0.24071818094727293 0.24142842174596335 0.24215287416198389 0.24289187466351106 0.24364576998133336 0.24441491748690899 0.24519968558569838 0.24600045412635921 0.24681761482640585 0.24765157171494329 0.24850274159309507 0.24937155451274834 0.25025845427424132 0.25116389894361596 0.25208836139005075 0.25303232984407503 0.25399630847714616 0.25498081800314037 0.25598639630227193 0.25701359906790144 0.25806300047663189 0.25913519388201067 0.26023079253205422 0.2613504303106941 0.26249476250309195 0.2636644665845963 0.26486024303290023 0.26608281616270535 0.2673329349818957 0.26861137406786795 0.26991893446224147 0.27125644458167508 0.27262476114192952 0.2740247700916274 0.27545738755135285 0.27692356075278612 0.27842426897145978 0.27996052444542241 0.2815333732705767 0.28314389626168152 0.28479320976593114 0.28648246641359254 0.28821285578734313 0.28998560498863069 0.2918019790754881 0.29366328134169395 0.29557085340184414 0.29752607504066275 0.29953036377757353 0.30158517408896962 0.30369199622054394 0.30585235451019072 0.30806780512802956 0.31033993312364255 0.31267034865116333 0.31506068221982386 0.31751257879023798 0.32002769050417956 0.32260766779679684 0.32525414859372231 0.32796874523962255 0.33075302873717538 0.33360850979337447 0.33653661606968377 0.33953866490889484 0.34261583065785756 0.34576910551234163 0.34899925256528813 0.3523067494243744 0.35569172035265295 0.35915385433780622 0.36269230575176764 0.36630557323060675 0.36999135093697277 0.3737463442212059 0.37756603845992981 0.38144440479556663 0.38537351829054811 0.38934305006698428 0.39333957005085873 0.39734554940427652 0.40133785389905746 0.40528529717206996 0.40914424515129866 0.41284943641823046 0.41628911933480528 0.41896227496108429 
</DataArray>
<DataArray type="Float64" Name="conductivity_richards" format="ascii">