<?xml version="1.0"?>
<VTKFile type="UnstructuredGrid" version="0.1" byte_order="LittleEndian">
<UnstructuredGrid>
<Piece NumberOfPoints="251" NumberOfCells="250">
<Points>
<DataArray type="Float64" NumberOfComponents="3" format="ascii">
0 0 0 0 0 -0.25 0 0 -0.00099999999999810158 0 0 -0.001999999999996204 0 0 -0.0029999999999943271 0 0 -0.0039999999999924488 0 0 -0.004999999999990571 0 0 -0.0059999999999886811 0 0 -0.0069999999999867156 0 0 -0.007999999999984719 0 0 -0.008999999999982581 0 0 -0.0099999999999804221 0 0 -0.010999999999978201 0 0 -0.011999999999975971 0 0 -0.01299999999997375 0 0 -0.01399999999997158 0 0 -0.014999999999969531 0 0 -0.01599999999996761 0 0 -0.0169999999999659 0 0 -0.01799999999996427 0 0 -0.018999999999962731 0 0 -0.019999999999961209 0 0 -0.020999999999959669 0 0 -0.02199999999995814 0 0 -0.022999999999956611 0 0 -0.023999999999955082 0 0 -0.024999999999953549 0 0 -0.02599999999995202 0 0 -0.02699999999995048 0 0 -0.027999999999948951 0 0 -0.028999999999947419 0 0 -0.02999999999994565 0 0 -0.03099999999994377 0 0 -0.031999999999941367 0 0 -0.032999999999938787 0 0 -0.033999999999935943 0 0 -0.034999999999933022 0 0 -0.035999999999930102 0 0 -0.036999999999927188 0 0 -0.037999999999924268 0 0 -0.038999999999921348 0 0 -0.039999999999918427 0 0 -0.040999999999915507 0 0 -0.041999999999912593 0 0 -0.042999999999909673 0 0 -0.043999999999906753 0 0 -0.044999999999903832 0 0 -0.045999999999900919 0 0 -0.046999999999897998 0 0 -0.047999999999895078 0 0 -0.048999999999892158 0 0 -0.049999999999889237 0 0 -0.050999999999886317 0 0 -0.051999999999883403 0 0 -0.052999999999880483 0 0 -0.053999999999877563 0 0 -0.054999999999874642 0 0 -0.055999999999871722 0 0 -0.056999999999868801 0 0 -0.057999999999865881 0 0 -0.058999999999862961 0 0 -0.059999999999860047 0 0 -0.060999999999857127 0 0 -0.061999999999854213 0 0 -0.062999999999851286 0 0 -0.063999999999848373 0 0 -0.064999999999845445 0 0 -0.065999999999842532 0 0 -0.066999999999839618 0 0 -0.067999999999836705 0 0 -0.068999999999833792 0 0 -0.069999999999830878 0 0 -0.070999999999827965 0 0 -0.071999999999825051 0 0 -0.072999999999822124 0 0 -0.07399999999981921 0 0 -0.074999999999816297 0 0 -0.075999999999813383 0 0 -0.07699999999981047 0 0 -0.077999999999807557 0 0 -0.078999999999804643 0 0 -0.07999999999980173 0 0 -0.080999999999798802 0 0 -0.081999999999795889 0 0 -0.082999999999792975 0 0 -0.083999999999790062 0 0 -0.084999999999787149 0 0 -0.085999999999784235 0 0 -0.086999999999781322 0 0 -0.087999999999778394 0 0 -0.088999999999775481 0 0 -0.089999999999772567 0 0 -0.090999999999769654 0 0 -0.091999999999766741 0 0 -0.092999999999763827 0 0 -0.093999999999760914 0 0 -0.094999999999758 0 0 -0.095999999999755073 0 0 -0.096999999999752159 0 0 -0.097999999999749246 0 0 -0.098999999999746333 0 0 -0.099999999999743419 0 0 -0.10099999999974051 0 0 -0.10199999999973761 0 0 -0.10299999999973471 0 0 -0.10399999999973179 0 0 -0.1049999999997288 0 0 -0.1059999999997259 0 0 -0.106999999999723 0 0 -0.1079999999997201 0 0 -0.1089999999997172 0 0 -0.1099999999997143 0 0 -0.1109999999997113 0 0 -0.1119999999997084 0 0 -0.1129999999997055 0 0 -0.1139999999997026 0 0 -0.1149999999996997 0 0 -0.1159999999996968 0 0 -0.11699999999969379 0 0 -0.11799999999969089 0 0 -0.11899999999968799 0 0 -0.11999999999968509 0 0 -0.1209999999996822 0 0 -0.1219999999996793 0 0 -0.1229999999996764 0 0 -0.1239999999996748 0 0 -0.12499999999967321 0 0 -0.12599999999967451 0 0 -0.12699999999967579 0 0 -0.1279999999996784 0 0 -0.12899999999968109 0 0 -0.1299999999996837 0 0 -0.13099999999968631 0 0 -0.13199999999968889 0 0 -0.13299999999969159 0 0 -0.1339999999996942 0 0 -0.13499999999969689 0 0 -0.1359999999996995 0 0 -0.13699999999970211 0 0 -0.1379999999997048 0 0 -0.13899999999970741 0 0 -0.13999999999971011 0 0 -0.14099999999971269 0 0 -0.1419999999997153 0 0 -0.14299999999971799 0 0 -0.1439999999997206 0 0 -0.14499999999972321 0 0 -0.14599999999972579 0 0 -0.14699999999972849 0 0 -0.1479999999997311 0 0 -0.14899999999973379 0 0 -0.1499999999997364 0 0 -0.15099999999973901 0 0 -0.1519999999997417 0 0 -0.15299999999974431 0 0 -0.15399999999974701 0 0 -0.15499999999974959 0 0 -0.1559999999997522 0 0 -0.15699999999975489 0 0 -0.1579999999997575 0 0 -0.15899999999976011 0 0 -0.1599999999997628 0 0 -0.16099999999976539 0 0 -0.161999999999768 0 0 -0.16299999999977069 0 0 -0.1639999999997733 0 0 -0.16499999999977599 0 0 -0.1659999999997786 0 0 -0.16699999999978121 0 0 -0.16799999999978391 0 0 -0.16899999999978649 0 0 -0.1699999999997891 0 0 -0.17099999999979171 0 0 -0.1719999999997944 0 0 -0.17299999999979701 0 0 -0.1739999999997997 0 0 -0.17499999999980231 0 0 -0.17599999999980501 0 0 -0.17699999999980759 0 0 -0.1779999999998102 0 0 -0.17899999999981281 0 0 -0.1799999999998155 0 0 -0.18099999999981811 0 0 -0.18199999999982069 0 0 -0.18299999999982339 0 0 -0.183999999999826 0 0 -0.18499999999982869 0 0 -0.1859999999998313 0 0 -0.18699999999983391 0 0 -0.1879999999998366 0 0 -0.18899999999983921 0 0 -0.18999999999984191 0 0 -0.19099999999984449 0 0 -0.1919999999998471 0 0 -0.19299999999984971 0 0 -0.1939999999998524 0 0 -0.19499999999985501 0 0 -0.1959999999998577 0 0 -0.19699999999986029 0 0 -0.19799999999986301 0 0 -0.19899999999986559 0 0 -0.1999999999998682 0 0 -0.20099999999987081 0 0 -0.2019999999998735 0 0 -0.20299999999987611 0 0 -0.20399999999987881 0 0 -0.20499999999988139 0 0 -0.205999999999884 0 0 -0.20699999999988669 0 0 -0.2079999999998893 0 0 -0.20899999999989191 0 0 -0.2099999999998946 0 0 -0.21099999999989719 0 0 -0.21199999999989991 0 0 -0.21299999999990249 0 0 -0.2139999999999051 0 0 -0.21499999999990771 0 0 -0.2159999999999104 0 0 -0.21699999999991301 0 0 -0.21799999999991571 0 0 -0.21899999999991829 0 0 -0.2199999999999209 0 0 -0.22099999999992359 0 0 -0.2219999999999262 0 0 -0.22299999999992881 0 0 -0.22399999999993139 0 0 -0.22499999999993411 0 0 -0.2259999999999367 0 0 -0.22699999999993939 0 0 -0.227999999999942 0 0 -0.22899999999994469 0 0 -0.2299999999999473 0 0 -0.23099999999994991 0 0 -0.23199999999995249 0 0 -0.23299999999995519 0 0 -0.2339999999999578 0 0 -0.23499999999996049 0 0 -0.2359999999999631 0 0 -0.23699999999996571 0 0 -0.2379999999999684 0 0 -0.23899999999997101 0 0 -0.2399999999999736 0 0 -0.24099999999997629 0 0 -0.2419999999999789 0 0 -0.24299999999998159 0 0 -0.2439999999999842 0 0 -0.24499999999998681 0 0 -0.24599999999998939 0 0 -0.24699999999999209 0 0 -0.2479999999999947 0 0 -0.24899999999999739 
</DataArray>
</Points>
<Cells>
<DataArray type="UInt32" Name="connectivity" format="ascii">
0 2 2 3 3 4 4 5 5 6 6 7 7 8 8 9 9 10 10 11 11 12 12 13 13 14 14 15 15 16 16 17 17 18 18 19 19 20 20 21 21 22 22 23 23 24 24 25 25 26 26 27 27 28 28 29 29 30 30 31 31 32 32 33 33 34 34 35 35 36 36 37 37 38 38 39 39 40 40 41 41 42 42 43 43 44 44 45 45 46 46 47 47 48 48 49 49 50 50 51 51 52 52 53 53 54 54 55 55 56 56 57 57 58 58 59 59 60 60 61 61 62 62 63 63 64 64 65 65 66 66 67 67 68 68 69 69 70 70 71 71 72 72 73 73 74 74 75 75 76 76 77 77 78 78 79 79 80 80 81 81 82 82 83 83 84 84 85 85 86 86 87 87 88 88 89 89 90 90 91 91 92 92 93 93 94 94 95 95 96 96 97 97 98 98 99 99 100 100 101 101 102 102 103 103 104 104 105 105 106 106 107 107 108 108 109 109 110 110 111 111 112 112 113 113 114 114 115 115 116 116 117 117 118 118 119 119 120 120 121 121 122 122 123 123 124 124 125 125 126 126 127 127 128 128 129 129 130 130 131 131 132 132 133 133 134 134 135 135 136 136 137 137 138 138 139 139 140 140 141 141 142 142 143 143 144 144 145 145 146 146 147 147 148 148 149 149 150 150 151 151 152 152 153 153 154 154 155 155 156 156 157 157 158 158 159 159 160 160 161 161 162 162 163 163 164 164 165 165 166 166 167 167 168 168 169 169 170 170 171 171 172 172 173 173 174 174 175 175 176 176 177 177 178 178 179 179 180 180 181 181 182 182 183 183 184 184 185 185 186 186 187 187 188 188 189 189 190 190 191 191 192 192 193 193 194 194 195 195 196 196 197 197 198 198 199 199 200 200 201 201 202 202 203 203 204 204 205 205 206 206 207 207 208 208 209 209 210 210 211 211 212 212 213 213 214 214 215 215 216 216 217 217 218 218 219 219 220 220 221 221 222 222 223 223 224 224 225 225 226 226 227 227 228 228 229 229 230 230 231 231 232 232 233 233 234 234 235 235 236 236 237 237 238 238 239 239 240 240 241 241 242 242 243 243 244 244 245 245 246 246 247 247 248 248 249 249 250 250 1 
</DataArray>
<DataArray type="UInt32" Name="offsets" format="ascii">
2 4 6 8 10 12 14 16 18 20 22 24 26 28 30 32 34 36 38 40 42 44 46 48 50 52 54 56 58 60 62 64 66 68 70 72 74 76 78 80 82 84 86 88 90 92 94 96 98 100 102 104 106 108 110 112 114 116 118 120 122 124 126 128 130 132 134 136 138 140 142 144 146 148 150 152 154 156 158 160 162 164 166 168 170 172 174 176 178 180 182 184 186 188 190 192 194 196 198 200 202 204 206 208 210 212 214 216 218 220 222 224 226 228 230 232 234 236 238 240 242 244 246 248 250 252 254 256 258 260 262 264 266 268 270 272 274 276 278 280 282 284 286 288 290 292 294 296 298 300 302 304 306 308 310 312 314 316 318 320 322 324 326 328 330 332 334 336 338 340 342 344 346 348 350 352 354 356 358 360 362 364 366 368 370 372 374 376 378 380 382 384 386 388 390 392 394 396 398 400 402 404 406 408 410 412 414 416 418 420 422 424 426 428 430 432 434 436 438 440 442 444 446 448 450 452 454 456 458 460 462 464 466 468 470 472 474 476 478 480 482 484 486 488 490 492 494 496 498 500 
</DataArray>
<DataArray type="UInt32" Name="types" format="ascii">
3 3 3 3 3 3 3 3 3 3 3 3 3 3 3 3 3 3 3 3 3 3 3 3 3 3 3 3 3 3 3 3 3 3 3 3 3 3 3 3 3 3 3 3 3 3 3 3 3 3 3 3 3 3 3 3 3 3 3 3 3 3 3 3 3 3 3 3 3 3 3 3 3 3 3 3 3 3 3 3 3 3 3 3 3 3 3 3 3 3 3 3 3 3 3 3 3 3 3 3 3 3 3 3 3 3 3 3 3 3 3 3 3 3 3 3 3 3 3 3 3 3 3 3 3 3 3 3 3 3 3 3 3 3 3 3 3 3 3 3 3 3 3 3 3 3 3 3 3 3 3 3 3 3 3 3 3 3 3 3 3 3 3 3 3 3 3 3 3 3 3 3 3 3 3 3 3 3 3 3 3 3 3 3 3 3 3 3 3 3 3 3 3 3 3 3 3 3 3 3 3 3 3 3 3 3 3 3 3 3 3 3 3 3 3 3 3 3 3 3 3 3 3 3 3 3 3 3 3 3 3 3 3 3 3 3 3 3 3 3 3 3 3 3 3 3 3 3 3 3 
</DataArray>
</Cells>
<CellData Scalars="pressure_p0,water_content,conductivity_richards," Vectors="velocity_p0," Tensors="">
<DataArray type="Float64" Name="pressure_p0" format="ascii">
-6508.5018017337043 -6508.3914981196995 -6508.1718259383542 -6507.8426552873043 -6507.403791315659 -6506.8549742292871 -6506.1958792980249 -6505.4261168649018 -6504.5452323575573 -6503.5527063020463 -6502.4479543391981 -6501.2303272438312 -6499.8991109470699 -6498.4535265620725 -6496.8927304135177 -6495.2158140712017 -6493.4218043881619 -6491.5096635437412 -6489.4782890920524 -6487.3265140163348 -6485.0531067897173 -6482.6567714429402 -6480.1361476395959 -6477.4898107595182 -6474.716271990932 -6471.813978432041 -6468.7813132027341 -6465.6165955671422 -6462.3180810677877 -6458.8839616721016 -6455.3123659321145 -6451.6013591581468 -6447.7489436073647 -6443.7530586880821 -6439.6115811807167 -6435.3223254763425 -6430.8830438337936 -6426.2914266563166 -6421.545102788763 -6416.6416398363908 -6411.5785445063011 -6406.3532629726124 -6400.9631812664702 -6395.4056256920194 -6389.677863269485 -6383.7771022065499 -6377.700492399179 -6371.445125963146 -6365.0080377974446 -6358.3862061808686 -6351.5765534029943 -6344.5759464308594 -6337.3811976126144 -6329.9890654194951 -6322.3962552273815 -6314.5994201393096 -6306.5951618502895 -6298.3800315557573 -6289.9505309050564 -6281.3031130012914 -6272.4341834489624 -6263.3401014507381 -6254.0171809547892 -6244.4616918540441 -6234.6698612387772 -6224.6378747039289 -6214.361877712543 -6203.8379770167048 -6193.0622421373901 -6182.0307069045803 -6170.7393710590295 -6159.1842019170481 -6147.3611360996383 -6135.2660813273469 -6122.8949182821289 -6110.2435025375617 -6097.3076665586523 -6084.0832217725647 -6070.5659607114494 -6056.7516592286311 -6042.6360787893309 -6028.214968837091 -6013.4840692370153 -5998.4391127969329 -5983.0758278675312 -5967.3899410224813 -5951.3771798195248 -5935.0332756434436 -5918.3539666317974 -5901.3350006842775 -5883.9721385564135 -5866.261157038387 -5848.1978522195968 -5829.7780428395727 -5810.9975737257691 -5791.852319318712 -5772.3381872848786 -5752.4511222176225 -5732.187109426397 -5711.5421788144176 -5690.512408844831 -5669.0939305953816 -5647.2829319014581 -5625.0756615873015 -5602.4684337850758 -5579.4576323413767 -5556.0397153106705 -5532.2112195350228 -5507.9687653093497 -5483.309061131351 -5458.2289085351131 -5432.7252070072554 -5406.7949589843774 -5380.4352749304189 -5353.6433784923702 -5326.416611732684 -5298.7524404365504 -5270.6484594920294 -5242.1023983409377 -5213.1121264981493 -5183.6756591368285 -5153.791162736974 -5123.4569607944113 -5092.6715395872252 -5061.433553996485 -5029.7418333777377 -4997.595387479847 -4964.9934124072333 -4931.9352966214929 -4898.4206269783444 -4864.4491947952374 -4830.0210019451215 -4795.1362669713872 -4759.7954312188594 -4723.999164975452 -4687.7483736188497 -4651.0442037623325 -4613.8880493935994 -4576.2815580001825 -4538.2266366747335 -4499.7254581932484 -4460.7804670589667 -4421.3943855044017 -4381.5702194436744 -4341.3112643669883 -4300.6211111688017 -4259.5036519009354 -4217.9630854415127 -4176.003923070306 -4133.6309939407383 -4090.8494504384398 -4047.6647734158842 -4004.0827772923285 -3960.1096150078574 -3915.7517828200016 -3871.0161249309986 -3825.9098379333918 -3780.4404750612975 -3734.6159502342016 -3688.4445418798086 -3641.9348965220483 -3595.0960321198677 -3547.9373411420834 -3500.4685933631081 -3452.6999383638886 -3404.6419077220148 -3356.3054168744611 -3307.7017666359598 -3258.8426443555954 -3209.7401246936474 -3160.4066700003132 -3110.8551302774358 -3061.0987427038563 -3011.1511307045207 -2961.0263025430058 -2910.7386494166003 -2860.3029430325737 -2809.7343326437704 -2759.0483415211429 -2708.2608628403614 -2657.3881549590801 -2606.4468360609467 -2555.4538781419478 -2504.4266003141847 -2453.3826614016079 -2402.340051801827 -2351.3170845875511 -2300.3323858207709 -2249.4048840523355 -2198.5537989790455 -2147.7986292300402 -2097.1591392537412 -2046.6553452762655 -1996.3075003018221 -1946.1360781252383 -1896.1617563264326 -1846.4053982163955 -1796.8880337039436 -1747.6308390523304 -1698.6551154946117 -1649.9822666765635 -1601.6337748959231 -1553.6311761066886 -1505.9960336573167 -1458.7499107318295 -1411.9143414630535 -1365.5108006875448 -1319.5606723121964 -1274.0852162629653 -1229.1055339868317 -1184.6425324787897 -1140.7168868064214 -1097.3490011055571 -1054.5589680214325 -1012.3665265707782 -970.79101840133524 -929.85134242625281 -889.56590781175305 -849.95258529718558 -811.02865682697905 -772.81076347390592 -735.314851632265 -698.5561174576128 -662.54894952626194 -627.30686968211512 -592.84247202973484 -559.1673600196425 -526.29208155313097 -494.22606200697987 -462.97753504025331 -432.55347099137401 -402.95950259740471 -374.19984765978774 -346.27722812808622 -319.19278485554383 -292.94598696724768 -267.53453432660365 -242.95425091510165 -219.19896593460908 -196.26037790100114 -174.12789457676041 -152.78843766130149 -132.22619452597397 -112.42228751978107 -93.354309156647716 -74.995625904942585 -57.314248438120686 -40.270780570861263 -23.813918148577091 -7.8623918339809702 
</DataArray>
<DataArray type="Float64" Name="velocity_p0" NumberOfComponents="3" format="ascii">
0 0 7.8566618929247047e-10 0 0 2.3574937423012136e-09 0 0 3.9308067465186344e-09 0 0 5.5065955574961028e-09 0 0 7.0858509071564343e-09 0 0 8.6695640534994191e-09 0 0 1.0258726929749681e-08 0 0 1.1854332293248299e-08 0 0 1.3457373872920583e-08 0 0 1.5068846516080265e-08 0 0 1.6689746334435585e-08 0 0 1.8321070848101279e-08 0 0 1.996381912886854e-08 0 0 2.1618991941601069e-08 0 0 2.328759188406429e-08 0 0 2.4970623524839602e-08 0 0 2.6669093539399678e-08 0 0 2.838401084394509e-08 0 0 3.0116386727293803e-08 0 0 3.1867234979947443e-08 0 0 3.3637572021197432e-08 0 0 3.5428417023289007e-08 0 0 3.724079203299758e-08 0 0 3.9075722090251767e-08 0 0 4.0934235344005881e-08 0 0 4.2817363164874525e-08 0 0 4.472614025473214e-08 0 0 4.6661604752667161e-08 0 0 4.8624798338200253e-08 0 0 5.0616766330507737e-08 0 0 5.2638557784196364e-08 0 0 5.4691225581634713e-08 0 0 5.6775826521261901e-08 0 0 5.8893421402246797e-08 0 0 6.1045075105242609e-08 0 0 6.3231856669210292e-08 0 0 6.5454839363936531e-08 0 0 6.771510075896038e-08 0 0 7.0013722787958254e-08 0 0 7.235179180894862e-08 0 0 7.4730398660397942e-08 0 0 7.7150638713049035e-08 0 0 7.9613611917225038e-08 0 0 8.212042284599813e-08 0 0 8.4672180733753431e-08 0 0 8.7269999510430322e-08 0 0 8.9914997831468476e-08 0 0 9.2608299102945238e-08 0 0 9.5351031502714767e-08 0 0 9.8144327996575599e-08 0 0 1.0098932635052117e-07 0 0 1.0388716913792522e-07 0 0 1.0683900374302669e-07 0 0 1.0984598235895402e-07 0 0 1.1290926198263546e-07 0 0 1.16030004404029e-07 0 0 1.1920937619203611e-07 0 0 1.2244854867537199e-07 0 0 1.257486979194278e-07 0 0 1.2911100469905286e-07 0 0 1.3253665446677112e-07 0 0 1.3602683731716391e-07 0 0 1.3958274794695668e-07 0 0 1.4320558561112026e-07 0 0 1.4689655407527854e-07 0 0 1.5065686156344848e-07 0 0 1.5448772070295089e-07 0 0 1.5839034846483852e-07 0 0 1.6236596610070186e-07 0 0 1.6641579907625203e-07 0 0 1.7054107700086615e-07 0 0 1.7474303355417695e-07 0 0 1.7902290640884306e-07 0 0 1.8338193715042951e-07 0 0 1.8782137119363363e-07 0 0 1.9234245769613435e-07 0 0 1.9694644946862602e-07 0 0 2.0163460288232286e-07 0 0 2.064081777738969e-07 0 0 2.1126843734718674e-07 0 0 2.1621664807258329e-07 0 0 2.2125407958374369e-07 0 0 2.2638200457194559e-07 0 0 2.3160169867816475e-07 0 0 2.3691444038255077e-07 0 0 2.4232151089199969e-07 0 0 2.478241940257304e-07 0 0 2.5342377609867657e-07 0 0 2.5912154580277945e-07 0 0 2.6491879408681387e-07 0 0 2.7081681403441074e-07 0 0 2.7681690073970698e-07 0 0 2.829203511825177e-07 0 0 2.8912846410090622e-07 0 0 2.9544253986266695e-07 0 0 3.0186388033542264e-07 0 0 3.0839378875490583e-07 0 0 3.1503356959240908e-07 0 0 3.2178452842021297e-07 0 0 3.2864797177603609e-07 0 0 3.356252070263175e-07 0 0 3.4271754222744663e-07 0 0 3.4992628598630034e-07 0 0 3.5725274731928553e-07 0 0 3.6469823550945303e-07 0 0 3.7226405996263016e-07 0 0 3.7995153006192499e-07 0 0 3.8776195502027063e-07 0 0 3.9569664373169499e-07 0 0 4.0375690462030325e-07 0 0 4.1194404548753922e-07 0 0 4.2025937335745598e-07 0 0 4.2870419431905623e-07 0 0 4.3727981336690462e-07 0 0 4.4598753423852055e-07 0 0 4.5482865924868465e-07 0 0 4.6380448912131491e-07 0 0 4.7291632281658929e-07 0 0 4.821654573551973e-07 0 0 4.9155318763803265e-07 0 0 5.0108080626096598e-07 0 0 5.1074960332502907e-07 0 0 5.2056086624083705e-07 0 0 5.3051587952685094e-07 0 0 5.4061592460137499e-07 0 0 5.5086227956714251e-07 0 0 5.6125621898793267e-07 0 0 5.7179901365713196e-07 0 0 5.8249193035647285e-07 0 0 5.9333623160489283e-07 0 0 6.0433317539645106e-07 0 0 6.1548401492639348e-07 0 0 6.2678999830392623e-07 0 0 6.3825236825121547e-07 0 0 6.4987236178719422e-07 0 0 6.6165120989494949e-07 0 0 6.7359013717087164e-07 0 0 6.8569036145496398e-07 0 0 6.9795309344014026e-07 0 0 7.1037953625903548e-07 0 0 7.2297088504635457e-07 0 0 7.3572832647538374e-07 0 0 7.4865303826549616e-07 0 0 7.6174618866006037e-07 0 0 7.7500893587041265e-07 0 0 7.8844242748546222e-07 0 0 8.0204779984217179e-07 0 0 8.1582617735559457e-07 0 0 8.2977867180428892e-07 0 0 8.4390638156822786e-07 0 0 8.582103908154618e-07 0 0 8.7269176863387003e-07 0 0 8.8735156810303651e-07 0 0 9.021908253030725e-07 0 0 9.1721055825433568e-07 0 0 9.3241176578369962e-07 0 0 9.4779542631156686e-07 0 0 9.6336249655335378e-07 0 0 9.7911391012960084e-07 0 0 9.9505057607775432e-07 0 0 1.0111733772574693e-06 0 0 1.0274831686426336e-06 0 0 1.0439807754905148e-06 0 0 1.0606669913795572e-06 0 0 1.077542576105331e-06 0 0 1.0946082534244891e-06 0 0 1.1118647086344037e-06 0 0 1.1293125859772674e-06 0 0 1.146952485853797e-06 0 0 1.1647849618334993e-06 0 0 1.1828105174449039e-06 0 0 1.2010296027293414e-06 0 0 1.2194426105400923e-06 0 0 1.2380498725673529e-06 0 0 1.2568516550676375e-06 0 0 1.2758481542744553e-06 0 0 1.2950394914665808e-06 0 0 1.3144257076656193e-06 0 0 1.334006757935025e-06 0 0 1.3537825052484344e-06 0 0 1.3737527138942929e-06 0 0 1.3939170423788479e-06 0 0 1.4142750357885073e-06 0 0 1.4348261175681528e-06 0 0 1.4555695806683449e-06 0 0 1.4765045780113914e-06 0 0 1.497630112220563e-06 0 0 1.5189450245530522e-06 0 0 1.5404479829726576e-06 0 0 1.562137469290745e-06 0 0 1.5840117653005794e-06 0 0 1.6060689378222105e-06 0 0 1.6283068225674343e-06 0 0 1.6507230067290689e-06 0 0 1.6733148101881051e-06 0 0 1.6960792652251318e-06 0 0 1.7190130946113408e-06 0 0 1.7421126879458277e-06 0 0 1.7653740760929558e-06 0 0 1.7887929035626898e-06 0 0 1.8123643986638176e-06 0 0 1.8360833412451785e-06 0 0 1.8599440278273929e-06 0 0 1.8839402339102009e-06 0 0 1.9080651732249903e-06 0 0 1.9323114536853526e-06 0 0 1.9566710297699183e-06 0 0 1.9811351510545503e-06 0 0 2.0056943065919062e-06 0 0 2.0303381648179711e-06 0 0 2.0550555086487298e-06 0 0 2.0798341654120084e-06 0 0 2.1046609312467858e-06 0 0 2.1295214895902058e-06 0 0 2.1544003233660284e-06 0 0 2.1792806204885178e-06 0 0 2.2041441723033771e-06 0 0 2.2289712646084324e-06 0 0 2.2537405609316912e-06 0 0 2.278428977800356e-06 0 0 2.3030115518167082e-06 0 0 2.3274612984728961e-06 0 0 2.3517490627963077e-06 0 0 2.3758433621340224e-06 0 0 2.3997102216703065e-06 0 0 2.4233130036521366e-06 0 0 2.446612231788522e-06 0 0 2.469565412931837e-06 0 0 2.4921268589738084e-06 0 0 2.5142475129502422e-06 0 0 2.5358747847090781e-06 0 0 2.5569524032350801e-06 0 0 2.5774202949512843e-06 0 0 2.5972145001657474e-06 0 0 2.6162671434907554e-06 0 0 2.6345064787821629e-06 0 0 2.651857035284493e-06 0 0 2.6682398997461328e-06 0 0 2.6835731800794658e-06 0 0 2.6977727109595517e-06 0 0 2.710753082732383e-06 0 0 2.7224291060115754e-06 0 0 2.7327178727986468e-06 0 0 2.7415416561914543e-06 0 0 2.7488320392740928e-06 0 0 2.7545359663638433e-06 0 0 2.7586251185285422e-06 0 0 2.7611120353652053e-06 0 0 2.7620843819674431e-06 0 0 2.7618551041743443e-06 
</DataArray>
<DataArray type="Float64" Name="water_content" format="ascii">
0.20448165554026101 0.20448231577258583 0.20448363068111902 0.20448560112441849 0.20448822839043967 0.20449151419688638 0.20449546069167845 0.20450007045353702 0.20450534649268653 0.20451129225167475 0.20451791160631042 0.2045252088667194 0.20453318877851923 0.20454185652411261 0.20455121772410073 0.20456127843881633 0.2045720451699776 0.20458352486246317 0.2045957249062092 0.20460865313822924 0.20462231784475748 0.20463672776351652 0.20465189208611059 0.20466782046054516 0.20468452299387396 0.20470201025497503 0.2047202932774565 0.20473938356269372 0.20475929308299939 0.20478003428492791 0.20480162009271555 0.20482406391185876 0.20484737963283178 0.2048715816349459 0.20489668479035239 0.20492270446819133 0.20494965653888872 0.20497755737860424 0.20500642387383244 0.20503627342616015 0.2050671239571828 0.20509899391358294 0.20513190227237452 0.20516586854631558 0.20520091278949398 0.205237055603089 0.20527431814131375 0.20531272211754192 0.20535228981062351 0.20539304407139461 0.20543500832938549 0.20547820659973259 0.20552266349029957 0.20556840420901323 0.20561545457142028 0.20566384100847096 0.205713590574536 0.20576473095566422 0.20581729047808719 0.20587129811697891 0.20592678350547811 0.20598377694398143 0.20604230940971591 0.20610241256659967 0.20616411877539997 0.20622746110419907 0.20629247333917666 0.20635918999572089 0.20642764632987806 0.20649787835015282 0.20656992282967102 0.20664381731871737 0.20671960015766133 0.20679731049028455 0.20687698827752438 0.20695867431164766 0.20704241023087097 0.20712823853444268 0.20721620259820384 0.20730634669064546 0.20739871598948001 0.20749335659874615 0.20759031556646665 0.20768964090287939 0.20779138159926352 0.20789558764738236 0.20800231005956671 0.20811160088946226 0.20822351325346661 0.20833810135288172 0.20845542049680937 0.20857552712581753 0.20869847883640791 0.20882433440631468 0.20895315382066729 0.20908499829904995 0.20921993032349334 0.20935801366743456 0.20949931342568312 0.20964389604543224 0.20979182935835738 0.20994318261384384 0.21009802651338852 0.21025643324622306 0.21041847652620613 0.21058423163003614 0.2107537754368371 0.21092718646917297 0.21110454493554842 0.21128593277445562 0.21147143370003063 0.21166113324938488 0.21185511883167979 0.21205347977901712 0.2122563073992193 0.21246369503057844 0.21267573809865556 0.21289253417521609 0.21311418303939067 0.21334078674115514 0.21357244966722821 0.21380927860948848 0.21405138283601902 0.21429887416489174 0.21455186704080881 0.21481047861472541 0.21507482882658241 0.21534504049128428 0.21562123938806593 0.21590355435339467 0.21619211737756616 0.21648706370515614 0.21678853193950101 0.21709666415138706 0.21741160599213832 0.21773350681130116 0.21806251977913485 0.21839880201412748 0.218742514715767 0.21909382330281024 0.2194528975573041 0.21981991177462606 0.22019504491982594 0.22057848079056397 0.2209704081869569 0.22137102108865925 0.22178051883952402 0.22219910634020518 0.22262699424908411 0.22306439919192061 0.22351154398065221 0.22396865784178643 0.22443597665485523 0.22491374320142526 0.22540220742518424 0.22590162670365127 0.2264122661320887 0.22693439882022304 0.22746830620241593 0.22801427836196034 0.22857261437021259 0.22914362264130939 0.2297276213032588 0.23032493858623618 0.23093591322895968 0.23156089490406712 0.23220024466346345 0.23285433540465886 0.23352355235917116 0.23420829360412088 0.23490897059820467 0.23562600874329276 0.23635984797295778 0.23711094336930688 0.23787976580955295 0.23866680264383086 0.23947255840583037 0.2402975555578894 0.24114233527226009 0.24200745825032988 0.24289350558164913 0.2438010796446845 0.24473080505127864 0.24568332963685813 0.24665932549848374 0.24765949008288074 0.24868454732662049 0.24973524885064391 0.25081237521131672 0.25191673721018704 0.253049177264564 0.25421057084095344 0.25540182795326094 0.25662389472749247 0.25787775503444554 0.25916443219156765 0.26048499073474757 0.2618405382602923 0.2632322273366865 0.26466125748492331 0.26612887722518852 0.26763638618644725 0.26918513727396848 0.2707765388879792 0.27241205718439371 0.27409321836584377 0.27582161098793773 0.27759888826169044 0.2794267703282593 0.28130704647631399 0.28324157726537358 0.28523229651001741 0.28728121306971854 0.28939041237681384 0.29156205762038417 0.29379839048603723 0.29610173133014717 0.29847447864121229 0.30091910760969898 0.30343816758987485 0.3060342781912353 0.30871012368140183 0.31146844531457213 0.31431203111689482 0.31724370255897461 0.32026629742152013 0.32338264800707756 0.32659555366119819 0.32990774633020592 0.333321847586451 0.3368403151771639 0.34046537667419408 0.34419894718274868 0.34804252725500173 0.35199707607050373 0.35606285346912048 0.36023922236336081 0.36452440010466869 0.36891514300740286 0.37340634152212038 0.37799049280326535 0.38265699936997355 0.38739121053613723 0.39217306264511881 0.3969750498587985 0.40175897564670582 0.4064702051156357 0.4110258351370587 0.41528305536832111 0.41865699832451386 
</DataArray>
<DataArray type="Float64" Name="conductivity_richards" format="ascii">