<?xml version="1.0"?>
<VTKFile type="UnstructuredGrid" version="0.1" byte_order="LittleEndian">
<UnstructuredGrid>
<Piece NumberOfPoints="251" NumberOfCells="250">
<Points>
<DataArray type="Float64" NumberOfComponents="3" format="ascii">
0 0 0 0 0 -0.25 0 0 -0.00099999999999810158 0 0 -0.001999999999996204 0 0 -0.0029999999999943271 0 0 -0.0039999999999924488 0 0 -0.004999999999990571 0 0 -0.0059999999999886811 0 0 -0.0069999999999867156 0 0 -0.007999999999984719 0 0 -0.008999999999982581 0 0 -0.0099999999999804221 0 0 -0.010999999999978201 0 0 -0.011999999999975971 0 0 -0.01299999999997375 0 0 -0.01399999999997158 0 0 -0.014999999999969531 0 0 -0.01599999999996761 0 0 -0.0169999999999659 0 0 -0.01799999999996427 0 0 -0.018999999999962731 0 0 -0.019999999999961209 0 0 -0.020999999999959669 0 0 -0.02199999999995814 0 0 -0.022999999999956611 0 0 -0.023999999999955082 0 0 -0.024999999999953549 0 0 -0.02599999999995202 0 0 -0.02699999999995048 0 0 -0.027999999999948951 0 0 -0.028999999999947419 0 0 -0.02999999999994565 0 0 -0.03099999999994377 0 0 -0.031999999999941367 0 0 -0.032999999999938787 0 0 -0.033999999999935943 0 0 -0.034999999999933022 0 0 -0.035999999999930102 0 0 -0.036999999999927188 0 0 -0.037999999999924268 0 0 -0.038999999999921348 0 0 -0.039999999999918427 0 0 -0.040999999999915507 0 0 -0.041999999999912593 0 0 -0.042999999999909673 0 0 -0.043999999999906753 0 0 -0.044999999999903832 0 0 -0.045999999999900919 0 0 -0.046999999999897998 0 0 -0.047999999999895078 0 0 -0.048999999999892158 0 0 -0.049999999999889237 0 0 -0.050999999999886317 0 0 -0.051999999999883403 0 0 -0.052999999999880483 0 0 -0.053999999999877563 0 0 -0.054999999999874642 0 0 -0.055999999999871722 0 0 -0.056999999999868801 0 0 -0.057999999999865881 0 0 -0.058999999999862961 0 0 -0.059999999999860047 0 0 -0.060999999999857127 0 0 -0.061999999999854213 0 0 -0.062999999999851286 0 0 -0.063999999999848373 0 0 -0.064999999999845445 0 0 -0.065999999999842532 0 0 -0.066999999999839618 0 0 -0.067999999999836705 0 0 -0.068999999999833792 0 0 -0.069999999999830878 0 0 -0.070999999999827965 0 0 -0.071999999999825051 0 0 -0.072999999999822124 0 0 -0.07399999999981921 0 0 -0.074999999999816297 0 0 -0.075999999999813383 0 0 -0.07699999999981047 0 0 -0.077999999999807557 0 0 -0.078999999999804643 0 0 -0.07999999999980173 0 0 -0.080999999999798802 0 0 -0.081999999999795889 0 0 -0.082999999999792975 0 0 -0.083999999999790062 0 0 -0.084999999999787149 0 0 -0.085999999999784235 0 0 -0.086999999999781322 0 0 -0.087999999999778394 0 0 -0.088999999999775481 0 0 -0.089999999999772567 0 0 -0.090999999999769654 0 0 -0.091999999999766741 0 0 -0.092999999999763827 0 0 -0.093999999999760914 0 0 -0.094999999999758 0 0 -0.095999999999755073 0 0 -0.096999999999752159 0 0 -0.097999999999749246 0 0 -0.098999999999746333 0 0 -0.099999999999743419 0 0 -0.10099999999974051 0 0 -0.10199999999973761 0 0 -0.10299999999973471 0 0 -0.10399999999973179 0 0 -0.1049999999997288 0 0 -0.1059999999997259 0 0 -0.106999999999723 0 0 -0.1079999999997201 0 0 -0.1089999999997172 0 0 -0.1099999999997143 0 0 -0.1109999999997113 0 0 -0.1119999999997084 0 0 -0.1129999999997055 0 0 -0.1139999999997026 0 0 -0.1149999999996997 0 0 -0.1159999999996968 0 0 -0.11699999999969379 0 0 -0.11799999999969089 0 0 -0.11899999999968799 0 0 -0.11999999999968509 0 0 -0.1209999999996822 0 0 -0.1219999999996793 0 0 -0.1229999999996764 0 0 -0.1239999999996748 0 0 -0.12499999999967321 0 0 -0.12599999999967451 0 0 -0.12699999999967579 0 0 -0.1279999999996784 0 0 -0.12899999999968109 0 0 -0.1299999999996837 0 0 -0.13099999999968631 0 0 -0.13199999999968889 0 0 -0.13299999999969159 0 0 -0.1339999999996942 0 0 -0.13499999999969689 0 0 -0.1359999999996995 0 0 -0.13699999999970211 0 0 -0.1379999999997048 0 0 -0.13899999999970741 0 0 -0.13999999999971011 0 0 -0.14099999999971269 0 0 -0.1419999999997153 0 0 -0.14299999999971799 0 0 -0.1439999999997206 0 0 -0.14499999999972321 0 0 -0.14599999999972579 0 0 -0.14699999999972849 0 0 -0.1479999999997311 0 0 -0.14899999999973379 0 0 -0.1499999999997364 0 0 -0.15099999999973901 0 0 -0.1519999999997417 0 0 -0.15299999999974431 0 0 -0.15399999999974701 0 0 -0.15499999999974959 0 0 -0.1559999999997522 0 0 -0.15699999999975489 0 0 -0.1579999999997575 0 0 -0.15899999999976011 0 0 -0.1599999999997628 0 0 -0.16099999999976539 0 0 -0.161999999999768 0 0 -0.16299999999977069 0 0 -0.1639999999997733 0 0 -0.16499999999977599 0 0 -0.1659999999997786 0 0 -0.16699999999978121 0 0 -0.16799999999978391 0 0 -0.16899999999978649 0 0 -0.1699999999997891 0 0 -0.17099999999979171 0 0 -0.1719999999997944 0 0 -0.17299999999979701 0 0 -0.1739999999997997 0 0 -0.17499999999980231 0 0 -0.17599999999980501 0 0 -0.17699999999980759 0 0 -0.1779999999998102 0 0 -0.17899999999981281 0 0 -0.1799999999998155 0 0 -0.18099999999981811 0 0 -0.18199999999982069 0 0 -0.18299999999982339 0 0 -0.183999999999826 0 0 -0.18499999999982869 0 0 -0.1859999999998313 0 0 -0.18699999999983391 0 0 -0.1879999999998366 0 0 -0.18899999999983921 0 0 -0.18999999999984191 0 0 -0.19099999999984449 0 0 -0.1919999999998471 0 0 -0.19299999999984971 0 0 -0.1939999999998524 0 0 -0.19499999999985501 0 0 -0.1959999999998577 0 0 -0.19699999999986029 0 0 -0.19799999999986301 0 0 -0.19899999999986559 0 0 -0.1999999999998682 0 0 -0.20099999999987081 0 0 -0.2019999999998735 0 0 -0.20299999999987611 0 0 -0.20399999999987881 0 0 -0.20499999999988139 0 0 -0.205999999999884 0 0 -0.20699999999988669 0 0 -0.2079999999998893 0 0 -0.20899999999989191 0 0 -0.2099999999998946 0 0 -0.21099999999989719 0 0 -0.21199999999989991 0 0 -0.21299999999990249 0 0 -0.2139999999999051 0 0 -0.21499999999990771 0 0 -0.2159999999999104 0 0 -0.21699999999991301 0 0 -0.21799999999991571 0 0 -0.21899999999991829 0 0 -0.2199999999999209 0 0 -0.22099999999992359 0 0 -0.2219999999999262 0 0 -0.22299999999992881 0 0 -0.22399999999993139 0 0 -0.22499999999993411 0 0 -0.2259999999999367 0 0 -0.22699999999993939 0 0 -0.227999999999942 0 0 -0.22899999999994469 0 0 -0.2299999999999473 0 0 -0.23099999999994991 0 0 -0.23199999999995249 0 0 -0.23299999999995519 0 0 -0.2339999999999578 0 0 -0.23499999999996049 0 0 -0.2359999999999631 0 0 -0.23699999999996571 0 0 -0.2379999999999684 0 0 -0.23899999999997101 0 0 -0.2399999999999736 0 0 -0.24099999999997629 0 0 -0.2419999999999789 0 0 -0.24299999999998159 0 0 -0.2439999999999842 0 0 -0.24499999999998681 0 0 -0.24599999999998939 0 0 -0.24699999999999209 0 0 -0.2479999999999947 0 0 -0.24899999999999739 
</DataArray>
</Points>
<Cells>
<DataArray type="UInt32" Name="connectivity" format="ascii">
0 2 2 3 3 4 4 5 5 6 6 7 7 8 8 9 9 10 10 11 11 12 12 13 13 14 14 15 15 16 16 17 17 18 18 19 19 20 20 21 21 22 22 23 23 24 24 25 25 26 26 27 27 28 28 29 29 30 30 31 31 32 32 33 33 34 34 35 35 36 36 37 37 38 38 39 39 40 40 41 41 42 42 43 43 44 44 45 45 46 46 47 47 48 48 49 49 50 50 51 51 52 52 53 53 54 54 55 55 56 56 57 57 58 58 59 59 60 60 61 61 62 62 63 63 64 64 65 65 66 66 67 67 68 68 69 69 70 70 71 71 72 72 73 73 74 74 75 75 76 76 77 77 78 78 79 79 80 80 81 81 82 82 83 83 84 84 85 85 86 86 87 87 88 88 89 89 90 90 91 91 92 92 93 93 94 94 95 95 96 96 97 97 98 98 99 99 100 100 101 101 102 102 103 103 104 104 105 105 106 106 107 107 108 108 109 109 110 110 111 111 112 112 113 113 114 114 115 115 116 116 117 117 118 118 119 119 120 120 121 121 122 122 123 123 124 124 125 125 126 126 127 127 128 128 129 129 130 130 131 131 132 132 133 133 134 134 135 135 136 136 137 137 138 138 139 139 140 140 141 141 142 142 143 143 144 144 145 145 146 146 147 147 148 148 149 149 150 150 151 151 152 152 153 153 154 154 155 155 156 156 157 157 158 158 159 159 160 160 161 161 162 162 163 163 164 164 165 165 166 166 167 167 168 168 169 169 170 170 171 171 172 172 173 173 174 174 175 175 176 176 177 177 178 178 179 179 180 180 181 181 182 182 183 183 184 184 185 185 186 186 187 187 188 188 189 189 190 190 191 191 192 192 193 193 194 194 195 195 196 196 197 197 198 198 199 199 200 200 201 201 202 202 203 203 204 204 205 205 206 206 207 207 208 208 209 209 210 210 211 211 212 212 213 213 214 214 215 215 216 216 217 217 218 218 219 219 220 220 221 221 222 222 223 223 224 224 225 225 226 226 227 227 228 228 229 229 230 230 231 231 232 232 233 233 234 234 235 235 236 236 237 237 238 238 239 239 240 240 241 241 242 242 243 243 244 244 245 245 246 246 247 247 248 248 249 249 250 250 1 
</DataArray>
<DataArray type="UInt32" Name="offsets" format="ascii">
2 4 6 8 10 12 14 16 18 20 22 24 26 28 30 32 34 36 38 40 42 44 46 48 50 52 54 56 58 60 62 64 66 68 70 72 74 76 78 80 82 84 86 88 90 92 94 96 98 100 102 104 106 108 110 112 114 116 118 120 122 124 126 128 130 132 134 136 138 140 142 144 146 148 150 152 154 156 158 160 162 164 166 168 170 172 174 176 178 180 182 184 186 188 190 192 194 196 198 200 202 204 206 208 210 212 214 216 218 220 222 224 226 228 230 232 234 236 238 240 242 244 246 248 250 252 254 256 258 260 262 264 266 268 270 272 274 276 278 280 282 284 286 288 290 292 294 296 298 300 302 304 306 308 310 312 314 316 318 320 322 324 326 328 330 332 334 336 338 340 342 344 346 348 350 352 354 356 358 360 362 364 366 368 370 372 374 376 378 380 382 384 386 388 390 392 394 396 398 400 402 404 406 408 410 412 414 416 418 420 422 424 426 428 430 432 434 436 438 440 442 444 446 448 450 452 454 456 458 460 462 464 466 468 470 472 474 476 478 480 482 484 486 488 490 492 494 496 498 500 
</DataArray>
<DataArray type="UInt32" Name="types" format="ascii">
3 3 3 3 3 3 3 3 3 3 3 3 3 3 3 3 3 3 3 3 3 3 3 3 3 3 3 3 3 3 3 3 3 3 3 3 3 3 3 3 3 3 3 3 3 3 3 3 3 3 3 3 3 3 3 3 3 3 3 3 3 3 3 3 3 3 3 3 3 3 3 3 3 3 3 3 3 3 3 3 3 3 3 3 3 3 3 3 3 3 3 3 3 3 3 3 3 3 3 3 3 3 3 3 3 3 3 3 3 3 3 3 3 3 3 3 3 3 3 3 3 3 3 3 3 3 3 3 3 3 3 3 3 3 3 3 3 3 3 3 3 3 3 3 3 3 3 3 3 3 3 3 3 3 3 3 3 3 3 3 3 3 3 3 3 3 3 3 3 3 3 3 3 3 3 3 3 3 3 3 3 3 3 3 3 3 3 3 3 3 3 3 3 3 3 3 3 3 3 3 3 3 3 3 3 3 3 3 3 3 3 3 3 3 3 3 3 3 3 3 3 3 3 3 3 3 3 3 3 3 3 3 3 3 3 3 3 3 3 3 3 3 3 3 3 3 3 3 3 3 
</DataArray>
</Cells>
<CellData Scalars="pressure_p0,saturation,conductivity_out," Vectors="velocity_p0," Tensors="">
<DataArray type="Float64" Name="pressure_p0" format="ascii">
-6128.7290881794806 -6128.4977241610859 -6128.035961348839 -6127.3437302208285 -6126.4209265485133 -6125.2674114664187 -6123.8830115650871 -6122.2675190072823 -6120.4206916674739 -6118.3422532946006 -6116.0318936981485 -6113.4892689575618 -6110.7140016550129 -6107.705681131547 -6104.4638637666421 -6100.9880732812217 -6097.2778010641359 -6093.332506522167 -6089.1516174535809 -6084.7345304452701 -6080.0806112935406 -6075.1891954485654 -6070.0595884825561 -6064.6910665817104 -6059.0828770619573 -6053.2342389085788 -6047.1443433397271 -6040.8123543938864 -6034.2374095413497 -6027.4186203197423 -6020.3550729936305 -6013.0458292382873 -6005.4899268476311 -5997.6863804664117 -5989.634182346661 -5981.3323031284654 -5972.7796926451065 -5963.9752807525747 -5954.9179781835319 -5945.6066774257206 -5936.040253624873 -5926.2175655121318 -5916.1374563560175 -5905.7987549389272 -5895.200276558222 -5884.340824051882 -5873.2191888487359 -5861.8341520432632 -5850.1844854949677 -5838.2689529522941 -5826.0863112010793 -5813.6353112374854 -5800.9146994654166 -5787.9232189183294 -5774.6596105054177 -5761.1226142820833 -5747.3109707446547 -5733.2234221492308 -5718.85871385459 -5704.2155956890438 -5689.2928233411367 -5674.089159774052 -5658.6033766635974 -5642.8342558596105 -5626.7805908706359 -5610.4411883716821 -5593.8148697348752 -5576.9004725828072 -5559.6968523643582 -5542.2028839527475 -5524.417463265575 -5506.3395089065762 -5487.9679638288126 -5469.301797018984 -5450.3400052025463 -5431.0816145693052 -5411.5256825191136 -5391.6712994272966 -5371.517590429401 -5351.0637172248571 -5330.3088798991103 -5309.2523187637416 -5287.8933162141093 -5266.231198603994 -5244.265338136709 -5221.9951547721221 -5199.4201181489962 -5176.5397495220495 -5153.3536237130866 -5129.861371075548 -5106.0626794717818 -5081.957296262317 -5057.5450303063853 -5032.8257539729202 -5007.7994051612286 -4982.4659893304797 -4956.825581537154 -4930.8783284795491 -4904.6244505483983 -4878.064243882638 -4851.1980824293096 -4824.0264200065803 -4796.5497923687817 -4768.7688192723772 -4740.6842065416877 -4712.2967481332144 -4683.6073281973167 -4654.616923136 -4625.3266036554796 -4595.7375368122139 -4565.8509880510028 -4535.6683232337127 -4505.191010657185 -4474.4206230588152 -4443.3588396081977 -4412.0074478832985 -4380.3683458294672 -4348.4435436995936 -4316.2351659736905 -4283.7454532561014 -4250.9767641484705 -4217.9315770966223 -4184.6124922093913 -4151.0222330473953 -4117.1636483797847 -4083.0397139067418 -4048.6535339457396 -4014.0083430792311 -3979.1075077614923 -3943.9545278824708 -3908.5530382860543 -3872.9068102405095 -3837.0197528584986 -3800.8959144641699 -3764.539483904683 -3727.9547918035205 -3691.1463117528519 -3654.1186614421504 -3616.8766037202131 -3579.4250475876584 -3541.7690491169142 -3503.9138122966415 -3465.8646897974786 -3427.6271836559281 -3389.2069458731075 -3350.6097789250571 -3311.8416361812115 -3272.9086222275691 -3233.816993091008 -3194.5731563611707 -3155.1836712062086 -3115.6552482786401 -3075.9947495075203 -3036.2091877729804 -2996.3057264591862 -2956.2916788816551 -2916.1745075848003 -2875.961823505515 -2835.6613849984865 -2795.2810967188943 -2754.829008358076 -2714.313313227608 -2673.742346687236 -2633.1245844119967 -2592.4686404937424 -2551.783265372288 -2511.0773435912552 -2470.3598913736346 -2429.6400540120367 -2388.9271030684622 -2348.23043337842 -2307.5595598541013 -2266.9241140812628 -2226.333840704383 -2185.7985935946208 -2145.3283317949999 -2104.9331152371988 -2064.6231002242544 -2024.4085346734219 -1984.2997531133974 -1944.3071714300206 -1904.4412813545416 -1864.712644688482 -1825.1318872591039 -1785.7096925994003 -1746.456795346541 -1707.3839743526557 -1668.5020455018057 -1629.8218542270042 -1591.3542677210876 -1553.1101668352869 -1515.1004376593132 -1477.3359627767959 -1439.8276121899405 -1402.5862339072785 -1365.6226441884255 -1328.9476174398224 -1292.5718757554625 -1256.5060780966962 -1220.7608091052493 -1185.3465675436814 -1150.2737543576084 -1115.5526603540766 -1081.1934534905795 -1047.2061657693141 -1013.6006797313448 -980.3867145454243 -947.57381168631935 -915.17132019746896 -883.18838153286595 -851.6339139730012 -820.51659660956307 -789.84485289344366 -759.62683374024346 -729.87040018700816 -700.58310559327083 -671.77217737850037 -643.44449828678876 -615.60658716789203 -588.26457926142143 -561.42420596794977 -535.09077408682765 -509.26914449523395 -483.96371023620043 -459.17837397442213 -434.91652476702512 -411.18101408123187 -387.97413097093761 -365.29757629794733 -343.15243584893801 -321.539152153136 -300.45749474401964 -279.90652852520907 -259.88457978744566 -240.38919926764024 -221.41712142349309 -202.96421878921365 -185.02544983400435 -167.59479809196893 -150.66519934772236 -134.22845213495489 -118.27510435348015 -102.79430470673236 -87.77360043236834 -73.198649212808022 -59.052785381400334 -45.316316860492641 -31.965256246528568 -18.968560299019202 -6.2771806892618223 
</DataArray>
<DataArray type="Float64" Name="velocity_p0" NumberOfComponents="3" format="ascii">
0 0 1.7280894303239348e-09 0 0 5.184667866248488e-09 0 0 8.6424446577802764e-09 0 0 1.2102218164493616e-08 0 0 1.556478661728001e-08 0 0 1.9030948067082783e-08 0 0 2.2501500332967194e-08 0 0 2.5977240950952335e-08 0 0 2.9458967122529158e-08 0 0 3.2947475663559125e-08 0 0 3.6443562953155592e-08 0 0 3.9948024882558623e-08 0 0 4.3461656804584664e-08 0 0 4.6985253483082198e-08 0 0 5.0519609042220201e-08 0 0 5.4065516916702863e-08 0 0 5.762376980163884e-08 0 0 6.1195159602823853e-08 0 0 6.4780477387575395e-08 0 0 6.8380513335253419e-08 0 0 7.1996056688803113e-08 0 0 7.5627895706021295e-08 0 0 7.9276817611543336e-08 0 0 8.2943608548993101e-08 0 0 8.6629053533441479e-08 0 0 9.0333936404424959e-08 0 0 9.4059039779202752e-08 0 0 9.7805145006738059e-08 0 0 1.0157303212136073e-07 0 0 1.053634797979541e-07 0 0 1.0917726530655338e-07 0 0 1.1301516446803279e-07 0 0 1.1687795161005992e-07 0 0 1.2076639952356666e-07 0 0 1.2468127941972048e-07 0 0 1.2862336088745432e-07 0 0 1.3259341185119149e-07 0 0 1.36592198529843e-07 0 0 1.4062048539545351e-07 0 0 1.4467903513308803e-07 0 0 1.4876860860085273e-07 0 0 1.5288996479067023e-07 0 0 1.5704386078953514e-07 0 0 1.6123105174172708e-07 0 0 1.6545229081079448e-07 0 0 1.6970832914297437e-07 0 0 1.7399991583074922e-07 0 0 1.7832779787717142e-07 0 0 1.8269272016068111e-07 0 0 1.8709542540050169e-07 0 0 1.9153665412286442e-07 0 0 1.9601714462771877e-07 0 0 2.0053763295568812e-07 0 0 2.0509885285647355e-07 0 0 2.0970153575691932e-07 0 0 2.1434641073047392e-07 0 0 2.1903420446640506e-07 0 0 2.2376564124056214e-07 0 0 2.2854144288593214e-07 0 0 2.3336232876422695e-07 0 0 2.3822901573772629e-07 0 0 2.4314221814185218e-07 0 0 2.4810264775833994e-07 0 0 2.5311101378881615e-07 0 0 2.581680228287767e-07 0 0 2.6327437884230608e-07 0 0 2.6843078313720675e-07 0 0 2.7363793434034899e-07 0 0 2.7889652837379283e-07 0 0 2.8420725843101614e-07 0 0 2.8957081495379373e-07 0 0 2.9498788560916834e-07 0 0 3.0045915526688556e-07 0 0 3.059853059772835e-07 0 0 3.1156701694896971e-07 0 0 3.1720496452717066e-07 0 0 3.2289982217200227e-07 0 0 3.286522604368716e-07 0 0 3.3446294694736875e-07 0 0 3.4033254637946499e-07 0 0 3.4626172043827599e-07 0 0 3.5225112783670873e-07 0 0 3.5830142427373363e-07 0 0 3.6441326241243029e-07 0 0 3.7058729185828679e-07 0 0 3.7682415913656374e-07 0 0 3.8312450766957372e-07 0 0 3.8948897775363573e-07 0 0 3.9591820653498375e-07 0 0 4.024128279855511e-07 0 0 4.0897347287762898e-07 0 0 4.1560076875787111e-07 0 0 4.2229533992062105e-07 0 0 4.2905780737963587e-07 0 0 4.3588878883883305e-07 0 0 4.4278889866248054e-07 0 0 4.4975874784253455e-07 0 0 4.5679894396600692e-07 0 0 4.6391009117937076e-07 0 0 4.7109279015208585e-07 0 0 4.7834763803763923e-07 0 0 4.8567522843238808e-07 0 0 4.9307615133229715e-07 0 0 5.0055099308724748e-07 0 0 5.0810033635226883e-07 0 0 5.1572476003622678e-07 0 0 5.2342483924713726e-07 0 0 5.3120114523439849e-07 0 0 5.3905424532696572e-07 0 0 5.4698470286829644e-07 0 0 5.5499307714660273e-07 0 0 5.6307992332121911e-07 0 0 5.7124579234371011e-07 0 0 5.7949123087448526e-07 0 0 5.8781678119390321e-07 0 0 5.9622298110753373e-07 0 0 6.047103638455101e-07 0 0 6.132794579555954e-07 0 0 6.2193078718891239e-07 0 0 6.3066487037892654e-07 0 0 6.3948222131241663e-07 0 0 6.4838334859216217e-07 0 0 6.5736875549106301e-07 0 0 6.6643893979678472e-07 0 0 6.7559439364682933e-07 0 0 6.8483560335272048e-07 0 0 6.9416304921369483e-07 0 0 7.0357720531801336e-07 0 0 7.1307853933216309e-07 0 0 7.2266751227685322e-07 0 0 7.3234457828870535e-07 0 0 7.4211018436739096e-07 0 0 7.5196477010675618e-07 0 0 7.6190876740920882e-07 0 0 7.7194260018276475e-07 0 0 7.8206668401876215e-07 0 0 7.922814258502021e-07 0 0 8.0258722358857363e-07 0 0 8.1298446573861481e-07 0 0 8.2347353098913431e-07 0 0 8.3405478777893339e-07 0 0 8.4472859383587689e-07 0 0 8.5549529568799519e-07 0 0 8.6635522814436754e-07 0 0 8.7730871374441999e-07 0 0 8.8835606217373165e-07 0 0 8.9949756964373043e-07 0 0 9.1073351823407296e-07 0 0 9.2206417519451962e-07 0 0 9.3348979220427646e-07 0 0 9.4501060458633906e-07 0 0 9.5662683047394839e-07 0 0 9.6833866992567179e-07 0 0 9.8014630398723732e-07 0 0 9.9204989369543017e-07 0 0 1.0040495790217082e-06 0 0 1.0161454777505919e-06 0 0 1.0283376842899909e-06 0 0 1.0406262684083752e-06 0 0 1.0530112738943726e-06 0 0 1.0654927171345101e-06 0 0 1.0780705856031127e-06 0 0 1.0907448362591231e-06 0 0 1.103515393844657e-06 0 0 1.1163821490778425e-06 0 0 1.1293449567339487e-06 0 0 1.1424036336080072e-06 0 0 1.1555579563501502e-06 0 0 1.1688076591668787e-06 0 0 1.182152431378654e-06 0 0 1.1955919148246257e-06 0 0 1.2091257011053374e-06 0 0 1.2227533286517568e-06 0 0 1.2364742796103253e-06 0 0 1.250287976531003e-06 0 0 1.264193778846361e-06 0 0 1.2781909791274563e-06 0 0 1.2922787991014819e-06 0 0 1.3064563854161727e-06 0 0 1.3207228051336344e-06 0 0 1.3350770409357748e-06 0 0 1.3495179860222968e-06 0 0 1.3640444386805321e-06 0 0 1.3786550965055387e-06 0 0 1.3933485502466551e-06 0 0 1.408123277256212e-06 0 0 1.4229776345131281e-06 0 0 1.4379098511935003e-06 0 0 1.4529180207577167e-06 0 0 1.4680000925218647e-06 0 0 1.483153862679216e-06 0 0 1.4983769647351515e-06 0 0 1.5136668593168902e-06 0 0 1.5290208233164798e-06 0 0 1.5444359383239309e-06 0 0 1.5599090783034354e-06 0 0 1.5754368964645529e-06 0 0 1.5910158112764042e-06 0 0 1.6066419915701347e-06 0 0 1.6223113406735608e-06 0 0 1.6380194795173303e-06 0 0 1.6537617286513169e-06 0 0 1.6695330891055059e-06 0 0 1.6853282220297712e-06 0 0 1.7011414270433538e-06 0 0 1.7169666192245406e-06 0 0 1.732797304670262e-06 0 0 1.7486265545554133e-06 0 0 1.7644469776233329e-06 0 0 1.7802506910415369e-06 0 0 1.7960292895612253e-06 0 0 1.8117738129258731e-06 0 0 1.8274747114839998e-06 0 0 1.8431218099731418e-06 0 0 1.8587042694604988e-06 0 0 1.8742105474460912e-06 0 0 1.8896283561645735e-06 0 0 1.9049446191556928e-06 0 0 1.9201454262209611e-06 0 0 1.9352159869391019e-06 0 0 1.950140582984006e-06 0 0 1.9649025195762941e-06 0 0 1.9794840765066474e-06 0 0 1.993866459302149e-06 0 0 2.0080297512680937e-06 0 0 2.0219528673379036e-06 0 0 2.0356135109057159e-06 0 0 2.0489881351149907e-06 0 0 2.0620519104395182e-06 0 0 2.0747787008401028e-06 0 0 2.0871410513271104e-06 0 0 2.0991101904337358e-06 0 0 2.1106560519391663e-06 0 0 2.1217473212211471e-06 0 0 2.1323515129247723e-06 0 0 2.1424350882991435e-06 0 0 2.1519636227062504e-06 0 0 2.1609020366486944e-06 0 0 2.1692149075122473e-06 0 0 2.1768668846074675e-06 0 0 2.1838232379331708e-06 0 0 2.1900505830479836e-06 0 0 2.1955178437415697e-06 0 0 2.2001975475028731e-06 0 0 2.2040676110343973e-06 0 0 2.2071139016265654e-06 0 0 2.20933416303923e-06 0 0 2.2107447568272488e-06 0 0 2.2113950543303291e-06 0 0 2.2114304835208726e-06 
</DataArray>
<DataArray type="Float64" Name="saturation" format="ascii">
0.49247467551476398 0.49247822374497596 0.49248530589083084 0.49249592399277042 0.49251008111099093 0.49252778132607838 0.49254902973985698 0.49257383247644981 0.49260219668355482 0.49263413053393651 0.49266964322713425 0.49270874499139017 0.49275144708579793 0.49279776180267504 0.49284770247016041 0.4929012834550407 0.49295852016580816 0.49301942905595203 0.49308402762748915 0.49315233443473505 0.49322436908832068 0.49330015225945889 0.49337970568446432 0.49346305216953223 0.49355021559578044 0.49364122092455942 0.49373609420303688 0.49383486257006126 0.49393755426231134 0.4940441986207369 0.49415482609729794 0.49426946826200868 0.49438815781029377 0.4945109285706637 0.49463781551271746 0.49476885475548038 0.49490408357608512 0.49504354041880461 0.49518726490444681 0.49533529784011876 0.49548768122937137 0.49564445828273418 0.49580567342865028 0.49597137232482263 0.49614160186998291 0.49631641021609418 0.49649584678099945 0.49667996226152911 0.49686880864707866 0.49706243923367177 0.49726090863852124 0.4974642728151023 0.49767258906875345 0.49788591607281907 0.49810431388535109 0.49832784396638452 0.49855656919580393 0.49879055389181942 0.49902986383006853 0.49927456626336392 0.49952472994210562 0.49978042513537735 0.50004172365274779 0.5003086988667993 0.50058142573640363 0.50085998083076944 0.50114444235428457 0.50143489017217702 0.50173140583702081 0.50203407261611122 0.50234297551973794 0.50265820133038397 0.50297983863287743 0.50330797784552783 0.50364271125227855 0.50398413303590384 0.50433233931228827 0.50468742816581957 0.50504949968593127 0.50541865600483304 0.5057950013364656 0.5061786420167198 0.50656968654496226 0.50696824562690712 0.50737443221888245 0.50778836157353058 0.50821015128699631 0.50863992134764691 0.50907779418637755 0.50952389472855386 0.5099783504476455 0.51044129142060934 0.51091285038507961 0.51139316279842695 0.51188236689874855 0.51238060376785688 0.5128880173963335 0.51340475475072089 0.51393096584292419 0.5144668038018998 0.51501242494771149 0.51556798886803556 0.51613365849720094 0.51670960019785372 0.5172959838453387 0.51789298291489527 0.51850077457176647 0.51911953976432623 0.51974946332033412 0.52039073404642822 0.5210435448309767 0.52170809275040719 0.52238457917914305 0.52307320990327733 0.52377419523812518 0.52448775014979376 0.5252140943809227 0.52595345258074899 0.5267060544396589 0.52747213482839395 0.52825193394208947 0.52904569744932739 0.5298536766463936 0.53067612861693925 0.53151331639725319 0.53236550914736191 0.53323298232818062 0.53411601788495167 0.53501490443721589 0.53592993747556805 0.53686141956546674 0.53780966055837243 0.53877497781050487 0.53975769640951965 0.54075814940942024 0.54177667807403151 0.5428136321293775 0.54386937002531854 0.54494425920682099 0.5460386763952455 0.54715300788005883 0.54828764982138911 0.54944300856386441 0.55061950096219192 0.55181755471895366 0.55303760873511643 0.55428011347377315 0.55554553133765405 0.55683433706096919 0.5581470181161664 0.5594840751362129 0.5608460223530316 0.56223338805275036 0.56364671504844754 0.5650865611711029 0.56655349977949077 0.56804812028977891 0.5695710287256277 0.5711228482896058 0.57270421995677656 0.57431580309132824 0.57595827608715644 0.57763233703333394 0.57933870440542568 0.58107811778364349 0.58285133859884919 0.58465915090744658 0.58650236219622387 0.58838180421821962 0.59029833386071462 0.59225283404644957 0.5942462146691857 0.59627941356472114 0.5983533975184715 0.60046916331070821 0.60262773880052178 0.60483018404954381 0.60707759248640825 0.60937109211286533 0.61171184675237866 0.61410105734192222 0.61653996326756444 0.61902984374425807 0.62157201924005401 0.62416785294471788 0.62681875228243533 0.62952617046795023 0.63229160810506801 0.63511661482597459 0.6380027909692505 0.64095178929379149 0.64396531672506108 0.64704513612918113 0.65019306810929489 0.65341099281738191 0.65670085177324766 0.66006464968070611 0.66350445622899978 0.66702240786519607 0.67062070952062591 0.67430163627132644 0.67806753490882654 0.68192082539342946 0.68586400215726206 0.68989963521869679 0.69403037106316467 0.69825893323771693 0.70258812259778014 0.70702081713418141 0.7115599712964269 0.71620861471413999 0.72096985020212223 0.72584685091530021 0.73084285649737368 0.73596116804067657 0.74120514164393014 0.74657818031832635 0.752083723949726 0.75772523697441152 0.76350619336629055 0.76943005846278589 0.7755002670725144 0.78172019720730823 0.78809313866038422 0.79462225550673027 0.80131054142481084 0.80816076652228641 0.81517541408166339 0.82235660530985499 0.82970600975817077 0.83722473854774881 0.8449132168492397 0.85277103116545516 0.86079674576378018 0.868987680967793 0.87733964373667506 0.88584659770410568 0.89450025506822972 0.90328956549104067 0.91220006584003666 0.92121303617412864 0.93030437602326577 0.93944305883891277 0.94858891538903267 0.95768927631257239 0.96667350259789608 0.97544312921586185 0.9838512235193041 0.99164634546662711 0.99767504374205007 
</DataArray>
<DataArray type="Float64" Name="conductivity_out" format="ascii">