<?xml version="1.0"?>
<VTKFile type="UnstructuredGrid" version="0.1" byte_order="LittleEndian">
<UnstructuredGrid>
<Piece NumberOfPoints="669" NumberOfCells="1271">
<Points>
<DataArray type="Float64" NumberOfComponents="3" format="ascii">
0.000000000000000e+00 0.000000000000000e+00 0.000000000000000e+00 1.000000000000000e-01 0.000000000000000e+00 0.000000000000000e+00 1.000000000000000e-01 1.000000000000000e+00 0.000000000000000e+00 0.000000000000000e+00 1.000000000000000e+00 0.000000000000000e+00 2.000000000000000e-01 0.000000000000000e+00 0.000000000000000e+00 2.000000000000000e-01 1.000000000000000e+00 0.000000000000000e+00 2.499999999994164e-02 0.000000000000000e+00 0.000000000000000e+00 4.999999999986850e-02 0.000000000000000e+00 0.000000000000000e+00 7.499999999993355e-02 0.000000000000000e+00 0.000000000000000e+00 1.000000000000000e-01 2.040816326526773e-02 0.000000000000000e+00 1.000000000000000e-01 4.081632653053230e-02 0.000000000000000e+00 1.000000000000000e-01 6.122448979579424e-02 0.000000000000000e+00 1.000000000000000e-01 8.163265306106718e-02 0.000000000000000e+00 1.000000000000000e-01 1.020408163263421e-01 0.000000000000000e+00 1.000000000000000e-01 1.224489795916153e-01 0.000000000000000e+00 1.000000000000000e-01 1.428571428568673e-01 0.000000000000000e+00 1.000000000000000e-01 1.632653061221139e-01 0.000000000000000e+00 1.000000000000000e-01 1.836734693873606e-01 0.000000000000000e+00 1.000000000000000e-01 2.040816326526072e-01 0.000000000000000e+00 1.000000000000000e-01 2.244897959178539e-01 0.000000000000000e+00 1.000000000000000e-01 2.448979591831005e-01 0.000000000000000e+00 1.000000000000000e-01 2.653061224483471e-01 0.000000000000000e+00 1.000000000000000e-01 2.857142857135938e-01 0.000000000000000e+00 1.000000000000000e-01 3.061224489788404e-01 0.000000000000000e+00 1.000000000000000e-01 3.265306122440871e-01 0.000000000000000e+00 1.000000000000000e-01 3.469387755093337e-01 0.000000000000000e+00 1.000000000000000e-01 3.673469387745804e-01 0.000000000000000e+00 1.000000000000000e-01 3.877551020398269e-01 0.000000000000000e+00 1.000000000000000e-01 4.081632653050736e-01 0.000000000000000e+00 1.000000000000000e-01 4.285714285703202e-01 0.000000000000000e+00 1.000000000000000e-01 4.489795918355669e-01 0.000000000000000e+00 1.000000000000000e-01 4.693877551008135e-01 0.000000000000000e+00 1.000000000000000e-01 4.897959183660601e-01 0.000000000000000e+00 1.000000000000000e-01 5.102040816313634e-01 0.000000000000000e+00 1.000000000000000e-01 5.306122448967233e-01 0.000000000000000e+00 1.000000000000000e-01 5.510204081620832e-01 0.000000000000000e+00 1.000000000000000e-01 5.714285714274430e-01 0.000000000000000e+00 1.000000000000000e-01 5.918367346928030e-01 0.000000000000000e+00 1.000000000000000e-01 6.122448979581627e-01 0.000000000000000e+00 1.000000000000000e-01 6.326530612235226e-01 0.000000000000000e+00 1.000000000000000e-01 6.530612244888825e-01 0.000000000000000e+00 1.000000000000000e-01 6.734693877542424e-01 0.000000000000000e+00 1.000000000000000e-01 6.938775510196021e-01 0.000000000000000e+00 1.000000000000000e-01 7.142857142849620e-01 0.000000000000000e+00 1.000000000000000e-01 7.346938775503219e-01 0.000000000000000e+00 1.000000000000000e-01 7.551020408156818e-01 0.000000000000000e+00 1.000000000000000e-01 7.755102040810415e-01 0.000000000000000e+00 1.000000000000000e-01 7.959183673464014e-01 0.000000000000000e+00 1.000000000000000e-01 8.163265306117613e-01 0.000000000000000e+00 1.000000000000000e-01 8.367346938771211e-01 0.000000000000000e+00 1.000000000000000e-01 8.571428571424810e-01 0.000000000000000e+00 1.000000000000000e-01 8.775510204078409e-01 0.000000000000000e+00 1.000000000000000e-01 8.979591836732008e-01 0.000000000000000e+00 1.000000000000000e-01 9.183673469385606e-01 0.000000000000000e+00 1.000000000000000e-01 9.387755102039205e-01 0.000000000000000e+00 1.000000000000000e-01 9.591836734692804e-01 0.000000000000000e+00 1.000000000000000e-01 9.795918367346401e-01 0.000000000000000e+00 7.500000000006912e-02 1.000000000000000e+00 0.000000000000000e+00 5.000000000013687e-02 1.000000000000000e+00 0.000000000000000e+00 2.500000000006912e-02 1.000000000000000e+00 0.000000000000000e+00 0.000000000000000e+00 9.795918367346089e-01 0.000000000000000e+00 0.000000000000000e+00 9.591836734692177e-01 0.000000000000000e+00 0.000000000000000e+00 9.387755102038267e-01 0.000000000000000e+00 0.000000000000000e+00 9.183673469384355e-01 0.000000000000000e+00 0.000000000000000e+00 8.979591836730444e-01 0.000000000000000e+00 0.000000000000000e+00 8.775510204076679e-01 0.000000000000000e+00 0.000000000000000e+00 8.571428571424604e-01 0.000000000000000e+00 0.000000000000000e+00 8.367346938772958e-01 0.000000000000000e+00 0.000000000000000e+00 8.163265306121313e-01 0.000000000000000e+00 0.000000000000000e+00 7.959183673469667e-01 0.000000000000000e+00 0.000000000000000e+00 7.755102040818023e-01 0.000000000000000e+00 0.000000000000000e+00 7.551020408166378e-01 0.000000000000000e+00 0.000000000000000e+00 7.346938775514733e-01 0.000000000000000e+00 0.000000000000000e+00 7.142857142863088e-01 0.000000000000000e+00 0.000000000000000e+00 6.938775510211443e-01 0.000000000000000e+00 0.000000000000000e+00 6.734693877559796e-01 0.000000000000000e+00 0.000000000000000e+00 6.530612244908152e-01 0.000000000000000e+00 0.000000000000000e+00 6.326530612256505e-01 0.000000000000000e+00 0.000000000000000e+00 6.122448979604860e-01 0.000000000000000e+00 0.000000000000000e+00 5.918367346953213e-01 0.000000000000000e+00 0.000000000000000e+00 5.714285714301567e-01 0.000000000000000e+00 0.000000000000000e+00 5.510204081649921e-01 0.000000000000000e+00 0.000000000000000e+00 5.306122448998274e-01 0.000000000000000e+00 0.000000000000000e+00 5.102040816346629e-01 0.000000000000000e+00 0.000000000000000e+00 4.897959183693851e-01 0.000000000000000e+00 0.000000000000000e+00 4.693877551039940e-01 0.000000000000000e+00 0.000000000000000e+00 4.489795918386030e-01 0.000000000000000e+00 0.000000000000000e+00 4.285714285732120e-01 0.000000000000000e+00 0.000000000000000e+00 4.081632653078209e-01 0.000000000000000e+00 0.000000000000000e+00 3.877551020424299e-01 0.000000000000000e+00 0.000000000000000e+00 3.673469387770387e-01 0.000000000000000e+00 0.000000000000000e+00 3.469387755116478e-01 0.000000000000000e+00 0.000000000000000e+00 3.265306122462567e-01 0.000000000000000e+00 0.000000000000000e+00 3.061224489808657e-01 0.000000000000000e+00 0.000000000000000e+00 2.857142857154745e-01 0.000000000000000e+00 0.000000000000000e+00 2.653061224500836e-01 0.000000000000000e+00 0.000000000000000e+00 2.448979591846925e-01 0.000000000000000e+00 0.000000000000000e+00 2.244897959193015e-01 0.000000000000000e+00 0.000000000000000e+00 2.040816326539104e-01 0.000000000000000e+00 0.000000000000000e+00 1.836734693885194e-01 0.000000000000000e+00 0.000000000000000e+00 1.632653061231283e-01 0.000000000000000e+00 0.000000000000000e+00 1.428571428577373e-01 0.000000000000000e+00 0.000000000000000e+00 1.224489795923462e-01 0.000000000000000e+00 0.000000000000000e+00 1.020408163269553e-01 0.000000000000000e+00 0.000000000000000e+00 8.163265306156420e-02 0.000000000000000e+00 0.000000000000000e+00 6.122448979617301e-02 0.000000000000000e+00 0.000000000000000e+00 4.081632653078204e-02 0.000000000000000e+00 0.000000000000000e+00 2.040816326539097e-02 0.000000000000000e+00 1.249999999999323e-01 0.000000000000000e+00 0.000000000000000e+00 1.499999999998645e-01 0.000000000000000e+00 0.000000000000000e+00 1.749999999999269e-01 0.000000000000000e+00 0.000000000000000e+00 2.000000000000000e-01 2.040816326526773e-02 0.000000000000000e+00 2.000000000000000e-01 4.081632653053230e-02 0.000000000000000e+00 2.000000000000000e-01 6.122448979579424e-02 0.000000000000000e+00 2.000000000000000e-01 8.163265306106718e-02 0.000000000000000e+00 2.000000000000000e-01 1.020408163263421e-01 0.000000000000000e+00 2.000000000000000e-01 1.224489795916153e-01 0.000000000000000e+00 2.000000000000000e-01 1.428571428568673e-01 0.000000000000000e+00 2.000000000000000e-01 1.632653061221139e-01 0.000000000000000e+00 2.000000000000000e-01 1.836734693873606e-01 0.000000000000000e+00 2.000000000000000e-01 2.040816326526072e-01 0.000000000000000e+00 2.000000000000000e-01 2.244897959178539e-01 0.000000000000000e+00 2.000000000000000e-01 2.448979591831005e-01 0.000000000000000e+00 2.000000000000000e-01 2.653061224483471e-01 0.000000000000000e+00 2.000000000000000e-01 2.857142857135938e-01 0.000000000000000e+00 2.000000000000000e-01 3.061224489788404e-01 0.000000000000000e+00 2.000000000000000e-01 3.265306122440871e-01 0.000000000000000e+00 2.000000000000000e-01 3.469387755093337e-01 0.000000000000000e+00 2.000000000000000e-01 3.673469387745804e-01 0.000000000000000e+00 2.000000000000000e-01 3.877551020398269e-01 0.000000000000000e+00 2.000000000000000e-01 4.081632653050736e-01 0.000000000000000e+00 2.000000000000000e-01 4.285714285703202e-01 0.000000000000000e+00 2.000000000000000e-01 4.489795918355669e-01 0.000000000000000e+00 2.000000000000000e-01 4.693877551008135e-01 0.000000000000000e+00 2.000000000000000e-01 4.897959183660601e-01 0.000000000000000e+00 2.000000000000000e-01 5.102040816313634e-01 0.000000000000000e+00 2.000000000000000e-01 5.306122448967233e-01 0.000000000000000e+00 2.000000000000000e-01 5.510204081620832e-01 0.000000000000000e+00 2.000000000000000e-01 5.714285714274430e-01 0.000000000000000e+00 2.000000000000000e-01 5.918367346928030e-01 0.000000000000000e+00 2.000000000000000e-01 6.122448979581627e-01 0.000000000000000e+00 2.000000000000000e-01 6.326530612235226e-01 0.000000000000000e+00 2.000000000000000e-01 6.530612244888825e-01 0.000000000000000e+00 2.000000000000000e-01 6.734693877542424e-01 0.000000000000000e+00 2.000000000000000e-01 6.938775510196021e-01 0.000000000000000e+00 2.000000000000000e-01 7.142857142849620e-01 0.000000000000000e+00 2.000000000000000e-01 7.346938775503219e-01 0.000000000000000e+00 2.000000000000000e-01 7.551020408156818e-01 0.0000000000000
[...]
<CellData Scalars="pressure_p0," Vectors="velocity_p0," Tensors="">
<DataArray type="Float64" Name="pressure_p0" format="ascii">
9.897959169620616e-01 9.693877505921971e-01 9.489795843184461e-01 9.285714188828931e-01 9.081632536826387e-01 8.877550885449957e-01 8.673469234493048e-01 8.469387583828537e-01 8.265305933786976e-01 8.061224287006448e-01 7.857142640874726e-01 7.653060992786820e-01 7.448979344594151e-01 7.244897696535313e-01 7.040816047234119e-01 6.836734398200339e-01 6.632652749355848e-01 6.428571099226218e-01 6.224489449435294e-01 6.020407800147927e-01 5.816326151067605e-01 5.612244502631881e-01 5.408162854817510e-01 5.204081207942652e-01 4.999999562075295e-01 4.795917916817783e-01 4.591836272773127e-01 4.387754629371380e-01 4.183672986956700e-01 3.979591347602079e-01 3.775509709486909e-01 3.571428071921343e-01 3.367346434710409e-01 3.163264797901667e-01 2.959183167353096e-01 2.755101561035737e-01 2.551019961046551e-01 2.346938361388407e-01 2.142856761321722e-01 1.938775161384001e-01 1.734693562367104e-01 1.530611965903133e-01 1.326530369985493e-01 1.122448774231001e-01 9.183671786731033e-02 7.142855833882247e-02 5.102039882459885e-02 3.061223931487684e-02 1.020407979063993e-02 4.753401101501892e-01 5.467475875377901e-01 7.134806162924814e-02 4.589174419879396e-01 4.588948027113282e-01 1.531418349849804e-01 2.142972344868233e-01 2.755217120531321e-01 3.979707072580314e-01 5.604653149067450e-01 3.367002800257550e-01 3.367286040849987e-01 6.224373324707801e-01 3.978327510527305e-01 2.753838036112576e-01 6.836178550196570e-01 8.673353430155086e-01 9.284944772685204e-01 7.448863288604712e-01 8.062282264603047e-01 2.142307897060689e-01 8.061226227027656e-01 7.449528139484172e-01 8.674732584764355e-01 6.837283190469575e-01 9.287712633877471e-01 6.225038238945990e-01 5.613008927163570e-01 4.010210200713762e-02 9.607700692743824e-01 5.558769534507975e-01 4.977695303499858e-02 9.392555246823238e-01 3.812433012980830e-02 9.631577537212259e-01 4.771116374760943e-02 5.451421906869873e-01 4.643518169597771e-01 6.179926042232627e-02 6.601628374116376e-02 8.133030286699988e-02 1.708218468818119e-02 9.829203318056199e-01 5.501236158015317e-01 5.514063607262201e-01 1.430904757671050e-01 3.263672298899915e-01 2.650884699797150e-01 8.164833493877997e-01 8.778480005395759e-01 2.039993036806520e-01 3.875374188718085e-01 7.552416546092542e-01 6.940157081376612e-01 6.327912127553328e-01 5.715906773667359e-01 4.484926927206490e-01 5.705986440801472e-01 3.877543162067382e-01 6.325967155759868e-01 6.938293573983920e-01 7.551027172766391e-01 1.633371348035997e-01 2.040808501771447e-01 2.244848595387095e-01 2.653053271585475e-01 2.857087708602828e-01 3.264787928908872e-01 8.775517285769239e-01 8.571491615225288e-01 9.182995840310240e-01 8.164576533814771e-01 7.959363037558624e-01 3.469142708548152e-01 7.346981568089567e-01 4.082050746989251e-01 6.733811732851840e-01 6.122404748751498e-01 4.487138810118912e-01 4.681759882354256e-01 4.681508405197848e-01 9.387313975928900e-01 9.604304936067802e-01 3.955253988622381e-02 6.109395233774835e-02 4.025918762976867e-01 3.413446118014840e-01 2.189158653808618e-01 6.178186017200550e-01 6.789791369035836e-01 2.801390916360768e-01 7.402676266446699e-01 8.015057848730658e-01 8.627180739854827e-01 3.318703909546033e-01 8.109799871559837e-01 8.372299946943045e-01 3.056263365400899e-01 8.984782371200609e-01 2.444937726416250e-01 7.759195794142346e-01 7.146818771104219e-01 6.534573818611151e-01 5.922352826368965e-01 3.669427190483162e-01 3.465914731689417e-01 4.076929669720150e-01 7.963487834518392e-01 2.852491146221260e-01 2.241219797505241e-01 7.350616147294297e-01 6.738371195872664e-01 8.576078694238026e-01 6.126126241643856e-01 9.189155987243494e-01 3.932297233018809e-01 5.658825751980284e-01 6.271631022591821e-01 6.883523108859801e-01 7.496273182997386e-01 2.095467972230097e-01 2.707807470535104e-01 8.720773624495167e-01 4.280294520003805e-01 8.107618163852760e-02 3.973757262968272e-01 7.454476612009515e-01 6.842220602104703e-01 6.229987571067086e-01 2.136635147178252e-01 8.679447261888339e-01 2.749299628450451e-01 5.051042637793983e-01 5.051042368904191e-01 3.973104705978413e-01 7.454414520056432e-01 6.842158516244821e-01 6.229925488719625e-01 2.136697303255947e-01 8.680099784561663e-01 2.748647129821997e-01 6.539608768005499e-02 9.706017393073234e-01 2.939849166574101e-02 5.561979691906614e-02 8.974099152991410e-02 1.433381179619813e-01 3.673161647490903e-01 5.917731335134078e-01 6.529838599844913e-01 7.143089873801159e-01 7.755402255435151e-01 1.836523346660181e-01 8.979806636827151e-01 2.448691353190870e-01 8.367779214392030e-01 3.060879460205213e-01 9.919104264460427e-01 8.091849888272419e-03 4.286021876479319e-01 5.519630341904305e-01 3.364225954055141e-01 8.064536738565403e-01 5.149022011888515e-01 5.148949350456201e-01 9.492597566744552e-01 5.359511000806790e-01 5.442800002236037e-01 9.290962963747029e-01 3.364493544254508e-01 8.064983606383955e-01 3.051855817900918e-01 8.376707442420197e-01 2.441244844480098e-01 8.989189870632603e-01 7.762901622763996e-01 7.150511531722992e-01 6.538266574641840e-01 5.926045578893721e-01 3.665734352030190e-01 4.275835559658943e-01 9.293584366392384e-01 9.386273178099214e-01 9.595589204651258e-01 4.042440004446504e-02 6.121413515890314e-02 1.344241577338297e-01 5.631325196155619e-01 1.234846297086437e-01 1.186809617174474e-01 5.431217819690211e-01 1.541246046752978e-01 1.122448762870630e-01 3.673045550775039e-01 5.917847354877315e-01 6.529441574015324e-01 7.143205894923822e-01 7.755518277423565e-01 8.979922615194544e-01 1.836407326382883e-01 8.367895185991396e-01 2.448575332459755e-01 3.060763442032331e-01 1.275629679663429e-02 9.872439826182536e-01 4.285874903136387e-01 9.280126350856034e-01 4.807919464447927e-01 4.807968637598107e-01 4.570898408740739e-01 9.684433143971154e-01 3.155948303606149e-02 1.168028069406737e-01 1.070095578995426e-01 1.673922561693230e-01 5.624623942673592e-01 1.538179389849172e-01 5.262596467319134e-01 5.258432439979515e-01 9.279979840663161e-01 1.577939140269400e-01 5.196240532213919e-02 3.161691873241849e-01 8.266872162934487e-01 2.550107424766718e-01 8.879257342921595e-01 1.938501101079267e-01 3.774596875813390e-01 7.653908574559974e-01 7.041649112762089e-01 6.429404162264321e-01 5.817183173609537e-01 4.385773992075884e-01 5.815618258778258e-01 6.428123756277768e-01 3.775386616632775e-01 7.040889932202221e-01 7.653183777784732e-01 1.734605608110900e-01 1.938651930379700e-01 2.346773610359846e-01 2.550896693612419e-01 2.959012727769713e-01 3.163090473468949e-01 8.877673915828723e-01 9.081724433262124e-01 8.469566592928530e-01 8.265559379652668e-01 7.857320038111522e-01 7.245056514537676e-01 3.571243922956438e-01 6.632326431408144e-01 4.183975843299936e-01 6.020479695010921e-01 4.387759842447139e-01 1.054356140411723e-01 1.004460330725395e-01 4.983336301298656e-01 4.983335977093150e-01 8.982805507324496e-01 8.987096985488621e-01 8.370697636412688e-01 7.761877932144730e-01 7.149616812048325e-01 6.537251499175192e-01 5.925973149951685e-01 8.374989098719273e-01 7.758288036050585e-01 7.146039971167939e-01 6.533161604576264e-01 5.922396297093055e-01 1.832508209509732e-01 3.666708438715194e-01 2.445795616696909e-01 3.057872780456288e-01 4.276534595431843e-01 1.822537737107221e-01 3.670285283917920e-01 3.053581330831701e-01 2.442218824616086e-01 4.280846702821551e-01 1.121645691029311e-01 9.480367687887464e-01 4.580091059170889e-01 8.442421189433905e-02 5.176035464090912e-01 5.175691620660241e-01 4.871840117096484e-01 4.871814704719001e-01 3.789028637499323e-02 1.731863214886568e-01 3.568298893947677e-01 4.180233983163814e-01 7.860389036147607e-01 7.248026529661282e-01 6.635781580129534e-01 6.023536629109831e-01 2.343809463029409e-01 9.085116625759955e-01 2.955795476431567e-01 8.472774352475130e-01 7.925446380830824e-02 4.786462556167787e-01 4.786437104560379e-01 1.691270999778640e-01 4.572111787569925e-01 1.395729462022928e-01 9.966049703262139e-01 1.453543811214910e-01 1.220178873209909e-01 1.024197620089038e-01 3.033175498550129e-02 4.581530588507207e-01 1.225213679362644e-01 2.807042006222739e-02 9.962340768961946e-01 3.765962064417345e-03 1.238921399864190e-01 9.513379373600608e-01 2.010063318418675e-02 9.419813993779630e-02 4.466705121430214e-01 7.286249425470356e-02 3.869334743143619e-01 7.559126767785413e-01 6.946876341281197e-01 6.334569862010824e-01 5.731462440767354e-01 2.031276043974139e-01 8.783978102758128e-01 2.644848298626674e-01 8.180805985467032e-01 3.247756004270798e-01 4.529739435355177e-03 1.744771649391898e-01 1.001188949641682e-01 1.017386524201503e-01 2.623867447858956e-02 1.846538388309599e-01 9.598121995249873e-01 1.217352654849237e-01 1.027019245249027e-01 4.948076372034624e-02 1.024503144484009e-01 5.217370104029821e-01 5.217297389689144e-01 1.301764564639188e-01 1.512733830537925e-01 1.219335975358972e-01 9.179243152656753e-01 1.640312460087636e-01 8.559523240885987e-01 2.256904354551573e-01 2.869048393175687e-01 7.947195832546370e-01 7.334930562950607e-01 3.481367910696411e-01 6.722422083990430e-01 6.110524948568438e-01 4.093419465707607e-01 5.738107240912166e-01 6.342618649552139e-01 3.861252590912865e-01 6.955007491922165e-01 7.567319259599422e-01 2.023712987706417e-01 8.791897629915131e-01 2.636762893694576e-01 3.258618038709472e-01 8.170040778936569e-01 4.467869377181368e-01 9.514012274349555e-01 1.836451841384205e-01 9.012172682099161e-02 8.168938488150004e-02 1.340702447733158e-01 1.432908706205634e-01 9.743585430235601e-01 9.945374501593722e-01 3.141918680521450e-01 8.286643138313587e-01 2.539725645561914e-01 8.889815464056539e-01 1.919759717159591e-01 7.664262539759932e-01 7.051999053800073e-01 6.439692576639748e-01 5.829730344261410e-01 3.764212045568132e-01 3.143326838426301e-01 8.285228507104230e-01 2.541714777749117e-01 8.888541019880499e-01 1.923097724665506e-01 7.662207122633657e-01 7.049930581138446e-01 6.437681113558780e-01 5.826924201043755e-01 3.766201123728458e-01 9.697740922752363e-01 4.372285886107006e-01 4.374614833487211e-01 1.373914818532772e-02 9.682199953025021e-01 1.133245932178747e-02 9.398175929660346e-01 4.382076805032389e-01 4.481602740362531e-01 5.828427478671607e-01 5.718679639730813e-01 6.440359834083453e-01 6.338600255124701e-01 3.762485339372835e-01 3.864757979252614e-01 7.053725920006448e-01 6.951013537986543e-01 7.666085106793186e-01 7.563812477531717e-01 3.261692563917344e-01 2.640268171948464e-01 2.027928681105749e-01 8.788312937192281e-01 3.159879095393211e-01 2.537995575641857e-01 1.925656091228308e-01 8.890585546537468e-01 8.167760099099095e-01 8.268858918641366e-01 5.411258353587194e-01 5.406786323181717e-01 9.490124219508738e-01 5.097036231071418e-02 4.679351627520750e-01 4.768663832321368e-01 4.768738210319842e-01 4.679652106154932e-01 1.328057434988356e-01 9.750607039307897e-01 4.856223543731992e-01 4.856198203474809e-01 9.396187420528801e-01 9.582960877079874e-01 5.832798291814052e-01 6.443651469496251e-01 3.759706735813751e-01 7.056553363834394e-01 7.668865135485501e-01 8.893443509266299e-01 8.271586469972882e-01 3.157072164257689e-01 2.535217031888067e-01 1.922167134367104e-01 4.377762246947710e-01 9.161487002492469e-02 9.864478762480605e-01 4.935751087823929e-01 5.019073978604581e-01 5.019074164127190e-01 4.935751256579164e-01 5.647298234299962e-03 9.877727133640379e-01 3.469196407681827e-01 4.080090318120472e-01 2.243826982959236e-01 2.855786171093592e-01 7.959479626822126e-01 7.348008701295354e-01 6.735693356779719e-01 6.123612798434217e-01 8.572784222389069e-01 9.183418305967418e-01 1.447890499532620e-01 1.637655962941419e-01 2.257632258614480e-01 2.869858854327696e-01 2.359441252006843e-01 1.738774202625032e-01 2.971667853684185e-01 8.558721602735165e-01 8.456912554249851e-01 9.179071699288450e-01 9.077916269555613e-01 7.844670104779201e-01 7.946597085036178e-01 3.583885325317105e-01 3.481900210459562e-01 7.232388138662248e-01 7.334197172929540e-01 6.618944842809996e-01 4.196637999604351e-01 6.720827173166219e-01 4.094859878194862e-01 6.007811022034585e-01 6.109620058564746e-01 3.466500831524181e-01 3.565192157095605e-01 4.076409774081381e-01 4.175255128593329e-01 7.963005592713321e-01 7.863612622150513e-01 7.350909793416938e-01 7.252012936321901e-01 6.738657800335959e-01 6.639760940319314e-01 6.126429281438512e-01 6.027532419938243e-01 2.339822805026149e-01 2.240926023190040e-01 2.950896782790946e-01 2.851999999539271e-01 9.089775176937337e-01 9.189407038493674e-01 8.477672874827547e-01 8.576569717999596e-01 9.804412609841160e-01 1.955901557718565e-02 5.336175007659323e-01 5.336899152627885e-01 3.899619965839511e-02 3.249714809345105e-01 2.646184932307146e-01 8.178782341233535e-01 8.783356182767990e-01 2.034676207958039e-01 3.870671269365586e-01 7.557009262007053e-01 6.944745785318949e-01 6.332496319174884e-01 5.721955048520397e-01 1.533023420622789e-01 4.478226725799788e-01 5.363331115113681e-01 1.322219682004833e-01 9.221568331586383e-02 1.299465851694267e-01 9.441821079519583e-02 9.756833797130223e-01 4.914162274493483e-01 4.994443142451288e-01 4.994443180345370e-01 4.914162361366141e-01 2.971584128301885e-01 2.359440084712659e-01 1.738364044960375e-01 8.456987462630168e-01 9.077941209497515e-01 7.844659838040388e-01 7.232394775685728e-01 3.583903673411521e-01 6.619373243781035e-01 4.195924372656553e-01 6.007989153125063e-01 5.273698599761660e-01 5.269462099690591e-01 9.830375135718049e-01 7.144659082560822e-02 7.121412295401409e-02 4.178283118490044e-01 3.568155327175373e-01 6.024653856209573e-01 6.636734413757235e-01 7.249049755186765e-01 7.860533527354114e-01 2.342785922479607e-01 9.086407845942533e-01 8.474539903615441e-01 2.954030456241436e-01 9.389525950838185e-01 1.639527362028730e-01 5.537913779113524e-01 1.122128776448790e-01 1.122444168974647e-01 5.096420643222741e-01 5.093378557245372e-01 5.093794904944190e-01 5.096836923075511e-01 9.898022497200002e-01 6.202278975629535e-02 9.894313551548856e-01 1.056868082064680e-02 2.125605476082952e-02 1.727608478734053e-01 7.889653325606363e-02 9.483473958542284e-01 5.253859198944295e-02 6.950976187222344e-02 5.183679192610943e-01 5.184095578302700e-01 1.017703764249344e-02 5.322506424115968e-01 5.317962039563754e-01 9.898402346285233e-01 8.536590418895293e-02 8.344553936268678e-02 1.561096052292620e-01 1.386454731287885e-01 1.406382344088420e-01 1.588414625076229e-01 9.863947535514133e-01 9.863947534567103e-01 9.041744449869327e-01 3.070907952505817e-01 9.643648677369725e-01 9.643648673571614e-01 6.515063508870391e-01 5.523059081599215e-01 9.724356528063496e-01 9.724356531232343e-01 6.625297392937389e-01 5.412336315412448e-01 6.430026218662641e-01 3.164216461921315e-01 8.876474052097049e-01 8.876700141695304e-01 7.654777415534786e-01 5.612698802576404e-01 7.040992118978748e-01 7.651799907954637e-01 8.264247866783272e-01 8.265303693431452e-01 7.040639788747898e-01 5.000603110268246e-01 2.346131756395369e-01 1.735901976228999e-01 4.184997197724648e-01 4.277129752339175e-01 3.130911956828356e-02 3.055140368263704e-01 1.011839866850455e-01 5.207415161227643e-01 9.748774903258492e-01 9.748774901775985e-01 3.173613525101123e-01 6.477503022440115e-01 5.561762321688234e-01 5.092881650828883e-01 3.519499030850224e-02 9.935509342896465e-01 9.935509342729845e-01 4.293077914408407e-01 8.930854638121245e-01 9.228651172545273e-02 4.174296110222019e-01 1.027852596257458e-01 9.090075130469109e-02 4.033421733563987e-02 5.052785338741033e-01 4.757177400264830e-02 6.330335249460306e-01 3.064384291964173e-01 8.230452228045575e-02 4.490190649169465e-02 3.542363970614666e-01 3.624380800227621e-01 9.442355866142682e-01 9.442355864453189e-01 3.495602971747427e-02 4.264285377750399e-02 8.975200011636078e-01 8.975451235173142e-01 5.713393061571469e-01 4.900026396070420e-01 1.635392504880809e-01 2.446345709235260e-01 7.144618675289274e-01 6.937623561775843e-01 8.161244477811869e-01 1.837976768720407e-01 4.284987886616067e-01 8.772654151513655e-01 6.532330551111474e-01 8.367634321601249e-01 7.549305882563320e-01 7.142269781976361e-01 7.756626317464359e-01 8.161953547369765e-01 6.940721497718916e-01 5.100868169359662e-01 2.244964012437832e-01 8.774864344047701e-01 3.264141671691050e-01 9.860410972993049e-01 9.860410970435540e-01 5.497315007104761e-02 8.311058214919191e-01 6.992783357726357e-01 8.216020106908574e-01 7.088889752223869e-01 7.351963627997206e-01 7.953607341131276e-01 7.556175992190012e-01 7.750283093444861e-01 8.362895206249744e-01 5.515461502916382e-01 6.994452274305017e-01 7.087279351145048e-01 8.566255827198047e-01 5.156874451702602e-01 7.649919194836009e-01 7.656055805999349e-01 4.092021969493091e-01 6.333711400001474e-01 3.067434337398924e-01 7.648658217426585e-01 7.657772287912414e-01 3.713407343688152e-01 3.724121195499687e-01 4.282765627146139e-01 8.974076462863565e-01 8.974439157175553e-01 6.219946617013912e-02 6.246581183124705e-01 2.980639361974721e-01 7.898939232552253e-02 4.367149938319451e-01 5.057668299638061e-01 9.928438192885276e-01 9.928438191819950e-01 3.707380327591389e-01 4.901645892161618e-01 5.711575974298384e-01 1.638654748822821e-01 2.443712418535618e-01 1.883148334566946e-01 5.459874207366687e-01 6.579754618264515e-01 5.229688251973161e-01 9.064032893828535e-01 9.063896285354491e-01 7.958738020608882e-01 7.346074367423125e-01 8.571923185380264e-01 8.261336298595428e-01 2.245928779950911e-02 3.614570244314022e-01 9.338518652977699e-01 9.338521444995715e-01 3.626150039642387e-01 3.538020473044595e-01 1.785562564354728e-01 5.557428382181906e-01 6.482547927618870e-01 8.261289680960644e-01 7.356371114960401e-01 7.948113061468245e-01 8.561796866968038e-01 9.511128821022281e-01 9.511128818628845e-01 4.812709208000121e-01 5.799454640651007e-01 1.549113240821859e-01 2.532527509432240e-01 3.264198204920353e-01 1.945650908036178e-01 6.647522502326045e-01 5.391493177400497e-01 5.908485487018782e-01 5.956522201407350e-01 4.655783541482739e-01 4.703820259660741e-01 2.642061455542458e-01 1.437897102875665e-01 2.690422677464807e-01 1.389860405413075e-01 1.903731508068336e-01 9.664530485853863e-01 9.664530482788943e-01 1.748096198256444e-01 2.335542116637153e-01 6.020407778594692e-01 4.591836119882097e-01 2.755101547773479e-01 1.326437290593586e-01 5.215005324277042e-02 7.346190387772300e-01 7.958621996997221e-01 8.571776296825331e-01 9.097485938797611e-01 9.097597421762441e-01 3.445248385392375e-01 8.857455658276301e-01 3.490766090798146e-01 3.499680045106720e-01 6.073418398650832e-01 5.975317601940264e-01 4.636972550583033e-01 4.538905361890567e-01 2.807084790014912e-01 2.708827766519456e-01 1.370729101305098e-01 1.263896499757336e-01 2.203784396088702e-01 2.338608761379672e-01 1.069468240613102e-01 1.026538738749890e-01 5.722836227254344e-02 3.356764694768349e-01 1.745273761294559e-01 3.590918909651828e-01 2.299695342522606e-01 2.450755464659927e-02 7.246483403356982e-01 8.059205811710313e-01 6.835758864653169e-01 1.938809150540710e-01 6.733981545748738e-01 8.671690139353894e-01 5.202305441010823e-01 8.469677320240606e-01 7.244486740181421e-01 7.856950693986577e-01 7.448526029499334e-01 8.060970765874511e-01 6.838504577385198e-01 2.143729742064817e-01 8.673674222216633e-01 4.523794406834399e-01 4.473763936996491e-01 2.872478606692702e-01 1.257557794226104e-01 1.198761889919957e-01 2.822582804965804e-01 6.138927255535749e-01 6.088863172464523e-01 3.790292840533115e-01 3.792124016855325e-01 1.218439648451350e-02 5.381677117742727e-03 2.054748919599452e-01 2.038409903065024e-01 5.312349135396259e-01 8.563696372612115e-01 8.568008450070692e-01 5.307208784225228e-01 6.721457406744205e-01 6.717476093018102e-01 7.350146096853428e-01 7.354437579540171e-01 7.949974505513426e-01 7.955352769024568e-01 6.021575307676049e-01 4.590668598513951e-01 1.325362718995078e-01 2.755669944824871e-01 5.002665949729754e-01 8.868966657053309e-01 5.219998936223043e-01 1.027759079010364e-01 6.296874684393210e-01 2.146571569673744e-01 7.452418720893315e-01 7.853584894144932e-01 8.465994072947783e-01 5.412966233401334e-01 8.340