<?xml version="1.0"?>
<VTKFile type="UnstructuredGrid" version="0.1" byte_order="LittleEndian">
<UnstructuredGrid>
<Piece NumberOfPoints="568" NumberOfCells="1054">
<Points>
<DataArray type="Float64" NumberOfComponents="3" format="ascii">
0 0 0 0.049999999999899652 0 0 0.032369857048753323 0.032369857048862027 0 0.058433525112266523 0.058433525112214509 0 0 0.050000000000207989 0 0 0.10000000000041601 0 0.040058458469319477 0.094457855579157729 0 0.098076845682915317 0.099172414730993488 0 0.094457855579284614 0.040058458469418363 0 0.099999999999814668 0 0 0.056452228708379938 0.23456580837661581 0 0 0.20000000000083221 0 0.038839999600931263 0.17949825993190149 0 0 0.15000000000062411 0 0.054872692726595548 0.13410685639845171 0 0.089689702191541126 0.13851380458662241 0 0.12294765968567151 0.14825146416195439 0 0.08287507656968085 0.1788186348829835 0 0.099694771212264055 0.22074048840547039 0 0.15899695163321451 0.22783674912227669 0 0.12587517708284679 0.1889683322666954 0 0.16901316006868169 0.16800219386663079 0 0.18922011052115781 0.12644206653611201 0 0.22626394058331961 0.15465946819838111 0 0.20596721135052939 0.19972517895396219 0 0.2115548431873881 0.2417444767741872 0 0.18035159017842109 0.039190336535090492 0 0.14999999999970359 0 0 0.1383574446607988 0.058995933918849157 0 0.1484760565886207 0.1122209074004519 0 0.18172590289758209 0.08161197406129285 0 0.21720615046484709 0.1044394548351292 0 0.23167460333446299 0.05534377469531044 0 0.19999999999955789 0 0 0.24999999999941211 0 0 0.28320804985300141 0.050843339082505573 0 0.29999999999926641 0 0 0.32361955853288599 0.032799927825624707 0 0.36246243089534252 0.044218366607477223 0 0.34999999999912063 0 0 0.35582258519414178 0.085418764257258431 0 0.32242731191769902 0.068937933438140794 0 0.33076700644279272 0.1195922550481146 0 0.29506339503703888 0.1011380892434444 0 0.25714619498771307 0.1041399906845497 0 0.26318949769601319 0.14610173397257309 0 0.29914271679297122 0.15649620970120659 0 0.26017196519013502 0.20370391303005 0 0.30107969069289831 0.20280020009141189 0 0.28840285102268098 0.24960955320708811 0 0.33179683980498331 0.2223019939720311 0 0.33080167595110582 0.18179111300269291 0 0.3603074848216346 0.15401470087110539 0 0.3972892400718947 0.16563993209502181 0 0.43240736009008851 0.18205680965402779 0 0.41732862935313042 0.12986698634362279 0 0.38103425680679859 0.2047839516297037 0 0.42421838472613971 0.22246502005787769 0 0.46229330881044273 0.19890916456654811 0 0.49999999999997108 0.21968641114982909 0 0.45952001838826873 0.15666487330524251 0 0.46567857652706018 0.1143680615275231 0 0.47574662421782782 0.077626823840590969 0 0.48492433058289169 0.037321398276272413 0 0.49999999999869432 0 0 0.44999999999882923 0 0 0.44692795014265252 0.051801877645060238 0 0.40685581827241191 0.041139877312511682 0 0.3999999999989749 0 0 0.39061628640684498 0.081525103161991672 0 0.37516171960683908 0.121918126660369 0 0.43122735573933979 0.088176999192917438 0 0.42930823106401639 0.40626685012722968 0 0.39222057657781068 0.38067796690227418 0 0.39419886675318527 0.41912225240070788 0 0.37702386074717259 0.45819417564476811 0 0.41009598069569558 0.49083935749285379 0 0.42340342337193693 0.44762131874855388 0 0.46152714345798918 0.47344359412352599 0 0.46102425708533701 0.43254199134332588 0 0.46543211128216788 0.38788423543681888 0 0.49854341599767982 0.37075914768127122 0 0.47253211736503098 0.34081710830804929 0 0.48378871228000903 0.29745177826977359 0 0.45533136021725079 0.2525687312087147 0 0.43059486795334201 0.30395973419063538 0 0.39162098771181342 0.29503699292854563 0 0.40180462628983732 0.2561903397585753 0 0.43301393728221038 0.35984320557492139 0 0.39120887188745579 0.33407577688404289 0 0.34804757266227387 0.35750068079406011 0 0.3231032570156932 0.32141443408924047 0 0.3579628846738841 0.25683522786710378 0 0.35481435458309307 0.30398436674998969 0 0.32373692627050221 0.27286413781593999 0 0.29747949118041711 0.2964111573808435 0 0.26014443552207939 0.29262390443653519 0 0.25082138072344978 0.25770010742236849 0 0.28473805236128291 0.34355768118673757 0 0.25582605936799319 0.39507969989513358 0 0.2963043386970643 0.4298320229681446 0 0.30597655500381687 0.3934681685211931 0 0.35481422397128459 0.40312981465069342 0 0.33382663527330159 0.44130125047503482 0 0.33436424489304489 0.47849603121740791 0 0.29988655052531688 0.46700727827593119 0 0.26247584734598628 0.44764943295894732 0 0.262418491288269 0.49071922292154141 0 0.19218127164496679 0.46593838964869538 0 0.23232476702437141 0.46634525369567709 0 0.21968801783855879 0.43306783640023788 0 0.197169318452384 0.38703015239362498 0 0.17845774482872559 0.43087117257049429 0 0.14869578771858949 0.40481452396082068 0 0.1444847662218138 0.45353891581271188 0 0.16001314202358469 0.49771727055909287 0 0.22001518176882229 0.28602682846307981 0 0.19152147653881049 0.32791879770215432 0 0.2360419540479583 0.32191828326940741 0 0.22269553095687891 0.35837423432538801 0 0.15401470087117619 0.36030748482174652 0 0.14392209494791439 0.30620070203545702 0 0.1685376717739448 0.27232483159280108 0 0.1104775404132264 0.2631175359816938 0 0.099492119481027347 0.30746398533281638 0 0.073296788161418117 0.34226957089850552 0 0.11603400219493119 0.33748134585014028 0 0.033457646040922301 0.36364842331228431 0 0 0.35000000000145642 0 0.032220921767546963 0.32901489214487523 0 0.053730171687646627 0.28825077189828552 0 0 0.30000000000124832 0 0 0.25000000000104028 0 0.064893331803534807 0.48669777060454478 0 0.1091992745981364 0.48758069708049778 0 0.097100979577207341 0.43590673999053198 0 0.10935320311385981 0.37839190921727089 0 0.06053051438015096 0.39514626428972788 0 0 0.40000000000166441 0 0 0.45000000000187229 0 0.043612803661092707 0.44006111182840391 0 0.029444907164209121 0.47500000000196552 0 0 0.50000000000205869 0 0 0.55000000000173355 0 0.051801877645083663 0.55307204985745195 0 0.037321398276215258 0.51507566941747263 0 0.07762682384055844 0.52425337578226128 0 0.1143680615274819 0.53432142347292733 0 0.1219181266603569 0.62483828039315903 0 0.088176999192898689 0.56877264426067353 0 0.081525103161997597 0.6093837135931508 0 0.041139877312483641 0.59314418172763017 0 0 0.60000000000138687 0 0 0.65000000000104008 0 0.032357843506722522 0.67660040198578164 0 0.04421836660747535 0.63753756910470205 0 0 0.7000000000006934 0 0.04863291748797445 0.71789175274016204 0 0.091072812796719582 0.74198804864687795 0 0.099018722548963364 0.70475631558365193 0 0.085418764257258195 0.64417741480586865 0 0.068937933438162791 0.67757268808231053 0 0.1195922550481313 0.66923299355722787 0 0.1540147008710982 0.63969251517836956 0 0.1817911130026923 0.66919832404888702 0 0.13725179499972981 0.74154628962856628 0 0.1564962097012354 0.70085728320703999 0 0.20370391303007401 0.73982803480989479 0 0.2028002000914135 0.69892030930711557 0 0.249609553207091 0.71159714897732929 0 0.22230199397202771 0.66820316019503168 0 0.2047839516296828 0.61896574319320252 0 0.2224870800581388 0.57577541371134155 0 0.2196864111498267 0.50000000000003153 0 0.1989632851005598 0.53769147668950479 0 0.1566648733051971 0.54047998161174216 0 0.12986698634359389 0.58267137064684615 0 0.1656399320949789 0.60271075992809464 0 0.18205680965398621 0.56759263990989739 0 0.10000000000041601 1 0 0.094457855579188163 0.95994154153068711 0 0.050000000000207989 1 0 0 1 0 0.030452409610489669 0.96954759038951022 0 0 0.94999999999979179 0 0.058433525112254137 0.94156647488774581 0 0 0.89999999999958358 0 0.040058458469322648 0.90554214442079806 0 0.097990957645208238 0.90045039720880915 0 0.1229476596857173 0.85174853583809695 0 0.086813039193431391 0.81709574086842884 0 0.087041706119416085 0.85382799508926188 0 0.052469033166843738 0.86696410734366991 0 0 0.84999999999965292 0 0.043889462445437968 0.82675923981951283 0 0 0.79999999999999982 0 0 0.75000000000034661 0 0.052938001421335763 0.77688977118331159 0 0.11231692802445629 0.78020430794084028 0 0.16253691950235041 0.78284912262768558 0 0.24335844191347281 0.78651189793387466 0 0.20359074765364421 0.79422489417871855 0 0.22893929024737289 0.83990878992727813 0 0.17101873536300011 0.82898126463696109 0 0.1322615032692282 0.8130603300143705 0 0.14688274318541941 0.88962265630811932 0 0.1817259028976386 0.91838802593888857 0 0.18958721034944021 0.87660297360394568 0 0.22131139331094829 0.9041449437198319 0 0.23222643817617661 0.94420751116970569 0 0.20000000000083221 1 0 0.18045991219397989 0.960710939969875 0 0.13834721989462789 0.94095916274077984 0 0.15000000000062411 1 0 0.35000000000145642 1 0 0.36363861612613613 0.96654491682121313 0 0.32894624184180998 0.96779701826738929 0 0.30000000000124832 1 0 0.25000000000104028 1 0 0.28790752038294382 0.94635952848702642 0 0.26305414557470391 0.88949062093136155 0 0.30738136326657722 0.90051880305435028 0 0.33748026778199908 0.88396545633134682 0 0.3422695708985129 0.92670321183858773 0 0.36030748482174152 0.84598529912882459 0 0.30619531169472608 0.85607519768342955 0 0.27254997832041528 0.8312019486901443 0 0.28602682846308641 0.77998481823117594 0 0.32191828326940508 0.76395804595204586 0 0.32791879770213411 0.80847852346120164 0 0.35837423432538362 0.77730446904312345 0 0.38703015239361932 0.80283068154761972 0 0.43306783640023289 0.78031198216144404 0 0.46634612187967051 0.76767585524061377 0 0.46593838964869061 0.80781872835503554 0 0.49771727055908782 0.83998685797641781 0 0.45353891581270822 0.85551523377818905 0 0.43087117257049001 0.8215422551712771 0 0.40481452396081791 0.85130421228141606 0 0.37839190921727062 0.89064679688614412 0 0.43590673999053309 0.90289902042279657 0 0.48758069708049379 0.89080072540186539 0 0.48669777060454272 0.93510666819646593 0 0.44006111182840962 0.9563871963389079 0 0.47500000000196563 0.970555092835793 0 0.45000000000187229 1 0 0.39514626428973221 0.93946948561985189 0 0.40000000000166441 1 0 0.33231497408081678 0.60779218732873663 0 0.37104651296145419 0.60545170748311072 0 0.35984320557492089 0.5669
[...]
<CellData Scalars="pressure_p0,piezo_head_p0," Vectors="velocity_p0," Tensors="">
<DataArray type="Float64" Name="pressure_p0" format="ascii">
0.22337075454970748 0.24003742009507642 0.20614851307403537 0.2228151777687834 0.24347147152741347 0.25004576518079707 0.22285448275373101 0.19585087623201597 0.1777078132547254 0.20175906299141985 0.1909772731413579 0.15638003456907537 0.15627663363571986 0.14857930567922478 0.1753383461313536 0.18805468907466036 0.28368468968848248 0.2332387376386805 0.26120188047614895 0.22153180402515843 0.26835376741800243 0.24363207996284234 0.23534344450959155 0.20252882072183243 0.18522630157190351 0.17365947109127503 0.18121001025101621 0.22136462236547264 0.19619051605348567 0.19840912167811381 0.22637773237611861 0.16376127926261214 0.18341642077528658 0.15962530101945072 0.14314262652654053 0.15845254777515311 0.1451542569166781 0.12800119236426966 0.10005590648475628 0.11554493837469136 0.081263014945148801 0.10711539396302648 0.090861315172954774 0.12009360064737501 0.12141126857101368 0.12212518252088952 0.14453893778629548 0.1145744715219699 0.10462209432798178 0.13985405055360983 0.11926488715037115 0.12530663584172438 0.14632010743578974 0.11819187234222774 0.090459743628595504 0.1031691146355971 0.085667580791895348 0.077776113447202325 0.094712021731307466 0.088642238122499703 0.074815091473531117 0.049731717765788663 0.061359893604909538 0.038715451038649533 0.039843304268382791 0.03086153460581564 0.029142402774729206 0.024517481379402562 0.016917730577172833 0.025105898084179738 0.033159912019364843 0.021884531188585622 0.027759774677845742 0.035076893176743687 0.043106830844576165 0.045296982363287434 0.056366911585811551 0.063845672982230525 0.065760190015629258 0.079509549279953948 0.068434774759427164 0.052538386367179599 0.063994237228580927 0.11070636121728999 0.094810219717587907 0.080675784003981524 0.087761618797074947 0.095975793464099596 0.072795357358811125 0.064331512710353311 0.072450383674714014 0.048445212359442796 0.055619903283243746 0.052816537259449285 0.038226371530329588 0.030009594212789054 0.036585177854611475 0.04318336531250748 0.045036108247271847 0.032413574859310117 0.028421216017568272 0.061416949086270052 0.071606488152565331 0.04888434106079545 0.064690850392294136 0.053226593741546896 0.044029409481663666 0.037366758899522234 0.050815188305340042 0.059950043708507025 0.020596581562939868 0.034390097523684153 0.030155846126844004 0.016413755306564571 0.021217470314913226 0.010274930425816668 0.016080792655388254 0.010465896109985537 0.0075680060884316296 0.0035952343745568917 0.0039648349602776347 0.00060399608042021051 0.0024185147868505869 0.0087414694407144528 0.0067650089769301898 0.0052506280257767508 0.01294807374870126 0.015903843351854723 0.023481414753691181 0.017507404795495375 0.013086901972080216 0.18710409792981253 0.15278571247172476 0.1750196699960038 0.17052901100620707 0.19770049722977706 0.20536396320467884 0.22602037995418686 0.25090569770003834 0.2261545595426307 0.20616284524056686 0.24653551929827158 0.24727977338390736 0.22580997671015668 0.2050211053362633 0.18507755918902433 0.16794898487129853 0.1876658783561225 0.16944922066723009 0.15121207574189027 0.1510511211328994 0.12111871377946494 0.13469741861902476 0.10480025760100306 0.11514207769144535 0.1000785513647405 0.13346750588592529 0.073457658559749686 0.08295764261210746 0.078445063118405836 0.089690576920192708 0.10580777640381107 0.11126603032620175 0.086016885516424779 0.11733344731892895 0.13721762849427829 0.14282577738869509 0.16818370175016947 0.14907275997404329 0.1284369746957342 0.13227348098254749 0.10104128518066371 0.098742362919437998 0.12238384553673201 0.11719442393463969 0.089088697247678261 0.12563479752678458 0.11317480612284275 0.14467667880547297 0.12558458100475925 0.14193704777394375 0.15944660643902553 0.1940940998598161 0.23212005615185211 0.21298014772117344 0.21069958124132504 0.18989274030460421 0.17480289034274232 0.19864344877347453 0.20949981047762312 0.16292202591743465 0.25348539137283232 0.23391743910537821 0.24504698634896366 0.28568192310964552 0.27210961592439414 0.24647123463332635 0.23497910939467484 0.2804692238961099 0.27005847536855337 0.3043843039470065 0.33374443907985651 0.30924146671454594 0.28838264272773845 0.28843249502987789 0.27009698562890766 0.24537137530383449 0.22001891392678541 0.24016165238812587 0.26479494794625241 0.30212877793267001 0.27185896252708508 0.25862587652193153 0.27677763151471929 0.32298373453102686 0.3611389665513301 0.33498718437316161 0.31032509404210323 0.16111098830663975 0.14335287656410181 0.14277435585875178 0.15829433507566235 0.17801343919195983 0.18134659925068486 0.19311455965321689 0.18009193215520522 0.21572294010435689 0.23031708058037129 0.26817010486043885 0.24302963202779948 0.22336224800398968 0.20153856818632865 0.2076220054589942 0.19009103802551205 0.25057191595561712 0.23135506117864205 0.25180629150214939 0.27795652185339309 0.2449876409596583 0.27121095962506192 0.28472161445053595 0.31386713304119918 0.32476402039157698 0.33203099470620523 0.37673843460656481 0.34928289498845178 0.34582613492161479 0.30203012628003384 0.3156436600968987 0.31055050128422657 0.28106995140300939 0.39252402288546601 0.38875686200183768 0.42259960234193772 0.35744063457923492 0.31081963190331879 0.33149877887452928 0.36696306002883627 0.38607251031869549 0.36886253036282585 0.42060535525680287 0.43321217441003235 0.42439898380584146 0.45027741431825824 0.4658503456826078 0.47486713419305904 0.5098553930574794 0.51209329728492836 0.45232363302401873 0.47918180541551358 0.48373209586123594 0.45952438790286665 0.46719856374495589 0.42526202232128402 0.51800910140374323 0.50459358722679892 0.53323971859852592 0.57363117638650185 0.52003147213790846 0.53967541551120968 0.57409973759368249 0.59472253410250042 0.65372011653678663 0.63135742229544922 0.69562998453618996 0.64455255762887143 0.75627681695524218 0.71113021545319655 0.67951187066650154 0.77726424373204284 0.74584242786679567 0.697358446185392 0.67308807538641535 0.68482931704448702 0.58186331733030106 0.61466394112805811 0.60742157490427606 0.63095113595161423 0.55495167171449622 0.5702663964237612 0.55097258108230351 0.58275622376805847 0.55602044699346898 0.5152387965472871 0.64087892380496647 0.61892650747355327 0.64849177496529076 0.57773088931980077 0.60621087049983235 0.59288748634237021 0.55576456744880898 0.60723643267223248 0.51349489173863883 0.54927150562659899 0.53276530037280134 0.48754287868290103 0.45206701992823983 0.43124495294579318 0.43322236411325654 0.3937418073582255 0.38119046749641844 0.32694881391838454 0.35445219273024964 0.3562888842770105 0.40322297782530431 0.40375597723322337 0.3835778025791724 0.40170832168450982 0.39509337855640314 0.43945418048539164 0.43580630834583745 0.49427469153354392 0.51180808663599653 0.45544617297291684 0.49067957286184383 0.45755057260621418 1.121873653744111 1.122393349542518 1.1486326896974726 1.1474368751664674 1.1869854810497438 1.2036521482371652 1.1307702074637926 1.087593546972869 1.0804995521363672 1.0204071825123706 0.98440208107140925 1.0276033948354972 1.045722398132235 1.0238897799372177 0.91789470189524303 0.91245086431839317 0.83338123079708204 0.86788580452045283 0.87579946170136125 0.94051699768191144 0.91366567108931085 0.93785135873156211 0.9843317866439294 0.91718015365902994 0.84363884793532129 0.86074262646041833 0.83431888168334234 0.75918383331761208 0.79936830127876124 0.79722230155952845 0.71869886181505649 0.68004855812621134 0.72161850165487629 0.77213337824779649 0.75998859410981012 0.74620944658332344 0.69260590559251911 0.67851379636405151 0.64562232709275713 0.72651858574955641 0.84533962851001154 0.76342258552959941 0.73447340013179974 0.81209257716178884 0.85783545491785251 0.81907143086792056 0.85876794721472871 0.96733100214073575 0.95821397573765799 0.90785284735381533 0.9009028815939355 0.839445690178798 0.90106048473720113 0.93360273289779561 0.97680714125127588 1.0251399002241821 1.0375285160249343 1.0784073960436897 1.0536930366839157 0.99459712047765625 1.0737915459810621 0.97985710574434703 0.99437228394388422 0.93348262652394653 0.90925042768788211 0.9292216360287554 1.0087672328183497 0.9813615118646789 1.0133317266745838 0.98765771145291681 0.87774094860723306 0.91593225315958404 0.82113758653410318 0.80813845770052795 0.84588111518545772 0.88990571200181723 0.8608710550126164 0.83244580068831697 0.78297568814813812 0.69099644994423315 0.72873295288141149 0.77037507339101219 0.78866363166637887 0.78590435945216297 0.73122072122558091 0.65019927782635845 0.69239236335888921 0.69291751811641555 0.62098184677967794 0.65222533701155549 0.61944325406277945 0.59179821210209205 0.64029114861204062 0.65415311731212067 0.6146272620938209 0.61087463614840876 0.64936687716056096 0.57410908958666729 0.58291356748659162 0.58055743341181842 0.65523228670568334 0.61708308694195613 0.61858429183703878 0.64831450744552999 0.68850101516443662 0.69702927413332028 0.74362762150014472 0.7614698396942341 0.71517448376191783 0.68951273799133972 0.70794856330649292 0.75825177039960712 0.83935557905649283 0.87617692674087111 0.78606525723296117 0.78150352108172949 0.83918252262148518 0.82829727485166305 0.86976645174817724 0.9111623498391469 0.91413306436285213 0.98103538530213452 0.95591981945788507 0.95383923861605713 0.97604738173293926 0.93962227781888652 0.95127068202318443 0.36609751458602702 0.40763214247495921 0.37327970530561777 0.30523903845277212 0.31364676323787993 0.30125033257978556 0.27976544576491919 0.32820982380968167 0.3405994409479649 0.34024718060694159 0.31867287215510581 0.3780651964752213 0.39647009944753325 0.42077854246665619 0.38997821018421391 0.43286431891818 0.47730057516304553 0.50028654885991541 0.48331493106760542 0.51017868646538844 0.44527411983844423 0.59255577274945059 0.56414816972181192 0.53670564344833616 0.55389833814039602 0.58065737405887374 0.52025460711339677 0.53113364054515944 0.57480329541802977 0.49093766449604137 0.48982627881796376 0.43128956052284412 0.46203854822992718 0.42316277908629296 0.45824839008315882 0.46043588428114579 0.47561509852322631 0.42677610661646659 0.40691194595657615 0.51723217541966549 0.53512788733616701 0.55982922208556996 0.52668923822589275 0.51081404668234043 0.47772237825540492 0.50643471393039741 0.4277545338942968 0.45966140572673181 0.47245677705213174 0.41511403177859307 0.38373410542241521 0.33064243890767625 0.36198229249432545 0.37507325444464945 0.3570022738626486 0.33061615717147586 0.35452381708471747 0.40438113513932328 0.37020051362382123 0.27458830471371365 0.32534136283337678 0.28980465348290663 0.31456771207066681 0.26990570192777719 0.31732262624068441 0.29176875079265274 0.27254398210015002 0.27248161824715095 0.28554278171087133 0.28913082534558665 0.31736309521342349 0.27969489865636116 0.25939881059895298 0.32244679705804569 0.29957291452362844 0.29072152070089169 0.26333918211902646 0.34980743586190799 0.37902633846597278 0.37238647582210588 0.33804750604072098 0.3384866551341103 0.31808036381198213 0.37290573730623816 0.44523244650692456 0.44764001042668161 0.44891727888501182 0.42217479582724082 0.39330661205031703 0.52924878713527257 0.47445329738438768 0.51123058957850598 0.53687173356948115 0.51993583536060128 0.48412297266802495 0.48920127599203372 0.54730851990638085 0.45084256534706668 0.41499042674947445 0.42376629847888186 0.44081152611265267 0.46758018763857823 0.46472975798729738 0.47701810509624271 0.54525285662465361 0.52817131230627223 0.51836445228145478 0.52860266195362349 0.58775520731561581 0.56725229807159638 0.56655177765205589 0.52311023981149374 0.59230907139223743 0.50117401390370586 0.52087299066266546 0.46289157620134336 0.40067884947061333 0.43741255493663467 0.38390075890074671 0.34315146170445737 0.33068761629650123 0.30191141396458915 0.34854182846262538 0.34031949729594085 0.28862450476149981 0.30919148269832142 0.31017886488293539 0.3446441474600781 0.35992985073528216 0.3979506176158949 0.4076354515488671 0.38476822777459668 0.35976548496898664 0.95604255471512667 0.90464825846603081 0.88799561492740842 0.94328943873559867 0.97933840309795761 0.94300298000664573 0.97572304904583596 0.89279808570932861 0.88370085388500574 0.82368462557794564 0.86249752151938919 0.80947881414676048 0.79447274944712964 0.81779466528126521 0.87252556414323856 0.80127459247883981 0.74220333902892655 0.75172622705858894 0.69541039317688069 0.67486290970565954 0.71403775629303867 0.71602876835437534 0.75332996198734181 0.76069343288158275 0.73385341671907467 0.68640639480882704 0.67594500496098242 0.64170829721811007 0.65160344152298821 0.57022012207334172 0.60321963074607854 0.60376904637497519 0.57707179225576688 0.64267076110131904 0.59306681836297781 0.60578123820119945 0.61650294674645256 0.65841348493898044 0.66819982786442111 0.59945941768809263 0.63795379743478986 0.63669731686548992 0.70534223569683019 0.65740111392709033 0.70770976232219795 0.74765109387375495 0.8018495809587497 0.80227526326115972 0.75036684968350931 0.74484650184862977 0.69242336975607643 0.7745429807850277 0.81520713930744637 0.83253122356988807 0.89537637952892235 0.88110969270112671 0.85244424241173045 0.85124751290309741 0.84628466017557535 0.89623825807744806 0.93603798935492655 0.90081797132478325 0.93884736658202939 0.99514675644045447 1.0174352573983001 0.98596924648495443 1.0093105752745142 0.93214430408652438 0.97348206995078002 0.98743879559668424 1.0793205341074457 1.0033484864636995 1.0578240775034087 1.0769639229905368 1.0410429560301511 0.97551042946412136 1.0272504709791781 0.92394903276109241 0.9073805413091699 0.85057213738277149 0.88330500648969934 0.92806089963330418 0.89207227986211035 0.97065706352199754 0.98760225489814657 0.94111509734876142 0.85503405593882176 0.82360356275703994 0.84573206855755079 0.83224554769188908 0.80856407109050343 0.75747654134773745 0.81605004948843607 0.76514220693012192 0.73036136382520922 0.68810782066555842 0.6521953267674967 0.6943405542007417 0.75850806657386427 0.66698327193206031 0.74120132771754588 0.76707979739518539 0.7238292712591341 0.80364936152598532 0.79960128963814259 0.74958210387785695 0.82871715880838459 0.83756752366951315 0.85260492601702687 0.88773336240180145 0.93020059826384094 0.91468374523173235 0.97922292713183745 0.886238697663007 0.92924658672613536 0.84024963821070187 0.91468035993535257 1.02991036946165 1.028108792492828 1.0462560585727378 0.97984070401838519 1.020407161161766 1.0804995365489347 1.0875935330598767 1.1289462268856867 1.1851241533416454 1.2017908215728814 1.1456128962231444 1.14863267875643 1.1223933358695308 1.1218736437121126 0.44264603409676856 0.45671510722598585 0.49052447734108728 0.5144350590615675 0.46014393923074093 0.40191674197911442 0.39019184049321193 0.41009319267534439 0.40179785044419969 0.37807487406317691 0.35797476317564586 0.35426791796450424 0.33219681339098595 0.37192690800300787 0.39484007055171905 0.43081552728209521 0.43004320773337584 0.45969620188917254 0.4976677359251388 0.52097369220941414 0.50017416323190578 0.61797176494198158 0.58579893121177218 0.55792793863413637 0.59033872460280712 0.55410417508738308 0.62637287319319779 0.59708079228184097 0.68028202291511253 0.64638194272250338 0.51347947039209574 0.56041274225967386 0.57370539465629511 0.55071661630343693 0.57929338967266031 0.61310821241989677 0.61093297988360407 0.65285902727219791 0.56999530210584826 0.64689908874425261 0.67950359947768479 0.72818363618036752 0.76742400753927598 0.70435804160413285 0.75190933799549753 0.59799306309336775 0.63484941618729129 0.66256058096793025 0.69318611543426489 0.63431109740449543 0.65421482111290585 0.56056463228372788 0.56260093596656813 0.59633758666188608 0.52520217712510431 0.51955366474815923 0.49807755544058241 0.43942485701259709 0.48408030050144196 0.42350216638523092 0.44863485166083195 0.46576725502515243 0.48989309321302787 0.52317146118477498 0.48148863779374251 0.51585037858899618 0.46647650737396423 0.43336035898528646 0.41753207110904328 0.43489594869170178 0.37428393210630723 0.40889003446139827 0.41200366773310526 0.37619475640551991 0.3471463930777256 0.35205559944516679 0.33044266025960028 0.3070113254800011 0.38575643618944211 0.34290571749011306 0.37405393148300092 0.3944278984686167 0.38202632382754453 0.35337792650730487 0.33299651958406523 0.30659026027953001 0.3345168519061309 0.30867806959791472 0.28752530888817646 0.2670156698800063 0.26260010363191627 0.24976692870561559 0.28892982910505743 0.25833513307023082 0.23595574410932699 0.21260391319787594 0.2480626170866668 0.27585400577564356 0.29963065089035795 0.30277091222580166 0.33268942317175154 0.28252423071401372 0.15932383504220232 0.17980714200749087 0.14016723108060328 0.16995083528783841 0.16236309369995797 0.20140799909900226 0.20925010375750092 0.19172367085772363 0.23000111147674046 0.26183173068609217 0.23727126605461984 0.22323052741361543 0.21521410092867277 0.23512058377931047 0.19841364347178625 0.18491032990425679 0.22043328319537145 0.27189011809409108 0.24946565075190477 0.25107958246020556 0.30259309853979738 0.27781329292658602 0.262636652328881 0.27975653177064469 0.30812529373401043 0.32099807826540377 0.31667794994575038 0.34447112670050428 0.34422379367488976 0.3730149255131372 0.28092506510833926 0.29760958502074847 0.31424102712829899 0.31051995074430161 0.28359202193077454 0.26113958505698126 0.23391401459885436 0.26834249685162725 0.23444100081434835 0.24277245984192952 0.22145335762658683 0.18449379289118367 0.19721682355409406 0.184574241050381 0.19505533247440668 0.19812670683779701 0.22514402086287072 0.22019688809901464 0.20614849033636559 0.24003739909555663 0.22337073226295245 0.22281515717120803 0.22285446413590446 0.24347145421373856 0.25004574800062507 0.20049839626335181 0.15966528377169065 0.15684933740690238 0.14792598173139282 0.17735253631531178 0.19547573611978308 0.18805466477474339 0.14857928307554824 0.17533832114243497 0.10480099533162654 0.12033458759125809 0.14079890804001174 0.11625312630146994 0.12786153153077581 0.14858497025908635 0.12853580365975922 0.1197631633942387 0.10282969314683227 0.084233934991420109 0.07577794755073787 0.089663651603801478 0.088277912777029871 0.095000251377977379 0.074313475648628863 0.14637942312339916 0.17258141517213044 0.15188691359707457 0.19516249855308407 0.16067609789139109 0.18243897603093345 0.16134924127706737 0.14914168762350866 0.12932387760784636 0.12261368730040287 0.11598463063305273 0.099090184871671955 0.096155736575789325 0.11360979765743939 0.13225141628340445 0.12859174130605175 0.10823494157654966 0.10841434248638561 0.096843525448105455 0.079281204131245425 0.081918318012568742 0.094448161514131393 0.068053396602611463 0.081668703529125183 0.067384184132477251 0.055039317758494646 0.046356692570915597 0.03591046872000634 0.052800075313442787 0.061743961922681508 0.086683216894510751 0.073797082692549004 0.038538782931360725 0.049043614524286058 0.060191870956933846 0.053428778271073417 0.062147167778352844 0.057058210734726639 0.047755004170890333 0.038413598706208911 0.031568643697391735 0.022991364352888639 0.040801412980211331 0.035267652522715527 0.026111489201150351 0.020771203091345575 0.016674825076975562 0.023621295145521828 0.030228127762482609 0.0051225857384782055 0.013927002900626866 0.009051148737603671 0.010339782045116411 0.017345358222990055 0.022831881369126557 0.015360191900240511 0.0090929958384207091 0.0069954825917441709 0.0068378587102143427 0.0031297163567667293 0.0019061658037090286 0.0004307004087421121 0.0006653308457048228 0.0025443839535442166 0.046205977474117442 0.065793996992080744 0.059288942259650028 0.065087832427486489 0.041201735474465886 0.032960866596210586 0.021657510393367007 0.039061278683300428 0.029599995732436372 0.031913148874099843 0.019425739068048235 0.028145231268121504 0.036482410113319957 0.046381917122571427 0.047835299962013487 0.041825649142766229 0.058761895503339219 0.056477970669990288 0.0639790438926