<?xml version="1.0"?>
<VTKFile type="UnstructuredGrid" version="0.1" byte_order="LittleEndian">
<UnstructuredGrid>
<Piece NumberOfPoints="492" NumberOfCells="906">
<Points>
<DataArray type="Float64" NumberOfComponents="3" format="ascii">
0.000000000000000e+00 0.000000000000000e+00 0.000000000000000e+00 0.000000000000000e+00 1.000000000000000e+00 0.000000000000000e+00 1.000000000000000e+00 1.000000000000000e+00 0.000000000000000e+00 1.000000000000000e+00 0.000000000000000e+00 0.000000000000000e+00 0.000000000000000e+00 5.263157894724207e-02 0.000000000000000e+00 0.000000000000000e+00 1.052631578944841e-01 0.000000000000000e+00 0.000000000000000e+00 1.578947368417262e-01 0.000000000000000e+00 0.000000000000000e+00 2.105263157889683e-01 0.000000000000000e+00 0.000000000000000e+00 2.631578947362221e-01 0.000000000000000e+00 0.000000000000000e+00 3.157894736835109e-01 0.000000000000000e+00 0.000000000000000e+00 3.684210526307997e-01 0.000000000000000e+00 0.000000000000000e+00 4.210526315780885e-01 0.000000000000000e+00 0.000000000000000e+00 4.736842105253773e-01 0.000000000000000e+00 0.000000000000000e+00 5.263157894727392e-01 0.000000000000000e+00 0.000000000000000e+00 5.789473684201740e-01 0.000000000000000e+00 0.000000000000000e+00 6.315789473676090e-01 0.000000000000000e+00 0.000000000000000e+00 6.842105263150439e-01 0.000000000000000e+00 0.000000000000000e+00 7.368421052624787e-01 0.000000000000000e+00 0.000000000000000e+00 7.894736842099683e-01 0.000000000000000e+00 0.000000000000000e+00 8.421052631574764e-01 0.000000000000000e+00 0.000000000000000e+00 8.947368421049842e-01 0.000000000000000e+00 0.000000000000000e+00 9.473684210524922e-01 0.000000000000000e+00 5.263157894724207e-02 1.000000000000000e+00 0.000000000000000e+00 1.052631578944841e-01 1.000000000000000e+00 0.000000000000000e+00 1.578947368417262e-01 1.000000000000000e+00 0.000000000000000e+00 2.105263157889683e-01 1.000000000000000e+00 0.000000000000000e+00 2.631578947362221e-01 1.000000000000000e+00 0.000000000000000e+00 3.157894736835109e-01 1.000000000000000e+00 0.000000000000000e+00 3.684210526307997e-01 1.000000000000000e+00 0.000000000000000e+00 4.210526315780885e-01 1.000000000000000e+00 0.000000000000000e+00 4.736842105253773e-01 1.000000000000000e+00 0.000000000000000e+00 5.263157894727392e-01 1.000000000000000e+00 0.000000000000000e+00 5.789473684201740e-01 1.000000000000000e+00 0.000000000000000e+00 6.315789473676090e-01 1.000000000000000e+00 0.000000000000000e+00 6.842105263150439e-01 1.000000000000000e+00 0.000000000000000e+00 7.368421052624787e-01 1.000000000000000e+00 0.000000000000000e+00 7.894736842099683e-01 1.000000000000000e+00 0.000000000000000e+00 8.421052631574764e-01 1.000000000000000e+00 0.000000000000000e+00 8.947368421049842e-01 1.000000000000000e+00 0.000000000000000e+00 9.473684210524922e-01 1.000000000000000e+00 0.000000000000000e+00 1.000000000000000e+00 9.473684210527046e-01 0.000000000000000e+00 1.000000000000000e+00 8.947368421054093e-01 0.000000000000000e+00 1.000000000000000e+00 8.421052631581138e-01 0.000000000000000e+00 1.000000000000000e+00 7.894736842108185e-01 0.000000000000000e+00 1.000000000000000e+00 7.368421052635596e-01 0.000000000000000e+00 1.000000000000000e+00 6.842105263164103e-01 0.000000000000000e+00 1.000000000000000e+00 6.315789473692610e-01 0.000000000000000e+00 1.000000000000000e+00 5.789473684221118e-01 0.000000000000000e+00 1.000000000000000e+00 5.263157894749625e-01 0.000000000000000e+00 1.000000000000000e+00 4.736842105276671e-01 0.000000000000000e+00 1.000000000000000e+00 4.210526315802255e-01 0.000000000000000e+00 1.000000000000000e+00 3.684210526327841e-01 0.000000000000000e+00 1.000000000000000e+00 3.157894736853426e-01 0.000000000000000e+00 1.000000000000000e+00 2.631578947379012e-01 0.000000000000000e+00 1.000000000000000e+00 2.105263157903501e-01 0.000000000000000e+00 1.000000000000000e+00 1.578947368427626e-01 0.000000000000000e+00 1.000000000000000e+00 1.052631578951750e-01 0.000000000000000e+00 1.000000000000000e+00 5.263157894758763e-02 0.000000000000000e+00 9.473684210527046e-01 0.000000000000000e+00 0.000000000000000e+00 8.947368421054093e-01 0.000000000000000e+00 0.000000000000000e+00 8.421052631581138e-01 0.000000000000000e+00 0.000000000000000e+00 7.894736842108185e-01 0.000000000000000e+00 0.000000000000000e+00 7.368421052635596e-01 0.000000000000000e+00 0.000000000000000e+00 6.842105263164103e-01 0.000000000000000e+00 0.000000000000000e+00 6.315789473692610e-01 0.000000000000000e+00 0.000000000000000e+00 5.789473684221118e-01 0.000000000000000e+00 0.000000000000000e+00 5.263157894749625e-01 0.000000000000000e+00 0.000000000000000e+00 4.736842105276671e-01 0.000000000000000e+00 0.000000000000000e+00 4.210526315802255e-01 0.000000000000000e+00 0.000000000000000e+00 3.684210526327841e-01 0.000000000000000e+00 0.000000000000000e+00 3.157894736853426e-01 0.000000000000000e+00 0.000000000000000e+00 2.631578947379012e-01 0.000000000000000e+00 0.000000000000000e+00 2.105263157903501e-01 0.000000000000000e+00 0.000000000000000e+00 1.578947368427626e-01 0.000000000000000e+00 0.000000000000000e+00 1.052631578951750e-01 0.000000000000000e+00 0.000000000000000e+00 5.263157894758763e-02 0.000000000000000e+00 0.000000000000000e+00 5.000768619666112e-01 6.073188554060099e-01 0.000000000000000e+00 6.795380246767664e-01 3.051439214016982e-01 0.000000000000000e+00 2.657431272343335e-01 3.583622349137769e-01 0.000000000000000e+00 7.778111410595571e-01 6.762714425551062e-01 0.000000000000000e+00 2.607426257384951e-01 7.108648205749732e-01 0.000000000000000e+00 1.925410402609788e-01 8.072897193003743e-01 0.000000000000000e+00 8.120681721638150e-01 1.867443256665874e-01 0.000000000000000e+00 8.429568111511234e-01 8.370136966129558e-01 0.000000000000000e+00 1.887085678387430e-01 1.942865534629338e-01 0.000000000000000e+00 1.651677048840214e-01 8.667722398931621e-01 0.000000000000000e+00 8.836633669191022e-01 1.084026514754809e-01 0.000000000000000e+00 9.685389086937463e-01 7.274054905852957e-02 0.000000000000000e+00 4.352932362624411e-02 9.173715253517774e-01 0.000000000000000e+00 9.241081310787339e-01 9.627872911261246e-01 0.000000000000000e+00 4.665702639581027e-01 2.966710361013457e-01 0.000000000000000e+00 7.457691610660050e-01 4.937482709445991e-01 0.000000000000000e+00 5.124327408742055e-01 7.972257391806719e-01 0.000000000000000e+00 4.139184944998919e-01 4.886178466606589e-01 0.000000000000000e+00 5.794123181752160e-01 4.770262960507517e-01 0.000000000000000e+00 5.745824728513373e-01 1.280831738701313e-01 0.000000000000000e+00 3.921967503782522e-01 1.185901536343156e-01 0.000000000000000e+00 9.992548653213773e-02 4.752146485274584e-01 0.000000000000000e+00 8.680062226361797e-01 4.287979305759036e-01 0.000000000000000e+00 2.991047558979558e-01 1.973979233801190e-01 0.000000000000000e+00 7.140071920057445e-01 8.382382491017021e-01 0.000000000000000e+00 8.189363322807111e-01 3.270427252528633e-01 0.000000000000000e+00 1.260422786413521e-01 3.831814387673006e-01 0.000000000000000e+00 3.744347783115686e-01 6.759694791923643e-01 0.000000000000000e+00 6.345513284423596e-01 6.545750755932673e-01 0.000000000000000e+00 1.482905044071461e-01 2.987819499203461e-01 0.000000000000000e+00 8.823950871163319e-01 6.747277421017024e-01 0.000000000000000e+00 7.045199380766443e-01 4.862305688554183e-02 0.000000000000000e+00 9.495676700920537e-02 2.542878793617160e-01 0.000000000000000e+00 9.161569341424017e-01 2.838790265759349e-01 0.000000000000000e+00 7.080441356431567e-01 9.610778915671577e-01 0.000000000000000e+00 2.902412080146349e-01 7.528496672690950e-02 0.000000000000000e+00 1.036024125949905e-01 6.657665487544948e-01 0.000000000000000e+00 2.616762994390670e-01 9.010984154916205e-01 0.000000000000000e+00 8.057964710161646e-01 9.988332988076845e-02 0.000000000000000e+00 9.193406562742105e-01 8.226521161808503e-01 0.000000000000000e+00 1.618217027865307e-01 9.113294842911728e-01 0.000000000000000e+00 2.216251568644465e-01 2.589589622123038e-01 0.000000000000000e+00 7.569837171226450e-01 2.445305945173807e-01 0.000000000000000e+00 8.590142195453966e-01 9.521276807895324e-01 0.000000000000000e+00 4.402477648881222e-02 8.663838880976044e-01 0.000000000000000e+00 9.474543022606529e-01 1.192562341855612e-01 0.000000000000000e+00 5.715115842330903e-02 1.339611925669680e-01 0.000000000000000e+00 8.718541440964978e-01 3.245699810888708e-02 0.000000000000000e+00 9.536019591372769e-01 9.155831064959428e-01 0.000000000000000e+00 9.161219870557668e-01 5.360690789524346e-02 0.000000000000000e+00 7.548922358470611e-02 9.489485111843923e-01 0.000000000000000e+00 5.492509137503038e-02 8.407525559195163e-02 0.000000000000000e+00 1.338290078374573e-01 8.889689671696894e-01 0.000000000000000e+00 8.850108101897147e-01 8.568356417223725e-01 0.000000000000000e+00 8.401324540582252e-01 1.461985836418656e-01 0.000000000000000e+00 3.736587383006215e-01 2.477899593021611e-01 0.000000000000000e+00 6.215822783678956e-01 2.231997275545906e-01 0.000000000000000e+00 1.685263063586827e-01 4.160471124896989e-01 0.000000000000000e+00 2.680261468312237e-01 4.562905052002703e-01 0.000000000000000e+00 8.121933773954787e-01 4.052869767154916e-01 0.000000000000000e+00 3.625119198709785e-01 3.273008519037463e-01 0.000000000000000e+00 3.468918975558964e-01 4.220211114867651e-01 0.000000000000000e+00 5.813425695337223e-01 7.274115590873627e-01 0.000000000000000e+00 5.768484086200723e-01 3.019361073474691e-01 0.000000000000000e+00 4.402151087125771e-01 7.381776909706687e-01 0.000000000000000e+00 7.137906082496469e-01 3.998326229438716e-01 0.000000000000000e+00 6.251561152114772e-01 3.939374276747084e-01 0.000000000000000e+00 4.375567280004101e-01 1.986674890152439e-01 0.000000000000000e+00 3.926866755464224e-01 5.805376032354694e-01 0.000000000000000e+00 5.332000484765275e-01 3.907911305757537e-01 0.000000000000000e+00 1.768746658781452e-01 5.942294572210166e-01 0.000000000000000e+00 4.385321552863963e-01 3.994211893040143e-01 0.00000000000000
[...]
<PointData Scalars="pressure_nodes_[L]" Vectors="">
<DataArray type="Float64" Name="pressure_nodes_[L]" format="ascii">
2.032272663872402e-12 1.678261995316642e-12 8.724223252030325e+01 8.771421547166460e+01 1.639148881999358e-12 2.192142079792739e-12 1.772573311557853e-12 1.559057844801493e-12 1.585144743326650e-12 1.125885035029859e-12 1.151741489376366e-12 1.751024761496547e-12 1.965520409106660e-12 1.621415052997951e-12 1.382206133120376e-12 1.234989153915350e-12 1.619136015819354e-12 8.935131694310004e-13 9.386954339227896e-13 1.125298762521347e-12 1.262319720122263e-12 1.159506384004777e-12 1.420174142791403e-11 1.485870584622878e-10 1.650156332485381e-09 1.705231465586153e-08 1.846208242913742e-07 1.696783495675039e-06 1.610803682895384e-05 1.300927206974077e-04 7.887780759534652e-04 4.811709959502817e-03 2.625017954180269e-02 1.280802425454551e-01 5.162603774878578e-01 1.785626073782772e+00 5.210119893407382e+00 1.412203107554463e+01 3.353822548507664e+01 6.227947093462161e+01 8.874042281845220e+01 8.786856383478222e+01 8.852103406592276e+01 8.924175415912227e+01 8.659548066507995e+01 8.435558740472226e+01 8.603615530429553e+01 8.471279625158051e+01 8.495865511918026e+01 8.705398110013117e+01 8.452534449518592e+01 8.879505672391184e+01 8.957437687295646e+01 8.938539793175278e+01 8.757760796112707e+01 8.639865680337384e+01 8.855570193923089e+01 9.094661000754219e+01 6.152348877411560e+01 3.331990302238997e+01 1.516108556046708e+01 5.997926315973683e+00 2.192173888351451e+00 5.063616193296716e-01 1.268212454679629e-01 2.736827077840834e-02 4.756059772914299e-03 7.430536713656348e-04 1.084491372136030e-04 1.444235765939372e-05 1.900241438429395e-06 2.408163085788568e-07 2.520913453728130e-08 2.252717955718459e-09 2.068820431163552e-10 1.974918376574894e-11 1.938265944441352e-03 4.460499959019816e-01 2.312931565229665e-07 4.507044225361731e+00 1.571494381256140e-07 8.132443902548046e-09 8.801549287033012e+00 1.560797240251788e+01 6.261445498942139e-09 2.545190363804394e-09 2.890327701589857e+01 7.629167094826462e+01 7.574081054880031e-12 4.769519782783913e+01 5.993879788362503e-04 2.206843659694534e+00 2.664971587214172e-03 7.908938074960719e-05 2.404388560164874e-02 2.285127373074320e-02 3.457179399231629e-05 1.524029217369171e-10 2.156601626813108e+01 9.395948079988959e-07 1.057888738427514e+00 9.917630250674053e+00 5.235245341591837e-10 1.592654455763264e-05 1.223080089043959e-01 1.219533711920409e-09 2.923009575635215e+01 8.181898175514347e-01 9.722595494233306e-11 4.471135546670173e+01 1.005021044268083e+00 6.382500368799284e-07 1.554581092143308e-10 1.796310493380136e-07 7.978182585653564e+00 4.582319366394514e+01 1.739801729212952e-09 2.964588196147263e-08 2.882264702525516e+00 2.045994076180120e+01 7.843362379683124e-12 6.268776061500407e+01 1.904655684458513e-11 2.488093854774119e+01 6.692190044140492e+01 4.471984387326783e+01 3.899452878734742e-11 1.712492558043202e-11 4.593774868106610e-10 2.920959940459213e+01 1.499754113040254e+01 1.554209394407351e-05 8.725995086786889e-02 3.932319967839080e-09 2.191871664879976e-07 8.877802323853748e+00 1.171894015281370e-05 6.359767450667624e-06 2.331555058453063e-02 2.269405268912183e-02 1.940813234277146e-04 1.063732317000488e+00 9.607166754895737e-02 1.810011098212104e-04 3.401265192303756e-05 5.597753838943755e-03 3.981090569822293e-09 2.078181561174994e-04 6.686787717621907e-06 2.694632825413674e-01 1.984798554569846e-09 6.105424173978760e-02 4.213560676893702e-03 5.622434096462640e-01 5.145386863635672e-02 3.876162825768817e-09 6.653591295736896e-07 1.573359442934855e+01 1.217464876362680e+01 1.818447380979436e-08 5.123486581414653e-10 3.831752700229901e-03 9.390099334540035e-01 1.053948963606609e-07 7.536480714326260e-11 2.668583743611030e-01 1.574882165384381e+01 1.504966961003939e-03 1.078030259355718e-04 4.056467093135010e+01 3.125933300282741e-01 1.104894742822264e-01 8.974887666301173e-04 9.088978563681200e-04 1.127286600663825e-01 2.613876534685330e-04 3.578358543708565e-04 4.864606642882025e-03 1.134842642634019e-08 9.838285052742338e-12 7.125299575854274e-06 2.039987307837376e+01 3.863300227413644e+01 9.082803203335345e-03 3.818222640940497e+00 3.217680854095500e-08 1.421238453654933e+00 1.734809901589120e+01 3.009375168503059e+00 3.858122897678990e-11 3.303052598679852e-06 3.387998375417409e-05 6.655244962026866e+01 5.738770835740334e-10 4.658435912336547e-07 1.153747151440264e+01 7.027439518490857e+01 3.915084627528471e-06 4.508799884046701e-08 4.816157531405344e-06 4.323354718846971e+01 2.894136416936056e+00 5.439650835826673e-07 3.458694113613581e+00 3.808945807896554e+01 7.259636182947204e-07 7.834367329463422e+00 1.734450082957451e+01 1.689850240593276e-11 2.535832478782603e+00 4.209134323709587e-08 3.224461393565754e+00 2.653195766914590e-10 6.873837635471640e+00 1.089503884832312e-11 6.594954414562369e+01 6.625362311816113e-12 3.962193908388874e-09 3.937829676679338e+01 9.629440978678244e-01 2.069538647680714e+01 1.062827718360158e-11 1.891200401773670e-09 1.068924607635724e-07 3.003563987277614e+01 3.147765953668709e-10 5.027037904769311e-09 6.202461434914563e+00 2.668236172110467e+00 9.798386005783129e+00 7.576640594486648e+00 8.132663748083326e+00 2.000573026419718e+01 1.118125069923851e-11 7.424168483298189e-11 3.514203777759790e+01 4.760318143985471e-10 6.324092863771049e-08 6.648894094779190e-10 5.384728897558921e-09 2.504187040506172e+01 1.532371606484588e-08 4.831973494473952e+01 1.698343645203751e+01 1.808317190188523e+01 3.584058657476626e+01 7.029433264952540e+01 5.815588802724531e-11 6.117467084732591e-11 7.837773838267323e-12 7.567534310119906e+01 7.439752296990781e+01 5.154496358621403e-12 1.601858922591093e-02 1.370733222245972e-04 5.090854008815681e-04 2.911663606686910e-03 7.614743247648383e-05 1.357114135825389e-06 2.148502086373511e-07 3.370145694134889e-08 7.810590492999101e-05 2.118118889730983e-03 2.815595190002435e-04 4.983074863702276e-05 4.299254205453479e+00 2.324728505428046e-01 7.876676107122932e-11 8.602389945701691e-02 5.478865233174708e-05 3.422017892653535e-04 9.647403245769797e-03 4.373306925279049e-03 1.910187789710231e-01 1.590046864412258e+00 2.328398899818319e-03 4.938104676156634e-02 1.027050094469109e-01 1.774757319136948e-06 1.106981233428947e+00 5.363862364500535e-01 4.822358640190160e-02 6.407851722124911e-01 8.848639391301271e-03 2.339074375838754e-02 2.510424261750275e-11 4.327904149207306e-06 1.694829085408633e-03 3.355866318237084e-02 1.101541286764548e-02 1.250006023686175e-02 1.686782503974712e-01 5.949319584984326e-04 5.605132729649220e-12 8.796421597989984e-06 2.788366336393850e+00 1.562997533621162e-04 6.790774026800625e-04 2.321825637825193e-05 1.338334833537465e+00 5.144575003992423e-05 1.043739686794658e-06 3.809728309921971e-01 1.115133985308350e-03 7.721318794656167e-04 2.749539685055378e-04 8.592937166600005e-02 1.022464740706222e-08 6.437485307791782e-01 1.346932991621952e-02 4.557113564080255e-01 1.238182600779505e-01 9.155149723784223e-08 4.819963610443891e-02 1.147407858603925e-02 2.466777510277496e-05 2.624938652547605e-01 1.813907081413383e-01 3.711475349871176e-05 6.307967885025745e-04 2.167354104406440e-06 1.025828134840675e-09 1.285560062063816e-01 6.862358898165712e-07 1.003479904331637e-08 4.042096513828247e-02 1.014764520796153e-05 1.554539733142242e-05 2.896864234276735e-03 3.294290314174593e-01 2.454056749459026e-02 9.017135261805588e-01 2.825001227031456e-03 3.550771974943630e-10 2.056833209445634e+00 3.644673549270499e-04 4.273033715717798e-08 1.901787031170311e-03 2.454189883363220e-01 3.023544572588113e-08 7.879928801241571e-01 1.281398469544128e-04 5.397037477005109e-02 4.022547888153715e-06 7.722364522875091e-04 6.947034558614774e-03 5.558433183724918e-05 6.088582079123033e-08 6.842845403523147e-05 2.994730234217508e-05 2.657700459291769e-02 1.765105391021732e-03 4.398812149774283e-12 8.374627006472582e-03 3.287334303493875e-09 1.132030676086314e-02 9.902319264385411e-05 2.525214235519814e-06 2.359535985516016e-04 1.190398212243377e-05 1.604765136560050e-05 6.146303889088951e-03 1.102048446886397e-10 3.802761849347908e-07 4.511346896997129e-06 1.299868835692782e-08 5.652633666207666e+00 1.144754578883138e-02 2.326394170764082e+00 9.588701633227052e-10 3.248618141291242e+00 3.879550355728328e-04 6.057149370001407e+00 1.409041247772996e-05 1.989637728968380e-09 9.904402251532909e-01 7.025769960948619e-02 7.022272729638783e+00 8.314000186142356e-02 7.131058523089668e+00 4.809366014093851e-06 9.098343249408817e-08 3.554474428238816e-04 1.387889425434673e-05 1.095670074648802e+01 1.930456853160089e-04 2.141997064438003e-03 5.102715363158520e-03 4.331939418603840e-03 1.245877839019511e-02 9.667866049357331e-04 9.259794542439767e-07 1.634977245061242e-08 4.348859665367613e-07 2.876396941960102e+01 3.197407008353808e+00 7.319212599862509e-07 1.533388859201670e-08 6.221330665942472e+00 1.273361591316858e-08 2.178324136702444e+00 3.144689968974896e+01 2.707072578805064e-01 5.596322431769629e+01 7.967047556868782e-02 7.055849130728663e+01 1.616933145250680e-04 1.262764266298428e-10 6.173477295196552e-05 4.858927349384355e-06 9.650923659678307e+00 2.956782945910527e-10 6.567154292662103e+01 1.131549966050649e-04 5.411335272009390e-05 2.960865268653233e+00 8.764162472106273e-01 3.684097978239721e-01 3.481453215669487e-02 1.802397345164192e-03 1.483234207453343e+00 4.194999763454877e-05 6.216249393426899e-02 1.875133738891932e+01 7.439029870696292e-05 4.113777764803561e-01 6.487812349207653e-07 4.798860949080423e-04 7.553536694859488e+01 1.828780397818993e-02 1.915097271790246e-03 1.541696541295995e-06 1.227363578579292e+00 1.862704409426058e-01 7.023058798769470e-11 1.017901575299487e-05 5.861725343402487e+01 2.255421939433237e-10 9.760365013988279e-08 9.474269877263174e+00 1.822031451272502e-01 1.496357414424510e-09 2.361104220214114e+01 2.461036923918480e-07 6.927204722900613e+01 4.606882855268477e+01 2.754617726938763e-10 8.689484271043876e-10 6.132341496095105e+00 3.597648236109067e-02 2.861585647341349e-09 1.379244819115973e-11 6.193988583230900e-02 4.083711261181662e-10 6.594015201604804e-11 4.141661545946866e+01 4.994646574943720e-10 7.304885578102220e+01 3.244065541500667e-04 1.151733924209646e-06 5.577502805093428e+01 2.794353724736473e+00 6.186700542077382e-12 8.621947216672878e-12 1.456613237770760e-07 2.320048676463687e-01 5.726206571340313e-01 6.827262317324443e-08 3.073251932751660e-08 2.010789298317128e-10 2.360726160383466e-01 4.711363634959505e-12 6.761361540923636e+01 4.317802113321507e-01 1.224154081551550e+00 3.931567397219204e-06 6.731462819153533e-04 6.227557116854265e+01 6.388130387913059e-07 1.572391129144049e+01 6.378888591976244e-01 7.155360104118282e+01 4.309159285701170e+00 8.084496336364079e+00 5.287050830519102e-11 9.581784853532400e-08 2.760910662481839e-01 1.091833180807036e-02 2.001279648169949e-02 5.852598039556666e-08 5.277950659765561e-12 3.038714641493450e-06 
</DataArray>
</PointData>
<CellData Scalars="pressure_elements_[L]," Vectors="velocity_elements_[L/T]">
<DataArray type="Float64" Name="pressure_elements_[L]" format="ascii">