<?xml version="1.0"?>
<VTKFile type="UnstructuredGrid" version="0.1" byte_order="LittleEndian">
<UnstructuredGrid>
<Piece NumberOfPoints="9" NumberOfCells="11">
<Points>
<DataArray type="Float64" NumberOfComponents="3" format="ascii">
0 0 0 1 0 0 0 1 0 0 0 2 1 0 2 0 1 2 0.5 0 1 0.5 0.5 1 0 0.5 1 
</DataArray>
</Points>
<Cells>
<DataArray type="UInt32" Name="connectivity" format="ascii">
1 6 4 7 8 6 7 3 5 8 7 3 1 2 0 7 8 5 7 2 2 8 0 7 3 6 7 4 8 6 0 7 5 3 7 4 6 1 0 7 6 8 0 3 
</DataArray>
<DataArray type="UInt32" Name="offsets" format="ascii">
4 8 12 16 20 24 28 32 36 40 44 
</DataArray>
<DataArray type="UInt32" Name="types" format="ascii">
10 10 10 10 10 10 10 10 10 10 10 
</DataArray>
</Cells>
<PointData Scalars="pressure_p1," Vectors="" Tensors="">
<DataArray type="Float64" Name="pressure_p1" format="ascii">
0.015935848112282842 0.026916612244660021 0.021154395684930192 0.036268994286191687 0.095562349377190395 0.02366000248591571 0.014354044656604161 0.022488407723906617 -0.021153180897822862 
</DataArray>
</PointData>
<CellData Scalars="pressure_p0,cross_section,sigma," Vectors="velocity_p0," Tensors="">
<DataArray type="Float64" Name="pressure_p0" format="ascii">
0.07161280836125665 -0.032094791940644594 0.0067904257667307129 0.043887516350452724 0.0036508345200201046 0.014911745769814582 0.12221093495694577 -0.049991898926754604 0.057801254469435792 -0.0062354234945431863 0.0048107120623701281 
</DataArray>
<DataArray type="Float64" Name="velocity_p0" NumberOfComponents="3" format="ascii">
-0.14064629966491982 2.2551405187698492e-16 -1.4932778947278826 -1.0180656845088147 0.0060853004600301686 -2.056595671407432 -0.44788173463487674 -0.033890650307904044 -1.2951687463757731 -0.062597013285305841 0.039247209490738469 -1.0383250981027163 -0.10000000000000014 -0.10618998575975903 -0.94881243897549705 -0.17480597342938806 -0.0046471737661667178 -0.9583659945468459 -0.24905245662328848 -0.13934837263158187 -0.67124566973201183 0.38666069119125429 0.098827408704513162 -0.51414891785185801 0.073940867317438305 0.069674186315790948 -0.87819247318338522 0.21312979769542986 -0.078494418981477632 -0.60371664479663245 -0.0077285447484415487 0.092271455251558429 -0.91100517364350664 
</DataArray>
<DataArray type="Float64" Name="cross_section" format="ascii">
0.1 0.2 0.3 0.4 0.5 0.6 0.7 0.8 0.9 1 1.1 
</DataArray>
<DataArray type="Float64" Name="sigma" format="ascii">
1.1 1.2 1.3 1.4 1.5 1.6 1.7 1.8 1.9 2 2.1 
</DataArray>
</CellData>
</Piece>
</UnstructuredGrid>
</VTKFile>
