<?xml version="1.0"?>
<VTKFile type="UnstructuredGrid" version="0.1" byte_order="LittleEndian">
<UnstructuredGrid>
<Piece NumberOfPoints="594" NumberOfCells="198">
<Points>
<DataArray type="Float64" NumberOfComponents="3" format="ascii">
0 0 0 0.49999999999959471 0 0 0.32810846560805917 0.35132716049402418 0 0 0 0 0.32810846560805917 0.35132716049402418 0 0 0.50000000000205913 0 0 0.50000000000205913 0 0.32810846560805917 0.35132716049402418 0 0.30605158730175991 0.69050925925940754 0 0.71726190476123464 0.50694444444431941 0 0.30605158730175991 0.69050925925940754 0 0.32810846560805917 0.35132716049402418 0 0.71726190476123464 0.50694444444431941 0 0.32810846560805917 0.35132716049402418 0 0.49999999999959471 0 0 0.49999999999959471 0 0 0.99999999999841338 0 0 0.71726190476123464 0.50694444444431941 0 1.4999999999969551 0 0 1.2499999999981819 0.4791666666661778 0 0.99999999999841338 0 0 0.71726190476123464 0.50694444444431941 0 0.99999999999841338 0 0 1.2499999999981819 0.4791666666661778 0 0.99999999999999112 1 0 0.49999999999999561 1 0 0.71726190476123464 0.50694444444431941 0 0.99999999999999112 1 0 1.2499999999981819 0.4791666666661778 0 1.499999999999992 1 0 0.71726190476123464 0.50694444444431941 0 1.2499999999981819 0.4791666666661778 0 0.99999999999999112 1 0 0.71726190476123464 0.50694444444431941 0 0.49999999999999561 1 0 0.30605158730175991 0.69050925925940754 0 0 1 0 0 0.50000000000205913 0 0.30605158730175991 0.69050925925940754 0 0 1 0 0.30605158730175991 0.69050925925940754 0 0.49999999999999561 1 0 2.4999999999999951 1 0 1.999999999999994 1 0 2.265689300409039 0.50244341563808892 0 1.754629629626973 0.49768518518496552 0 2.265689300409039 0.50244341563808892 0 1.999999999999994 1 0 1.754629629626973 0.49768518518496552 0 1.499999999999992 1 0 1.2499999999981819 0.4791666666661778 0 1.999999999999994 1 0 1.499999999999992 1 0 1.754629629626973 0.49768518518496552 0 1.754629629626973 0.49768518518496552 0 1.2499999999981819 0.4791666666661778 0 1.4999999999969551 0 0 1.4999999999969551 0 0 1.9999999999955129 0 0 1.754629629626973 0.49768518518496552 0 1.754629629626973 0.49768518518496552 0 1.9999999999955129 0 0 2.265689300409039 0.50244341563808892 0 1.9999999999955129 0 0 2.4999999999962048 0 0 2.265689300409039 0.50244341563808892 0 2.4999999999962048 0 0 2.999999999996966 0 0 2.7615740740724162 0.52430555555546632 0 3.249999999999996 0.50000000000056777 0 2.7615740740724162 0.52430555555546632 0 2.999999999996966 0 0 2.4999999999962048 0 0 2.7615740740724162 0.52430555555546632 0 2.265689300409039 0.50244341563808892 0 2.4999999999999951 1 0 2.7615740740724162 0.52430555555546632 0 2.999999999999996 1 0 2.4999999999999951 1 0 2.265689300409039 0.50244341563808892 0 2.7615740740724162 0.52430555555546632 0 3.249999999999996 0.50000000000056777 0 2.999999999999996 1 0 2.7615740740724162 0.52430555555546632 0 2.999999999999996 1 0 3.249999999999996 0.50000000000056777 0 3.4999999999999969 1 0 3.249999999999996 0.50000000000056777 0 3.7536375661371162 0.52050264550273706 0 3.4999999999999969 1 0 3.249999999999996 0.50000000000056777 0 3.499999999997728 0 0 3.7536375661371162 0.52050264550273706 0 3.499999999997728 0 0 3.249999999999996 0.50000000000056777 0 2.999999999996966 0 0 3.499999999997728 0 0 3.9999999999984892 0 0 3.7536375661371162 0.52050264550273706 0 4.2827380952378373 0.49702380952385222 0 3.7536375661371162 0.52050264550273706 0 3.9999999999984892 0 0 4.499999999999245 0 0 4.2827380952378373 0.49702380952385222 0 3.9999999999984892 0 0 4.2827380952378373 0.49702380952385222 0 4.499999999999245 0 0 4.6939484126980782 0.31001984126959431 0 5 0.49999999999869399 0 4.6939484126980782 0.31001984126959431 0 5 0 0 5 0 0 4.6939484126980782 0.31001984126959431 0 4.499999999999245 0 0 4.6250000000002496 0.62499999999992328 0 4.6939484126980782 0.31001984126959431 0 5 0.49999999999869399 0 4.6250000000002496 0.62499999999992328 0 4.2827380952378373 0.49702380952385222 0 4.6939484126980782 0.31001984126959431 0 4.2827380952378373 0.49702380952385222 0 4.6250000000002496 0.62499999999992328 0 4.4999999999999991 1 0 5 1 0 4.6250000000002496 0.62499999999992328 0 5 0.49999999999869399 0 5 1 0 4.4999999999999991 1 0 4.6250000000002496 0.62499999999992328 0 4.4999999999999991 1 0 3.9999999999999978 1 0 4.2827380952378373 0.49702380952385222 0 3.4999999999999969 1 0 3.7536375661371162 0.52050264550273706 0 3.9999999999999978 1 0 4.2827380952378373 0.49702380952385222 0 3.9999999999999978 1 0 3.7536375661371162 0.52050264550273706 0 5.9999999999999956 1 0.99999999999999556 6.1666666666666661 0.75595238095205264 1.1666666666666661 5.8611111111106986 0.512282690854023 0.86111111111069949 5.9999999999992077 1 -0.99999999999920808 6.1666666666657663 0.6269841269844294 -1.1666666666657679 5.8611111111106604 0.49288233812051968 -0.86111111111066041 6.3333333333320549 1 -1.3333333333320549 6.1666666666657663 0.6269841269844294 -1.1666666666657679 5.9999999999992077 1 -0.99999999999920808 5.9999999999999956 1 0.99999999999999556 6.3333333333333277 1 1.3333333333333279 6.1666666666666661 0.75595238095205264 1.1666666666666661 5.6666666666663614 1 -0.66666666666636076 5.8611111111106604 0.49288233812051968 -0.86111111111066041 5.4583333333329049 0.50000000000003608 -0.45833333333290671 5.6666666666666634 1 0.66666666666666341 5.9999999999999956 1 0.99999999999999556 5.8611111111106986 0.512282690854023 0.86111111111069949 5.6666666666663614 1 -0.66666666666636076 5.9999999999992077 1 -0.99999999999920808 5.8611111111106604 0.49288233812051968 -0.86111111111066041 5.6666666666666634 1 0.66666666666666341 5.8611111111106986 0.512282690854023 0.86111111111069949 5.4583333333329058 0.49999999999996392 0.45833333333290671 5 1 0 5.3333333333333313 1 0.33333333333333132 5.2291666666662238 0.66666666666682306 0.22916666666622379 5 1 0 5.2291666666662238 0.66666666666682306 0.22916666666622379 5 0.49999999999869399 0 5 1 0 5.2291666666662087 0.66666666666678287 -0.22916666666621041 5 0.49999999999869399 0 5 1 0 5.3333333333331892 1 -0.33333333333318949 5.2291666666662087 0.66666666666678287 -0.22916666666621041 5.3333333333331892 1 -0.33333333333318949 5.6666666666663614 1 -0.66666666666636076 5.4583333333329049 0.50000000000003608 -0.45833333333290671 5.3333333333331892 1 -0.33333333333318949 5.4583333333329049 0.50000000000003608 -0.45833333333290671 5.2291666666662087 0.66666666666678287 -0.22916666666621041 5.6666666666666634 1 0.66666666666666341 5.4583333333329058 0.49999999999996392 0.45833333333290671 5.3333333333333313 1 0.33333333333333132 5.3333333333333313 1 0.33333333333333132 5.4583333333329058 0.49999999999996392 0.45833333333290671 5.2291666666662238 0.66666666666682306 0.22916666666622379 5.4583333333329049 0.50000000000003608 -0.45833333333290671 5.2132227891161653 0.31207482993217439 -0.21322278911616621 5.2291666666662087 0.66666666666678287 -0.22916666666621041 5 0.49999999999869399 0 5.2291666666662087 0.66666666666678287 -0.22916666666621041 5.2132227891161653 0.31207482993217439 -0.21322278911616621 5.4583333333329058 0.49999999999996392 0.45833333333290671 5.2132227891161733 0.31207482993225188 0.21322278911617421 5.2291666666662238 0.66666666666682306 0.22916666666622379 5 0.49999999999869399 0 5.2291666666662238 0.66666666666682306 0.22916666666622379 5.2132227891161733 0.31207482993225188 0.21322278911617421 5 0 0 5.2132227891161733 0.31207482993225188 0.21322278911617421 5.3333333333331892 0 0.33333333333318949 5 0.49999999999869399 0 5.2132227891161733 0.31207482993225188 0.21322278911617421 5 0 0 5 0 0 5.2132227891161653 0.31207482993217439 -0.21322278911616621 5.3333333333333313 0 -0.33333333333333132 5 0.49999999999869399 0 5.2132227891161653 0.31207482993217439 -0.21322278911616621 5 0 0 5.6666666666666634 0 -0.66666666666666341 5.3333333333333313 0 -0.33333333333333132 5.4583333333329049 0.50000000000003608 -0.45833333333290671 5.3333333333331892 0 0.33333333333318949 5.2132227891161733 0.31207482993225188 0.21322278911617421 5.4583333333329058 0.49999999999996392 0.45833333333290671 5.6666666666663614 0 0.66666666666636076 5.3333333333331892 0 0.33333333333318949 5.4583333333329058 0.49999999999996392 0.45833333333290671 5.3333333333333313 0 -0.33333333333333132 5.2132227891161653 0.31207482993217439 -0.21322278911616621 5.4583333333329049 0.50000000000003608 -0.45833333333290671 5.6666666666663614 0 0.66666666666636076 5.8611111111106986 0.512282690854023 0.86111111111069949 5.9999999999992077 0 0.99999999999920808 5.9999999999999956 0 -0.99999999999999556 5.6666666666666634 0 -0.66666666666666341 5.8611111111106604 0.49288233812051968 -0.86111111111066041 5.6666666666666634 0 -0.66666666666666341 5.4583333333329049 0.50000000000003608 -0.45833333333290671 5.8611111111106604 0.49288233812051968 -0.86111111111066041 5.6666666666663614 0 0.66666666666636076 5.4583333333329058 0.49999999999996392 0.45833333333290671 5.8611111111106986 0.512282690854023 0.86111111111069949 6.166666666665769 0.37301587301557287 1.166666666665769 5.8611111111106986 0.512282690854023 0.86111111111069949 6.1666666666666661 0.75595238095205264 1.1666666666666661 6.1666666666657663 0.6269841269844294 -1.1666666666657679 6.1666666666662664 0.29828042328064291 -1.166666666666266 5.8611111111106604 0.49288233812051968 -0.86111111111066041 5.9999999999992077 0 0.99999999999920808 5.8611111111106986 0.512282690854023 0.86111111111069949 6.166666666665769 0.37301587301557287 1.166666666665769 5.9999999999999956 0 -0.99999999999999556 6.1666666666662664 0.29828042328064291 -1.166666666666266 6.3333333333333277 0 -1.3333333333333279 5.9999999999999956 0 -0.99999999999999556 5.8611111111106604 0.49288233812051968 -0.86111111111066041 6.1666666666662664 0.29828042328064291 -1.166666666666266 5.9999999999992077 0 0.99999999999920808 6.166666666665769 0.37301587301557287 1.166666666665769 6.3333333333320549 0 1.3333333333320549 6.3333333333333277 0 -1.3333333333333279 6.1666666666662664 0.29828042328064291 -1.16666666
[...]
<PointData Scalars="A_conc," Vectors="" Tensors="">
<DataArray type="Float64" Name="A_conc" format="ascii">
0.99999999999837663 0.99999999999815825 0.99999999999710698 0.99999999999841216 0.99999999999703726 1.0000000000031766 0.99999999999995981 0.99999999999765388 0.99999999999869593 0.99999999999817968 0.99999999999874423 0.99999999999770195 0.99999999999760614 0.99999999999727318 0.9999999999978304 0.99999999999925482 0.99999999999930467 0.99999999999903311 0.99999999999915712 0.99999999999885947 0.99999999999922473 1.0000000000015001 0.99999999999922373 0.99999999999885991 0.9999999999989363 0.99999999999916633 0.99999999999872202 1.0000000000007996 0.9999999999966912 1.0000000000006111 0.99999999999703015 0.99999999999656752 1.0000000000008609 0.9999999999987218 0.99999999999916667 1.0000000000236489 1.0000000000018185 0.99999999999909039 0.9999999999974436 1.0000000000152447 1.0000000000052038 1.0000000000092619 0.99999999999872369 0.99999999999888722 0.99999999999544975 0.99999999999540179 0.99999999999544953 0.99999999999888711 0.99999999999729183 1.000000000001086 0.99999999999716749 0.99999999999893574 0.999999999999025 0.99999999999530376 0.9999999999906497 0.99999999999677225 1.0000000000031399 1.0000000000062157 1.0000000000061169 0.99999999999372513 0.99999999999369193 1.000000000005987 0.99999999999370626 1.0000000000054465 1.0000000000019547 0.99999999999670341 0.99999999999938993 0.99999999999925038 0.99999999999431555 0.99999999999462608 0.99999999999429623 0.99999999999923095 0.99999999999939027 0.9999999999943161 0.99999999999372746 1.0000000000033518 1.0000000000106524 1.0000000000034199 1.000000000003368 0.99999999998141387 1.0000000000106191 1.0000000000077405 1.0000000000048164 1.000000000009841 1.0000000000026719 1.0000000000055969 1.0000000000026081 1.000000000005655 1.0000000000056442 1.0000000000026654 0.99999999999703526 0.99999999998521483 1.0000000000004055 0.99999999998726152 0.99999999999594236 1.0000000000033233 0.99999999998521405 0.99999999998526234 1.0000000000004523 0.99999999999985689 1.0000000000004567 0.99999999998526612 0.99999999998779809 1.0000000000025859 0.99999999998799471 1.0000000000026228 0.99999999998783584 0.9999999999970165 1.0000000000072844 0.99999999999723799 0.99999999998703737 0.99999999998859546 0.99999999999786837 0.99999999998621081 1.000000000020786 0.9999999999962037 1.0000000000108586 1.000000000020749 1.0000000000036047 0.9999999999962228 1.0000000000165237 1.0000000000145424 0.99999999998526234 0.99999999998694322 1.0000000000161033 1.0000000000208131 0.99999999998527322 0.99999999998518763 1.0000000000144993 0.99999999998916922 0.99999999999243205 1.000000000014569 1.0000000000036402 1.0000000000066176 1.000000000003656 1.0000000000094673 0.99999999999643518 1.0000000000157654 1.0000015066923849 1.0000006055573831 1.0000005869871222 0.99999999998583733 1.0000000000080655 1.000000000016062 0.99999999998563838 1.0000000000080174 0.9999999999857806 1.0000057566174014 0.99999832183214887 1.0000007914666345 0.99999999998587175 1.0000000000160947 1.0000000000163898 1.0000000843834247 1.0000011737316183 1.0000002264578933 0.99999999998600198 0.99999999998583677 1.0000000000160623 1.0000000746231215 1.0000003377679141 0.99999985951150772 0.99999999913884474 1.0000000010938106 0.99999999883598878 0.99999999997910072 1.0000000000058433 1.0000000000251297 0.99999999998691702 1.0000000000095408 1.0000000000207871 0.99999999998060707 0.99999999998077904 1.0000000000032296 0.99999999998419431 0.9999999999852861 1.000000000016708 0.99999999998490974 1.00000000001635 1.0000000000026934 1.0000000838339549 0.99999996697007187 0.9999999858018459 1.0000000012593206 0.99999999866360745 0.99999999830572461 1.0000000000016698 0.99999999998442279 1.0000000000174181 1.000000000017323 1.0000000000174656 0.9999999999843292 1.0000000008132006 0.99999999972672315 0.99999999979825571 0.99999999997023592 1.0000000000315861 0.99999999999594769 0.99999999924934524 0.9999999989432985 1.0000000009709327 1.0000000000175018 0.99999999997781008 0.99999999998383071 0.99999999998827926 0.99999999996999267 0.99999999998827815 1.0000000000184821 0.99999999996999356 0.99999999998827782 0.999999999981941 0.99999999998189248 0.99999999999355538 1.0000000009649055 0.99999999838415166 0.99999999908965342 1.0000000785113832 0.99999998583583893 0.99999996982642281 0.99999999998189559 0.9999999999691358 0.9999999999935516 1.0000000142234546 1.0000003557495478 1.0000010883466575 0.99999999998378031 0.99999999998380573 0.99999999999736144 0.99999999998380951 0.99999999999402189 0.99999999999735278 1.000000040358797 0.99999984751318827 1.0000004041859889 1.0000020286536899 1.000002630255588 1.0000001952989863 1.0000000000160376 0.999999999980972 1.0000000000026947 1.0000014111991462 1.000000869581581 1.0000006466932194 0.99999999999007039 0.99999999998489963 0.99999999998988298 0.99999999999012634 0.99999999999343758 0.99999999998478228 1.0000056785839138 1.000000778222272 0.99999826758624899 0.99999999998615841 0.99999999998309519 0.9999999999904976 0.99999999998658629 0.99999999998652012 0.99999999999085787 0.99990004337192528 1.0000395862306901 0.99997471554696127 1.0000016931958049 1.0000154752414372 0.9999716831549651 0.99918118081340124 1.0000794763189642 0.99968845897018521 0.99999999998659295 0.99999999999087008 0.99999999998874411 0.99999999998655364 0.99999999998868794 0.99999999998650324 0.99991053217032788 1.0000420286134455 0.99967209898381293 0.99999999999409683 1.0000000000020497 0.9999999999856416 0.99967603761529056 1.0001850584203775 0.99964431509297202 1.0000107568197802 1.0000074462133453 0.9999762007001346 1.0000000000141478 0.99999999999975098 0.99999999998004507 0.9999999999922079 0.99999999999211553 0.99999999999708089 0.99999999999220124 0.99999999999708178 1.000000000007468 1.0000025663772625 0.99996783118670096 1.0000145455173717 1.000041305144616 0.99990179000333412 0.99996907780523903 1.000082207379148 0.999189198861545 0.99968505263714558 0.99991332413996525 0.99967000568034048 1.0000294958496678 0.99999999998912714 1.0000000000018103 0.99999999999940647 0.99999999998936684 0.99999999998904177 1.0000000000020348 0.9992065360431992 0.9982643793776792 0.99994119043352536 0.99999999999054645 1.0000000000030393 1.0000000000024392 0.99967950131616568 0.99623786960899796 0.99833925334890639 0.99999999999112155 1.0000000000040141 0.99999999999155587 0.99638794042234402 0.99146534422357591 0.99952920063085349 0.99999999999113387 1.000000000002716 1.0000000000041129 0.99999999998521738 0.99999999999497191 0.99999999999602884 0.99951662054789503 0.99154262078285149 0.996351253446353 0.99999999999775702 0.9999999999864162 1.0000000000035418 0.99841251427933475 0.99983401775187175 0.99979282685034199 0.99621615893090631 0.99966214671452303 0.99838784412720349 0.99999999998515909 0.99999999998697553 0.99999999999310563 0.99830292569375334 0.99919371177498528 0.99995608435904493 0.99999999998606992 0.99999999998299205 0.99999999999436628 0.99999999998576916 0.999999999986671 0.99999999999739908 0.99757474016919656 0.99137325297555356 0.98735195437090351 0.99999999998579669 0.99999999999750488 0.99999999999302347 0.99226937355759515 0.97879335930744893 0.98751618433942945 0.97797361161349594 0.97830981045668075 0.99399748131069465 0.99999999999049294 1.0000000000020515 1.0000000000051454 0.97928487398350472 0.95211755565656953 0.97968472932636563 0.99999999999067124 1.0000000000053488 0.99999999999313649 0.99999999998217115 0.99999999998447919 0.99999999999144362 0.99999999998210398 0.9999999999915089 0.99999999999185651 0.96751281021089763 0.98937176937763271 0.97880558364701142 0.9511399306527738 0.96773099107719618 0.98081277770845976 0.95330544514465687 0.90451803183196389 0.93084941989118497 0.97021704680828269 0.95117070257016212 0.93082238113808935 0.9999999999819843 0.99999999999282896 0.9999999999751048 0.99999999997413302 0.99999999999242128 0.99999999998048505 0.93360875575661872 0.9045348221817554 0.87283466615537875 0.835011424913779 0.87295202433607677 0.9070339526627138 0.99999999996777944 0.99999999997963662 0.99999999998496902 0.99999999996613431 0.99999999999145395 0.99999999997990197 0.83643211528352979 0.90535203914387352 0.90541624652171238 1.0000000000028106 0.9999999999724638 0.99999999997292821 1.0000000000018217 0.99999999999941935 0.99999999997142552 0.95695756366793816 0.90361336461939101 0.90353987642815425 0.9999999999638578 0.99999999997402289 0.99999999999110389 0.99999999996380218 0.99999999999051681 0.99999999997773947 0.9702278686486967 0.93083025763812655 0.95110757812028079 0.95339382003747097 0.93086252442247497 0.90430976377565853 0.99999999994008393 0.99999999997447564 0.99999999997943712 0.99999999993458988 0.99999999998168076 0.99999999996002342 0.83505959273988595 0.90695368733029003 0.87287760402378556 0.93362239343592968 0.87284840760775151 0.90432296169894999 0.99999999997380651 0.99999999999102285 1.0000000000228835 0.99999999997987188 0.99999999999837874 1.0000000000013571 0.96773920148464398 0.9510825430085732 0.98033370543443155 0.9894859618897851 0.96758555773612831 0.9783634578737701 0.98760253087870875 0.97840155059095646 0.99225105287455784 0.99999999999394062 0.99999999999911204 1.0000000000069269 0.99761916789789651 0.98740245312198072 0.99128039156556413 0.99999999999413092 1.0000000000064899 0.99999999998370759 0.99999999964758124 0.99999999977134368 0.99999999960612962 0.99999999960974228 0.99999999976055809 0.99999999979755638 0.47682932442632114 0.47692203595634902 0.54973610654280936 0.58679839345647344 0.47669308879188527 0.55011976392856132 0.99999999978189413 0.99999999975909248 0.99999999988917054 0.99999999988062438 0.99999999978205867 0.99999999988265487 0.58720313598154172 0.64508325017313939 0.69614237275817858 0.58709980446440446 0.55024640199919617 0.64528782968558784 0.99999999991882593 0.99999999992385913 0.99999999998159428 0.79320308037621035 0.83504154581532231 0.87537953344460029 0.99999999994832034 0.99999999991859878 0.99999999997940292 0.83694083458296031 0.7931192523682854 0.74642805365395049 0.99999999987269583 0.99999999988236421 0.99999999993127575 0.69545740707879056 0.64510148991035798 0.7475215946139051 0.99999999992205613 0.99999999986851784 0.99999999992607802 0.69555403501193525 0.74638069075845148 0.79486922726758447 0.99999999988120647 0.99999999995437017 0.99999999992943645 0.64577121326879316 0.74666558048900455 0.74664493605971016 0.99999999998914346 0.999999999925963 0.99999999995081856 0.83953309583441305 0.7457919572247963 0.74579650930753327 0.99999999994993882 0.99999999998618283 0.99999999994288025 0.8754512408600752 0.83500104395159636 0.79326744211456279 0.83680071231298558 0.74660106238957147 0.79318273829698671 0.99999999995937094 0.99999999998443001 0.99999999994811961 0.64505270388620994 0.69551322084313139 0.74759463443810448 0.99999999990551613 0.99999999994971323 0.99999999988071853 0.69558929563245997 0.79493458652052029 0.74655318773125356 0.99999999990376709 0.99999999995420175 0.99999999994297795 0.99999999981423371 0.99999999988741772 0.99999999977462772 0.69618894372213935 0.64505330411265982 0.58722909142583846 0.99999999991365018 0.99999999988125099 0.99999999981467169 0.64527102397368041 0.54578681246550254 0.58711094079782178 0.99999999990193233 0.99999999976141118 0.99999999978309129 0.64534240617200622 0.5501701831133019 0.54572173908427968 0.99999999964854036 0.99999999979017085 0.99999999976552667 0.55003014576052189 0.47680358685062973 0.54560542720067706 0.58678804140195473 0.54568121405136272 0.47667901192844397 0.99999999964349784 0.99999999982681276 0.99999999977816811 0.47695806374933913 0.47681093313288558 0.54533593338659614 0.99999999963529596 0.9999999997918918 0.99999999965312647 
</DataArray>
</PointData>
</Piece>
</UnstructuredGrid>
</VTKFile>
