<?xml version="1.0"?>
<VTKFile type="UnstructuredGrid" version="0.1" byte_order="LittleEndian">
<UnstructuredGrid>
<Piece NumberOfPoints="594" NumberOfCells="198">
<Points>
<DataArray type="Float64" NumberOfComponents="3" format="ascii">
9.6666666666666661 0 -4.6666666666666661 9.4901933183181697 0.51982786357785593 -4.4901933183181688 9.7758804637971792 0.34775096525134458 -4.7758804637971783 9.3333333333333321 0 -4.3333333333333313 9.4901933183181697 0.51982786357785593 -4.4901933183181688 9.6666666666666661 0 -4.6666666666666661 10 0 -5 9.6666666666666661 0 -4.6666666666666661 9.7758804637971792 0.34775096525134458 -4.7758804637971783 10 0 -5 9.7758804637971792 0.34775096525134458 -4.7758804637971783 10 0.50000000000205913 -5 10 0.50000000000205913 -5 9.7758804637971792 0.34775096525134458 -4.7758804637971783 9.7872434934932606 0.6855265980269214 -4.7872434934932597 9.4901933183181697 0.51982786357785593 -4.4901933183181688 9.7872434934932606 0.6855265980269214 -4.7872434934932597 9.7758804637971792 0.34775096525134458 -4.7758804637971783 9.6666666666664156 1 -4.6666666666664156 9.7872434934932606 0.6855265980269214 -4.7872434934932597 9.4901933183181697 0.51982786357785593 -4.4901933183181688 9.3333333333328294 1 -4.3333333333328294 9.6666666666664156 1 -4.6666666666664156 9.4901933183181697 0.51982786357785593 -4.4901933183181688 10 0.50000000000205913 -5 9.7872434934932606 0.6855265980269214 -4.7872434934932597 10 1 -5 10 1 -5 9.7872434934932606 0.6855265980269214 -4.7872434934932597 9.6666666666664156 1 -4.6666666666664156 8.999999999999245 1 -3.999999999999245 9.3333333333328294 1 -4.3333333333328294 9.166666666666039 0.75595238095243689 -4.1666666666660381 9.3333333333328294 1 -4.3333333333328294 9.4901933183181697 0.51982786357785593 -4.4901933183181688 9.166666666666039 0.75595238095243689 -4.1666666666660381 8.999999999999245 1 -3.999999999999245 9.166666666666039 0.75595238095243689 -4.1666666666660381 8.8333333333330302 0.52513227513218741 -3.8333333333330288 8.6666666666656589 1 -3.6666666666656589 8.999999999999245 1 -3.999999999999245 8.8333333333330302 0.52513227513218741 -3.8333333333330288 9.4901933183181697 0.51982786357785593 -4.4901933183181688 9.1653591091089677 0.37901055817719992 -4.1653591091089686 9.166666666666039 0.75595238095243689 -4.1666666666660381 9.3333333333333321 0 -4.3333333333333313 8.9999999999999964 0 -3.9999999999999969 9.1653591091089677 0.37901055817719992 -4.1653591091089686 9.3333333333333321 0 -4.3333333333333313 9.1653591091089677 0.37901055817719992 -4.1653591091089686 9.4901933183181697 0.51982786357785593 -4.4901933183181688 8.8333333333330302 0.52513227513218741 -3.8333333333330288 9.166666666666039 0.75595238095243689 -4.1666666666660381 9.1653591091089677 0.37901055817719992 -4.1653591091089686 8.6666666666666625 0 -3.666666666666663 8.8333333333330302 0.52513227513218741 -3.8333333333330288 8.9999999999999964 0 -3.9999999999999969 8.9999999999999964 0 -3.9999999999999969 8.8333333333330302 0.52513227513218741 -3.8333333333330288 9.1653591091089677 0.37901055817719992 -4.1653591091089686 8.4999999999998455 0.37301587301576589 -3.4999999999998459 8.4999999999992628 0.70507054673714353 -3.4999999999992641 8.8333333333330302 0.52513227513218741 -3.8333333333330288 8.6666666666666625 0 -3.666666666666663 8.4999999999998455 0.37301587301576589 -3.4999999999998459 8.8333333333330302 0.52513227513218741 -3.8333333333330288 8.6666666666666625 0 -3.666666666666663 8.3333333333333286 0 -3.3333333333333282 8.4999999999998455 0.37301587301576589 -3.4999999999998459 8.4999999999998455 0.37301587301576589 -3.4999999999998459 8.1677083333328273 0.51603966288628356 -3.167708333332826 8.4999999999992628 0.70507054673714353 -3.4999999999992641 8.3333333333333286 0 -3.3333333333333282 8.1677083333328273 0.51603966288628356 -3.167708333332826 8.4999999999998455 0.37301587301576589 -3.4999999999998459 7.9999999999999929 0 -2.9999999999999929 8.1677083333328273 0.51603966288628356 -3.167708333332826 8.3333333333333286 0 -3.3333333333333282 7.666666666666659 0 -2.666666666666659 7.5441798941785558 0.50932853577008119 -2.5441798941785572 7.8458333333325694 0.36721576227400882 -2.8458333333325689 7.666666666666659 0 -2.666666666666659 7.333333333333325 0 -2.333333333333325 7.5441798941785558 0.50932853577008119 -2.5441798941785572 7.9999999999999929 0 -2.9999999999999929 7.8458333333325694 0.36721576227400882 -2.8458333333325689 8.1677083333328273 0.51603966288628356 -3.167708333332826 7.9999999999999929 0 -2.9999999999999929 7.666666666666659 0 -2.666666666666659 7.8458333333325694 0.36721576227400882 -2.8458333333325689 7.8458333333325694 0.36721576227400882 -2.8458333333325689 7.8333333333316926 0.74717377261014672 -2.833333333331693 8.1677083333328273 0.51603966288628356 -3.167708333332826 7.8458333333325694 0.36721576227400882 -2.8458333333325689 7.5441798941785558 0.50932853577008119 -2.5441798941785572 7.8333333333316926 0.74717377261014672 -2.833333333331693 7.6666666666649013 1 -2.6666666666649008 7.8333333333316926 0.74717377261014672 -2.833333333331693 7.5441798941785558 0.50932853577008119 -2.5441798941785572 7.6666666666649013 1 -2.6666666666649008 7.5441798941785558 0.50932853577008119 -2.5441798941785572 7.3333333333313142 1 -2.3333333333313142 7.9999999999984883 1 -2.9999999999984879 8.1677083333328273 0.51603966288628356 -3.167708333332826 7.8333333333316926 0.74717377261014672 -2.833333333331693 7.9999999999984883 1 -2.9999999999984879 7.8333333333316926 0.74717377261014672 -2.833333333331693 7.6666666666649013 1 -2.6666666666649008 8.3333333333320745 1 -3.333333333332074 8.1677083333328273 0.51603966288628356 -3.167708333332826 7.9999999999984883 1 -2.9999999999984879 8.3333333333320745 1 -3.333333333332074 8.4999999999992628 0.70507054673714353 -3.4999999999992641 8.1677083333328273 0.51603966288628356 -3.167708333332826 8.6666666666656589 1 -3.6666666666656589 8.4999999999992628 0.70507054673714353 -3.4999999999992641 8.3333333333320745 1 -3.333333333332074 8.6666666666656589 1 -3.6666666666656589 8.8333333333330302 0.52513227513218741 -3.8333333333330288 8.4999999999992628 0.70507054673714353 -3.4999999999992641 5.3333333333333313 0 -0.33333333333333132 5.2132227891161653 0.31207482993217439 -0.21322278911616621 5.4583333333329049 0.50000000000003608 -0.45833333333290671 5.6666666666666634 0 -0.66666666666666341 5.3333333333333313 0 -0.33333333333333132 5.4583333333329049 0.50000000000003608 -0.45833333333290671 5 0 0 5.2132227891161653 0.31207482993217439 -0.21322278911616621 5.3333333333333313 0 -0.33333333333333132 5 0.49999999999869399 0 5.2132227891161653 0.31207482993217439 -0.21322278911616621 5 0 0 5.4583333333329049 0.50000000000003608 -0.45833333333290671 5.2132227891161653 0.31207482993217439 -0.21322278911616621 5.2291666666662087 0.66666666666678287 -0.22916666666621041 5 0.49999999999869399 0 5.2291666666662087 0.66666666666678287 -0.22916666666621041 5.2132227891161653 0.31207482993217439 -0.21322278911616621 5.3333333333331892 1 -0.33333333333318949 5.4583333333329049 0.50000000000003608 -0.45833333333290671 5.2291666666662087 0.66666666666678287 -0.22916666666621041 5.3333333333331892 1 -0.33333333333318949 5.6666666666663614 1 -0.66666666666636076 5.4583333333329049 0.50000000000003608 -0.45833333333290671 5 1 0 5.3333333333331892 1 -0.33333333333318949 5.2291666666662087 0.66666666666678287 -0.22916666666621041 5 1 0 5.2291666666662087 0.66666666666678287 -0.22916666666621041 5 0.49999999999869399 0 5.6666666666663614 1 -0.66666666666636076 5.8611111111106604 0.49288233812051968 -0.86111111111066041 5.4583333333329049 0.50000000000003608 -0.45833333333290671 5.6666666666663614 1 -0.66666666666636076 5.9999999999992077 1 -0.99999999999920808 5.8611111111106604 0.49288233812051968 -0.86111111111066041 5.9999999999992077 1 -0.99999999999920808 6.1666666666657663 0.6269841269844294 -1.1666666666657679 5.8611111111106604 0.49288233812051968 -0.86111111111066041 6.3333333333320549 1 -1.3333333333320549 6.1666666666657663 0.6269841269844294 -1.1666666666657679 5.9999999999992077 1 -0.99999999999920808 5.6666666666666634 0 -0.66666666666666341 5.4583333333329049 0.50000000000003608 -0.45833333333290671 5.8611111111106604 0.49288233812051968 -0.86111111111066041 5.9999999999999956 0 -0.99999999999999556 5.6666666666666634 0 -0.66666666666666341 5.8611111111106604 0.49288233812051968 -0.86111111111066041 6.1666666666657663 0.6269841269844294 -1.1666666666657679 6.1666666666662664 0.29828042328064291 -1.166666666666266 5.8611111111106604 0.49288233812051968 -0.86111111111066041 5.9999999999999956 0 -0.99999999999999556 5.8611111111106604 0.49288233812051968 -0.86111111111066041 6.1666666666662664 0.29828042328064291 -1.166666666666266 5.9999999999999956 0 -0.99999999999999556 6.1666666666662664 0.29828042328064291 -1.166666666666266 6.3333333333333277 0 -1.3333333333333279 6.1666666666657663 0.6269841269844294 -1.1666666666657679 6.4999999999989599 0.47938712522071519 -1.4999999999989611 6.1666666666662664 0.29828042328064291 -1.166666666666266 6.666666666666659 0 -1.666666666666659 6.3333333333333277 0 -1.3333333333333279 6.4999999999989599 0.47938712522071519 -1.4999999999989611 6.3333333333333277 0 -1.3333333333333279 6.1666666666662664 0.29828042328064291 -1.166666666666266 6.4999999999989599 0.47938712522071519 -1.4999999999989611 6.4999999999989599 0.47938712522071519 -1.4999999999989611 6.8296296296280934 0.62204375577420579 -1.8296296296280941 6.8333333333333259 0.24404761904793049 -1.8333333333333259 6.666666666666659 0 -1.666666666666659 6.8333333333333259 0.24404761904793049 -1.8333333333333259 6.9999999999999911 0 -1.9999999999999909 6.666666666666659 0 -1.666666666666659 6.4999999999989599 0.47938712522071519 -1.4999999999989611 6.8333333333333259 0.24404761904793049 -1.8333333333333259 6.9999999999999911 0 -1.9999999999999909 6.8333333333333259 0.24404761904793049 -1.8333333333333259 7.1388888888874096 0.48356009070323391 -2.13888888888
[...]
<PointData Scalars="A_conc," Vectors="" Tensors="">
<DataArray type="Float64" Name="A_conc" format="ascii">
0.99999999202113088 0.99999999437772802 0.99999999014434027 0.99999999603850775 0.99999999416685004 0.99999999203885281 0.99999998559470205 0.99999999242806026 0.99999999025778175 0.99999998545755342 0.99999999056583189 0.99999998522831401 0.99999998538088131 0.99999999023855302 0.99999998997804185 0.99999999476414936 0.99999998984940364 0.99999999008767215 0.99999999202059919 0.99999998992932315 0.99999999437711751 0.99999999602229128 0.99999999202526602 0.99999999415541463 0.99999998519564348 0.99999999028746378 0.99999998544872426 0.99999998558503722 0.99999999001938711 0.9999999924409908 0.99999999794981798 0.99999999571978448 0.99999999690619557 0.99999999574170229 0.99999999414553231 0.99999999709552878 0.99999999778462889 0.9999999969011113 0.99999999850775423 0.99999999898632286 0.99999999777698279 0.99999999841838727 0.9999999942613369 0.999999996996773 0.99999999697570874 0.99999999575352605 0.99999999798785688 0.99999999689474162 0.9999999957602711 0.99999999709784881 0.99999999415296992 0.99999999869534317 0.99999999684732876 0.99999999686515484 0.99999999901310321 0.99999999840684073 0.9999999978064612 0.99999999782208182 0.99999999851089416 0.99999999689032659 0.99999999926351857 0.99999999925086169 0.99999999843995802 0.99999999891778357 0.99999999929766892 0.99999999840577081 0.99999999891113978 0.99999999953866481 0.99999999922778826 0.99999999921849203 0.99999999971804709 0.99999999920641469 0.99999999948645779 0.99999999966237951 0.99999999922654426 0.99999999979795751 0.99999999963112141 0.99999999948354856 0.9999999999036997 0.99999999993022781 0.99999999983665877 0.99999999990206845 0.99999999997250066 0.99999999992358479 0.99999999976997511 0.99999999985142718 0.99999999963088171 0.9999999997652852 0.99999999992189414 0.99999999983447652 0.99999999984397625 0.99999999983661314 0.99999999963511788 0.99999999983437537 0.99999999993381095 0.99999999982000831 0.99999999988406729 0.99999999982820253 0.99999999991641131 0.99999999988299793 0.99999999991099298 0.99999999995015754 0.99999999974510523 0.99999999962986097 0.99999999985210797 0.99999999973764098 0.9999999998351331 0.99999999989585553 0.99999999946208262 0.99999999963301744 0.9999999997760638 0.99999999946229401 0.99999999922122373 0.99999999965937225 0.99999999888630786 0.99999999922129446 0.99999999951277807 0.99999999889204561 0.9999999984154937 0.99999999930065542 0.99999999999721445 0.99999999999942935 0.99999999999979472 0.99999999999707911 0.9999999999972482 0.99999999999981615 0.99999999999721834 0.99999999999881672 0.99999999999709455 0.99999999999989442 0.9999999999988467 0.99999999999715183 0.99999999999859435 1.0000000000004305 0.99999999999725731 0.99999999999889166 0.99999999999728195 1.0000000000004117 0.99999999999252287 0.99999999999740374 0.99999999999700284 0.99999999999189859 0.99999999999133837 0.99999999999722444 0.99999999999130873 0.99999999999116373 0.99999999999790579 0.99999999999149525 0.99999999999766365 0.9999999999973318 0.99999999999104061 0.99999999999679312 0.99999999999698153 0.99999999999018263 0.99999999998968914 0.99999999999590072 0.9999999999897089 0.99999999999360301 0.99999999999599198 0.99999999998818911 0.99999999999355837 0.99999999998986822 0.99999999999992373 0.99999999999846334 0.99999999999386269 1.000000000002345 1.0000000000028741 0.99999999999675337 0.9999999999928687 1.0000000000010965 0.9999999999972049 1.000000000000586 0.99999999999776368 1.0000000000008773 1.000000000002192 1.0000000000023661 1.0000000000005551 0.99999999999348466 0.99999999999472244 1.0000000000017026 0.99999999999841194 1.0000000000028926 0.99999999999673395 1.0000000000023244 1.0000000000018843 0.99999999999671274 0.99999999999634737 0.99999999997690892 1.0000000000039222 0.99999999999450384 1.0000000000022431 0.99999999998240841 0.99999999999313027 0.99999999999876976 1.0000000000021729 0.99999999998962552 1.0000000000049478 0.99999999997961453 0.99999999996337208 0.99999999999256295 0.99999999997996225 0.99999999997235711 1.0000000000049709 0.99999999997812539 0.99999999996479061 0.99999999998588618 0.99999999992477684 0.99999999994741307 0.99999999990820299 0.9999999999786543 0.99999999994490774 0.99999999996959987 0.99999999997597844 0.99999999997176769 0.99999999996975819 0.99999999997781952 0.9999999999796656 0.99999999997976341 0.9999999999886392 0.99999999997923572 0.99999999997008149 0.99999999998102307 0.99999999998272138 0.99999999997962052 0.99999999998790923 0.99999999998312072 0.9999999999874073 1.0000000000055889 1.0001578211485256 0.99908485944416736 0.99964803958433346 0.99993485583225761 0.99963601513571854 1.000085893854439 0.99979489210233208 0.99525016661961929 0.99780417331932802 0.99912284129081386 0.99774748329696572 0.99994547485013119 0.99666487175972485 0.98369075102276593 0.99159054222733345 0.99528601954141349 0.99138585518479228 0.99867460513645323 0.98396071516759775 0.96860051123680602 0.99453380152551718 0.99452239907121776 0.96879509924168872 0.98387188595613395 0.9918888401139232 0.99827110132377994 0.9981416591739074 0.99150006457093665 0.99524103081209647 0.99872085733394111 0.98362442927570759 0.99661056004116 0.99172470379763722 0.99522040191546424 0.99978295787374505 0.99780824660392842 0.9991104655280576 1.0000014869696374 0.99774928995384637 0.99772037912218137 1.0006335804881366 0.99761193008735827 0.99992978818758294 1.0000916968332405 0.99965521727771822 0.99907560740255141 1.0001498033463752 0.99967372555692546 1.0000513021645685 1.0000319429906572 0.99969359665173185 1.0000053871398176 1.0000115630563986 0.99998029854086812 1.0000477522996079 0.99998426749238833 0.99991111940558597 0.99998709144253861 1.0000354015535495 0.99997443145876763 1.0000042491683003 1.0000023093326171 1.0000021926498375 1.00000083698937 1.0000002482102164 1.0000024618378838 1.0000054691835185 0.99998058545366675 1.0000088596978631 1.000047451857335 0.99991067854407267 0.99998526732806359 1.0000010629938119 1.0000018693306345 1.00000025844483 1.000004675458168 1.0000024809222077 1.0000014194436313 0.99999999989272481 1.0000000002728446 0.9999999998963166 0.99999998601142936 1.0000000401515978 0.99999997952652298 1.0000008629634471 0.99999974630580735 1.0000000231722039 1.0000000450081898 0.99999998485687014 0.9999999740610499 0.99999999919461868 1.0000000008541416 1.0000000004420329 1.0000000155231648 0.99999999807180395 0.99999999889372315 0.99999999995181965 1.0000000001388258 0.99999999995015909 0.99999998776445242 0.99999998194035267 1.0000000353060408 1.0000000390491588 0.99999997635358662 0.99999999129843264 1.0000008140127818 1.0000000162647251 0.99999977212138935 0.83868869718017214 0.74052434982626658 0.79066874046294866 0.68582980351695255 0.79245475375496166 0.74044438712903571 0.91232347377047562 0.83634013852396083 0.87508670191172344 0.87753478018150521 0.83627684146482895 0.79072506269401022 0.96041959245097597 0.90912365603630796 0.93405808587860883 0.90925529401703475 0.87510307637191231 0.93685054153549174 0.95731672336465856 0.93416934901619109 0.97002937940042921 0.98660851670375527 0.95700394756030249 0.96818575163996512 0.93334076565578838 0.93415105092875539 0.97315131847532477 0.93525897298679173 0.87661795819017785 0.93616363393661373 0.90900921903763454 0.960227300976075 0.9350026570139206 0.87520983043924017 0.90923794301113103 0.93784443877522095 0.98650876677855182 0.96840144796090954 0.956898614754776 0.97010793697867781 0.93504848793287298 0.95715917032085063 0.91230442806721868 0.8751978921199236 0.83631935436032623 0.87749419508036752 0.79094733558747576 0.83625919137684768 0.88104684200796868 0.78993891491075796 0.78993579184842522 0.83867660430365187 0.79088203046502992 0.74049438461287798 0.68583083848702353 0.74048806677413626 0.7925510312199765 0.68683634705247565 0.79125786920740848 0.7912462035457668 0.6863451321513937 0.57092879638182137 0.6288304552965861 0.74172332884148895 0.6857828337952141 0.62896912617485334 0.68678657051110581 0.5706098863745257 0.57072820134948488 0.45761816256801546 0.51144379882538404 0.57017847526465326 0.51156195052811659 0.62877725049338873 0.5708372552908656 0.45731562639846185 0.57040031253963652 0.57026996901874227 0.62895247173932323 0.68576888890030163 0.74168575184017604 0.68634423877682937 0.62881322089722458 0.57082229023300224 0.51158796005587814 0.57073618933976034 0.6287579268740231 0.51147312082800767 0.45755598313682172 0.57008924472755651 0.29807600276508356 0.29873891756657706 0.36222663594813437 0.3969506470418519 0.29753007714510715 0.36340795122937009 0.39856814126556489 0.45746918989832314 0.51030706220725397 0.39864736231383646 0.36386030146970083 0.45651885561443878 0.45479343093798263 0.36410136220239914 0.3600475446431734 0.36349924345433143 0.29814871275313198 0.35954814883148434 0.39679801708270801 0.35933949317981256 0.29751445555152839 0.29882728284366389 0.29802749690587976 0.35834794585211993 0.45652300223578157 0.35968850555621262 0.39855353263747245 0.51026883974927162 0.45754730663619558 0.3985108679700719 0.99999999999960942 1.0000000000000702 0.99999999999953115 0.99999999999968936 0.99999999999935318 0.99999999999931488 0.99999999999973921 0.99999999999942801 0.9999999999992385 0.99999999999967049 0.99999999999927269 1.000000000000659 0.99999999999958256 0.99999999999953104 1.0000000000000695 1.000000000000671 1.0000000000001541 1.0000000000003804 1.0000000000006701 0.99999999999914735 1.0000000000001543 0.99999999999982803 1.0000000000005125 1.0000000000001639 0.9999999999967204 0.99999999999685207 0.99999999999616784 0.99999999999950828 0.99999999999987743 0.99999999999969447 0.99999999999970968 0.99999999999989286 0.99999999999974021 1.0000000000018037 1.0000000000012841 1.0000000000018077 0.99999999999503575 1.0000000000012848 1.0000000000018043 0.9999999999999637 1.0000000000024853 1.0000000000009954 1.0000000000014351 1.0000000000019156 0.99999999999990052 0.99999999999988465 0.9999999999996555 1.0000000000014191 0.999999999995003 1.0000000000022662 0.99999999999858302 0.99999999999674549 0.99999999999673039 0.99999999998946631 0.99999999999163403 0.99999999999166944 0.9999999999989112 0.99999999999885469 0.99999999999890365 0.99999999999166067 1.0000000000012779 1.0000000000000304 1.0000000000007478 0.99999999999933609 0.99999999999752487 1.0000000000019911 0.99999999999729272 0.9999999999971535 1.0000000000001352 0.99999999999729294 1.0000000000001361 1.0000000000007649 1.0000000000000318 1.0000000000001628 0.99999999999718037 0.99999999999467892 1.000000000001332 0.99999999999657863 1.000000000000322 0.99999999999379163 1.000000000000389 0.99999999999932787 0.99999999999934719 0.99999999999389477 0.99999999999309785 0.99999999999931022 0.9999999999939273 0.99999999999901701 0.99999999999363487 1.0000000000008171 0.99999999999768086 0.99999999999224876 0.99999999999431244 0.99999999998617561 0.99999999999945077 0.99999999999435318 0.9999999999962822 0.99999999999595235 0.9999999999948711 0.9999999999929664 0.9999999999919148 0.99999999999661371 0.99999999999254896 0.99999999999955025 0.99999999999361477 0.99999999999509281 1.0000000000039806 0.99999999999632039 0.999999999996245 1.0000000000000355 0.9999999999962278 0.9999999999999154 0.99999999999878419 0.99999999999713929 1.0000000000026321 0.99999999999622546 1.0000000000000362 0.99999999999583944 1.0000000000000304 1.0000000000024856 0.99999999999629452 1.0000000000024938 0.99999999999624256 0.99999999999376821 0.99999999999387768 1.0000000000003657 1.0000000000025051 1.0000000000006477 0.99999999999621791 0.99999999999531319 0.99999999999393507 0.99999999999826794 0.99999999999551348 0.99999999999946498 0.99999999999177791 0.99999999999486999 0.99999999999480871 0.99999999999628142 
</DataArray>
</PointData>
</Piece>
</UnstructuredGrid>
</VTKFile>
