<?xml version="1.0"?>
<VTKFile type="UnstructuredGrid" version="0.1" byte_order="LittleEndian">
<UnstructuredGrid>
<Piece NumberOfPoints="594" NumberOfCells="198">
<Points>
<DataArray type="Float64" NumberOfComponents="3" format="ascii">
0 0 0 0.49999999999959471 0 0 0.32810846560805917 0.35132716049402418 0 0 0 0 0.32810846560805917 0.35132716049402418 0 0 0.50000000000205913 0 0 0.50000000000205913 0 0.32810846560805917 0.35132716049402418 0 0.30605158730175991 0.69050925925940754 0 0.71726190476123464 0.50694444444431941 0 0.30605158730175991 0.69050925925940754 0 0.32810846560805917 0.35132716049402418 0 0.71726190476123464 0.50694444444431941 0 0.32810846560805917 0.35132716049402418 0 0.49999999999959471 0 0 0.49999999999959471 0 0 0.99999999999841338 0 0 0.71726190476123464 0.50694444444431941 0 1.4999999999969551 0 0 1.2499999999981819 0.4791666666661778 0 0.99999999999841338 0 0 0.71726190476123464 0.50694444444431941 0 0.99999999999841338 0 0 1.2499999999981819 0.4791666666661778 0 0.99999999999999112 1 0 0.49999999999999561 1 0 0.71726190476123464 0.50694444444431941 0 0.99999999999999112 1 0 1.2499999999981819 0.4791666666661778 0 1.499999999999992 1 0 0.71726190476123464 0.50694444444431941 0 1.2499999999981819 0.4791666666661778 0 0.99999999999999112 1 0 0.71726190476123464 0.50694444444431941 0 0.49999999999999561 1 0 0.30605158730175991 0.69050925925940754 0 0 1 0 0 0.50000000000205913 0 0.30605158730175991 0.69050925925940754 0 0 1 0 0.30605158730175991 0.69050925925940754 0 0.49999999999999561 1 0 2.4999999999999951 1 0 1.999999999999994 1 0 2.265689300409039 0.50244341563808892 0 1.754629629626973 0.49768518518496552 0 2.265689300409039 0.50244341563808892 0 1.999999999999994 1 0 1.754629629626973 0.49768518518496552 0 1.499999999999992 1 0 1.2499999999981819 0.4791666666661778 0 1.999999999999994 1 0 1.499999999999992 1 0 1.754629629626973 0.49768518518496552 0 1.754629629626973 0.49768518518496552 0 1.2499999999981819 0.4791666666661778 0 1.4999999999969551 0 0 1.4999999999969551 0 0 1.9999999999955129 0 0 1.754629629626973 0.49768518518496552 0 1.754629629626973 0.49768518518496552 0 1.9999999999955129 0 0 2.265689300409039 0.50244341563808892 0 1.9999999999955129 0 0 2.4999999999962048 0 0 2.265689300409039 0.50244341563808892 0 2.4999999999962048 0 0 2.999999999996966 0 0 2.7615740740724162 0.52430555555546632 0 3.249999999999996 0.50000000000056777 0 2.7615740740724162 0.52430555555546632 0 2.999999999996966 0 0 2.4999999999962048 0 0 2.7615740740724162 0.52430555555546632 0 2.265689300409039 0.50244341563808892 0 2.4999999999999951 1 0 2.7615740740724162 0.52430555555546632 0 2.999999999999996 1 0 2.4999999999999951 1 0 2.265689300409039 0.50244341563808892 0 2.7615740740724162 0.52430555555546632 0 3.249999999999996 0.50000000000056777 0 2.999999999999996 1 0 2.7615740740724162 0.52430555555546632 0 2.999999999999996 1 0 3.249999999999996 0.50000000000056777 0 3.4999999999999969 1 0 3.249999999999996 0.50000000000056777 0 3.7536375661371162 0.52050264550273706 0 3.4999999999999969 1 0 3.249999999999996 0.50000000000056777 0 3.499999999997728 0 0 3.7536375661371162 0.52050264550273706 0 3.499999999997728 0 0 3.249999999999996 0.50000000000056777 0 2.999999999996966 0 0 3.499999999997728 0 0 3.9999999999984892 0 0 3.7536375661371162 0.52050264550273706 0 4.2827380952378373 0.49702380952385222 0 3.7536375661371162 0.52050264550273706 0 3.9999999999984892 0 0 4.499999999999245 0 0 4.2827380952378373 0.49702380952385222 0 3.9999999999984892 0 0 4.2827380952378373 0.49702380952385222 0 4.499999999999245 0 0 4.6939484126980782 0.31001984126959431 0 5 0.49999999999869399 0 4.6939484126980782 0.31001984126959431 0 5 0 0 5 0 0 4.6939484126980782 0.31001984126959431 0 4.499999999999245 0 0 4.6250000000002496 0.62499999999992328 0 4.6939484126980782 0.31001984126959431 0 5 0.49999999999869399 0 4.6250000000002496 0.62499999999992328 0 4.2827380952378373 0.49702380952385222 0 4.6939484126980782 0.31001984126959431 0 4.2827380952378373 0.49702380952385222 0 4.6250000000002496 0.62499999999992328 0 4.4999999999999991 1 0 5 1 0 4.6250000000002496 0.62499999999992328 0 5 0.49999999999869399 0 5 1 0 4.4999999999999991 1 0 4.6250000000002496 0.62499999999992328 0 4.4999999999999991 1 0 3.9999999999999978 1 0 4.2827380952378373 0.49702380952385222 0 3.4999999999999969 1 0 3.7536375661371162 0.52050264550273706 0 3.9999999999999978 1 0 4.2827380952378373 0.49702380952385222 0 3.9999999999999978 1 0 3.7536375661371162 0.52050264550273706 0 5.9999999999999956 1 0.99999999999999556 6.1666666666666661 0.75595238095205264 1.1666666666666661 5.8611111111106986 0.512282690854023 0.86111111111069949 5.9999999999992077 1 -0.99999999999920808 6.1666666666657663 0.6269841269844294 -1.1666666666657679 5.8611111111106604 0.49288233812051968 -0.86111111111066041 6.3333333333320549 1 -1.3333333333320549 6.1666666666657663 0.6269841269844294 -1.1666666666657679 5.9999999999992077 1 -0.99999999999920808 5.9999999999999956 1 0.99999999999999556 6.3333333333333277 1 1.3333333333333279 6.1666666666666661 0.75595238095205264 1.1666666666666661 5.6666666666663614 1 -0.66666666666636076 5.8611111111106604 0.49288233812051968 -0.86111111111066041 5.4583333333329049 0.50000000000003608 -0.45833333333290671 5.6666666666666634 1 0.66666666666666341 5.9999999999999956 1 0.99999999999999556 5.8611111111106986 0.512282690854023 0.86111111111069949 5.6666666666663614 1 -0.66666666666636076 5.9999999999992077 1 -0.99999999999920808 5.8611111111106604 0.49288233812051968 -0.86111111111066041 5.6666666666666634 1 0.66666666666666341 5.8611111111106986 0.512282690854023 0.86111111111069949 5.4583333333329058 0.49999999999996392 0.45833333333290671 5 1 0 5.3333333333333313 1 0.33333333333333132 5.2291666666662238 0.66666666666682306 0.22916666666622379 5 1 0 5.2291666666662238 0.66666666666682306 0.22916666666622379 5 0.49999999999869399 0 5 1 0 5.2291666666662087 0.66666666666678287 -0.22916666666621041 5 0.49999999999869399 0 5 1 0 5.3333333333331892 1 -0.33333333333318949 5.2291666666662087 0.66666666666678287 -0.22916666666621041 5.3333333333331892 1 -0.33333333333318949 5.6666666666663614 1 -0.66666666666636076 5.4583333333329049 0.50000000000003608 -0.45833333333290671 5.3333333333331892 1 -0.33333333333318949 5.4583333333329049 0.50000000000003608 -0.45833333333290671 5.2291666666662087 0.66666666666678287 -0.22916666666621041 5.6666666666666634 1 0.66666666666666341 5.4583333333329058 0.49999999999996392 0.45833333333290671 5.3333333333333313 1 0.33333333333333132 5.3333333333333313 1 0.33333333333333132 5.4583333333329058 0.49999999999996392 0.45833333333290671 5.2291666666662238 0.66666666666682306 0.22916666666622379 5.4583333333329049 0.50000000000003608 -0.45833333333290671 5.2132227891161653 0.31207482993217439 -0.21322278911616621 5.2291666666662087 0.66666666666678287 -0.22916666666621041 5 0.49999999999869399 0 5.2291666666662087 0.66666666666678287 -0.22916666666621041 5.2132227891161653 0.31207482993217439 -0.21322278911616621 5.4583333333329058 0.49999999999996392 0.45833333333290671 5.2132227891161733 0.31207482993225188 0.21322278911617421 5.2291666666662238 0.66666666666682306 0.22916666666622379 5 0.49999999999869399 0 5.2291666666662238 0.66666666666682306 0.22916666666622379 5.2132227891161733 0.31207482993225188 0.21322278911617421 5 0 0 5.2132227891161733 0.31207482993225188 0.21322278911617421 5.3333333333331892 0 0.33333333333318949 5 0.49999999999869399 0 5.2132227891161733 0.31207482993225188 0.21322278911617421 5 0 0 5 0 0 5.2132227891161653 0.31207482993217439 -0.21322278911616621 5.3333333333333313 0 -0.33333333333333132 5 0.49999999999869399 0 5.2132227891161653 0.31207482993217439 -0.21322278911616621 5 0 0 5.6666666666666634 0 -0.66666666666666341 5.3333333333333313 0 -0.33333333333333132 5.4583333333329049 0.50000000000003608 -0.45833333333290671 5.3333333333331892 0 0.33333333333318949 5.2132227891161733 0.31207482993225188 0.21322278911617421 5.4583333333329058 0.49999999999996392 0.45833333333290671 5.6666666666663614 0 0.66666666666636076 5.3333333333331892 0 0.33333333333318949 5.4583333333329058 0.49999999999996392 0.45833333333290671 5.3333333333333313 0 -0.33333333333333132 5.2132227891161653 0.31207482993217439 -0.21322278911616621 5.4583333333329049 0.50000000000003608 -0.45833333333290671 5.6666666666663614 0 0.66666666666636076 5.8611111111106986 0.512282690854023 0.86111111111069949 5.9999999999992077 0 0.99999999999920808 5.9999999999999956 0 -0.99999999999999556 5.6666666666666634 0 -0.66666666666666341 5.8611111111106604 0.49288233812051968 -0.86111111111066041 5.6666666666666634 0 -0.66666666666666341 5.4583333333329049 0.50000000000003608 -0.45833333333290671 5.8611111111106604 0.49288233812051968 -0.86111111111066041 5.6666666666663614 0 0.66666666666636076 5.4583333333329058 0.49999999999996392 0.45833333333290671 5.8611111111106986 0.512282690854023 0.86111111111069949 6.166666666665769 0.37301587301557287 1.166666666665769 5.8611111111106986 0.512282690854023 0.86111111111069949 6.1666666666666661 0.75595238095205264 1.1666666666666661 6.1666666666657663 0.6269841269844294 -1.1666666666657679 6.1666666666662664 0.29828042328064291 -1.166666666666266 5.8611111111106604 0.49288233812051968 -0.86111111111066041 5.9999999999992077 0 0.99999999999920808 5.8611111111106986 0.512282690854023 0.86111111111069949 6.166666666665769 0.37301587301557287 1.166666666665769 5.9999999999999956 0 -0.99999999999999556 6.1666666666662664 0.29828042328064291 -1.166666666666266 6.3333333333333277 0 -1.3333333333333279 5.9999999999999956 0 -0.99999999999999556 5.8611111111106604 0.49288233812051968 -0.86111111111066041 6.1666666666662664 0.29828042328064291 -1.166666666666266 5.9999999999992077 0 0.99999999999920808 6.166666666665769 0.37301587301557287 1.166666666665769 6.3333333333320549 0 1.3333333333320549 6.3333333333333277 0 -1.3333333333333279 6.1666666666662664 0.29828042328064291 -1.16666666
[...]
<PointData Scalars="A_conc," Vectors="" Tensors="">
<DataArray type="Float64" Name="A_conc" format="ascii">
0.99999999999837663 0.99999999999815836 0.99999999999710698 0.99999999999841216 0.99999999999703726 1.0000000000031766 0.99999999999995981 0.99999999999765365 0.99999999999869615 0.99999999999817968 0.99999999999874423 0.99999999999770195 0.99999999999760636 0.9999999999972734 0.9999999999978304 0.9999999999992546 0.99999999999930422 0.99999999999903355 0.99999999999915645 0.99999999999886025 0.99999999999922429 1.0000000000015006 0.9999999999992234 0.99999999999886013 0.99999999999893607 0.99999999999916611 0.99999999999872213 1.0000000000007991 0.99999999999669176 1.0000000000006104 0.99999999999703082 0.99999999999656808 1.0000000000008604 0.99999999999872224 0.99999999999916644 1.0000000000236491 1.0000000000018185 0.99999999999909039 0.9999999999974436 1.0000000000152447 1.0000000000052038 1.0000000000092619 0.99999999999872424 0.99999999999888756 0.99999999999544931 0.99999999999540123 0.99999999999544908 0.99999999999888756 0.99999999999729206 1.0000000000010858 0.99999999999716793 0.9999999999989363 0.99999999999902534 0.9999999999953032 0.99999999999065081 0.99999999999677369 1.0000000000031393 1.0000000000062153 1.0000000000061164 0.99999999999372613 0.99999999999369271 1.0000000000059865 0.99999999999370726 1.0000000000054465 1.0000000000019547 0.9999999999967043 0.99999999999939027 0.9999999999992506 0.99999999999431599 0.99999999999462474 0.99999999999429767 0.99999999999923139 0.99999999999939038 0.99999999999431666 0.99999999999372846 1.0000000000033524 1.0000000000106521 1.0000000000034204 1.0000000000033682 0.99999999998141387 1.0000000000106188 1.0000000000077383 1.0000000000048173 1.0000000000098417 1.0000000000026754 1.0000000000055946 1.0000000000026044 1.0000000000056586 1.0000000000056208 1.0000000000026634 0.99999999999703981 0.99999999998521205 1.0000000000003824 0.99999999998725675 0.99999999999594058 1.000000000003326 0.99999999998522682 0.99999999998521316 1.0000000000004288 0.99999999999968381 1.0000000000004683 0.99999999998522715 0.99999999998747946 1.0000000000024061 0.99999999998803057 1.0000000000025064 0.99999999998752742 0.99999999999635258 1.0000000000055096 0.99999999999678391 0.99999999998542299 0.99999999998705191 0.99999999999725309 0.99999999998613542 1.0000000000203526 0.99999999999556033 1.0000000000091926 1.0000000000202003 1.0000000000035918 0.9999999999955157 1.0000000000163876 1.0000000000139897 0.99999999998494671 0.99999999998531841 1.000000000015896 1.000000000019077 0.999999999983752 0.99999999998507683 1.0000000000140328 0.99999999998885247 0.99999999999246891 1.000000000014388 1.0000000000036537 1.0000000000065934 1.0000000000036078 1.0000000000092937 0.99999999999639688 1.0000000000157792 0.99995577475026143 0.99967625701377538 1.0000589894405796 0.99999999991218746 0.99999999987833277 0.99999999997610689 0.99999999977221221 0.99999999987919042 0.99999999993033439 1.0002317697229972 0.99899038021319453 0.99970864470179699 0.99999999996304612 0.99999999996842259 1.0000000000123224 1.0000567531014686 0.99993690332717322 0.99998851564620472 0.99999999997122213 0.99999999991083255 0.99999999996785405 1.0000083443189074 0.99998970712781499 1.0000165670269114 0.99999989019086533 1.0000006596613105 0.99999975420770859 0.99999999912522941 1.0000000065165879 0.99999999916936566 0.99999999998552036 1.0000000000051685 1.0000000000192597 0.99999999998033329 0.99999999997416944 0.99999999999862732 0.99999999998017441 0.99999999996188782 1.0000000000057694 0.99999999997839273 1.0000000000048554 0.99999999999883149 1.0000044231686418 0.99999898149118949 1.0000025505810937 1.0000007344052386 0.99999975026928845 0.99999980822480239 0.99999999999060807 0.99999999998059452 1.000000000013276 1.0000000000162423 1.0000000000128517 0.99999999997995825 1.0000001133390204 1.0000000513225653 1.0000000587632072 0.99999999206948609 1.0000000239423856 1.0000000161700429 0.99999990370515945 0.99999978614471663 1.000000578117336 0.99999999968976094 1.0000000033840339 0.99999999965890241 0.99999999998793998 0.99999999996568611 0.99999999998169531 1.0000000000168776 0.99999999996585076 0.99999999998686218 0.99999999995854805 0.99999999997789268 0.9999999999825101 1.0000006584266552 0.99999985367430078 0.99999982511303731 1.0000041031747842 1.0000024444501716 0.99999916540651901 0.9999999999753868 0.9999999999656819 0.99999999998197209 1.0000550564836053 0.99999304400661959 0.99993648452268469 0.99999999990882971 0.99999999996911759 0.99999999994874855 0.99999999996103694 0.99999999998972999 0.99999999994934796 1.0000073253224824 1.0000172398161815 0.9999933183777957 0.99968572522787125 1.0002655103730453 0.99962262053371653 0.99999999988469157 0.99999999984708565 0.99999999997807876 0.99995754862322717 1.0000775078613082 0.99967000853944177 0.99999999993460198 0.99999999985642452 0.99999999977655807 0.99999999991648658 0.99999999995238276 0.99999999985536159 1.0002361709369769 0.99969795483862656 0.99899379321434656 0.99999999977659171 0.99999999988127397 0.99999999963260611 0.99999999942933926 0.99999999981874332 0.99999999963391561 0.99406754021055388 0.99999193494730543 0.99737425959017789 0.99906453498322789 1.000252900220683 0.99730728322202278 0.97839446797079055 0.99611430214055707 0.98834114955624597 0.99999999943362294 0.99999999967679809 0.99999999910465731 0.99999999952107932 0.99999999910878345 0.99999999862804168 0.99414361811853869 0.99854125474261901 0.98820571304488836 0.99999999977662679 0.99999999911371329 0.99999999907172854 0.98799342668071644 1.0005911109352397 0.98771977167890457 1.0000229498361053 0.99993851528532629 0.99752555314258717 0.99999999990041755 0.99999999965652919 0.99999999986311094 0.99999999982338461 0.9999999994337635 0.99999999964331543 0.99999999978185672 0.99999999964181052 0.99999999990651789 0.99908737861554853 0.99723514106557842 1.0002277205034964 1.0000221759914119 0.99410459290300035 0.99728572622285128 0.99615662506909808 0.97847716502490645 0.98835705118244266 0.99418701042338098 0.9882220675465172 0.99835526484763726 0.99999999943473905 0.99999999912012183 0.99999999969497855 0.99999999952209895 0.99999999862837463 0.99999999912531878 0.97850773886967579 0.96592129962857709 0.99051144570524319 0.99999999863183775 0.9999999980359402 0.99999999923544736 0.98142189924547396 0.94329494728257046 0.96630977778103333 0.99999999688869479 0.99999999806249396 0.9999999987979562 0.9435595919790003 0.90603602951570383 0.97151286781625878 0.9999999969263027 0.99999999488151603 0.9999999984186323 0.99999999693265185 0.99999999840839482 0.99999999484282431 0.97153854037004972 0.90638376432168721 0.94340360158735659 0.99999999807892215 0.99999999913489701 0.9999999991828652 0.96718469695944209 0.98940270520776374 0.98910276682441312 0.94314738829627176 0.98129320355052385 0.96658485423405871 0.99999999863226052 0.99999999920238436 0.99999999800899697 0.96617447177731242 0.97839036028190141 0.99061258713146805 0.99999999689178753 0.99999999879672374 0.99999999803263817 0.99999999325635247 0.99999999731461298 0.9999999947857604 0.9473633342274439 0.90572757807882254 0.88008372063552542 0.99999999332594325 0.99999999509674065 0.99999998994369133 0.90792134704339067 0.83623491281401696 0.88034019774080252 0.83364337976624858 0.83512790873482179 0.91145943355021797 0.99999998980915272 0.99999999564733966 0.99999999012567697 0.83535956829071134 0.73554901485816104 0.83692232343950668 0.99999999029128872 0.99999999066350564 0.99999998059180817 0.99999998616660479 0.99999999396513772 0.99999998992591632 0.99999998624657682 0.99999999067356471 0.99999998018124592 0.78923409732290806 0.88362235253804533 0.83607280064555256 0.73432263785939755 0.78932246913127802 0.83846565401924056 0.73531161155760216 0.61442605797005068 0.67583605928213242 0.7913341876310771 0.73423646626858108 0.67598165514151409 0.99999998734777595 0.99999998019389702 0.99999997279657593 0.99999997288383535 0.99999998137420698 0.99999996206264596 0.67627493256493909 0.61429091430794391 0.55147048488642003 0.48938416962967241 0.55132604835491217 0.61386398493914984 0.99999994852139906 0.99999997474500879 0.99999996211028097 0.9999999487110236 0.99999996447724393 0.99999992928522319 0.48923323039807004 0.6138814695693936 0.61377638210483476 0.99999996329513574 0.99999996313155104 0.9999999304489654 0.99999996176033645 0.99999998343436647 0.99999996161346261 0.73648379907075301 0.61391753556386397 0.61401530223984768 0.99999997289019005 0.99999996217131149 0.99999998127798606 0.99999997280722941 0.9999999801852254 0.99999998735887152 0.79136205156428308 0.67601769200542638 0.73410960924199997 0.73524397653888374 0.67585674537154272 0.61432210371506579 0.99999994878601384 0.99999992916750102 0.99999996449234119 0.9999999485247969 0.99999996223070053 0.99999997473634739 0.48932131183217209 0.61380629138890841 0.55135218521494322 0.67628521838997302 0.55150810872209344 0.61420902796108645 0.99999998625295428 0.99999998017610858 0.99999999113005522 0.99999998614106489 0.99999999030982034 0.99999999391564054 0.78935258386664553 0.73419154530977693 0.83686737567379343 0.88384108397656469 0.78935811352865637 0.83451105612752574 0.88053990957161632 0.8347148471981588 0.90773923761477682 0.9999999932929059 0.99999999028270403 0.99999999508808224 0.94752377860082238 0.88024299872531098 0.9053726300231999 0.99999999324788569 0.99999999483252056 0.99999999729669098 0.99999951597663672 0.9999996611011901 0.99999952230679545 0.99999952560278493 0.99999965471725616 0.99999972553935856 0.15349950590121211 0.15440757520184248 0.19784140696152186 0.22328399477851682 0.15282049806460107 0.19922378503162949 0.99999971516435326 0.99999965249447442 0.99999978818174162 0.99999984202364112 0.99999971550251165 0.9999997823216612 0.22528144712911163 0.27236529921080882 0.31531513185993398 0.22550771716051513 0.19977181866499633 0.27073915730457232 0.9999999063416386 0.99999987418361247 0.99999993197109871 0.42864460499036439 0.48925569246378553 0.5502972729420228 0.99999995187228918 0.99999990614810719 0.99999992918819491 0.48793361391017309 0.42853998468851379 0.37193199810897165 0.99999983452017494 0.99999978202886042 0.99999987948378399 0.31777758633495684 0.2724710907421643 0.3696583929607008 0.99999991120063814 0.99999983405057435 0.99999987431811488 0.31783635139467847 0.37186616966658259 0.42649185087788949 0.9999997854831808 0.99999987670476187 0.99999987594103978 0.2713734657043787 0.37109401830657951 0.37090140420018786 0.99999993781755347 0.99999987230350296 0.99999987298158621 0.48564630764198913 0.37234643591345407 0.37254025668344892 0.99999990624093649 0.99999993252618191 0.99999987387777056 0.55026593264778179 0.48932684788058639 0.42859248783169757 0.48809750536310992 0.37191781599166857 0.428490721378674 0.99999995177363088 0.99999992932588655 0.99999990603814426 0.27261619954030469 0.31767314057705931 0.3697315900080031 0.99999983417253424 0.99999987975028315 0.9999997826179392 0.3177596668422642 0.4264439500814815 0.37184418979136052 0.99999983386683067 0.99999991111007802 0.99999987400082124 0.99999971451145742 0.99999978850254778 0.99999965862164475 0.31520826420344211 0.27251284857897468 0.22517009826578935 0.99999984163924582 0.99999978299212455 0.99999971503946616 0.27076244136609551 0.19670586044345323 0.22535781974060295 0.99999979822746399 0.99999965030668825 0.99999965717205774 0.26811486451044975 0.20020743392004453 0.19730570876378054 0.99999952052343588 0.99999966087088299 0.99999965344874941 0.19944955591459504 0.15364520394791747 0.19667714517910415 0.2230682955892915 0.19629077018194718 0.15281230932236031 0.99999952522483249 0.9999997245725214 0.99999966140588969 0.1545046986038042 0.15344660762869725 0.19515325378180862 0.99999952187601449 0.99999966884756786 0.99999951684054422 
</DataArray>
</PointData>
</Piece>
</UnstructuredGrid>
</VTKFile>
