<?xml version="1.0"?>
<VTKFile type="UnstructuredGrid" version="0.1" byte_order="LittleEndian">
<UnstructuredGrid>
<Piece NumberOfPoints="594" NumberOfCells="198">
<Points>
<DataArray type="Float64" NumberOfComponents="3" format="ascii">
9.6666666666666661 0 -4.6666666666666661 9.7758804637971792 0.34775096525134458 -4.7758804637971783 9.4901933183181697 0.51982786357785593 -4.4901933183181688 9.6666666666666661 0 -4.6666666666666661 9.4901933183181697 0.51982786357785593 -4.4901933183181688 9.3333333333333321 0 -4.3333333333333313 9.6666666666666661 0 -4.6666666666666661 10 0 -5 9.7758804637971792 0.34775096525134458 -4.7758804637971783 10 0 -5 9.7758804637971792 0.34775096525134458 -4.7758804637971783 10 0.50000000000205913 -5 9.7758804637971792 0.34775096525134458 -4.7758804637971783 10 0.50000000000205913 -5 9.7872434934932606 0.6855265980269214 -4.7872434934932597 9.7758804637971792 0.34775096525134458 -4.7758804637971783 9.4901933183181697 0.51982786357785593 -4.4901933183181688 9.7872434934932606 0.6855265980269214 -4.7872434934932597 9.4901933183181697 0.51982786357785593 -4.4901933183181688 9.7872434934932606 0.6855265980269214 -4.7872434934932597 9.6666666666664156 1 -4.6666666666664156 9.4901933183181697 0.51982786357785593 -4.4901933183181688 9.6666666666664156 1 -4.6666666666664156 9.3333333333328294 1 -4.3333333333328294 10 0.50000000000205913 -5 9.7872434934932606 0.6855265980269214 -4.7872434934932597 10 1 -5 9.7872434934932606 0.6855265980269214 -4.7872434934932597 10 1 -5 9.6666666666664156 1 -4.6666666666664156 9.3333333333328294 1 -4.3333333333328294 9.166666666666039 0.75595238095243689 -4.1666666666660381 8.999999999999245 1 -3.999999999999245 9.4901933183181697 0.51982786357785593 -4.4901933183181688 9.3333333333328294 1 -4.3333333333328294 9.166666666666039 0.75595238095243689 -4.1666666666660381 9.166666666666039 0.75595238095243689 -4.1666666666660381 8.999999999999245 1 -3.999999999999245 8.8333333333330302 0.52513227513218741 -3.8333333333330288 8.999999999999245 1 -3.999999999999245 8.8333333333330302 0.52513227513218741 -3.8333333333330288 8.6666666666656589 1 -3.6666666666656589 9.4901933183181697 0.51982786357785593 -4.4901933183181688 9.166666666666039 0.75595238095243689 -4.1666666666660381 9.1653591091089677 0.37901055817719992 -4.1653591091089686 9.1653591091089677 0.37901055817719992 -4.1653591091089686 9.3333333333333321 0 -4.3333333333333313 8.9999999999999964 0 -3.9999999999999969 9.4901933183181697 0.51982786357785593 -4.4901933183181688 9.1653591091089677 0.37901055817719992 -4.1653591091089686 9.3333333333333321 0 -4.3333333333333313 9.166666666666039 0.75595238095243689 -4.1666666666660381 9.1653591091089677 0.37901055817719992 -4.1653591091089686 8.8333333333330302 0.52513227513218741 -3.8333333333330288 8.8333333333330302 0.52513227513218741 -3.8333333333330288 8.9999999999999964 0 -3.9999999999999969 8.6666666666666625 0 -3.666666666666663 9.1653591091089677 0.37901055817719992 -4.1653591091089686 8.8333333333330302 0.52513227513218741 -3.8333333333330288 8.9999999999999964 0 -3.9999999999999969 8.8333333333330302 0.52513227513218741 -3.8333333333330288 8.4999999999998455 0.37301587301576589 -3.4999999999998459 8.4999999999992628 0.70507054673714353 -3.4999999999992641 8.8333333333330302 0.52513227513218741 -3.8333333333330288 8.4999999999998455 0.37301587301576589 -3.4999999999998459 8.6666666666666625 0 -3.666666666666663 8.4999999999998455 0.37301587301576589 -3.4999999999998459 8.6666666666666625 0 -3.666666666666663 8.3333333333333286 0 -3.3333333333333282 8.4999999999998455 0.37301587301576589 -3.4999999999998459 8.1677083333328273 0.51603966288628356 -3.167708333332826 8.4999999999992628 0.70507054673714353 -3.4999999999992641 8.4999999999998455 0.37301587301576589 -3.4999999999998459 8.1677083333328273 0.51603966288628356 -3.167708333332826 8.3333333333333286 0 -3.3333333333333282 8.1677083333328273 0.51603966288628356 -3.167708333332826 8.3333333333333286 0 -3.3333333333333282 7.9999999999999929 0 -2.9999999999999929 7.666666666666659 0 -2.666666666666659 7.8458333333325694 0.36721576227400882 -2.8458333333325689 7.5441798941785558 0.50932853577008119 -2.5441798941785572 7.666666666666659 0 -2.666666666666659 7.5441798941785558 0.50932853577008119 -2.5441798941785572 7.333333333333325 0 -2.333333333333325 8.1677083333328273 0.51603966288628356 -3.167708333332826 7.9999999999999929 0 -2.9999999999999929 7.8458333333325694 0.36721576227400882 -2.8458333333325689 7.666666666666659 0 -2.666666666666659 7.9999999999999929 0 -2.9999999999999929 7.8458333333325694 0.36721576227400882 -2.8458333333325689 8.1677083333328273 0.51603966288628356 -3.167708333332826 7.8458333333325694 0.36721576227400882 -2.8458333333325689 7.8333333333316926 0.74717377261014672 -2.833333333331693 7.8458333333325694 0.36721576227400882 -2.8458333333325689 7.5441798941785558 0.50932853577008119 -2.5441798941785572 7.8333333333316926 0.74717377261014672 -2.833333333331693 7.5441798941785558 0.50932853577008119 -2.5441798941785572 7.8333333333316926 0.74717377261014672 -2.833333333331693 7.6666666666649013 1 -2.6666666666649008 7.5441798941785558 0.50932853577008119 -2.5441798941785572 7.6666666666649013 1 -2.6666666666649008 7.3333333333313142 1 -2.3333333333313142 8.1677083333328273 0.51603966288628356 -3.167708333332826 7.8333333333316926 0.74717377261014672 -2.833333333331693 7.9999999999984883 1 -2.9999999999984879 7.8333333333316926 0.74717377261014672 -2.833333333331693 7.9999999999984883 1 -2.9999999999984879 7.6666666666649013 1 -2.6666666666649008 8.1677083333328273 0.51603966288628356 -3.167708333332826 7.9999999999984883 1 -2.9999999999984879 8.3333333333320745 1 -3.333333333332074 8.1677083333328273 0.51603966288628356 -3.167708333332826 8.3333333333320745 1 -3.333333333332074 8.4999999999992628 0.70507054673714353 -3.4999999999992641 8.3333333333320745 1 -3.333333333332074 8.6666666666656589 1 -3.6666666666656589 8.4999999999992628 0.70507054673714353 -3.4999999999992641 8.8333333333330302 0.52513227513218741 -3.8333333333330288 8.6666666666656589 1 -3.6666666666656589 8.4999999999992628 0.70507054673714353 -3.4999999999992641 5.3333333333333313 0 -0.33333333333333132 5.2132227891161653 0.31207482993217439 -0.21322278911616621 5.4583333333329049 0.50000000000003608 -0.45833333333290671 5.3333333333333313 0 -0.33333333333333132 5.4583333333329049 0.50000000000003608 -0.45833333333290671 5.6666666666666634 0 -0.66666666666666341 5.3333333333333313 0 -0.33333333333333132 5.2132227891161653 0.31207482993217439 -0.21322278911616621 5 0 0 5.2132227891161653 0.31207482993217439 -0.21322278911616621 5 0.49999999999869399 0 5 0 0 5.2132227891161653 0.31207482993217439 -0.21322278911616621 5.4583333333329049 0.50000000000003608 -0.45833333333290671 5.2291666666662087 0.66666666666678287 -0.22916666666621041 5.2132227891161653 0.31207482993217439 -0.21322278911616621 5.2291666666662087 0.66666666666678287 -0.22916666666621041 5 0.49999999999869399 0 5.4583333333329049 0.50000000000003608 -0.45833333333290671 5.2291666666662087 0.66666666666678287 -0.22916666666621041 5.3333333333331892 1 -0.33333333333318949 5.4583333333329049 0.50000000000003608 -0.45833333333290671 5.3333333333331892 1 -0.33333333333318949 5.6666666666663614 1 -0.66666666666636076 5.2291666666662087 0.66666666666678287 -0.22916666666621041 5.3333333333331892 1 -0.33333333333318949 5 1 0 5.2291666666662087 0.66666666666678287 -0.22916666666621041 5 1 0 5 0.49999999999869399 0 5.4583333333329049 0.50000000000003608 -0.45833333333290671 5.6666666666663614 1 -0.66666666666636076 5.8611111111106604 0.49288233812051968 -0.86111111111066041 5.6666666666663614 1 -0.66666666666636076 5.9999999999992077 1 -0.99999999999920808 5.8611111111106604 0.49288233812051968 -0.86111111111066041 6.1666666666657663 0.6269841269844294 -1.1666666666657679 5.9999999999992077 1 -0.99999999999920808 5.8611111111106604 0.49288233812051968 -0.86111111111066041 6.1666666666657663 0.6269841269844294 -1.1666666666657679 5.9999999999992077 1 -0.99999999999920808 6.3333333333320549 1 -1.3333333333320549 5.4583333333329049 0.50000000000003608 -0.45833333333290671 5.8611111111106604 0.49288233812051968 -0.86111111111066041 5.6666666666666634 0 -0.66666666666666341 5.8611111111106604 0.49288233812051968 -0.86111111111066041 5.6666666666666634 0 -0.66666666666666341 5.9999999999999956 0 -0.99999999999999556 6.1666666666657663 0.6269841269844294 -1.1666666666657679 5.8611111111106604 0.49288233812051968 -0.86111111111066041 6.1666666666662664 0.29828042328064291 -1.166666666666266 5.8611111111106604 0.49288233812051968 -0.86111111111066041 6.1666666666662664 0.29828042328064291 -1.166666666666266 5.9999999999999956 0 -0.99999999999999556 6.1666666666662664 0.29828042328064291 -1.166666666666266 5.9999999999999956 0 -0.99999999999999556 6.3333333333333277 0 -1.3333333333333279 6.1666666666657663 0.6269841269844294 -1.1666666666657679 6.1666666666662664 0.29828042328064291 -1.166666666666266 6.4999999999989599 0.47938712522071519 -1.4999999999989611 6.4999999999989599 0.47938712522071519 -1.4999999999989611 6.3333333333333277 0 -1.3333333333333279 6.666666666666659 0 -1.666666666666659 6.1666666666662664 0.29828042328064291 -1.166666666666266 6.4999999999989599 0.47938712522071519 -1.4999999999989611 6.3333333333333277 0 -1.3333333333333279 6.4999999999989599 0.47938712522071519 -1.4999999999989611 6.8296296296280934 0.62204375577420579 -1.8296296296280941 6.8333333333333259 0.24404761904793049 -1.8333333333333259 6.8333333333333259 0.24404761904793049 -1.8333333333333259 6.666666666666659 0 -1.666666666666659 6.9999999999999911 0 -1.9999999999999909 6.4999999999989599 0.47938712522071519 -1.4999999999989611 6.8333333333333259 0.24404761904793049 -1.8333333333333259 6.666666666666659 0 -1.666666666666659 6.8333333333333259 0.24404761904793049 -1.8333333333333259 6.9999999999999911 0 -1.9999999999999909 7.1388888888874096 0.48356009070323391 -2.13888888888
[...]
<PointData Scalars="A_conc," Vectors="" Tensors="">
<DataArray type="Float64" Name="A_conc" format="ascii">
0.99933812350479978 0.99926435623542931 0.99944511089188648 0.99933865111896636 0.99944080922233225 0.99952961891236336 0.99934496408331652 0.99909951477690973 0.9992661933382152 0.99909730126207741 0.99927092579885923 0.99909411374346391 0.99926566210959011 0.99909656430701177 0.99925685628908456 0.99926321441775456 0.99945226488476613 0.99925477023705866 0.99944481288112774 0.99925644264116797 0.99933863777882026 0.99944023677147553 0.99933905042662396 0.99952998777246349 0.99909357872663762 0.99926193291668286 0.9990975787645775 0.99925791482697823 0.99909975545809737 0.99934567262299523 0.99952341227535502 0.99959796920044441 0.99966842110732279 0.99943998033673964 0.99952371279400165 0.99960271377972021 0.99959789030822266 0.99966328418235273 0.99972104146367025 0.99966317336038946 0.99971764838704924 0.99977121196387508 0.99944325823084279 0.99959921303053623 0.99960020765900304 0.99959786212148272 0.9995232188351203 0.99966825510777324 0.99944051981709803 0.99960325273864625 0.99952335992045072 0.99959570666388886 0.99959663977953805 0.99972766137335922 0.99971781351779676 0.99966301298423554 0.99977106881514832 0.99959777490189827 0.99972167768717657 0.99966312221636622 0.99971957466388461 0.99980888307862892 0.99980868461136307 0.99971778068728978 0.9998107979044254 0.99976697279865556 0.99980724691730094 0.99976679033314886 0.99984566021017995 0.99980652133240588 0.99987707398989967 0.99980633483178349 0.99980720082186025 0.9998732663122718 0.99984247581042329 0.99987091835304742 0.9998423891037318 0.99989874602029538 0.99993369321771397 0.99991501032495933 0.99994469032976208 0.99993350495813482 0.99994363273378517 0.99996050937592995 0.99987090238322018 0.99989630031203269 0.99991684210140719 0.9999355647082121 0.99989616233967782 0.99991494803870473 0.99987195325641998 0.99991581529420015 0.99991748327548691 0.99991456378582733 0.99994643723904164 0.99991608204879479 0.99994466254237191 0.99991661347881788 0.99993355640385018 0.99994378614343504 0.9999334332787877 0.99996044257983674 0.99987090167074877 0.99991866522881168 0.99989632389788474 0.99991666177698157 0.99989609601998897 0.99993536760834645 0.99987091682315998 0.99989876991135229 0.99984241788328521 0.99987310112587524 0.99984249879639886 0.99980740495256404 0.99984567864136098 0.99976682761618385 0.99980745934911741 0.99971762777865503 0.99976711017308428 0.99981084198409342 0.99999912292206716 0.9999993866232616 0.99999879060875352 0.99999921091484401 0.99999880992628642 0.99999806474858999 0.99999912096265886 0.99999934813786184 0.99999970648979852 0.9999993564951738 0.99999964204629388 0.99999964704648037 0.99999936861414984 0.9999988108130925 0.99999933895731741 0.99999934333084928 0.999999317651455 0.99999967316200733 0.9999987934811293 0.9999993530765634 0.99999912210225816 0.99999881320106643 0.99999920989512969 0.99999806369702537 0.99999931998147418 0.99999911925088636 0.9999997100828415 0.99999933199763469 0.99999964838397737 0.9999996460979701 0.99999900537961084 0.99999807005226515 0.99999701031886845 0.99999824992403452 0.99999599053517785 0.99999699697717914 0.99999439009444113 0.9999960076333082 0.99999715146335466 0.9999944000258687 0.99999628283682018 0.99999227464828133 0.9999989988779493 0.99999700443337158 0.99999807164532184 0.99999699042108281 0.999998251860308 0.99999599246417292 0.99999435257443015 0.99999741105603768 0.99999431713478026 0.99999713318979566 0.99999439558315151 0.99999600886022644 0.99999440586546107 0.99999628381496541 0.99999227711087635 0.99999457725026042 0.99999453742337829 0.99998961004291109 0.99998943732856627 0.99999274221415946 0.99998590281273003 0.99999473595999666 0.99998942851250838 0.99999230911003012 0.99999061487423324 0.99998125288204875 0.99998101894527103 0.99998129012693682 0.99998656806667796 0.99997540889803527 0.99998982532430303 0.99998126970834922 0.99998592177886658 0.99998187638821012 0.99997542791776584 0.99996912039316943 0.99995892412382148 0.99997631585516311 0.99996923592399978 0.99998168917304775 0.99998143013202512 0.99996952969236796 0.99994386006281455 0.99995904083274545 0.99997092783267094 0.99994400107635539 0.99997095290057625 0.99995898008346573 0.9999693445288671 0.99997626707420584 0.99995887051362919 0.99998205437381005 0.99996921933920557 0.99997538377990314 0.99998990814086519 0.99998133572897174 0.99998590441101143 0.99998136386895808 0.99997539118680356 0.99998654654986008 0.99998946729280858 0.99998588892937379 0.9999927296558091 0.99999474721257997 0.99998945544329854 0.99999229800428879 0.93024795313699682 0.82423135945495662 0.87970556714999082 0.92468696312512988 0.87973943087879392 0.96289470926842646 0.76015053667437837 0.82731576869202683 0.68522667033454698 0.76033460384101237 0.82399660437243982 0.88351170868862261 0.53003682746102132 0.68519809878841154 0.62042680254891058 0.76147725709724345 0.68500121090210997 0.62056213679676597 0.52945627068071144 0.61853606556597907 0.43351246505480318 0.61865985613638363 0.5295001428161461 0.43339062336251793 0.75995227545034627 0.62160145981085757 0.75998314505134978 0.62067565080569265 0.68487279142704149 0.76133874741540519 0.62046919638822484 0.68510490558719261 0.52999428057379316 0.68511884599738659 0.82713904549085482 0.75981503448467691 0.82381585142511737 0.76002045532812668 0.88404939588041653 0.75864235289838999 0.75877483183137073 0.88917769690036719 0.92447969498233518 0.88008701073174156 0.96300968375644247 0.82403373961257886 0.93005109244846518 0.88002411773262124 0.88285687430024729 0.9599912213862215 0.95937767812381669 0.97851937441984183 0.95697448740290147 0.99244535093184438 0.92438762518349726 0.98404885726341085 0.9571397625447301 0.95610274338537704 0.99789504963889508 0.95546649223835611 0.97817679152930515 1.0009431785984229 0.98912676676177924 0.99729602338527368 0.98930199939996299 1.002893891968698 0.99201952436107188 0.97844755837270758 0.95734169722858542 0.92433385922966249 0.98396487622586759 0.9575360608803376 0.98927763681903202 0.99728274239769887 1.0027978523175789 0.98911590486746559 0.97815265583281241 1.0009213905400318 1.0000105914792572 0.99997440640993407 1.0000105838563969 0.99996434762207775 1.0001492645671073 0.99994469067066505 0.99701473534600216 1.0009153686576806 0.99970389187158515 0.99998800228958817 1.0001213842924195 0.9994059273985656 0.99997353010325962 1.000047016983594 0.99998131015228486 1.0000743605804592 0.99951384416454103 1.0000960188745607 1.0000078572190347 0.99997937262233327 1.0000078718932954 0.99996370524585065 1.0001356988754604 0.99995142959349415 0.99941007012587157 1.000166991339998 0.99998342881789459 0.99701613199360173 0.99970445289962795 1.0009117388992101 0.10038514863240133 0.16225216859069388 0.12995361813081363 0.10040645431729675 0.12727881995417223 0.077390520752467717 0.16537598711153578 0.25500908157101104 0.20873584670870773 0.16542623752087815 0.20570264275070518 0.12990324001346781 0.37841703630132062 0.25891752587176986 0.31273993528827576 0.25875251148540834 0.30935199063097762 0.20870932923300403 0.38213273050442625 0.31261808939981472 0.43177535879634515 0.52677565188259035 0.38253143284141783 0.43388265950317029 0.31357673187738233 0.42813779999863644 0.31505471583515127 0.3112615587535954 0.31261538265251482 0.20688003003889682 0.31403151328484719 0.25904852557110963 0.37863049842226876 0.31058409048011115 0.25876914103272242 0.20858640730840594 0.52684776316834936 0.43370652235065615 0.38262035174342413 0.43174559716142613 0.31399721584684187 0.38229866332083956 0.25502954621078727 0.16540214465456132 0.20860500942547724 0.16545167167312536 0.20576248664398422 0.12961499438479018 0.20125732993057541 0.13086845023932939 0.13084919040025572 0.16227419313979488 0.12967224989807521 0.10042366934318522 0.12715124060736099 0.10034171060364575 0.077416387260690098 0.12896517324546283 0.12895588278224618 0.075937476444367144 0.058189269215383518 0.07581658314648837 0.04380517970191844 0.097984937077798692 0.058104845558956043 0.077448340664494561 0.073352185149868881 0.044517884097426859 0.044468846182505919 0.042751035108195459 0.032362695285218443 0.024650095070604606 0.056583321202555839 0.043845354970070999 0.032336117349830017 0.043652779444626609 0.043611082678296283 0.023920589821853938 0.098045582086431007 0.077430147408816263 0.058151953201038033 0.075707678557211958 0.043909154523873048 0.058236815490422908 0.043946811816898676 0.056631338433475412 0.032361565437031836 0.04276307247493407 0.032412814122451422 0.024594982503754061 0.0090554101481352504 0.013804018625799015 0.0093055075497816778 0.016874803163954569 0.0088980597599824657 0.014091725262723294 0.0314204327238123 0.017311351562804094 0.024574168090553943 0.017419668488069553 0.014214265771605374 0.02402694289667184 0.014365852581285168 0.023244370593440821 0.014022090070763675 0.014188365066231515 0.0091184030088287786 0.013875224378355566 0.0137394825550851 0.0089033540396170601 0.016820561648194097 0.009321781257845059 0.013510860305728824 0.009048211794412982 0.024032891252055263 0.013829328295053518 0.017377794468969626 0.031374800343590664 0.024621252586343224 0.017275048083034115 0.99999999999921418 1.0000000000000218 0.99999999999947708 0.99999999999921485 0.99999999999924849 0.99999999999924338 0.99999999999921774 0.99999999999935663 0.99999999999951683 0.99999999999918143 0.99999999999961608 1.0000000000007672 0.99999999999921574 0.99999999999966738 1.0000000000000231 1.0000000000004416 1.0000000000007743 1.0000000000009543 0.99999999999891698 1.0000000000004494 1.00000000000078 1.0000000000003446 1.0000000000013425 0.99999999999960576 1.0000000000013594 1.0000000000018265 0.99999999999951406 1.0000000000064497 1.0000000000039608 1.0000000000038793 1.0000000000078701 1.0000000000035427 1.0000000000077152 1.0000000000028817 1.000000000003481 0.99999999999420586 0.99999999999545508 1.0000000000034754 0.99999999999376532 1.0000000000024196 0.99999999999576272 0.99999999999555933 1.0000000000090017 0.9999999999982635 0.9999999999929905 1.0000000000193074 0.99999999999287148 0.99999999996056677 1.0000000000089444 0.99999999999258182 1.0000000000104345 0.99999999998383138 1.0000000000225338 0.99999999996439137 1.0000000000426377 0.99999999997940492 0.99999999981629895 1.000000000116934 0.99999999955019425 0.99999999981752319 1.0000000000504428 0.99999999997401556 0.99999999982236099 1.0000000001177198 0.99999999983724674 0.9999999995422425 1.000000000174079 0.99999999867129552 0.99999999709435472 1.0000000001152156 0.99999999959407126 0.99999999865757638 0.99999999962484409 0.99999999722712274 0.99999999337822865 0.99999999907702863 0.99999999348538171 0.99999998697753323 0.99999999665832462 0.9999999873019122 0.99999997406726371 0.9999999965034343 0.99999998732725592 0.99999997403448637 0.99999999346998392 0.99999998700465409 0.99999999908599013 0.99999999967205588 0.99999999336932521 0.99999999723484423 0.99999999960268138 1.0000000000855596 0.99999999864136868 1.0000000001576723 0.99999999866030265 0.99999999709982501 0.99999986137407126 0.99999981882643019 0.9999999179349679 0.99999963413679849 0.99999963206725251 0.99999985027227989 0.99999964424386545 0.99999988144397478 0.99999982773737417 0.99999963886216348 0.99999979615769641 0.99999983055925179 0.99999964128681529 0.99999979964492336 0.99999988489513214 0.99999963022471372 0.9999996347669966 0.99999981309597308 0.99999979471535549 0.99999986226481452 0.99999992029677309 0.99999979034222797 0.99999981984365338 0.99999993305084267 0.99999986195789348 0.99999991132217969 0.99999996755632015 0.99999999235400716 0.99999995384648788 0.99999997428114018 0.99999991185224513 0.99999995501787009 0.9999999827839734 0.99999991179994019 0.99999998316292182 0.99999995508752026 0.99999999238844761 0.99999997424275477 0.99999995386750229 0.99999986208514891 0.9999999112537471 0.99999996763750687 
</DataArray>
</PointData>
</Piece>
</UnstructuredGrid>
</VTKFile>
