<?xml version="1.0"?>
<VTKFile type="UnstructuredGrid" version="0.1" byte_order="LittleEndian">
<UnstructuredGrid>
<Piece NumberOfPoints="594" NumberOfCells="198">
<Points>
<DataArray type="Float64" NumberOfComponents="3" format="ascii">
9.6666666666666661 0 -4.6666666666666661 9.4901933183181697 0.51982786357785593 -4.4901933183181688 9.7758804637971792 0.34775096525134458 -4.7758804637971783 9.3333333333333321 0 -4.3333333333333313 9.4901933183181697 0.51982786357785593 -4.4901933183181688 9.6666666666666661 0 -4.6666666666666661 10 0 -5 9.6666666666666661 0 -4.6666666666666661 9.7758804637971792 0.34775096525134458 -4.7758804637971783 10 0 -5 9.7758804637971792 0.34775096525134458 -4.7758804637971783 10 0.50000000000205913 -5 10 0.50000000000205913 -5 9.7758804637971792 0.34775096525134458 -4.7758804637971783 9.7872434934932606 0.6855265980269214 -4.7872434934932597 9.4901933183181697 0.51982786357785593 -4.4901933183181688 9.7872434934932606 0.6855265980269214 -4.7872434934932597 9.7758804637971792 0.34775096525134458 -4.7758804637971783 9.6666666666664156 1 -4.6666666666664156 9.7872434934932606 0.6855265980269214 -4.7872434934932597 9.4901933183181697 0.51982786357785593 -4.4901933183181688 9.3333333333328294 1 -4.3333333333328294 9.6666666666664156 1 -4.6666666666664156 9.4901933183181697 0.51982786357785593 -4.4901933183181688 10 0.50000000000205913 -5 9.7872434934932606 0.6855265980269214 -4.7872434934932597 10 1 -5 10 1 -5 9.7872434934932606 0.6855265980269214 -4.7872434934932597 9.6666666666664156 1 -4.6666666666664156 8.999999999999245 1 -3.999999999999245 9.3333333333328294 1 -4.3333333333328294 9.166666666666039 0.75595238095243689 -4.1666666666660381 9.3333333333328294 1 -4.3333333333328294 9.4901933183181697 0.51982786357785593 -4.4901933183181688 9.166666666666039 0.75595238095243689 -4.1666666666660381 8.999999999999245 1 -3.999999999999245 9.166666666666039 0.75595238095243689 -4.1666666666660381 8.8333333333330302 0.52513227513218741 -3.8333333333330288 8.6666666666656589 1 -3.6666666666656589 8.999999999999245 1 -3.999999999999245 8.8333333333330302 0.52513227513218741 -3.8333333333330288 9.4901933183181697 0.51982786357785593 -4.4901933183181688 9.1653591091089677 0.37901055817719992 -4.1653591091089686 9.166666666666039 0.75595238095243689 -4.1666666666660381 9.3333333333333321 0 -4.3333333333333313 8.9999999999999964 0 -3.9999999999999969 9.1653591091089677 0.37901055817719992 -4.1653591091089686 9.3333333333333321 0 -4.3333333333333313 9.1653591091089677 0.37901055817719992 -4.1653591091089686 9.4901933183181697 0.51982786357785593 -4.4901933183181688 8.8333333333330302 0.52513227513218741 -3.8333333333330288 9.166666666666039 0.75595238095243689 -4.1666666666660381 9.1653591091089677 0.37901055817719992 -4.1653591091089686 8.6666666666666625 0 -3.666666666666663 8.8333333333330302 0.52513227513218741 -3.8333333333330288 8.9999999999999964 0 -3.9999999999999969 8.9999999999999964 0 -3.9999999999999969 8.8333333333330302 0.52513227513218741 -3.8333333333330288 9.1653591091089677 0.37901055817719992 -4.1653591091089686 8.4999999999998455 0.37301587301576589 -3.4999999999998459 8.4999999999992628 0.70507054673714353 -3.4999999999992641 8.8333333333330302 0.52513227513218741 -3.8333333333330288 8.6666666666666625 0 -3.666666666666663 8.4999999999998455 0.37301587301576589 -3.4999999999998459 8.8333333333330302 0.52513227513218741 -3.8333333333330288 8.6666666666666625 0 -3.666666666666663 8.3333333333333286 0 -3.3333333333333282 8.4999999999998455 0.37301587301576589 -3.4999999999998459 8.4999999999998455 0.37301587301576589 -3.4999999999998459 8.1677083333328273 0.51603966288628356 -3.167708333332826 8.4999999999992628 0.70507054673714353 -3.4999999999992641 8.3333333333333286 0 -3.3333333333333282 8.1677083333328273 0.51603966288628356 -3.167708333332826 8.4999999999998455 0.37301587301576589 -3.4999999999998459 7.9999999999999929 0 -2.9999999999999929 8.1677083333328273 0.51603966288628356 -3.167708333332826 8.3333333333333286 0 -3.3333333333333282 7.666666666666659 0 -2.666666666666659 7.5441798941785558 0.50932853577008119 -2.5441798941785572 7.8458333333325694 0.36721576227400882 -2.8458333333325689 7.666666666666659 0 -2.666666666666659 7.333333333333325 0 -2.333333333333325 7.5441798941785558 0.50932853577008119 -2.5441798941785572 7.9999999999999929 0 -2.9999999999999929 7.8458333333325694 0.36721576227400882 -2.8458333333325689 8.1677083333328273 0.51603966288628356 -3.167708333332826 7.9999999999999929 0 -2.9999999999999929 7.666666666666659 0 -2.666666666666659 7.8458333333325694 0.36721576227400882 -2.8458333333325689 7.8458333333325694 0.36721576227400882 -2.8458333333325689 7.8333333333316926 0.74717377261014672 -2.833333333331693 8.1677083333328273 0.51603966288628356 -3.167708333332826 7.8458333333325694 0.36721576227400882 -2.8458333333325689 7.5441798941785558 0.50932853577008119 -2.5441798941785572 7.8333333333316926 0.74717377261014672 -2.833333333331693 7.6666666666649013 1 -2.6666666666649008 7.8333333333316926 0.74717377261014672 -2.833333333331693 7.5441798941785558 0.50932853577008119 -2.5441798941785572 7.6666666666649013 1 -2.6666666666649008 7.5441798941785558 0.50932853577008119 -2.5441798941785572 7.3333333333313142 1 -2.3333333333313142 7.9999999999984883 1 -2.9999999999984879 8.1677083333328273 0.51603966288628356 -3.167708333332826 7.8333333333316926 0.74717377261014672 -2.833333333331693 7.9999999999984883 1 -2.9999999999984879 7.8333333333316926 0.74717377261014672 -2.833333333331693 7.6666666666649013 1 -2.6666666666649008 8.3333333333320745 1 -3.333333333332074 8.1677083333328273 0.51603966288628356 -3.167708333332826 7.9999999999984883 1 -2.9999999999984879 8.3333333333320745 1 -3.333333333332074 8.4999999999992628 0.70507054673714353 -3.4999999999992641 8.1677083333328273 0.51603966288628356 -3.167708333332826 8.6666666666656589 1 -3.6666666666656589 8.4999999999992628 0.70507054673714353 -3.4999999999992641 8.3333333333320745 1 -3.333333333332074 8.6666666666656589 1 -3.6666666666656589 8.8333333333330302 0.52513227513218741 -3.8333333333330288 8.4999999999992628 0.70507054673714353 -3.4999999999992641 5.3333333333333313 0 -0.33333333333333132 5.2132227891161653 0.31207482993217439 -0.21322278911616621 5.4583333333329049 0.50000000000003608 -0.45833333333290671 5.6666666666666634 0 -0.66666666666666341 5.3333333333333313 0 -0.33333333333333132 5.4583333333329049 0.50000000000003608 -0.45833333333290671 5 0 0 5.2132227891161653 0.31207482993217439 -0.21322278911616621 5.3333333333333313 0 -0.33333333333333132 5 0.49999999999869399 0 5.2132227891161653 0.31207482993217439 -0.21322278911616621 5 0 0 5.4583333333329049 0.50000000000003608 -0.45833333333290671 5.2132227891161653 0.31207482993217439 -0.21322278911616621 5.2291666666662087 0.66666666666678287 -0.22916666666621041 5 0.49999999999869399 0 5.2291666666662087 0.66666666666678287 -0.22916666666621041 5.2132227891161653 0.31207482993217439 -0.21322278911616621 5.3333333333331892 1 -0.33333333333318949 5.4583333333329049 0.50000000000003608 -0.45833333333290671 5.2291666666662087 0.66666666666678287 -0.22916666666621041 5.3333333333331892 1 -0.33333333333318949 5.6666666666663614 1 -0.66666666666636076 5.4583333333329049 0.50000000000003608 -0.45833333333290671 5 1 0 5.3333333333331892 1 -0.33333333333318949 5.2291666666662087 0.66666666666678287 -0.22916666666621041 5 1 0 5.2291666666662087 0.66666666666678287 -0.22916666666621041 5 0.49999999999869399 0 5.6666666666663614 1 -0.66666666666636076 5.8611111111106604 0.49288233812051968 -0.86111111111066041 5.4583333333329049 0.50000000000003608 -0.45833333333290671 5.6666666666663614 1 -0.66666666666636076 5.9999999999992077 1 -0.99999999999920808 5.8611111111106604 0.49288233812051968 -0.86111111111066041 5.9999999999992077 1 -0.99999999999920808 6.1666666666657663 0.6269841269844294 -1.1666666666657679 5.8611111111106604 0.49288233812051968 -0.86111111111066041 6.3333333333320549 1 -1.3333333333320549 6.1666666666657663 0.6269841269844294 -1.1666666666657679 5.9999999999992077 1 -0.99999999999920808 5.6666666666666634 0 -0.66666666666666341 5.4583333333329049 0.50000000000003608 -0.45833333333290671 5.8611111111106604 0.49288233812051968 -0.86111111111066041 5.9999999999999956 0 -0.99999999999999556 5.6666666666666634 0 -0.66666666666666341 5.8611111111106604 0.49288233812051968 -0.86111111111066041 6.1666666666657663 0.6269841269844294 -1.1666666666657679 6.1666666666662664 0.29828042328064291 -1.166666666666266 5.8611111111106604 0.49288233812051968 -0.86111111111066041 5.9999999999999956 0 -0.99999999999999556 5.8611111111106604 0.49288233812051968 -0.86111111111066041 6.1666666666662664 0.29828042328064291 -1.166666666666266 5.9999999999999956 0 -0.99999999999999556 6.1666666666662664 0.29828042328064291 -1.166666666666266 6.3333333333333277 0 -1.3333333333333279 6.1666666666657663 0.6269841269844294 -1.1666666666657679 6.4999999999989599 0.47938712522071519 -1.4999999999989611 6.1666666666662664 0.29828042328064291 -1.166666666666266 6.666666666666659 0 -1.666666666666659 6.3333333333333277 0 -1.3333333333333279 6.4999999999989599 0.47938712522071519 -1.4999999999989611 6.3333333333333277 0 -1.3333333333333279 6.1666666666662664 0.29828042328064291 -1.166666666666266 6.4999999999989599 0.47938712522071519 -1.4999999999989611 6.4999999999989599 0.47938712522071519 -1.4999999999989611 6.8296296296280934 0.62204375577420579 -1.8296296296280941 6.8333333333333259 0.24404761904793049 -1.8333333333333259 6.666666666666659 0 -1.666666666666659 6.8333333333333259 0.24404761904793049 -1.8333333333333259 6.9999999999999911 0 -1.9999999999999909 6.666666666666659 0 -1.666666666666659 6.4999999999989599 0.47938712522071519 -1.4999999999989611 6.8333333333333259 0.24404761904793049 -1.8333333333333259 6.9999999999999911 0 -1.9999999999999909 6.8333333333333259 0.24404761904793049 -1.8333333333333259 7.1388888888874096 0.48356009070323391 -2.13888888888
[...]
<PointData Scalars="A_conc," Vectors="" Tensors="">
<DataArray type="Float64" Name="A_conc" format="ascii">
0.99999971452739156 0.99999978848950499 0.99999965861824547 0.99999984165513955 0.99999978297908243 0.99999971505539997 0.99999952524079772 0.99999972458847974 0.99999966140248187 0.99999952189525299 0.99999966883991442 0.99999951682176347 0.99999952051510332 0.99999966085459202 0.99999965344645891 0.9999997982165677 0.99999965030417381 0.99999965715828998 0.99999971518619257 0.99999965249137934 0.99999978817731761 0.9999998420415771 0.99999971551924116 0.99999978231975784 0.99999951596565118 0.99999966109929783 0.99999952232748013 0.99999952562568795 0.99999965471515395 0.99999972555908057 0.99999991121510601 0.99999983406821524 0.99999987432434478 0.99999983453728103 0.99999978202736062 0.99999987949384139 0.99999990635508285 0.99999987419183611 0.99999993197446257 0.99999995188472257 0.99999990616157064 0.99999992919152003 0.99999978547893353 0.99999987669062862 0.99999987595367867 0.99999983389069025 0.99999991113400222 0.99999987399163914 0.99999983418860061 0.99999987973836357 0.99999978260504785 0.99999993781249585 0.99999987231613852 0.99999987296745951 0.99999995180512724 0.99999992930860204 0.99999990605604216 0.99999990626480439 0.99999993251054031 0.99999987386857259 0.99999996327988727 0.99999996313769191 0.99999993044350444 0.99999994873350884 0.99999996447376938 0.99999992927241466 0.99999994854198948 0.99999997476558689 0.99999996211166231 0.99999996174506678 0.99999998342686247 0.99999996161964544 0.99999997290875786 0.99999998137285973 0.99999996206850272 0.99999998737012696 0.99999998019151215 0.9999999728204263 0.9999999933451299 0.99999999510009863 0.99999998995141237 0.99999999327553646 0.99999999733386391 0.99999999478911616 0.99999998626824183 0.99999999068028167 0.99999998017984293 0.99999998618567032 0.99999999398951545 0.99999998993339545 0.99999999030021225 0.99999999064326028 0.99999998058367723 0.9999999898199422 0.99999999563794717 0.99999999010161 0.99999999328519784 0.99999999026936082 0.99999999506865711 0.99999999323995836 0.9999999948134497 0.9999999972968453 0.99999998625765707 0.99999998017462122 0.99999999109731774 0.99999998613531837 0.99999999030345577 0.99999999389858929 0.9999999728202803 0.99999998018722236 0.99999998736316364 0.9999999729007587 0.99999996217508202 0.99999998127749323 0.99999994855258367 0.99999996222536724 0.99999997475038704 0.99999994880578347 0.99999992917312519 0.99999996450297468 0.99999999999073919 0.99999999999598888 0.99999999998828037 0.99999999997383426 0.99999999999326106 0.99999999998883249 0.9999999999968785 0.99999999999453026 0.99999999999054623 0.9999999999982937 0.99999999999472244 0.99999999999574296 0.99999999998759448 0.99999999999661748 0.99999999999313449 0.99999999999781197 0.99999999999269085 0.99999999999606004 0.99999999998603895 0.99999999998597522 0.99999999999315814 0.99999999998789091 0.99999999996808686 0.99999999998634748 0.99999999999103273 0.99999999998458777 0.99999999999332645 0.99999999999010381 0.99999999999331202 0.99999999999580935 0.99999999996835542 0.99999999994946254 0.99999999999291411 0.99999999997546252 0.99999999991525323 0.99999999994803968 0.99999999991660971 0.9999999998649568 0.99999999995629685 0.99999999977667098 0.99999999986580868 0.99999999993476008 0.99999999997729161 0.99999999999417188 0.99999999994620192 0.99999999992796329 0.99999999998824596 0.99999999994849176 0.999999999862625 0.99999999986834209 0.99999999997267786 0.99999999992749788 0.9999999999569803 0.99999999987253896 0.99999999994706323 0.99999999987496258 0.99999999978913834 0.99999999988063715 0.99999999965483433 0.99999999988569011 0.99999999944695506 0.99999999983640109 0.99999999964330333 0.99999999979461063 0.99999999990079902 0.99999999964234143 0.99999999978033882 0.99999999909857729 0.99999999910038406 0.99999999953338503 0.9999999991322045 0.99999999864016087 0.99999999944587292 0.99999999968759867 0.99999999912801885 0.99999999865282863 0.99999999922863636 0.99999999802085759 0.99999999691105457 0.99999999881945156 0.99999999804319917 0.99999999807778683 0.99999999916281324 0.99999999916634585 0.99999999695327635 0.99999999841719978 0.99999999484755009 0.99999999692385377 0.99999999486236868 0.99999999841108 0.99999999688457109 0.99999999805269191 0.99999999879565271 0.99999999862924605 0.99999999802772299 0.99999999921886418 0.99999999943100659 0.99999999910799731 0.99999999968697184 0.99999999951634366 0.99999999862566014 0.99999999911415216 0.99999999981519594 0.99999999942707085 0.99999999963761177 0.99999999977463749 0.99999999963562136 0.99999999990536492 1.0000221759985093 0.99410459291017161 0.99728572621782297 0.99908737862591213 0.99723514106374289 1.0002277205260151 0.99615662506205171 0.97847716501795623 0.9883570512127432 0.99418701041629864 0.98822206757690489 0.99835526485323056 0.98142189925965295 0.94329494729606544 0.96630977779358518 0.97850773888348819 0.96592129964068885 0.99051144574468764 0.94355959199760908 0.90603602951468298 0.97151286782487833 0.97153854031572617 0.90638376427197376 0.94340360158667513 0.96718469693023279 0.98940270510915895 0.98910276687700882 0.96617447172251014 0.97839036028103488 0.9906125870386101 0.94314738829590961 0.98129320354925198 0.96658485417967732 0.97839446797389762 0.99611430214815888 0.98834114948689733 0.99414361812631391 0.99854125464217292 0.98820571297368742 0.98799342658163758 1.0005911108969165 0.98771977172693237 0.99906453499161618 1.000252900124071 0.99730728312026218 0.99406754021904542 0.99999193495560879 0.99737425948854086 1.0000229497324975 0.99993851529622324 0.9975255530768109 0.99995754863638131 1.0000775077903927 0.99967000844924903 1.0002361709535399 0.99969795475176892 0.998993793230877 0.99968572513806753 1.0002655103413949 0.99962262055156137 1.0000550564686816 0.99999304394979571 0.99993648450772987 1.0000073253074917 1.0000172397858167 0.99999331832100657 0.9999557747596689 0.99967625701143437 1.0000589894266387 1.0002317697309122 0.99899038021626729 0.99970864470289156 1.0000083443276944 0.99998970711330137 1.0000165669958814 1.0000567531091178 0.99993690333655427 0.99998851563227542 0.9999999991353391 1.000000006510523 0.9999999991370917 0.99999989019908664 1.000000659669448 0.99999975419975473 1.000004423187862 0.99999898145490906 1.0000025505931935 1.0000007344221111 0.99999975023062126 0.99999980820450374 0.9999999920653333 1.0000000239114468 1.0000000161693257 1.000000113304222 1.0000000513354734 1.0000000587251714 0.99999999967012165 1.0000000034064875 0.99999999967120445 0.99999990371565706 0.99999978617094365 1.0000005781222765 1.000000658459733 0.9999998536839263 0.99999982506806095 1.0000041031890556 1.0000024444577236 0.99999916536284905 0.67628521842109368 0.55150810874978251 0.61420902793784193 0.4893213117968927 0.61380629136101605 0.55135218523898877 0.79136205158694295 0.67601769202459427 0.73410960923265944 0.73524397652129792 0.67585674540292839 0.61432210369055218 0.88384108397386052 0.78935811354558127 0.83451105613152132 0.78935258388969198 0.73419154529954911 0.83686737567000036 0.88053990958263595 0.83471484719485967 0.9077392376092831 0.94752377863032933 0.88024299873740453 0.9053726300159195 0.83364337976448544 0.83512790869321574 0.91145943352146708 0.8353595682888294 0.73554901483892954 0.83692232340054262 0.78923409732420535 0.88362235253933163 0.83607280061802591 0.73432263783290275 0.7893224691258599 0.83846565399016049 0.94736333422717189 0.90572757802867199 0.88008372063572626 0.90792134699355498 0.83623491278466189 0.88034019774093308 0.79133418762778784 0.73423646624239036 0.67598165513508923 0.7353116115314049 0.61442605795241645 0.67583605927564039 0.73648379905811179 0.61391753553622519 0.61401530222263156 0.67627493255079929 0.61429091428398463 0.55147048487566341 0.48938416961396108 0.55132604833990517 0.61386398491817795 0.48923323038122857 0.61388146955474399 0.61377638207522811 0.48809750535008206 0.37191781599052354 0.42849072135712846 0.55026593263339274 0.48932684786541103 0.4285924878193319 0.48564630761631861 0.37234643588488636 0.37254025668508894 0.27261619954453825 0.31767314057055779 0.36973159000816652 0.31775966683797768 0.42644395006391589 0.37184418978400408 0.2713734656946698 0.37109401830707373 0.37090140417291356 0.42864460500689527 0.48925569242856665 0.55029727296075981 0.48793361386973405 0.42853998469742777 0.37193199808924282 0.3178363514057298 0.37186616964704433 0.42649185088642827 0.3177775863421986 0.27247109072383302 0.36965839293989572 0.15349950590184369 0.15440757519603041 0.19784140695246485 0.22328399478309136 0.15282049806734224 0.19922378502503527 0.22528144713544757 0.27236529919398489 0.31531513186580939 0.22550771716529897 0.19977181865770416 0.27073915728804288 0.2681148645162218 0.20020743389849596 0.19730570879553219 0.19944955589851732 0.15364520395189196 0.19667714521261956 0.22306829558735949 0.19629077018611199 0.15281230931945189 0.154504698621901 0.15344660762277859 0.19515325379683732 0.27076244137398126 0.19670586044806307 0.22535781973852279 0.31520826419769921 0.27251284858644703 0.22517009826455758 0.99999999999960953 1.0000000000000702 0.99999999999953093 0.99999999999968914 0.99999999999935285 0.99999999999931499 0.99999999999973943 0.99999999999942812 0.99999999999923828 0.99999999999967082 0.99999999999927247 1.0000000000006588 0.99999999999958256 0.99999999999953082 1.0000000000000695 1.000000000000671 1.0000000000001541 1.0000000000003804 1.0000000000006701 0.99999999999914735 1.0000000000001543 0.99999999999982792 1.0000000000005125 1.0000000000001643 0.99999999999672073 0.99999999999685218 0.99999999999616762 0.99999999999950806 0.99999999999987721 0.99999999999969469 0.9999999999997099 0.99999999999989286 0.99999999999974032 1.0000000000018037 1.0000000000012841 1.0000000000018079 0.99999999999503597 1.000000000001285 1.0000000000018041 0.99999999999996414 1.0000000000024851 1.0000000000009961 1.0000000000014349 1.0000000000019151 0.99999999999990086 0.9999999999998852 0.99999999999965605 1.0000000000014184 0.99999999999500322 1.0000000000022666 0.99999999999858302 0.99999999999674571 0.99999999999673062 0.99999999998946609 0.99999999999163447 0.99999999999166989 0.99999999999891143 0.99999999999885469 0.99999999999890365 0.99999999999166111 1.000000000001277 1.0000000000000309 1.0000000000007467 0.99999999999933731 0.99999999999752609 1.0000000000019893 0.99999999999729472 0.99999999999715505 1.0000000000001332 0.99999999999729439 1.0000000000001343 1.0000000000007634 1.000000000000028 1.0000000000001612 0.99999999999718225 0.9999999999946767 1.0000000000013269 0.9999999999965834 1.0000000000003226 0.99999999999379163 1.0000000000003624 0.9999999999993312 0.99999999999932376 0.99999999999389266 0.99999999999310107 0.99999999999930778 0.99999999999392331 0.99999999999901479 0.99999999999363565 1.0000000000008187 0.99999999999768141 0.99999999999224898 0.99999999999431244 0.99999999998617628 0.99999999999945111 0.99999999999435318 0.99999999999614519 0.99999999999540112 0.99999999999455702 0.9999999999913487 0.99999999999170652 0.99999999999488332 0.99999999999103428 0.99999999999944 0.99999999999314881 0.99999999999465927 1.0000000000033371 0.99999999999465994 0.99999999999470923 0.99999999999942168 0.99999999999615419 0.99999999999814559 0.99999999999832956 0.9999999999955328 1.0000000000025118 0.99999999999592037 0.99999999999937339 0.99999999999529177 1.0000000000000144 1.0000000000017788 0.99999999999597922 1.0000000000023106 0.99999999999628064 0.99999999999378331 0.99999999999383105 1.0000000000003386 1.0000000000023292 1.0000000000006555 0.99999999999618128 0.999999999995139 0.99999999999389733 0.99999999999828026 0.99999999999552691 0.99999999999944045 0.9999999999917295 0.99999999999455447 0.99999999999484601 0.99999999999610012 
</DataArray>
</PointData>
</Piece>
</UnstructuredGrid>
</VTKFile>
