<?xml version="1.0"?>
<VTKFile type="UnstructuredGrid" version="0.1" byte_order="LittleEndian">
<UnstructuredGrid>
<Piece NumberOfPoints="594" NumberOfCells="198">
<Points>
<DataArray type="Float64" NumberOfComponents="3" format="ascii">
0 0 0 0.49999999999959471 0 0 0.32810846560805917 0.35132716049402418 0 0 0 0 0.32810846560805917 0.35132716049402418 0 0 0.50000000000205913 0 0 0.50000000000205913 0 0.32810846560805917 0.35132716049402418 0 0.30605158730175991 0.69050925925940754 0 0.71726190476123464 0.50694444444431941 0 0.30605158730175991 0.69050925925940754 0 0.32810846560805917 0.35132716049402418 0 0.71726190476123464 0.50694444444431941 0 0.32810846560805917 0.35132716049402418 0 0.49999999999959471 0 0 0.49999999999959471 0 0 0.99999999999841338 0 0 0.71726190476123464 0.50694444444431941 0 1.4999999999969551 0 0 1.2499999999981819 0.4791666666661778 0 0.99999999999841338 0 0 0.71726190476123464 0.50694444444431941 0 0.99999999999841338 0 0 1.2499999999981819 0.4791666666661778 0 0.99999999999999112 1 0 0.49999999999999561 1 0 0.71726190476123464 0.50694444444431941 0 0.99999999999999112 1 0 1.2499999999981819 0.4791666666661778 0 1.499999999999992 1 0 0.71726190476123464 0.50694444444431941 0 1.2499999999981819 0.4791666666661778 0 0.99999999999999112 1 0 0.71726190476123464 0.50694444444431941 0 0.49999999999999561 1 0 0.30605158730175991 0.69050925925940754 0 0 1 0 0 0.50000000000205913 0 0.30605158730175991 0.69050925925940754 0 0 1 0 0.30605158730175991 0.69050925925940754 0 0.49999999999999561 1 0 2.4999999999999951 1 0 1.999999999999994 1 0 2.265689300409039 0.50244341563808892 0 1.754629629626973 0.49768518518496552 0 2.265689300409039 0.50244341563808892 0 1.999999999999994 1 0 1.754629629626973 0.49768518518496552 0 1.499999999999992 1 0 1.2499999999981819 0.4791666666661778 0 1.999999999999994 1 0 1.499999999999992 1 0 1.754629629626973 0.49768518518496552 0 1.754629629626973 0.49768518518496552 0 1.2499999999981819 0.4791666666661778 0 1.4999999999969551 0 0 1.4999999999969551 0 0 1.9999999999955129 0 0 1.754629629626973 0.49768518518496552 0 1.754629629626973 0.49768518518496552 0 1.9999999999955129 0 0 2.265689300409039 0.50244341563808892 0 1.9999999999955129 0 0 2.4999999999962048 0 0 2.265689300409039 0.50244341563808892 0 2.4999999999962048 0 0 2.999999999996966 0 0 2.7615740740724162 0.52430555555546632 0 3.249999999999996 0.50000000000056777 0 2.7615740740724162 0.52430555555546632 0 2.999999999996966 0 0 2.4999999999962048 0 0 2.7615740740724162 0.52430555555546632 0 2.265689300409039 0.50244341563808892 0 2.4999999999999951 1 0 2.7615740740724162 0.52430555555546632 0 2.999999999999996 1 0 2.4999999999999951 1 0 2.265689300409039 0.50244341563808892 0 2.7615740740724162 0.52430555555546632 0 3.249999999999996 0.50000000000056777 0 2.999999999999996 1 0 2.7615740740724162 0.52430555555546632 0 2.999999999999996 1 0 3.249999999999996 0.50000000000056777 0 3.4999999999999969 1 0 3.249999999999996 0.50000000000056777 0 3.7536375661371162 0.52050264550273706 0 3.4999999999999969 1 0 3.249999999999996 0.50000000000056777 0 3.499999999997728 0 0 3.7536375661371162 0.52050264550273706 0 3.499999999997728 0 0 3.249999999999996 0.50000000000056777 0 2.999999999996966 0 0 3.499999999997728 0 0 3.9999999999984892 0 0 3.7536375661371162 0.52050264550273706 0 4.2827380952378373 0.49702380952385222 0 3.7536375661371162 0.52050264550273706 0 3.9999999999984892 0 0 4.499999999999245 0 0 4.2827380952378373 0.49702380952385222 0 3.9999999999984892 0 0 4.2827380952378373 0.49702380952385222 0 4.499999999999245 0 0 4.6939484126980782 0.31001984126959431 0 5 0.49999999999869399 0 4.6939484126980782 0.31001984126959431 0 5 0 0 5 0 0 4.6939484126980782 0.31001984126959431 0 4.499999999999245 0 0 4.6250000000002496 0.62499999999992328 0 4.6939484126980782 0.31001984126959431 0 5 0.49999999999869399 0 4.6250000000002496 0.62499999999992328 0 4.2827380952378373 0.49702380952385222 0 4.6939484126980782 0.31001984126959431 0 4.2827380952378373 0.49702380952385222 0 4.6250000000002496 0.62499999999992328 0 4.4999999999999991 1 0 5 1 0 4.6250000000002496 0.62499999999992328 0 5 0.49999999999869399 0 5 1 0 4.4999999999999991 1 0 4.6250000000002496 0.62499999999992328 0 4.4999999999999991 1 0 3.9999999999999978 1 0 4.2827380952378373 0.49702380952385222 0 3.4999999999999969 1 0 3.7536375661371162 0.52050264550273706 0 3.9999999999999978 1 0 4.2827380952378373 0.49702380952385222 0 3.9999999999999978 1 0 3.7536375661371162 0.52050264550273706 0 5.9999999999999956 1 0.99999999999999556 6.1666666666666661 0.75595238095205264 1.1666666666666661 5.8611111111106986 0.512282690854023 0.86111111111069949 5.9999999999992077 1 -0.99999999999920808 6.1666666666657663 0.6269841269844294 -1.1666666666657679 5.8611111111106604 0.49288233812051968 -0.86111111111066041 6.3333333333320549 1 -1.3333333333320549 6.1666666666657663 0.6269841269844294 -1.1666666666657679 5.9999999999992077 1 -0.99999999999920808 5.9999999999999956 1 0.99999999999999556 6.3333333333333277 1 1.3333333333333279 6.1666666666666661 0.75595238095205264 1.1666666666666661 5.6666666666663614 1 -0.66666666666636076 5.8611111111106604 0.49288233812051968 -0.86111111111066041 5.4583333333329049 0.50000000000003608 -0.45833333333290671 5.6666666666666634 1 0.66666666666666341 5.9999999999999956 1 0.99999999999999556 5.8611111111106986 0.512282690854023 0.86111111111069949 5.6666666666663614 1 -0.66666666666636076 5.9999999999992077 1 -0.99999999999920808 5.8611111111106604 0.49288233812051968 -0.86111111111066041 5.6666666666666634 1 0.66666666666666341 5.8611111111106986 0.512282690854023 0.86111111111069949 5.4583333333329058 0.49999999999996392 0.45833333333290671 5 1 0 5.3333333333333313 1 0.33333333333333132 5.2291666666662238 0.66666666666682306 0.22916666666622379 5 1 0 5.2291666666662238 0.66666666666682306 0.22916666666622379 5 0.49999999999869399 0 5 1 0 5.2291666666662087 0.66666666666678287 -0.22916666666621041 5 0.49999999999869399 0 5 1 0 5.3333333333331892 1 -0.33333333333318949 5.2291666666662087 0.66666666666678287 -0.22916666666621041 5.3333333333331892 1 -0.33333333333318949 5.6666666666663614 1 -0.66666666666636076 5.4583333333329049 0.50000000000003608 -0.45833333333290671 5.3333333333331892 1 -0.33333333333318949 5.4583333333329049 0.50000000000003608 -0.45833333333290671 5.2291666666662087 0.66666666666678287 -0.22916666666621041 5.6666666666666634 1 0.66666666666666341 5.4583333333329058 0.49999999999996392 0.45833333333290671 5.3333333333333313 1 0.33333333333333132 5.3333333333333313 1 0.33333333333333132 5.4583333333329058 0.49999999999996392 0.45833333333290671 5.2291666666662238 0.66666666666682306 0.22916666666622379 5.4583333333329049 0.50000000000003608 -0.45833333333290671 5.2132227891161653 0.31207482993217439 -0.21322278911616621 5.2291666666662087 0.66666666666678287 -0.22916666666621041 5 0.49999999999869399 0 5.2291666666662087 0.66666666666678287 -0.22916666666621041 5.2132227891161653 0.31207482993217439 -0.21322278911616621 5.4583333333329058 0.49999999999996392 0.45833333333290671 5.2132227891161733 0.31207482993225188 0.21322278911617421 5.2291666666662238 0.66666666666682306 0.22916666666622379 5 0.49999999999869399 0 5.2291666666662238 0.66666666666682306 0.22916666666622379 5.2132227891161733 0.31207482993225188 0.21322278911617421 5 0 0 5.2132227891161733 0.31207482993225188 0.21322278911617421 5.3333333333331892 0 0.33333333333318949 5 0.49999999999869399 0 5.2132227891161733 0.31207482993225188 0.21322278911617421 5 0 0 5 0 0 5.2132227891161653 0.31207482993217439 -0.21322278911616621 5.3333333333333313 0 -0.33333333333333132 5 0.49999999999869399 0 5.2132227891161653 0.31207482993217439 -0.21322278911616621 5 0 0 5.6666666666666634 0 -0.66666666666666341 5.3333333333333313 0 -0.33333333333333132 5.4583333333329049 0.50000000000003608 -0.45833333333290671 5.3333333333331892 0 0.33333333333318949 5.2132227891161733 0.31207482993225188 0.21322278911617421 5.4583333333329058 0.49999999999996392 0.45833333333290671 5.6666666666663614 0 0.66666666666636076 5.3333333333331892 0 0.33333333333318949 5.4583333333329058 0.49999999999996392 0.45833333333290671 5.3333333333333313 0 -0.33333333333333132 5.2132227891161653 0.31207482993217439 -0.21322278911616621 5.4583333333329049 0.50000000000003608 -0.45833333333290671 5.6666666666663614 0 0.66666666666636076 5.8611111111106986 0.512282690854023 0.86111111111069949 5.9999999999992077 0 0.99999999999920808 5.9999999999999956 0 -0.99999999999999556 5.6666666666666634 0 -0.66666666666666341 5.8611111111106604 0.49288233812051968 -0.86111111111066041 5.6666666666666634 0 -0.66666666666666341 5.4583333333329049 0.50000000000003608 -0.45833333333290671 5.8611111111106604 0.49288233812051968 -0.86111111111066041 5.6666666666663614 0 0.66666666666636076 5.4583333333329058 0.49999999999996392 0.45833333333290671 5.8611111111106986 0.512282690854023 0.86111111111069949 6.166666666665769 0.37301587301557287 1.166666666665769 5.8611111111106986 0.512282690854023 0.86111111111069949 6.1666666666666661 0.75595238095205264 1.1666666666666661 6.1666666666657663 0.6269841269844294 -1.1666666666657679 6.1666666666662664 0.29828042328064291 -1.166666666666266 5.8611111111106604 0.49288233812051968 -0.86111111111066041 5.9999999999992077 0 0.99999999999920808 5.8611111111106986 0.512282690854023 0.86111111111069949 6.166666666665769 0.37301587301557287 1.166666666665769 5.9999999999999956 0 -0.99999999999999556 6.1666666666662664 0.29828042328064291 -1.166666666666266 6.3333333333333277 0 -1.3333333333333279 5.9999999999999956 0 -0.99999999999999556 5.8611111111106604 0.49288233812051968 -0.86111111111066041 6.1666666666662664 0.29828042328064291 -1.166666666666266 5.9999999999992077 0 0.99999999999920808 6.166666666665769 0.37301587301557287 1.166666666665769 6.3333333333320549 0 1.3333333333320549 6.3333333333333277 0 -1.3333333333333279 6.1666666666662664 0.29828042328064291 -1.16666666
[...]
<PointData Scalars="A_conc," Vectors="" Tensors="">
<DataArray type="Float64" Name="A_conc" format="ascii">
0.99999999999593747 1.0000000000170599 0.99999999999080069 0.99999999999837663 0.99999999999723788 1.000000000003141 0.99999999999972189 0.99999999999837919 0.99999999999910405 1.0000000000013525 1.0000000000017462 1.0000000000011182 0.99999999999074773 0.99999999999471867 1.0000000000222713 1.0000000000947677 1.000000000096597 0.99999999997168754 0.99999999798691586 0.99999999953475549 1.0000000013889843 1.0000000003270215 1.0000000002009608 0.99999999947634444 1.0000000000913274 1.0000000000922959 0.99999999997480848 1.000000001362441 0.99999999961170283 0.99999999800121508 1.0000000003519742 0.99999999953475094 1.0000000001910436 0.99999999999392053 1.0000000000217832 1.0000000000227938 1.0000000000017977 0.99999999999906963 0.99999999999756017 1.000000000013056 0.99999999999968581 1.0000000000260718 0.99999984519568952 1.0000000037425321 0.99999992689460593 1.0000000057655436 0.99999992624246958 0.99999997621559766 0.99999999044835741 0.99999999854486743 1.000000002647766 0.99999997396073115 1.0000000057064751 0.99999999090477476 0.99999999035056841 1.0000000027110552 0.99999999854397026 1.00000000572034 0.99999997389758521 0.99999999081157986 1.0000000058445757 0.99999997613950808 0.99999992616175881 1.0000000036600447 0.99999984495993333 0.99999992685551109 0.99999992831150808 0.99999937429227803 0.99999966265468287 0.99999884405381101 0.99999977079387148 0.99999938458803617 0.99999985114226631 0.99999966061995449 0.99999997281314013 0.99999992844974306 0.99999966232762361 0.99999937445054377 0.99999985124754309 0.99999997073069891 0.99999966036199961 0.99999884392633887 0.99999938525137122 0.99999977617137659 0.99999956178885285 0.999998852825145 0.99999802229018198 0.99999910437795203 0.99999666047903046 0.99999804033679585 0.99999911601632219 0.99999803962203204 0.99999666198085768 0.99999802113188119 0.99999885312202719 0.99999956107249788 0.99999840091692394 0.99999473144717466 0.99999667464652775 0.99999134615703322 0.99999720827267868 0.9999947886613697 0.99998767165250568 0.99999131242632722 0.99999548329024746 0.99999176968514025 0.99998767538553313 0.99998329862187485 0.99997369685872406 0.99998407209312346 0.99997383684978869 0.99997411587392393 0.99998350667256286 0.9999886890987506 0.99998538420942507 0.99998334423410695 0.99997406603876915 0.99998491250213861 0.99999239342232482 0.9999830890594551 0.99999165356815989 0.99998487318562845 0.99998763257439638 0.9999738158953595 0.99998622586220698 0.99997375364995433 0.99997425613720403 0.99998853542144173 0.99998526641578189 0.99998767709953296 0.99999548747504219 0.99999130861894425 0.99999840174345622 0.99999667290995742 0.99999473240406345 0.99999134317424987 0.99999479248749801 0.99999723179202638 0.8967060425190253 0.83637444698200414 0.94102933085751794 0.99983283521320232 0.9997830985246241 0.99986971680966696 0.9997222499795102 0.99978324844036637 0.99983870516627982 0.90287498242715658 0.76042183999548496 0.8360500015479575 0.9999045316583739 0.99986651182156261 0.99993981364063234 0.98232118678738656 0.89652711982022526 0.93623454452298405 0.99990902531230708 0.99983249933589236 0.99986613909885802 0.97412627010103803 0.93698177654240744 1.0037032848682794 1.0017697768458591 0.99756451186741602 0.99905514879015112 1.0001735892583208 0.99923790675464441 1.0001734413741601 0.99997435781627886 0.99995813319646132 0.9999742905140272 0.99997656633029586 0.99994813366784863 0.99995768935262042 0.99995085311435405 0.99990445022227936 0.99993456687901849 0.99994821590053362 0.99993400313065972 0.99995877529400645 0.97393275573266946 0.99373478762769218 1.0022002729253063 0.99769620966723016 0.99247880459596405 1.000425978937298 0.99993456879245091 0.99995972190319482 0.99995829259522662 0.99997529793082085 0.99995758673627499 0.99995887466165245 0.99318440564816268 1.0002088570774865 0.99989863206523044 1.0007239404518624 0.99907107978883747 0.9992445236224291 1.0016310533398713 0.99929591419493247 0.9975490153244726 1.0001321943021799 0.99936087157274955 1.0001324799771993 0.99997643641706524 0.99995905589806044 0.99994819387288592 0.9999741538580309 0.99995936939014174 0.99997430357633044 0.99990448507158114 0.99995088574384761 0.99993447757203202 0.99770620292651113 1.0008853368316404 0.99245942239753304 0.97396858073304238 1.0022212816579883 0.99369507844975657 0.99994824477078115 0.99996032588757899 0.99993392155316985 0.98239829484635532 0.93610867845809997 0.89657987352362822 0.99983254944484812 0.99990907300483156 0.99986600075780052 0.99990457452117731 0.99993963996397339 0.999866383385283 0.97419127721222076 1.0039249288336571 0.93687841317333642 0.83398817566464822 0.94906246219992874 0.83360083527568829 0.99978216069439063 0.99978144934187563 0.9998755083857781 0.89678875456863827 0.94149684257642985 0.83576319131364007 0.99983873542170365 0.99978339224934765 0.99972230400119866 0.99983286910862401 0.99986931782868749 0.99978323636178579 0.90293098444181419 0.83547853016526707 0.76050230848273226 0.99972283349655489 0.99978987062802771 0.99964705189473901 0.99955887275662259 0.99973075871849082 0.99964716870791392 0.58883468145807427 0.76190526708049122 0.67676552663481349 0.76017850706131196 0.83936643612532191 0.67716215612512276 0.41797674113096656 0.58622479663859628 0.50303517569633205 0.99955908128394844 0.99965386579101634 0.99945172052987497 0.99956937362455722 0.99945194362748979 0.99932430796027294 0.58852010030717106 0.67645522009522685 0.50339441164093024 0.9996669663550749 0.99945190573906662 0.99944750034992536 0.5033186620176322 0.67481453924427592 0.5039553323844691 0.83688437985176323 0.836628998756901 0.67929336842539334 0.99978663553430214 0.99965063842055391 0.99978586874081121 0.99973051501938925 0.99955860863328305 0.99964769079506421 0.99972260711703043 0.99964753829186181 0.99979007698537126 0.7603122064030261 0.67708842280584769 0.83941270370066889 0.76200292505766243 0.58887795743732485 0.67676642801643128 0.58623476991643908 0.41786432482488572 0.50336142982346099 0.58853721713314755 0.50371813467197546 0.67655750040493334 0.99955875744760236 0.99945347422203945 0.99965526303907293 0.99956897858054783 0.9993240264671025 0.99945382981781405 0.41781123266388914 0.35448503711370483 0.50020581229771022 0.99932381067116605 0.99919874378022433 0.99946410709823219 0.41360618213060651 0.27394313815989507 0.35394721422142145 0.99899891193025636 0.9992003905875948 0.9993361377840515 0.27368482456821547 0.20239320820692386 0.34685873897879654 0.99900002601488314 0.99873403889855705 0.9992213273143008 0.99900084057985017 0.999220895666459 0.99873221574401683 0.34680726017787922 0.20192008056740382 0.27389599985813901 0.99920343972079551 0.99945375036175155 0.99945847997949 0.3527431976535359 0.50135777282682625 0.50205612581409309 0.27415362934341059 0.41378058913076493 0.3535653910855211 0.99932450487812785 0.999460575734329 0.99919731646069376 0.35413841927355955 0.41796364600105557 0.49975897111718032 0.99899970054941611 0.99933687503731605 0.99919887526639062 0.99855689942953074 0.99901874926155587 0.99872940113360964 0.26881934686677555 0.20280458469525753 0.16874073008821627 0.99855886668699101 0.99874163122497117 0.99826191281277421 0.20013359411123383 0.12694520231972492 0.16844475965404218 0.12765829786444421 0.128268944330833 0.1959052275422658 0.99825673796777281 0.99876136053888276 0.99827996147455222 0.12557590075242123 0.071280989994727095 0.12610294337285832 0.99826970270190207 0.99829449432054373 0.99762553024172496 0.99797527248895812 0.99857921040866215 0.99826112679536005 0.9979764293569291 0.99828051132890228 0.99761465529311311 0.097535719090525774 0.16453703948294801 0.12716128436157026 0.072773157350259382 0.097381773394723564 0.12424597182496769 0.071030692140687871 0.038905076865168552 0.053556278581309173 0.094649987351977785 0.0728508039926275 0.053471778911869286 0.99800015637705353 0.99761472153347308 0.99722299371097811 0.99722348417666407 0.99763645507079346 0.99676880455415562 0.051797830286370306 0.038982027803651467 0.028131880532385297 0.020329079512705132 0.028112609690807845 0.037776803630949166 0.99626798533806449 0.99725122378187603 0.99676905515328174 0.99626914378314935 0.99679829935460595 0.99569594771078362 0.019595530500980084 0.03871512920292642 0.038754214805090774 0.99678205601901926 0.99678049501187838 0.99571091214356411 0.99676238302686848 0.99767074111613374 0.99676087466194252 0.068364699040608268 0.039708413608776048 0.039668713156910305 0.99722364769481719 0.99677065599235659 0.99763504589205043 0.99722319283715322 0.9976147867717291 0.99800033356948015 0.094609198613464479 0.053426159594242746 0.072999670116389956 0.071056973229915998 0.053522466632626935 0.039097198841440972 0.99627022211702099 0.99569477130881834 0.99679872804807557 0.99626821418215483 0.99677095310899821 0.99725136357564315 0.020334853059473766 0.037868268474096287 0.028134104864566564 0.051770493013833421 0.028092570442701508 0.039159603691219819 0.99797660695833923 0.99761471987193251 0.99830680155105966 0.99797454613834691 0.99828634491295443 0.99857703822358801 0.097337760663080294 0.07292927311357765 0.12376152287210329 0.16426465865171544 0.097374113784334873 0.12663198678003404 0.16819281101320721 0.12637004599240692 0.20039060866398833 0.99855729006645821 0.99828600787619726 0.99874148671459495 0.26860798353303589 0.16852974946047367 0.20327551130042945 0.99855599575634957 0.99873132251977603 0.99901788615239739 0.98970901888122842 0.99114444272879232 0.98973218558742015 0.98974484706271493 0.99112157319933658 0.99189041746371664 0.001529165232560662 0.0015974552693941084 0.0025120679551141416 0.0031686112450515867 0.0014892145093840729 0.0025817012350865731 0.99184901732705755 0.99111302892272901 0.99283865719337949 0.99365971733946035 0.99185196944073606 0.99281006351458689 0.0032738577655993138 0.0050155444182582538 0.0066636299804139444 0.0033080111298824451 0.0026127099088262247 0.0048594996050093028 0.99507950745455387 0.99438177102427294 0.99572047013614007 0.014184096642906775 0.020362074816007093 0.027103250661874412 0.99630235771044107 0.99507904015944215 0.99569487833854264 0.019670630843215985 0.014236238237694555 0.010075124500983041 0.99361933334004193 0.99280842266503588 0.99441382081267293 0.006960576535604019 0.0050209339384191618 0.0097117761607025191 0.99511601047709597 0.99361766633314397 0.99438209999871008 0.0069356005959438994 0.010095869629777668 0.013661119659267114 0.99283071854967209 0.9943983206215532 0.99438961062342646 0.0047905833416256949 0.010012360134374877 0.010009692112492015 0.99576891953482993 0.99436562619655755 0.99437397775224123 0.018763590400783375 0.010298491874402087 0.010302585438570643 0.99507829105361989 0.99572513868256152 0.99438264216277017 0.027083447555976175 0.020353999632779493 0.014172404738331007 0.01969814747988672 0.010027549729578814 0.014222594143028552 0.99630125402167669 0.99569610593697999 0.99507786358761163 0.0050346153360130725 0.0069467288898093426 0.00970035955756853 0.99361696505013586 0.99441947749817372 0.99281200128313618 0.0069320988146808361 0.01364679777395443 0.010051211602601274 0.99361640811755381 0.99511473339170375 0.99438308498127004 0.99184585521430813 0.99284062789315364 0.99118340498394752 0.0066514009063269432 0.0050265370917956242 0.0032650019336256417 0.99365729167790517 0.99281375698487395 0.99184943895983135 0.0048590088694868833 0.0025271068312804454 0.0032979525653773645 0.99288423809796833 0.99110264013250304 0.99117622594060006 0.0046438022600924968 0.0026562484039151062 0.0025805579500077164 0.98972640840924109 0.99119048631137097 0.9911148121056903 0.0026111361635838435 0.0015488440111220512 0.0025434281534484622 0.0031555914030532823 0.0025047510160012185 0.0014918491465996978 0.98974351445069342 0.99188616056460654 0.99119406025947321 0.001600482548971744 0.0015282534913014705 0.0024501150902606966 0.98973063179750975 0.99122113255707467 0.98971206450576565 
</DataArray>
</PointData>
</Piece>
</UnstructuredGrid>
</VTKFile>
