<?xml version="1.0"?>
<VTKFile type="UnstructuredGrid" version="0.1" byte_order="LittleEndian">
<UnstructuredGrid>
<Piece NumberOfPoints="594" NumberOfCells="198">
<Points>
<DataArray type="Float64" NumberOfComponents="3" format="ascii">
0 0 0 0.49999999999959471 0 0 0.32810846560805917 0.35132716049402418 0 0 0 0 0.32810846560805917 0.35132716049402418 0 0 0.50000000000205913 0 0 0.50000000000205913 0 0.32810846560805917 0.35132716049402418 0 0.30605158730175991 0.69050925925940754 0 0.71726190476123464 0.50694444444431941 0 0.30605158730175991 0.69050925925940754 0 0.32810846560805917 0.35132716049402418 0 0.71726190476123464 0.50694444444431941 0 0.32810846560805917 0.35132716049402418 0 0.49999999999959471 0 0 0.49999999999959471 0 0 0.99999999999841338 0 0 0.71726190476123464 0.50694444444431941 0 1.4999999999969551 0 0 1.2499999999981819 0.4791666666661778 0 0.99999999999841338 0 0 0.71726190476123464 0.50694444444431941 0 0.99999999999841338 0 0 1.2499999999981819 0.4791666666661778 0 0.99999999999999112 1 0 0.49999999999999561 1 0 0.71726190476123464 0.50694444444431941 0 0.99999999999999112 1 0 1.2499999999981819 0.4791666666661778 0 1.499999999999992 1 0 0.71726190476123464 0.50694444444431941 0 1.2499999999981819 0.4791666666661778 0 0.99999999999999112 1 0 0.71726190476123464 0.50694444444431941 0 0.49999999999999561 1 0 0.30605158730175991 0.69050925925940754 0 0 1 0 0 0.50000000000205913 0 0.30605158730175991 0.69050925925940754 0 0 1 0 0.30605158730175991 0.69050925925940754 0 0.49999999999999561 1 0 2.4999999999999951 1 0 1.999999999999994 1 0 2.265689300409039 0.50244341563808892 0 1.754629629626973 0.49768518518496552 0 2.265689300409039 0.50244341563808892 0 1.999999999999994 1 0 1.754629629626973 0.49768518518496552 0 1.499999999999992 1 0 1.2499999999981819 0.4791666666661778 0 1.999999999999994 1 0 1.499999999999992 1 0 1.754629629626973 0.49768518518496552 0 1.754629629626973 0.49768518518496552 0 1.2499999999981819 0.4791666666661778 0 1.4999999999969551 0 0 1.4999999999969551 0 0 1.9999999999955129 0 0 1.754629629626973 0.49768518518496552 0 1.754629629626973 0.49768518518496552 0 1.9999999999955129 0 0 2.265689300409039 0.50244341563808892 0 1.9999999999955129 0 0 2.4999999999962048 0 0 2.265689300409039 0.50244341563808892 0 2.4999999999962048 0 0 2.999999999996966 0 0 2.7615740740724162 0.52430555555546632 0 3.249999999999996 0.50000000000056777 0 2.7615740740724162 0.52430555555546632 0 2.999999999996966 0 0 2.4999999999962048 0 0 2.7615740740724162 0.52430555555546632 0 2.265689300409039 0.50244341563808892 0 2.4999999999999951 1 0 2.7615740740724162 0.52430555555546632 0 2.999999999999996 1 0 2.4999999999999951 1 0 2.265689300409039 0.50244341563808892 0 2.7615740740724162 0.52430555555546632 0 3.249999999999996 0.50000000000056777 0 2.999999999999996 1 0 2.7615740740724162 0.52430555555546632 0 2.999999999999996 1 0 3.249999999999996 0.50000000000056777 0 3.4999999999999969 1 0 3.249999999999996 0.50000000000056777 0 3.7536375661371162 0.52050264550273706 0 3.4999999999999969 1 0 3.249999999999996 0.50000000000056777 0 3.499999999997728 0 0 3.7536375661371162 0.52050264550273706 0 3.499999999997728 0 0 3.249999999999996 0.50000000000056777 0 2.999999999996966 0 0 3.499999999997728 0 0 3.9999999999984892 0 0 3.7536375661371162 0.52050264550273706 0 4.2827380952378373 0.49702380952385222 0 3.7536375661371162 0.52050264550273706 0 3.9999999999984892 0 0 4.499999999999245 0 0 4.2827380952378373 0.49702380952385222 0 3.9999999999984892 0 0 4.2827380952378373 0.49702380952385222 0 4.499999999999245 0 0 4.6939484126980782 0.31001984126959431 0 5 0.49999999999869399 0 4.6939484126980782 0.31001984126959431 0 5 0 0 5 0 0 4.6939484126980782 0.31001984126959431 0 4.499999999999245 0 0 4.6250000000002496 0.62499999999992328 0 4.6939484126980782 0.31001984126959431 0 5 0.49999999999869399 0 4.6250000000002496 0.62499999999992328 0 4.2827380952378373 0.49702380952385222 0 4.6939484126980782 0.31001984126959431 0 4.2827380952378373 0.49702380952385222 0 4.6250000000002496 0.62499999999992328 0 4.4999999999999991 1 0 5 1 0 4.6250000000002496 0.62499999999992328 0 5 0.49999999999869399 0 5 1 0 4.4999999999999991 1 0 4.6250000000002496 0.62499999999992328 0 4.4999999999999991 1 0 3.9999999999999978 1 0 4.2827380952378373 0.49702380952385222 0 3.4999999999999969 1 0 3.7536375661371162 0.52050264550273706 0 3.9999999999999978 1 0 4.2827380952378373 0.49702380952385222 0 3.9999999999999978 1 0 3.7536375661371162 0.52050264550273706 0 5.9999999999999956 1 0.99999999999999556 6.1666666666666661 0.75595238095205264 1.1666666666666661 5.8611111111106986 0.512282690854023 0.86111111111069949 5.9999999999992077 1 -0.99999999999920808 6.1666666666657663 0.6269841269844294 -1.1666666666657679 5.8611111111106604 0.49288233812051968 -0.86111111111066041 6.3333333333320549 1 -1.3333333333320549 6.1666666666657663 0.6269841269844294 -1.1666666666657679 5.9999999999992077 1 -0.99999999999920808 5.9999999999999956 1 0.99999999999999556 6.3333333333333277 1 1.3333333333333279 6.1666666666666661 0.75595238095205264 1.1666666666666661 5.6666666666663614 1 -0.66666666666636076 5.8611111111106604 0.49288233812051968 -0.86111111111066041 5.4583333333329049 0.50000000000003608 -0.45833333333290671 5.6666666666666634 1 0.66666666666666341 5.9999999999999956 1 0.99999999999999556 5.8611111111106986 0.512282690854023 0.86111111111069949 5.6666666666663614 1 -0.66666666666636076 5.9999999999992077 1 -0.99999999999920808 5.8611111111106604 0.49288233812051968 -0.86111111111066041 5.6666666666666634 1 0.66666666666666341 5.8611111111106986 0.512282690854023 0.86111111111069949 5.4583333333329058 0.49999999999996392 0.45833333333290671 5 1 0 5.3333333333333313 1 0.33333333333333132 5.2291666666662238 0.66666666666682306 0.22916666666622379 5 1 0 5.2291666666662238 0.66666666666682306 0.22916666666622379 5 0.49999999999869399 0 5 1 0 5.2291666666662087 0.66666666666678287 -0.22916666666621041 5 0.49999999999869399 0 5 1 0 5.3333333333331892 1 -0.33333333333318949 5.2291666666662087 0.66666666666678287 -0.22916666666621041 5.3333333333331892 1 -0.33333333333318949 5.6666666666663614 1 -0.66666666666636076 5.4583333333329049 0.50000000000003608 -0.45833333333290671 5.3333333333331892 1 -0.33333333333318949 5.4583333333329049 0.50000000000003608 -0.45833333333290671 5.2291666666662087 0.66666666666678287 -0.22916666666621041 5.6666666666666634 1 0.66666666666666341 5.4583333333329058 0.49999999999996392 0.45833333333290671 5.3333333333333313 1 0.33333333333333132 5.3333333333333313 1 0.33333333333333132 5.4583333333329058 0.49999999999996392 0.45833333333290671 5.2291666666662238 0.66666666666682306 0.22916666666622379 5.4583333333329049 0.50000000000003608 -0.45833333333290671 5.2132227891161653 0.31207482993217439 -0.21322278911616621 5.2291666666662087 0.66666666666678287 -0.22916666666621041 5 0.49999999999869399 0 5.2291666666662087 0.66666666666678287 -0.22916666666621041 5.2132227891161653 0.31207482993217439 -0.21322278911616621 5.4583333333329058 0.49999999999996392 0.45833333333290671 5.2132227891161733 0.31207482993225188 0.21322278911617421 5.2291666666662238 0.66666666666682306 0.22916666666622379 5 0.49999999999869399 0 5.2291666666662238 0.66666666666682306 0.22916666666622379 5.2132227891161733 0.31207482993225188 0.21322278911617421 5 0 0 5.2132227891161733 0.31207482993225188 0.21322278911617421 5.3333333333331892 0 0.33333333333318949 5 0.49999999999869399 0 5.2132227891161733 0.31207482993225188 0.21322278911617421 5 0 0 5 0 0 5.2132227891161653 0.31207482993217439 -0.21322278911616621 5.3333333333333313 0 -0.33333333333333132 5 0.49999999999869399 0 5.2132227891161653 0.31207482993217439 -0.21322278911616621 5 0 0 5.6666666666666634 0 -0.66666666666666341 5.3333333333333313 0 -0.33333333333333132 5.4583333333329049 0.50000000000003608 -0.45833333333290671 5.3333333333331892 0 0.33333333333318949 5.2132227891161733 0.31207482993225188 0.21322278911617421 5.4583333333329058 0.49999999999996392 0.45833333333290671 5.6666666666663614 0 0.66666666666636076 5.3333333333331892 0 0.33333333333318949 5.4583333333329058 0.49999999999996392 0.45833333333290671 5.3333333333333313 0 -0.33333333333333132 5.2132227891161653 0.31207482993217439 -0.21322278911616621 5.4583333333329049 0.50000000000003608 -0.45833333333290671 5.6666666666663614 0 0.66666666666636076 5.8611111111106986 0.512282690854023 0.86111111111069949 5.9999999999992077 0 0.99999999999920808 5.9999999999999956 0 -0.99999999999999556 5.6666666666666634 0 -0.66666666666666341 5.8611111111106604 0.49288233812051968 -0.86111111111066041 5.6666666666666634 0 -0.66666666666666341 5.4583333333329049 0.50000000000003608 -0.45833333333290671 5.8611111111106604 0.49288233812051968 -0.86111111111066041 5.6666666666663614 0 0.66666666666636076 5.4583333333329058 0.49999999999996392 0.45833333333290671 5.8611111111106986 0.512282690854023 0.86111111111069949 6.166666666665769 0.37301587301557287 1.166666666665769 5.8611111111106986 0.512282690854023 0.86111111111069949 6.1666666666666661 0.75595238095205264 1.1666666666666661 6.1666666666657663 0.6269841269844294 -1.1666666666657679 6.1666666666662664 0.29828042328064291 -1.166666666666266 5.8611111111106604 0.49288233812051968 -0.86111111111066041 5.9999999999992077 0 0.99999999999920808 5.8611111111106986 0.512282690854023 0.86111111111069949 6.166666666665769 0.37301587301557287 1.166666666665769 5.9999999999999956 0 -0.99999999999999556 6.1666666666662664 0.29828042328064291 -1.166666666666266 6.3333333333333277 0 -1.3333333333333279 5.9999999999999956 0 -0.99999999999999556 5.8611111111106604 0.49288233812051968 -0.86111111111066041 6.1666666666662664 0.29828042328064291 -1.166666666666266 5.9999999999992077 0 0.99999999999920808 6.166666666665769 0.37301587301557287 1.166666666665769 6.3333333333320549 0 1.3333333333320549 6.3333333333333277 0 -1.3333333333333279 6.1666666666662664 0.29828042328064291 -1.16666666
[...]
<PointData Scalars="A_conc," Vectors="" Tensors="">
<DataArray type="Float64" Name="A_conc" format="ascii">
0.99999999999837674 0.99999999999815858 0.99999999999710698 0.99999999999841227 0.99999999999703704 1.0000000000031761 0.99999999999995992 0.99999999999765343 0.99999999999869615 0.99999999999817946 0.999999999998744 0.99999999999770173 0.99999999999760614 0.99999999999727318 0.99999999999783062 0.99999999999925504 0.99999999999930489 0.99999999999903311 0.99999999999915723 0.99999999999885958 0.99999999999922506 1.0000000000014999 0.99999999999922429 0.99999999999885969 0.99999999999893563 0.99999999999916589 0.99999999999872213 1.0000000000007994 0.99999999999669154 1.0000000000006106 0.99999999999703038 0.99999999999656752 1.0000000000008604 0.99999999999872202 0.99999999999916644 1.0000000000236489 1.0000000000018185 0.99999999999909039 0.9999999999974436 1.0000000000152447 1.0000000000052038 1.0000000000092619 0.99999999999872347 0.99999999999888678 0.99999999999544975 0.99999999999540157 0.99999999999544931 0.99999999999888711 0.99999999999729161 1.0000000000010858 0.99999999999716749 0.99999999999893574 0.999999999999025 0.99999999999530353 0.99999999999064992 0.99999999999677247 1.0000000000031402 1.0000000000062157 1.0000000000061169 0.99999999999372513 0.99999999999369193 1.000000000005987 0.99999999999370626 1.0000000000054465 1.0000000000019549 0.9999999999967033 0.99999999999938993 0.99999999999925016 0.99999999999431566 0.99999999999462652 0.99999999999429678 0.99999999999923073 0.99999999999939038 0.9999999999943161 0.99999999999372768 1.0000000000033515 1.0000000000106526 1.0000000000034197 1.0000000000033678 0.9999999999814142 1.0000000000106193 1.0000000000077407 1.0000000000048164 1.000000000009841 1.0000000000026716 1.0000000000055973 1.0000000000026079 1.0000000000056555 1.0000000000056446 1.000000000002665 0.99999999999703548 0.99999999998521449 1.0000000000004057 0.99999999998726119 0.99999999999594247 1.0000000000033229 0.99999999998521394 0.99999999998526212 1.0000000000004527 0.99999999999985723 1.0000000000004572 0.99999999998526568 0.99999999998779787 1.0000000000025862 0.99999999998799449 1.0000000000026235 0.99999999998783573 0.9999999999970165 1.000000000007284 0.99999999999723799 0.99999999998703704 0.99999999998859523 0.99999999999786815 0.99999999998621092 1.0000000000207858 0.99999999999620393 1.0000000000108582 1.000000000020749 1.0000000000036049 0.99999999999622269 1.0000000000165234 1.0000000000145424 0.99999999998526268 0.99999999998694322 1.0000000000161033 1.0000000000208125 0.99999999998527311 0.99999999998518785 1.0000000000144993 0.99999999998916966 0.9999999999924325 1.0000000000145688 1.0000000000036402 1.0000000000066176 1.0000000000036562 1.0000000000094673 0.99999999999643507 1.0000000000157654 1.0000033935285912 0.99999760288113571 1.0000026051460811 0.99999999998579747 1.0000000000079816 1.0000000000160445 0.99999999998548672 1.0000000000079339 0.99999999998575961 1.0000175694859119 0.99998082091735019 0.99999888858796171 0.99999999998586264 1.00000000001607 1.0000000000163902 1.000000950760088 1.0000023498907213 1.0000006842314124 0.99999999998599964 0.99999999998579536 1.0000000000160369 1.000000300559623 1.0000009198179363 0.99999980750665729 0.99999999625656344 1.000000007831306 0.99999999484134339 0.99999999996153432 1.0000000000436846 1.0000000000075551 0.99999999998691669 1.0000000000095397 1.0000000000207871 0.99999999998060707 0.99999999998077682 1.0000000000032281 0.99999999998419364 0.99999999998527611 1.0000000000167042 0.99999999998490752 1.0000000000163456 1.0000000000026923 1.0000002859071948 0.99999990294890384 0.99999997655171857 1.0000000088649887 0.99999999548267149 0.99999999283854502 1.000000000001666 0.99999999998442257 1.0000000000174165 1.000000000017323 1.000000000017464 0.9999999999843282 1.0000000038482719 0.99999999909846471 0.99999999933526884 0.99999999982794552 1.000000000139708 1.0000000000378375 0.99999999673055529 0.99999999541194362 1.0000000069012083 1.0000000000092553 0.99999999999663081 0.99999999997559397 0.99999999998827893 0.99999999996999167 0.99999999998827549 1.0000000000184821 0.99999999996999256 0.99999999998827738 0.9999999999819309 0.99999999998189204 0.9999999999935516 1.000000007447879 0.99999999330678446 0.99999999718412413 1.0000002691046317 0.99999997548006359 0.99999991176890635 0.99999999998189326 0.99999999996913558 0.99999999999354794 1.0000007693713624 1.0000010356329245 1.0000021833735255 0.99999999998373845 0.99999999998380318 0.99999999999733613 0.99999999998380029 0.99999999999402289 0.99999999999732803 1.0000002087093729 0.99999978674298307 1.0000011286315529 1.0000008942979313 1.0000106156188926 0.99999586721978073 1.0000000000159524 0.99999999998088396 1.0000000000026918 1.0000032575177893 1.0000035179966693 0.99999762180998708 0.99999999999004907 0.99999999998481715 0.9999999999897311 0.99999999999008626 0.99999999999341893 0.9999999999846988 1.0000175393072652 0.99999868074414211 0.99998088018411435 0.9999999999860123 0.99999999998304334 0.99999999999020284 0.99999999998609057 0.99999999998642819 0.99999999999056399 0.9996787165382226 1.0000842657679534 0.99990174304057067 0.99998923138346241 1.0000402783873401 0.99989368984247018 0.99795422027568259 1.0000480770525915 0.99914209965048451 0.999999999986106 0.99999999999063593 0.99999999998786049 0.99999999998620548 0.99999999998781086 0.9999999999850212 0.99969869315879456 1.0000560145130757 0.99910938468846333 0.99999999999400702 1.0000000000011582 0.99999999998471378 0.99910576280323604 1.0003679931308793 0.99904504441106623 1.0000256374774978 1.0000173367102179 0.99990762046640658 1.0000000000140834 0.9999999999994742 0.99999999997997591 0.99999999999211531 0.99999999999161937 0.99999999999679112 0.99999999999205413 0.99999999999679079 1.0000000000074176 0.99999139744765997 0.9998847933678412 1.0000378437488973 1.0000880691931828 0.99968286599781497 0.99988930867581305 1.000053904109266 0.99797017682583022 0.99913756350291727 0.99970472333630256 0.99910672412117163 1.0000285721177125 0.99999999998863898 1.0000000000009264 0.99999999999918665 0.99999999998901701 0.99999999998755651 1.0000000000011586 0.99799679804283703 0.99602134985197899 0.99962723954022836 0.99999999998906874 1.0000000000006719 1.0000000000017528 0.99883414059275033 0.991947370535045 0.99615036447076843 0.99999999998703371 1.0000000000016953 0.99999999999039402 0.99215990984225744 0.98320597302085466 0.99809240697731172 0.99999999998714373 0.99999999999510536 1.0000000000025429 0.999999999981251 0.99999999999340627 0.99999999998834976 0.99807801923868533 0.98333336892241863 0.9921007572206515 0.99999999999547406 0.99999999998559386 1.0000000000027665 0.99630386099821566 0.99941141514884901 0.99933585369491684 0.99190802717827653 0.99880247353612783 0.99623383163953261 0.99999999998368971 0.99999999998626599 0.99999999999070777 0.99608990192666846 0.99797194648326282 0.9996545162847017 0.99999999998199474 0.99999999998184241 0.99999999999200917 0.99999999997520461 0.99999999998358213 0.99999999998958045 0.99396802568531428 0.98306575937777974 0.97605849242445952 0.99999999997542866 0.99999999999045375 0.99999999997563804 0.98435409783926908 0.96198773945405525 0.97627514555975214 0.96076133623088711 0.96130053708262464 0.98674649872993769 0.99999999997277222 0.9999999999964011 0.99999999998809186 0.96242273426518998 0.92137375464321891 0.96304364537618958 0.99999999997434375 0.99999999998984668 0.99999999995433042 0.99999999995666844 0.99999999997584099 0.99999999997401334 0.99999999995688427 0.99999999997626354 0.99999999995184863 0.94434193811210421 0.9787670729610114 0.96197968373497444 0.92014392283579682 0.9445806614770299 0.96448563925616115 0.9225115439806475 0.85567686347325389 0.89120224689651639 0.94749231631358877 0.92015957414728133 0.89121329609390754 0.99999999996024169 0.9999999999528475 0.99999999991664346 0.99999999991606736 0.9999999999563951 0.99999999989204547 0.89398661704471571 0.85565679895486557 0.81453076001651659 0.76775501744797825 0.81459469389381234 0.85792654459835826 0.99999999983992083 0.99999999992834254 0.99999999989669186 0.99999999983919852 0.9999999999124326 0.99999999978990561 0.76907236370367493 0.85631679800965355 0.85634966949919078 0.99999999991925903 0.99999999988842481 0.99999999978752141 0.99999999991231936 0.99999999997056932 0.99999999988151644 0.92636298510168336 0.8546626723143097 0.85461661017165447 0.99999999990585386 0.9999999998860174 0.99999999995474498 0.99999999990542709 0.99999999995051303 0.99999999995605027 0.94750682948530496 0.89122659844978913 0.92007196636854394 0.92258548410733432 0.8912174898329942 0.85544852498218493 0.99999999981356491 0.99999999978403475 0.99999999990054744 0.99999999980689447 0.99999999989387822 0.99999999990876132 0.7677828380522087 0.85783360176854817 0.81452946629050005 0.89399956046048557 0.81455233260317295 0.85543032069804026 0.99999999994863764 0.99999999995100286 1.0000000000086671 0.99999999995430378 0.99999999998182643 0.99999999999253875 0.94459268909128158 0.92006216004591923 0.96377480378970326 0.978921315502426 0.94443659592214979 0.96131381373946878 0.97639629896123903 0.96138263432366211 0.98431233190162759 0.99999999998346778 0.99999999998247469 0.99999999999981837 0.99403708189964768 0.9761339683886795 0.98291880423613731 0.99999999998353062 0.99999999999875633 0.9999999999805872 0.99999999763406255 0.99999999848804588 0.99999999763450909 0.99999999765847869 0.99999999843683895 0.99999999881814405 0.38524103230096185 0.38564092278792478 0.45559593592047515 0.49252071844486595 0.38487728661456727 0.45643193440756824 0.99999999873925283 0.99999999842175069 0.99999999916795812 0.99999999938701833 0.99999999874066592 0.99999999912842008 0.4936000942110913 0.55366880049238332 0.60710118838593941 0.49358434220462116 0.45674114480880329 0.55328051260564226 0.99999999965309494 0.99999999954019259 0.99999999980341658 0.71758105850442722 0.76774153319561655 0.81658425115688249 0.99999999983474264 0.99999999965173025 0.99999999978897813 0.76911160124620537 0.71746141375208683 0.66393437494989604 0.99999999933830386 0.99999999912668691 0.99999999957493602 0.60733395297472725 0.55372540837118822 0.66416096098211286 0.99999999967952391 0.99999999933129136 0.99999999954313346 0.60744907149994765 0.66386206827713468 0.71841648446645878 0.99999999914313698 0.99999999958363839 0.999999999555507 0.5539745200257673 0.66384048010333008 0.6637641169448607 0.99999999983781507 0.99999999953373087 0.9999999995613077 0.77080141216614007 0.6634646394607665 0.66352541234885165 0.99999999968363795 0.9999999998104917 0.99999999955733088 0.81664478405379981 0.76772488468060474 0.71762668527490048 0.76903215784896173 0.66408389841669468 0.7175067093995432 0.99999999984533117 0.999999999794563 0.99999999968061459 0.55373064788883575 0.60734999338180351 0.66424530809805904 0.99999999936917627 0.99999999959407193 0.99999999912805804 0.60745549061172788 0.71846391970761481 0.66400859170526305 0.99999999936539641 0.9999999997111908 0.99999999955805297 0.99999999876762924 0.99999999916781201 0.99999999846610865 0.60710726909543622 0.55369314138983283 0.49358436339031381 0.99999999941785001 0.9999999991305949 0.99999999877052193 0.55327314813571737 0.45230380929703834 0.49354096414646847 0.99999999923901706 0.99999999841140264 0.99999999846620669 0.55239886094203494 0.45682625338371036 0.45245737707579808 0.99999999766349013 0.9999999984961192 0.99999999843491039 0.45643062175763621 0.38526359965170004 0.45212917548825154 0.49243432335001536 0.45206087044321058 0.38486120284250458 0.99999999768949144 0.99999999884147139 0.99999999848676069 0.38570727603952321 0.38520514233979103 0.45134631745239939 0.99999999766068026 0.99999999854735422 0.99999999764512193 
</DataArray>
</PointData>
</Piece>
</UnstructuredGrid>
</VTKFile>
