<?xml version="1.0"?>
<VTKFile type="UnstructuredGrid" version="0.1" byte_order="LittleEndian">
<UnstructuredGrid>
<Piece NumberOfPoints="594" NumberOfCells="198">
<Points>
<DataArray type="Float64" NumberOfComponents="3" format="ascii">
9.6666666666666661 0 -4.6666666666666661 9.4901933183181697 0.51982786357785593 -4.4901933183181688 9.7758804637971792 0.34775096525134458 -4.7758804637971783 9.3333333333333321 0 -4.3333333333333313 9.4901933183181697 0.51982786357785593 -4.4901933183181688 9.6666666666666661 0 -4.6666666666666661 10 0 -5 9.6666666666666661 0 -4.6666666666666661 9.7758804637971792 0.34775096525134458 -4.7758804637971783 10 0 -5 9.7758804637971792 0.34775096525134458 -4.7758804637971783 10 0.50000000000205913 -5 10 0.50000000000205913 -5 9.7758804637971792 0.34775096525134458 -4.7758804637971783 9.7872434934932606 0.6855265980269214 -4.7872434934932597 9.4901933183181697 0.51982786357785593 -4.4901933183181688 9.7872434934932606 0.6855265980269214 -4.7872434934932597 9.7758804637971792 0.34775096525134458 -4.7758804637971783 9.6666666666664156 1 -4.6666666666664156 9.7872434934932606 0.6855265980269214 -4.7872434934932597 9.4901933183181697 0.51982786357785593 -4.4901933183181688 9.3333333333328294 1 -4.3333333333328294 9.6666666666664156 1 -4.6666666666664156 9.4901933183181697 0.51982786357785593 -4.4901933183181688 10 0.50000000000205913 -5 9.7872434934932606 0.6855265980269214 -4.7872434934932597 10 1 -5 10 1 -5 9.7872434934932606 0.6855265980269214 -4.7872434934932597 9.6666666666664156 1 -4.6666666666664156 8.999999999999245 1 -3.999999999999245 9.3333333333328294 1 -4.3333333333328294 9.166666666666039 0.75595238095243689 -4.1666666666660381 9.3333333333328294 1 -4.3333333333328294 9.4901933183181697 0.51982786357785593 -4.4901933183181688 9.166666666666039 0.75595238095243689 -4.1666666666660381 8.999999999999245 1 -3.999999999999245 9.166666666666039 0.75595238095243689 -4.1666666666660381 8.8333333333330302 0.52513227513218741 -3.8333333333330288 8.6666666666656589 1 -3.6666666666656589 8.999999999999245 1 -3.999999999999245 8.8333333333330302 0.52513227513218741 -3.8333333333330288 9.4901933183181697 0.51982786357785593 -4.4901933183181688 9.1653591091089677 0.37901055817719992 -4.1653591091089686 9.166666666666039 0.75595238095243689 -4.1666666666660381 9.3333333333333321 0 -4.3333333333333313 8.9999999999999964 0 -3.9999999999999969 9.1653591091089677 0.37901055817719992 -4.1653591091089686 9.3333333333333321 0 -4.3333333333333313 9.1653591091089677 0.37901055817719992 -4.1653591091089686 9.4901933183181697 0.51982786357785593 -4.4901933183181688 8.8333333333330302 0.52513227513218741 -3.8333333333330288 9.166666666666039 0.75595238095243689 -4.1666666666660381 9.1653591091089677 0.37901055817719992 -4.1653591091089686 8.6666666666666625 0 -3.666666666666663 8.8333333333330302 0.52513227513218741 -3.8333333333330288 8.9999999999999964 0 -3.9999999999999969 8.9999999999999964 0 -3.9999999999999969 8.8333333333330302 0.52513227513218741 -3.8333333333330288 9.1653591091089677 0.37901055817719992 -4.1653591091089686 8.4999999999998455 0.37301587301576589 -3.4999999999998459 8.4999999999992628 0.70507054673714353 -3.4999999999992641 8.8333333333330302 0.52513227513218741 -3.8333333333330288 8.6666666666666625 0 -3.666666666666663 8.4999999999998455 0.37301587301576589 -3.4999999999998459 8.8333333333330302 0.52513227513218741 -3.8333333333330288 8.6666666666666625 0 -3.666666666666663 8.3333333333333286 0 -3.3333333333333282 8.4999999999998455 0.37301587301576589 -3.4999999999998459 8.4999999999998455 0.37301587301576589 -3.4999999999998459 8.1677083333328273 0.51603966288628356 -3.167708333332826 8.4999999999992628 0.70507054673714353 -3.4999999999992641 8.3333333333333286 0 -3.3333333333333282 8.1677083333328273 0.51603966288628356 -3.167708333332826 8.4999999999998455 0.37301587301576589 -3.4999999999998459 7.9999999999999929 0 -2.9999999999999929 8.1677083333328273 0.51603966288628356 -3.167708333332826 8.3333333333333286 0 -3.3333333333333282 7.666666666666659 0 -2.666666666666659 7.5441798941785558 0.50932853577008119 -2.5441798941785572 7.8458333333325694 0.36721576227400882 -2.8458333333325689 7.666666666666659 0 -2.666666666666659 7.333333333333325 0 -2.333333333333325 7.5441798941785558 0.50932853577008119 -2.5441798941785572 7.9999999999999929 0 -2.9999999999999929 7.8458333333325694 0.36721576227400882 -2.8458333333325689 8.1677083333328273 0.51603966288628356 -3.167708333332826 7.9999999999999929 0 -2.9999999999999929 7.666666666666659 0 -2.666666666666659 7.8458333333325694 0.36721576227400882 -2.8458333333325689 7.8458333333325694 0.36721576227400882 -2.8458333333325689 7.8333333333316926 0.74717377261014672 -2.833333333331693 8.1677083333328273 0.51603966288628356 -3.167708333332826 7.8458333333325694 0.36721576227400882 -2.8458333333325689 7.5441798941785558 0.50932853577008119 -2.5441798941785572 7.8333333333316926 0.74717377261014672 -2.833333333331693 7.6666666666649013 1 -2.6666666666649008 7.8333333333316926 0.74717377261014672 -2.833333333331693 7.5441798941785558 0.50932853577008119 -2.5441798941785572 7.6666666666649013 1 -2.6666666666649008 7.5441798941785558 0.50932853577008119 -2.5441798941785572 7.3333333333313142 1 -2.3333333333313142 7.9999999999984883 1 -2.9999999999984879 8.1677083333328273 0.51603966288628356 -3.167708333332826 7.8333333333316926 0.74717377261014672 -2.833333333331693 7.9999999999984883 1 -2.9999999999984879 7.8333333333316926 0.74717377261014672 -2.833333333331693 7.6666666666649013 1 -2.6666666666649008 8.3333333333320745 1 -3.333333333332074 8.1677083333328273 0.51603966288628356 -3.167708333332826 7.9999999999984883 1 -2.9999999999984879 8.3333333333320745 1 -3.333333333332074 8.4999999999992628 0.70507054673714353 -3.4999999999992641 8.1677083333328273 0.51603966288628356 -3.167708333332826 8.6666666666656589 1 -3.6666666666656589 8.4999999999992628 0.70507054673714353 -3.4999999999992641 8.3333333333320745 1 -3.333333333332074 8.6666666666656589 1 -3.6666666666656589 8.8333333333330302 0.52513227513218741 -3.8333333333330288 8.4999999999992628 0.70507054673714353 -3.4999999999992641 5.3333333333333313 0 -0.33333333333333132 5.2132227891161653 0.31207482993217439 -0.21322278911616621 5.4583333333329049 0.50000000000003608 -0.45833333333290671 5.6666666666666634 0 -0.66666666666666341 5.3333333333333313 0 -0.33333333333333132 5.4583333333329049 0.50000000000003608 -0.45833333333290671 5 0 0 5.2132227891161653 0.31207482993217439 -0.21322278911616621 5.3333333333333313 0 -0.33333333333333132 5 0.49999999999869399 0 5.2132227891161653 0.31207482993217439 -0.21322278911616621 5 0 0 5.4583333333329049 0.50000000000003608 -0.45833333333290671 5.2132227891161653 0.31207482993217439 -0.21322278911616621 5.2291666666662087 0.66666666666678287 -0.22916666666621041 5 0.49999999999869399 0 5.2291666666662087 0.66666666666678287 -0.22916666666621041 5.2132227891161653 0.31207482993217439 -0.21322278911616621 5.3333333333331892 1 -0.33333333333318949 5.4583333333329049 0.50000000000003608 -0.45833333333290671 5.2291666666662087 0.66666666666678287 -0.22916666666621041 5.3333333333331892 1 -0.33333333333318949 5.6666666666663614 1 -0.66666666666636076 5.4583333333329049 0.50000000000003608 -0.45833333333290671 5 1 0 5.3333333333331892 1 -0.33333333333318949 5.2291666666662087 0.66666666666678287 -0.22916666666621041 5 1 0 5.2291666666662087 0.66666666666678287 -0.22916666666621041 5 0.49999999999869399 0 5.6666666666663614 1 -0.66666666666636076 5.8611111111106604 0.49288233812051968 -0.86111111111066041 5.4583333333329049 0.50000000000003608 -0.45833333333290671 5.6666666666663614 1 -0.66666666666636076 5.9999999999992077 1 -0.99999999999920808 5.8611111111106604 0.49288233812051968 -0.86111111111066041 5.9999999999992077 1 -0.99999999999920808 6.1666666666657663 0.6269841269844294 -1.1666666666657679 5.8611111111106604 0.49288233812051968 -0.86111111111066041 6.3333333333320549 1 -1.3333333333320549 6.1666666666657663 0.6269841269844294 -1.1666666666657679 5.9999999999992077 1 -0.99999999999920808 5.6666666666666634 0 -0.66666666666666341 5.4583333333329049 0.50000000000003608 -0.45833333333290671 5.8611111111106604 0.49288233812051968 -0.86111111111066041 5.9999999999999956 0 -0.99999999999999556 5.6666666666666634 0 -0.66666666666666341 5.8611111111106604 0.49288233812051968 -0.86111111111066041 6.1666666666657663 0.6269841269844294 -1.1666666666657679 6.1666666666662664 0.29828042328064291 -1.166666666666266 5.8611111111106604 0.49288233812051968 -0.86111111111066041 5.9999999999999956 0 -0.99999999999999556 5.8611111111106604 0.49288233812051968 -0.86111111111066041 6.1666666666662664 0.29828042328064291 -1.166666666666266 5.9999999999999956 0 -0.99999999999999556 6.1666666666662664 0.29828042328064291 -1.166666666666266 6.3333333333333277 0 -1.3333333333333279 6.1666666666657663 0.6269841269844294 -1.1666666666657679 6.4999999999989599 0.47938712522071519 -1.4999999999989611 6.1666666666662664 0.29828042328064291 -1.166666666666266 6.666666666666659 0 -1.666666666666659 6.3333333333333277 0 -1.3333333333333279 6.4999999999989599 0.47938712522071519 -1.4999999999989611 6.3333333333333277 0 -1.3333333333333279 6.1666666666662664 0.29828042328064291 -1.166666666666266 6.4999999999989599 0.47938712522071519 -1.4999999999989611 6.4999999999989599 0.47938712522071519 -1.4999999999989611 6.8296296296280934 0.62204375577420579 -1.8296296296280941 6.8333333333333259 0.24404761904793049 -1.8333333333333259 6.666666666666659 0 -1.666666666666659 6.8333333333333259 0.24404761904793049 -1.8333333333333259 6.9999999999999911 0 -1.9999999999999909 6.666666666666659 0 -1.666666666666659 6.4999999999989599 0.47938712522071519 -1.4999999999989611 6.8333333333333259 0.24404761904793049 -1.8333333333333259 6.9999999999999911 0 -1.9999999999999909 6.8333333333333259 0.24404761904793049 -1.8333333333333259 7.1388888888874096 0.48356009070323391 -2.13888888888
[...]
<PointData Scalars="A_conc," Vectors="" Tensors="">
<DataArray type="Float64" Name="A_conc" format="ascii">
0.99184585523013336 0.99284062788013216 0.99118340498051161 0.99365729169370431 0.99281375697185503 0.9918494389756547 0.98974351446653563 0.99188616058045642 0.99119406025602852 0.98973063181659593 0.99122113254950028 0.98971206448698967 0.98972640840070325 0.99119048629525619 0.99111481210278263 0.99288423808673665 0.9911026401293902 0.99117622592696975 0.99184901734873065 0.99111302891960396 0.99283865718888797 0.99365971735727798 0.99185196945734599 0.99281006351259526 0.98970901886993778 0.99114444272670643 0.98973218560799148 0.98974484708542265 0.99112157319720406 0.99189041748328965 0.99511601049148912 0.99361766635067128 0.9943821000048404 0.99361933335703845 0.99280842266343872 0.9944138208226152 0.99507950746793017 0.99438177103238146 0.99572047013934228 0.99630235772282705 0.99507904017284254 0.99569487834170056 0.99283071854533234 0.9943983206073812 0.99438961063593534 0.99361640814129359 0.99511473341553769 0.99438308497207073 0.99361696506610442 0.99441947748628401 0.99281200127027136 0.99576891952966606 0.99436562620904367 0.994373977738093 0.99630125405308712 0.99569610591963797 0.99507786360546691 0.99507829107740353 0.99572513866686374 0.99438264215354366 0.99678205600376812 0.99678049501804578 0.9957109121381339 0.99626914380555587 0.99679829935110331 0.99569594769799641 0.99626798535860217 0.99725122380242015 0.99676905515462166 0.99676238301159437 0.99767074110863685 0.99676087466815322 0.9972234842015435 0.99763645506938148 0.99676880455995098 0.99800015639938966 0.99761472153102071 0.99722299373479406 0.99855886670615013 0.99874163122832271 0.9982619128204816 0.99855689944868931 0.99901874928078849 0.99872940113695785 0.9979764293785448 0.99828051133562123 0.99761465529173066 0.99797527250798557 0.99857921043300291 0.99826112680282741 0.99826970271084758 0.99829449430025963 0.99762553023360623 0.99825673797857661 0.99876136052952569 0.99827996145046061 0.99855729005877403 0.99828600786287913 0.99874148669518115 0.998555995748448 0.99873132250071628 0.99901788615256104 0.99797660696302948 0.99761471987046024 0.99830680151834772 0.9979745461326307 0.99828634490660251 0.9985770382065785 0.99722319285014827 0.99761478677374338 0.9980003335737524 0.99722364770533134 0.99677065599612724 0.99763504589158614 0.99626821420980416 0.99677095310370278 0.99725136358961597 0.99627022213671623 0.99569477131430073 0.99679872805856384 0.99994824478613242 0.99996032591788464 0.99993392155947869 0.9999044850868658 0.99995088575921509 0.99993447757835485 0.99997643642600353 0.99995905592690359 0.99994819388173628 0.99997415383944821 0.99995936941901331 0.99997430358521033 0.99993456878943798 0.99995972191921845 0.99995829257508517 0.99997529791239159 0.99995758671611468 0.99995887467775457 0.99994821590817917 0.99993400311177993 0.99995877528833255 0.99995085312207022 0.99990445022847829 0.99993456685959736 0.99997656634099508 0.99994813367826629 0.99995768934731988 0.99997435782086252 0.99995813318460525 0.99997429049057762 0.99990453166368209 0.99986651180260377 0.99993981362122464 0.9999090253165468 0.99983249934031193 0.99986613907904609 0.99983283521762345 0.99978309851125025 0.99986971678985903 0.99972224998396864 0.99978324842698663 0.99983870517070483 0.99990457453742965 0.99993963996841584 0.99986638338213807 0.99983254946397804 0.99990907302395726 0.99986600075754417 0.99978216067233572 0.99978144936312574 0.99987550838038097 0.99983286911963321 0.99986931783328525 0.99978323637895916 0.99983873543416313 0.99978339226788215 0.99972230401377526 0.99978663551453217 0.99965063841886126 0.99978586876338327 0.99955887277423028 0.99973075873614314 0.99964716871729886 0.99972283351456814 0.99978987064754743 0.99964705190447178 0.99966696635878682 0.99945190572394105 0.99944750037856378 0.99956937363685983 0.9994519436508974 0.99932430797238436 0.99955908129619331 0.99965386580181426 0.99945172055322373 0.99932450489868174 0.99946057576056524 0.99919731647254428 0.9989997005686635 0.99933687506002811 0.99919887527694284 0.99920343971966052 0.99945375038965023 0.99945847996298265 0.99900084060045535 0.99922089567525163 0.99873221574873139 0.99900002601244475 0.99873403887943024 0.99922132730675139 0.99899891192614598 0.99920039057779952 0.99933613778175945 0.99932381066858644 0.99919874377201234 0.99946410708166222 0.99955875744388223 0.99945347420992448 0.99965526303107077 0.99956897857480598 0.99932402646439988 0.99945382980665742 0.99973051501121557 0.99955860862660428 0.99964769078936422 0.99972260710982519 0.99964753828567676 0.99979007698422451 0.762002925062221 0.58887795744301286 0.67676642801551423 0.7603122064102168 0.6770884228067624 0.83941270371662113 0.58623476991480139 0.41786432482267671 0.50336142984087218 0.58853721713093998 0.503718134690471 0.67655750041157658 0.41360618213725159 0.27394313816357202 0.353947214228856 0.41781123267045883 0.3544850371210907 0.50020581231908878 0.27368482457357035 0.20239320820726667 0.34685873898443303 0.34680726015800195 0.20192008055352889 0.27389599985980045 0.35274319764292328 0.50135777277827132 0.50205612584233861 0.35413841925132944 0.41796364600415387 0.49975897107510647 0.27415362934648824 0.41378058913310906 0.353565391064735 0.41797674113670402 0.58622479664388683 0.50303517566261702 0.58852010031363644 0.67645522002992386 0.50339441160428788 0.50331866196583785 0.67481453922162615 0.50395533241319934 0.76017850706709233 0.83936643604616878 0.67716215605444552 0.58883468146716111 0.76190526708472672 0.67676552656721756 0.83688437976533325 0.83662899876217811 0.67929336838182652 0.89678875457829688 0.94149684250829169 0.83576319123608744 0.90293098445312392 0.83547853009286455 0.76050230849707412 0.83398817558817195 0.94906246216803802 0.83360083528967399 0.98239829483031516 0.93610867840322598 0.89657987350970525 0.97419127719669918 1.0039249288018341 0.93687841311799447 0.89670604252692399 0.836374446978846 0.94102933084318596 0.90287498243351172 0.76042183999922264 0.83605000154766362 0.97412627010915609 0.9369817765272942 1.0037032848375604 0.98232118679438074 0.89652711982824096 0.93623454450858412 1.0001735892684334 0.9992379067485645 1.0001734413419003 1.0017697768541423 0.99756451187542994 0.99905514878219914 0.97393275575110305 0.99373478759151901 1.0022002729373563 0.99769620968395334 0.99247880455724991 1.0004259789170558 1.0007239404477366 0.99907107975789244 0.99924452362167193 0.99318440561324173 1.0002088570902785 0.99989863202723717 1.0001321942825607 0.99936087159516918 1.0001324799895117 1.0016310533505062 0.99929591422110797 0.99754901532926332 0.9977062029592606 1.0008853368412267 0.99245942235245943 0.97396858074625448 1.0022212816654203 0.993695078406168 0.051770493015707797 0.028092570444135115 0.039159603689625143 0.020334853058111311 0.037868268472586682 0.028134104865493302 0.094609198615741824 0.053426159595520044 0.072999670115538304 0.071056973228339065 0.053522466634684039 0.039097198839561913 0.16426465865148154 0.097374113786259417 0.12663198678089893 0.097337760665581738 0.072929273112462389 0.12376152287210306 0.16819281101474087 0.12637004599218715 0.20039060866393482 0.26860798353997539 0.16852974946226085 0.20327551130007968 0.12765829786504418 0.12826894432253355 0.19590522753588807 0.12557590075263697 0.071280989992384622 0.12610294336536834 0.097535719091643852 0.16453703948413972 0.12716128435682233 0.072773157346072773 0.097381773394634788 0.12424597181976901 0.26881934686786857 0.20280458468264473 0.16874073008987911 0.20013359409911766 0.12694520231429648 0.16844475965523181 0.094649987351930157 0.072850803988634791 0.053471778911837069 0.071030692136872478 0.038905076863444368 0.053556278581105447 0.068364699038134719 0.03970841360681035 0.039668713155119828 0.051797830285554999 0.038982027801655411 0.028131880532222608 0.020329079511695432 0.028112609690222171 0.037776803629119379 0.019595530500285868 0.03871512920124625 0.038754214803235328 0.01969814747907097 0.010027549729572652 0.014222594142533374 0.027083447555426514 0.020353999631824451 0.014172404738153913 0.018763590399793265 0.010298491873762096 0.010302585438513017 0.0050346153360642824 0.0069467288898105483 0.0097003595575314659 0.0069320988147581527 0.013646797773618101 0.01005121160242833 0.0047905833415013742 0.010012360134283683 0.010009692111917502 0.014184096643443792 0.020362074814792901 0.027103250662513859 0.019670630841869003 0.014236238237916345 0.010075124500546154 0.0069356005962229149 0.010095869629380369 0.013661119659473035 0.0069605765357501409 0.0050209339382285218 0.0097117761603597707 0.0015291652325671579 0.0015974552693513685 0.0025120679550531579 0.0031686112451122586 0.0014892145094049074 0.0025817012350492627 0.0032738577656957406 0.0050155444181079964 0.0066636299805253709 0.0033080111299511016 0.0026127099087797103 0.0048594996048682768 0.0046438022602586461 0.0026562484037095757 0.0025805579504075134 0.0026111361634571237 0.001548844011160054 0.0025434281538567059 0.0031555914030823961 0.0025047510160545825 0.0014918491465866345 0.0016004825491516082 0.0015282534912475468 0.0024501150904394655 0.004859008869613296 0.0025271068313406871 0.0032979525654099548 0.0066514009063398452 0.0050265370919167808 0.0032650019336719406 1.0000000000027822 1.0000000000030715 1.0000000000029476 0.99999999999283096 0.99999999999679834 1.0000000000237559 0.99999999999729972 1.0000000000183293 0.99999999999293254 0.99999999999963529 0.99999999999947342 1.0000000000006235 0.99999999999934475 1.0000000000002562 1.0000000000004772 0.99999999999848121 0.99999999999463662 1.0000000000171896 1.000000000000649 0.99999999999912692 1.0000000000002709 0.9999999999950262 1.0000000000231288 0.99999999999930878 1.0000000000891121 1.0000000000899816 0.99999999997225375 1.0000000003544522 0.99999999953806051 1.0000000001898777 1.0000000013613513 0.99999999961490393 0.99999999800034445 1.0000000003273253 1.0000000002030209 0.99999999947929263 1.0000000000905487 1.0000000000985774 0.99999999997445865 0.99999999798772288 0.99999999953838092 1.0000000013907555 0.9999999903613529 1.0000000027161979 0.99999999854073163 1.0000000057140097 0.9999999738911246 0.99999999081927327 0.99999999044606869 0.99999999854604793 1.0000000026491813 0.99999997395854057 1.0000000057041805 0.99999999089893699 1.0000000057617751 0.99999992623868894 0.99999997621562176 0.99999984519581997 1.0000000037425485 0.99999992689081674 1.0000000058521603 0.99999997613355263 0.99999992616879907 1.0000000036539356 0.99999984495550509 0.99999992686079708 0.99999992830941264 0.99999937429018249 0.99999966266050155 0.99999985114017076 0.99999966062577306 0.99999997282017572 0.99999884405921535 0.99999977079973645 0.99999938458598736 0.99999802113929981 0.99999885312741565 0.99999956106575405 0.99999911601960734 0.99999803963061051 0.99999666198084003 0.99999910437162354 0.99999666047273239 0.99999804032802575 0.99999956177927951 0.99999885281885725 0.99999802228150103 0.99999884391761451 0.99999938524018983 0.99999977616235258 0.99999985124185586 0.99999997074153324 0.99999966034569265 0.9999999284325668 0.99999966231642134 0.9999993744414768 0.99999165354791753 0.99998487316703999 0.99998763258400625 0.99997381590138934 0.99998622583801766 0.99997375362576169 0.99997425614448565 0.99998853543580457 0.99998526639489838 0.99998538418373217 0.99998334424188429 0.99997406602423711 0.99997411588158036 0.99998350667473224 0.99998868910876837 0.9999736968513615 0.99998407209467 0.99997383685989749 0.9999917696851478 0.99998767539392497 0.99998329862489632 0.99998491247723009 0.99999239341874901 0.99998308906571953 0.99998767166100477 0.99999131242623407 0.99999548329849663 0.99999840092547965 0.99999473145579143 0.9999966746464396 0.99999134615968077 0.99999720827286809 0.99999478867232283 0.99999134316009464 0.99999479248499801 0.99999723177452693 0.9999984017353295 0.99999667290280381 0.99999473239218595 0.99998767710523495 0.99999548747741906 0.9999913086006561 
</DataArray>
</PointData>
</Piece>
</UnstructuredGrid>
</VTKFile>
