<?xml version="1.0"?>
<VTKFile type="UnstructuredGrid" version="0.1" byte_order="LittleEndian">
<UnstructuredGrid>
<Piece NumberOfPoints="594" NumberOfCells="198">
<Points>
<DataArray type="Float64" NumberOfComponents="3" format="ascii">
9.6666666666666661 0 -4.6666666666666661 9.7758804637971792 0.34775096525134458 -4.7758804637971783 9.4901933183181697 0.51982786357785593 -4.4901933183181688 9.6666666666666661 0 -4.6666666666666661 9.4901933183181697 0.51982786357785593 -4.4901933183181688 9.3333333333333321 0 -4.3333333333333313 9.6666666666666661 0 -4.6666666666666661 10 0 -5 9.7758804637971792 0.34775096525134458 -4.7758804637971783 10 0 -5 9.7758804637971792 0.34775096525134458 -4.7758804637971783 10 0.50000000000205913 -5 9.7758804637971792 0.34775096525134458 -4.7758804637971783 10 0.50000000000205913 -5 9.7872434934932606 0.6855265980269214 -4.7872434934932597 9.7758804637971792 0.34775096525134458 -4.7758804637971783 9.4901933183181697 0.51982786357785593 -4.4901933183181688 9.7872434934932606 0.6855265980269214 -4.7872434934932597 9.4901933183181697 0.51982786357785593 -4.4901933183181688 9.7872434934932606 0.6855265980269214 -4.7872434934932597 9.6666666666664156 1 -4.6666666666664156 9.4901933183181697 0.51982786357785593 -4.4901933183181688 9.6666666666664156 1 -4.6666666666664156 9.3333333333328294 1 -4.3333333333328294 10 0.50000000000205913 -5 9.7872434934932606 0.6855265980269214 -4.7872434934932597 10 1 -5 9.7872434934932606 0.6855265980269214 -4.7872434934932597 10 1 -5 9.6666666666664156 1 -4.6666666666664156 9.3333333333328294 1 -4.3333333333328294 9.166666666666039 0.75595238095243689 -4.1666666666660381 8.999999999999245 1 -3.999999999999245 9.4901933183181697 0.51982786357785593 -4.4901933183181688 9.3333333333328294 1 -4.3333333333328294 9.166666666666039 0.75595238095243689 -4.1666666666660381 9.166666666666039 0.75595238095243689 -4.1666666666660381 8.999999999999245 1 -3.999999999999245 8.8333333333330302 0.52513227513218741 -3.8333333333330288 8.999999999999245 1 -3.999999999999245 8.8333333333330302 0.52513227513218741 -3.8333333333330288 8.6666666666656589 1 -3.6666666666656589 9.4901933183181697 0.51982786357785593 -4.4901933183181688 9.166666666666039 0.75595238095243689 -4.1666666666660381 9.1653591091089677 0.37901055817719992 -4.1653591091089686 9.1653591091089677 0.37901055817719992 -4.1653591091089686 9.3333333333333321 0 -4.3333333333333313 8.9999999999999964 0 -3.9999999999999969 9.4901933183181697 0.51982786357785593 -4.4901933183181688 9.1653591091089677 0.37901055817719992 -4.1653591091089686 9.3333333333333321 0 -4.3333333333333313 9.166666666666039 0.75595238095243689 -4.1666666666660381 9.1653591091089677 0.37901055817719992 -4.1653591091089686 8.8333333333330302 0.52513227513218741 -3.8333333333330288 8.8333333333330302 0.52513227513218741 -3.8333333333330288 8.9999999999999964 0 -3.9999999999999969 8.6666666666666625 0 -3.666666666666663 9.1653591091089677 0.37901055817719992 -4.1653591091089686 8.8333333333330302 0.52513227513218741 -3.8333333333330288 8.9999999999999964 0 -3.9999999999999969 8.8333333333330302 0.52513227513218741 -3.8333333333330288 8.4999999999998455 0.37301587301576589 -3.4999999999998459 8.4999999999992628 0.70507054673714353 -3.4999999999992641 8.8333333333330302 0.52513227513218741 -3.8333333333330288 8.4999999999998455 0.37301587301576589 -3.4999999999998459 8.6666666666666625 0 -3.666666666666663 8.4999999999998455 0.37301587301576589 -3.4999999999998459 8.6666666666666625 0 -3.666666666666663 8.3333333333333286 0 -3.3333333333333282 8.4999999999998455 0.37301587301576589 -3.4999999999998459 8.1677083333328273 0.51603966288628356 -3.167708333332826 8.4999999999992628 0.70507054673714353 -3.4999999999992641 8.4999999999998455 0.37301587301576589 -3.4999999999998459 8.1677083333328273 0.51603966288628356 -3.167708333332826 8.3333333333333286 0 -3.3333333333333282 8.1677083333328273 0.51603966288628356 -3.167708333332826 8.3333333333333286 0 -3.3333333333333282 7.9999999999999929 0 -2.9999999999999929 7.666666666666659 0 -2.666666666666659 7.8458333333325694 0.36721576227400882 -2.8458333333325689 7.5441798941785558 0.50932853577008119 -2.5441798941785572 7.666666666666659 0 -2.666666666666659 7.5441798941785558 0.50932853577008119 -2.5441798941785572 7.333333333333325 0 -2.333333333333325 8.1677083333328273 0.51603966288628356 -3.167708333332826 7.9999999999999929 0 -2.9999999999999929 7.8458333333325694 0.36721576227400882 -2.8458333333325689 7.666666666666659 0 -2.666666666666659 7.9999999999999929 0 -2.9999999999999929 7.8458333333325694 0.36721576227400882 -2.8458333333325689 8.1677083333328273 0.51603966288628356 -3.167708333332826 7.8458333333325694 0.36721576227400882 -2.8458333333325689 7.8333333333316926 0.74717377261014672 -2.833333333331693 7.8458333333325694 0.36721576227400882 -2.8458333333325689 7.5441798941785558 0.50932853577008119 -2.5441798941785572 7.8333333333316926 0.74717377261014672 -2.833333333331693 7.5441798941785558 0.50932853577008119 -2.5441798941785572 7.8333333333316926 0.74717377261014672 -2.833333333331693 7.6666666666649013 1 -2.6666666666649008 7.5441798941785558 0.50932853577008119 -2.5441798941785572 7.6666666666649013 1 -2.6666666666649008 7.3333333333313142 1 -2.3333333333313142 8.1677083333328273 0.51603966288628356 -3.167708333332826 7.8333333333316926 0.74717377261014672 -2.833333333331693 7.9999999999984883 1 -2.9999999999984879 7.8333333333316926 0.74717377261014672 -2.833333333331693 7.9999999999984883 1 -2.9999999999984879 7.6666666666649013 1 -2.6666666666649008 8.1677083333328273 0.51603966288628356 -3.167708333332826 7.9999999999984883 1 -2.9999999999984879 8.3333333333320745 1 -3.333333333332074 8.1677083333328273 0.51603966288628356 -3.167708333332826 8.3333333333320745 1 -3.333333333332074 8.4999999999992628 0.70507054673714353 -3.4999999999992641 8.3333333333320745 1 -3.333333333332074 8.6666666666656589 1 -3.6666666666656589 8.4999999999992628 0.70507054673714353 -3.4999999999992641 8.8333333333330302 0.52513227513218741 -3.8333333333330288 8.6666666666656589 1 -3.6666666666656589 8.4999999999992628 0.70507054673714353 -3.4999999999992641 5.3333333333333313 0 -0.33333333333333132 5.2132227891161653 0.31207482993217439 -0.21322278911616621 5.4583333333329049 0.50000000000003608 -0.45833333333290671 5.3333333333333313 0 -0.33333333333333132 5.4583333333329049 0.50000000000003608 -0.45833333333290671 5.6666666666666634 0 -0.66666666666666341 5.3333333333333313 0 -0.33333333333333132 5.2132227891161653 0.31207482993217439 -0.21322278911616621 5 0 0 5.2132227891161653 0.31207482993217439 -0.21322278911616621 5 0.49999999999869399 0 5 0 0 5.2132227891161653 0.31207482993217439 -0.21322278911616621 5.4583333333329049 0.50000000000003608 -0.45833333333290671 5.2291666666662087 0.66666666666678287 -0.22916666666621041 5.2132227891161653 0.31207482993217439 -0.21322278911616621 5.2291666666662087 0.66666666666678287 -0.22916666666621041 5 0.49999999999869399 0 5.4583333333329049 0.50000000000003608 -0.45833333333290671 5.2291666666662087 0.66666666666678287 -0.22916666666621041 5.3333333333331892 1 -0.33333333333318949 5.4583333333329049 0.50000000000003608 -0.45833333333290671 5.3333333333331892 1 -0.33333333333318949 5.6666666666663614 1 -0.66666666666636076 5.2291666666662087 0.66666666666678287 -0.22916666666621041 5.3333333333331892 1 -0.33333333333318949 5 1 0 5.2291666666662087 0.66666666666678287 -0.22916666666621041 5 1 0 5 0.49999999999869399 0 5.4583333333329049 0.50000000000003608 -0.45833333333290671 5.6666666666663614 1 -0.66666666666636076 5.8611111111106604 0.49288233812051968 -0.86111111111066041 5.6666666666663614 1 -0.66666666666636076 5.9999999999992077 1 -0.99999999999920808 5.8611111111106604 0.49288233812051968 -0.86111111111066041 6.1666666666657663 0.6269841269844294 -1.1666666666657679 5.9999999999992077 1 -0.99999999999920808 5.8611111111106604 0.49288233812051968 -0.86111111111066041 6.1666666666657663 0.6269841269844294 -1.1666666666657679 5.9999999999992077 1 -0.99999999999920808 6.3333333333320549 1 -1.3333333333320549 5.4583333333329049 0.50000000000003608 -0.45833333333290671 5.8611111111106604 0.49288233812051968 -0.86111111111066041 5.6666666666666634 0 -0.66666666666666341 5.8611111111106604 0.49288233812051968 -0.86111111111066041 5.6666666666666634 0 -0.66666666666666341 5.9999999999999956 0 -0.99999999999999556 6.1666666666657663 0.6269841269844294 -1.1666666666657679 5.8611111111106604 0.49288233812051968 -0.86111111111066041 6.1666666666662664 0.29828042328064291 -1.166666666666266 5.8611111111106604 0.49288233812051968 -0.86111111111066041 6.1666666666662664 0.29828042328064291 -1.166666666666266 5.9999999999999956 0 -0.99999999999999556 6.1666666666662664 0.29828042328064291 -1.166666666666266 5.9999999999999956 0 -0.99999999999999556 6.3333333333333277 0 -1.3333333333333279 6.1666666666657663 0.6269841269844294 -1.1666666666657679 6.1666666666662664 0.29828042328064291 -1.166666666666266 6.4999999999989599 0.47938712522071519 -1.4999999999989611 6.4999999999989599 0.47938712522071519 -1.4999999999989611 6.3333333333333277 0 -1.3333333333333279 6.666666666666659 0 -1.666666666666659 6.1666666666662664 0.29828042328064291 -1.166666666666266 6.4999999999989599 0.47938712522071519 -1.4999999999989611 6.3333333333333277 0 -1.3333333333333279 6.4999999999989599 0.47938712522071519 -1.4999999999989611 6.8296296296280934 0.62204375577420579 -1.8296296296280941 6.8333333333333259 0.24404761904793049 -1.8333333333333259 6.8333333333333259 0.24404761904793049 -1.8333333333333259 6.666666666666659 0 -1.666666666666659 6.9999999999999911 0 -1.9999999999999909 6.4999999999989599 0.47938712522071519 -1.4999999999989611 6.8333333333333259 0.24404761904793049 -1.8333333333333259 6.666666666666659 0 -1.666666666666659 6.8333333333333259 0.24404761904793049 -1.8333333333333259 6.9999999999999911 0 -1.9999999999999909 7.1388888888874096 0.48356009070323391 -2.13888888888
[...]
<PointData Scalars="A_conc," Vectors="" Tensors="">
<DataArray type="Float64" Name="A_conc" format="ascii">
0.99996255943507961 0.99995718213517293 0.99997008636744467 0.99996260474309606 0.99996968239229345 0.9999758071534014 0.99996323866577397 0.99994483590564276 0.99995736705740101 0.99994461357780617 0.99995785002728999 0.99994429013610775 0.99995732099192014 0.99994453545085782 0.99995665101143449 0.99995707532476852 0.99997077425402403 0.99995644189954258 0.99997006006609201 0.99995660007388965 0.99996260846555041 0.99996963040148901 0.9999626417244486 0.99997584009586293 0.99994423515864239 0.9999571600293129 0.99994464248264003 0.99995674812526092 0.9999448612612879 0.99996330772940167 0.99997523636188634 0.99997998945724476 0.99998441925141268 0.99996960711748573 0.99997526721124352 0.99998040673785182 0.99997998059141135 0.99998399268111349 0.9999873953229147 0.99998398017347789 0.99998712929046307 0.99999022377675217 0.99996989131915159 0.99998010811276428 0.99998018117956256 0.99997996985655735 0.99997521903922082 0.99998440664796262 0.99996965478943367 0.99998043984613294 0.99997523631383445 0.99997980599091096 0.9999798729933701 0.99998792978927797 0.99998714224470187 0.9999839673053188 0.99999021283905654 0.99997996089777397 0.99998744639036663 0.99998398000361133 0.99998726702682261 0.99999214301602657 0.99999212839328044 0.99998713905595371 0.9999922772668447 0.9999899032788987 0.99999202147169608 0.9999898871619739 0.99999402665229165 0.99999197459193012 0.99999556163379122 0.99999196122902334 0.99999201736576315 0.99999530976855344 0.99999380924959436 0.99999515866344957 0.99999380147520789 0.99999647526422175 0.99999789371608472 0.99999712434721821 0.99999832579313441 0.99999788300025383 0.99999827097013316 0.99999891561107457 0.99999515727754984 0.9999963248096585 0.99999723190840561 0.99999799679729007 0.99999631529114552 0.99999712135364627 0.99999521811958625 0.99999717349477801 0.99999724682137014 0.99999710122265961 0.99999841852562177 0.9999971660231386 0.99999832359703067 0.9999971940279182 0.99999788657701327 0.99999827832205657 0.99999787959444553 0.99999891249160255 0.99999515690471674 0.99999731472665898 0.99999632651732184 0.99999719751867244 0.99999631163172809 0.99999798604666101 0.99999515815973428 0.9999964770175287 0.99999380373293667 0.99999529842969004 0.99999381101552443 0.99999203093892242 0.99999402797740589 0.99998989041028086 0.99999203578886531 0.99998712746386742 0.99998991359882416 0.99999228014373021 0.99999998992222361 0.99999999365067549 0.99999998488460629 0.9999999917103638 0.99999998528427214 0.99999997327028567 0.99999998987613326 0.99999999293834574 0.99999999775534321 0.99999999307856025 0.99999999666622363 0.99999999674496154 0.99999999332947176 0.99999998526626033 0.99999999292214781 0.9999999928699308 0.99999999253024952 0.99999999717604759 0.99999998494008591 0.99999999317288157 0.99999998990452243 0.99999998534896117 0.99999999168446096 0.99999997324584811 0.99999999255986172 0.9999999898430898 0.99999999781412141 0.99999999276037577 0.99999999676432538 0.99999999672673823 0.99999998963215897 0.9999999734647067 0.99999995419429055 0.99999997784239714 0.99999993434682288 0.99999995389600049 0.99999990047943554 0.99999993486955208 0.99999995794244467 0.99999990082606693 0.99999994270240888 0.9999998526486813 0.99999998949234858 0.9999999540340172 0.99999997351144798 0.99999995371957051 0.9999999779100982 0.99999993440883317 0.99999989958161128 0.99999996501360422 0.99999989854107885 0.99999995744811065 0.99999990063054989 0.99999993490946371 0.99999990098979052 0.99999994273387094 0.99999985272913716 0.99999990642608716 0.99999990520176829 0.99999978779234955 0.99999978255725097 0.99999986822100517 0.99999969044171499 0.99999991117597387 0.99999978221639341 0.99999985388470436 0.99999982489843631 0.99999955844196331 0.99999955047239752 0.99999956045562177 0.99999971587134739 0.99999938379486519 0.99999979614152512 0.99999955948171004 0.99999969135712719 0.99999958442298165 0.99999938481510775 0.99999918010382893 0.99999883659376088 0.99999942320933444 0.99999918521625564 0.99999957591685895 0.99999956679751101 0.99999919663888226 0.99999828205754571 0.99999884329858746 0.99999926344282108 0.99999828859836171 0.9999992642259975 0.99999884057738542 0.99999918990079795 0.99999942124435059 0.99999883440312076 0.9999995902254829 0.99999918423556511 0.99999938311378389 0.99999979909058001 0.99999956102783716 0.99999969078346462 0.99999956227453812 0.99999938311264269 0.99999971515383879 0.99999978358044705 0.99999968998340982 0.99999986780104677 0.99999991152956214 0.99999978310188342 0.99999985353213405 0.98717590889307349 0.9441217960586531 0.96711586169861596 0.98313115055250544 0.96699559858041007 0.99533628576226063 0.91260730633819231 0.94881416801337648 0.869561624956812 0.91249877185382 0.94414142685257196 0.97069191823176404 0.75943415811093917 0.87303618662325344 0.82667156813841813 0.91626517048016842 0.86942615552341462 0.82633411872938412 0.75913587232849966 0.83085982976771344 0.67438473462817006 0.83100762360568881 0.75900285929963607 0.67466915210328404 0.91347192498176955 0.82862122644634117 0.91391496690782137 0.8267113771133916 0.86919420058762353 0.91635816562325056 0.82701723752384493 0.87281678017163111 0.75922649035244283 0.86938276447093488 0.94866241380034511 0.91243136167829186 0.94398815192408225 0.91233820467935456 0.97124912441815436 0.9108309621731111 0.91131196747601573 0.97703130175244535 0.98301047294972355 0.96726997406370008 0.995440743825042 0.94397020920566554 0.98704603340469466 0.967407355143582 0.9687113834070652 0.9939048088588941 0.99350126896282698 0.99703088955588925 0.99198868023460673 0.99986618539673422 0.98280126287711034 0.99937574661445472 0.9921533967842695 0.99182365071568168 1.0018446726050181 0.99146086548118884 0.99686306254504164 1.0007965565956098 0.99880096320567568 0.99989433219276669 0.99881880831847414 1.0005812220156625 0.99969486332301905 0.99700355353808234 0.99209820910717217 0.98277810785762887 0.99933404039041873 0.99228884468799461 0.99879496955292835 0.99989639417715004 1.0005603592621681 0.99877805297552824 0.99685756071681142 1.0007981782848754 1.0000003307100012 0.99999972250160374 1.0000003304198422 1.0000154947684634 1.0000062526710307 0.99999412037527313 0.99981622130200865 1.0001330495957046 1.0000001232687954 1.0000183247479602 1.0000072541150091 0.99996808828189732 1.0000005497456728 1.0000015679213146 1.0000005445119171 1.0000077399655722 0.99998027088810049 1.0000085363951214 1.0000002379401065 0.99999973649324436 1.0000002384601632 0.99999549441570712 1.0000056309958867 1.0000129912829192 0.99996956435795104 1.0000105844214193 1.0000168118244295 0.9998141861756058 1.0000018429440158 1.0001311900909542 0.24460136667967033 0.35022817938821027 0.29617288389377727 0.24453045999819908 0.29307103194437856 0.20031546191400815 0.35338670535815636 0.48108751714435105 0.4162370467479381 0.35329732851511497 0.41390311026904675 0.29620988323302821 0.62353646898243531 0.48356934404655028 0.54829163290810534 0.48335180924640364 0.54687116039119454 0.41630544516839074 0.62412314093012644 0.54841610180109934 0.67435129524045456 0.76088996573866274 0.6242622428327852 0.67399039904328861 0.54826178158816563 0.67445461505494153 0.55027200070176796 0.54743432906084888 0.54938044528983065 0.41565498386950289 0.5501555314668215 0.48357475311733855 0.62353276722607931 0.54870277824495106 0.48333009519755493 0.41631447996553511 0.76078333114042385 0.67422154604415219 0.62417351925803133 0.67455121472465862 0.55034225244719159 0.62408104928257158 0.4810736873169516 0.3533699943600152 0.41622883329375532 0.35329628739161578 0.41404884072876158 0.29599439977622188 0.41012973243428241 0.29702477048343734 0.29691180052183336 0.35023200518872166 0.29594441804041144 0.24460492788653532 0.29298812572581945 0.24443761172006209 0.20038845339852318 0.29491824430844155 0.29481846144005203 0.19872555061234262 0.16095855968555844 0.19800343780480098 0.12881570240488288 0.24132312245338058 0.16090643559597004 0.20039131659028567 0.19414720959451309 0.12990172122549462 0.12976728560783374 0.12676430004586939 0.10119903533692312 0.080974365627240905 0.15827443339354308 0.12883515758893449 0.1011899107630294 0.12834033208108064 0.12821839875579594 0.07965177158248582 0.24141326706218363 0.20032558024481092 0.16099121053619858 0.19779642085175567 0.12894506550838808 0.16104075321078248 0.1289664817499914 0.1583564749429533 0.1012538715533802 0.12675298837630147 0.10130018298434826 0.080853886652486884 0.035611495448220259 0.050598467054330923 0.036186693725678648 0.059887355546046024 0.035223998297873468 0.051338066017798896 0.099269650388807557 0.060998072160617811 0.080799122704082585 0.061208186907448885 0.051643096185511154 0.079613005667431874 0.051968879478139489 0.077847866930374515 0.050931928466687426 0.051532882705905711 0.035735817117548738 0.050570484732755987 0.050278654344560254 0.035228435566207451 0.059754249924357114 0.036233953476802333 0.049683041994378473 0.035587672946257462 0.079632279559649438 0.050505276857480047 0.061108111045817572 0.099174219583413867 0.080908298140573168 0.060914920953493962 0.99999999999921563 1.0000000000000238 0.99999999999946554 0.99999999999922973 0.99999999999922551 0.99999999999924727 0.99999999999922695 0.99999999999933853 0.99999999999952305 0.99999999999918143 0.99999999999961586 1.0000000000007676 0.99999999999921552 0.9999999999996676 1.0000000000000231 1.0000000000004499 1.0000000000007803 1.0000000000009386 0.99999999999891698 1.0000000000004494 1.00000000000078 1.0000000000003582 1.0000000000013234 0.99999999999960476 1.0000000000013634 1.0000000000013647 0.99999999999964617 1.0000000000057414 1.0000000000037221 1.000000000003924 1.0000000000057259 1.0000000000037033 1.0000000000056435 1.0000000000027469 1.0000000000035396 0.9999999999934438 0.99999999999545475 1.00000000000362 0.99999999999328359 1.0000000000027867 0.99999999999348399 0.99999999999341505 1.0000000000032649 0.99999999999393396 1.0000000000035159 0.99999999999393019 1.0000000000034694 0.99999999999377309 1.0000000000033311 1.0000000000024742 1.0000000000063034 0.99999999999364408 0.99999999999751255 0.99999999999759981 0.99999999999566713 0.99999999999956546 0.99999999999548017 0.99999999999996503 0.99999999999881273 0.99999999999550693 1.0000000000035352 0.99999999999405564 1.0000000000030433 1.0000000000004354 1.0000000000167066 0.99999999999188049 0.99999999999326861 1.0000000000087603 0.99999999998320654 1.0000000000140061 0.99999999999069489 1.0000000000088201 1.0000000000137408 0.99999999998429157 0.99999999998660538 0.99999999999362976 0.99999999999194356 0.99999999992755007 1.0000000000109353 0.99999999992816901 0.99999999987890098 1.0000000000000919 0.99999999994300071 0.99999999986835231 0.99999999997814837 0.99999999993954169 0.99999999999602984 1.0000000000094089 0.99999999997703393 0.99999999998576028 0.99999999999916467 0.9999999999965683 0.99999999999292177 0.99999999997638078 0.9999999999988225 0.99999999998792266 0.99999999895748626 0.99999999853740329 0.99999999947382423 0.99999999653599636 0.99999999650387428 0.99999999898340763 0.99999999667932093 0.99999999923547389 0.99999999865582512 0.9999999965959725 0.9999999983370309 0.99999999870118217 0.99999999664146466 0.99999999837413978 0.99999999927338723 0.99999999648089199 0.99999999654703098 0.99999999856838684 0.99999999830508335 0.99999999896524905 0.99999999951587493 0.99999999825421249 0.99999999855384192 0.99999999966871755 0.99999999895794656 0.99999999940931106 0.99999999987371946 0.99999999997112154 0.99999999971497011 0.99999999988042154 0.99999999941561757 0.99999999973578502 0.99999999996242572 0.99999999939788686 0.99999999995573374 0.99999999973591414 0.99999999999222755 0.99999999987045229 0.99999999971921816 0.99999999896326686 0.99999999939566753 0.99999999987835531 
</DataArray>
</PointData>
</Piece>
</UnstructuredGrid>
</VTKFile>
