<?xml version="1.0"?>
<VTKFile type="UnstructuredGrid" version="0.1" byte_order="LittleEndian">
<UnstructuredGrid>
<Piece NumberOfPoints="594" NumberOfCells="198">
<Points>
<DataArray type="Float64" NumberOfComponents="3" format="ascii">
0 0 0 0.49999999999959471 0 0 0.32810846560805917 0.35132716049402418 0 0 0 0 0.32810846560805917 0.35132716049402418 0 0 0.50000000000205913 0 0 0.50000000000205913 0 0.32810846560805917 0.35132716049402418 0 0.30605158730175991 0.69050925925940754 0 0.71726190476123464 0.50694444444431941 0 0.30605158730175991 0.69050925925940754 0 0.32810846560805917 0.35132716049402418 0 0.71726190476123464 0.50694444444431941 0 0.32810846560805917 0.35132716049402418 0 0.49999999999959471 0 0 0.49999999999959471 0 0 0.99999999999841338 0 0 0.71726190476123464 0.50694444444431941 0 1.4999999999969551 0 0 1.2499999999981819 0.4791666666661778 0 0.99999999999841338 0 0 0.71726190476123464 0.50694444444431941 0 0.99999999999841338 0 0 1.2499999999981819 0.4791666666661778 0 0.99999999999999112 1 0 0.49999999999999561 1 0 0.71726190476123464 0.50694444444431941 0 0.99999999999999112 1 0 1.2499999999981819 0.4791666666661778 0 1.499999999999992 1 0 0.71726190476123464 0.50694444444431941 0 1.2499999999981819 0.4791666666661778 0 0.99999999999999112 1 0 0.71726190476123464 0.50694444444431941 0 0.49999999999999561 1 0 0.30605158730175991 0.69050925925940754 0 0 1 0 0 0.50000000000205913 0 0.30605158730175991 0.69050925925940754 0 0 1 0 0.30605158730175991 0.69050925925940754 0 0.49999999999999561 1 0 2.4999999999999951 1 0 1.999999999999994 1 0 2.265689300409039 0.50244341563808892 0 1.754629629626973 0.49768518518496552 0 2.265689300409039 0.50244341563808892 0 1.999999999999994 1 0 1.754629629626973 0.49768518518496552 0 1.499999999999992 1 0 1.2499999999981819 0.4791666666661778 0 1.999999999999994 1 0 1.499999999999992 1 0 1.754629629626973 0.49768518518496552 0 1.754629629626973 0.49768518518496552 0 1.2499999999981819 0.4791666666661778 0 1.4999999999969551 0 0 1.4999999999969551 0 0 1.9999999999955129 0 0 1.754629629626973 0.49768518518496552 0 1.754629629626973 0.49768518518496552 0 1.9999999999955129 0 0 2.265689300409039 0.50244341563808892 0 1.9999999999955129 0 0 2.4999999999962048 0 0 2.265689300409039 0.50244341563808892 0 2.4999999999962048 0 0 2.999999999996966 0 0 2.7615740740724162 0.52430555555546632 0 3.249999999999996 0.50000000000056777 0 2.7615740740724162 0.52430555555546632 0 2.999999999996966 0 0 2.4999999999962048 0 0 2.7615740740724162 0.52430555555546632 0 2.265689300409039 0.50244341563808892 0 2.4999999999999951 1 0 2.7615740740724162 0.52430555555546632 0 2.999999999999996 1 0 2.4999999999999951 1 0 2.265689300409039 0.50244341563808892 0 2.7615740740724162 0.52430555555546632 0 3.249999999999996 0.50000000000056777 0 2.999999999999996 1 0 2.7615740740724162 0.52430555555546632 0 2.999999999999996 1 0 3.249999999999996 0.50000000000056777 0 3.4999999999999969 1 0 3.249999999999996 0.50000000000056777 0 3.7536375661371162 0.52050264550273706 0 3.4999999999999969 1 0 3.249999999999996 0.50000000000056777 0 3.499999999997728 0 0 3.7536375661371162 0.52050264550273706 0 3.499999999997728 0 0 3.249999999999996 0.50000000000056777 0 2.999999999996966 0 0 3.499999999997728 0 0 3.9999999999984892 0 0 3.7536375661371162 0.52050264550273706 0 4.2827380952378373 0.49702380952385222 0 3.7536375661371162 0.52050264550273706 0 3.9999999999984892 0 0 4.499999999999245 0 0 4.2827380952378373 0.49702380952385222 0 3.9999999999984892 0 0 4.2827380952378373 0.49702380952385222 0 4.499999999999245 0 0 4.6939484126980782 0.31001984126959431 0 5 0.49999999999869399 0 4.6939484126980782 0.31001984126959431 0 5 0 0 5 0 0 4.6939484126980782 0.31001984126959431 0 4.499999999999245 0 0 4.6250000000002496 0.62499999999992328 0 4.6939484126980782 0.31001984126959431 0 5 0.49999999999869399 0 4.6250000000002496 0.62499999999992328 0 4.2827380952378373 0.49702380952385222 0 4.6939484126980782 0.31001984126959431 0 4.2827380952378373 0.49702380952385222 0 4.6250000000002496 0.62499999999992328 0 4.4999999999999991 1 0 5 1 0 4.6250000000002496 0.62499999999992328 0 5 0.49999999999869399 0 5 1 0 4.4999999999999991 1 0 4.6250000000002496 0.62499999999992328 0 4.4999999999999991 1 0 3.9999999999999978 1 0 4.2827380952378373 0.49702380952385222 0 3.4999999999999969 1 0 3.7536375661371162 0.52050264550273706 0 3.9999999999999978 1 0 4.2827380952378373 0.49702380952385222 0 3.9999999999999978 1 0 3.7536375661371162 0.52050264550273706 0 5.9999999999999956 1 0.99999999999999556 6.1666666666666661 0.75595238095205264 1.1666666666666661 5.8611111111106986 0.512282690854023 0.86111111111069949 5.9999999999992077 1 -0.99999999999920808 6.1666666666657663 0.6269841269844294 -1.1666666666657679 5.8611111111106604 0.49288233812051968 -0.86111111111066041 6.3333333333320549 1 -1.3333333333320549 6.1666666666657663 0.6269841269844294 -1.1666666666657679 5.9999999999992077 1 -0.99999999999920808 5.9999999999999956 1 0.99999999999999556 6.3333333333333277 1 1.3333333333333279 6.1666666666666661 0.75595238095205264 1.1666666666666661 5.6666666666663614 1 -0.66666666666636076 5.8611111111106604 0.49288233812051968 -0.86111111111066041 5.4583333333329049 0.50000000000003608 -0.45833333333290671 5.6666666666666634 1 0.66666666666666341 5.9999999999999956 1 0.99999999999999556 5.8611111111106986 0.512282690854023 0.86111111111069949 5.6666666666663614 1 -0.66666666666636076 5.9999999999992077 1 -0.99999999999920808 5.8611111111106604 0.49288233812051968 -0.86111111111066041 5.6666666666666634 1 0.66666666666666341 5.8611111111106986 0.512282690854023 0.86111111111069949 5.4583333333329058 0.49999999999996392 0.45833333333290671 5 1 0 5.3333333333333313 1 0.33333333333333132 5.2291666666662238 0.66666666666682306 0.22916666666622379 5 1 0 5.2291666666662238 0.66666666666682306 0.22916666666622379 5 0.49999999999869399 0 5 1 0 5.2291666666662087 0.66666666666678287 -0.22916666666621041 5 0.49999999999869399 0 5 1 0 5.3333333333331892 1 -0.33333333333318949 5.2291666666662087 0.66666666666678287 -0.22916666666621041 5.3333333333331892 1 -0.33333333333318949 5.6666666666663614 1 -0.66666666666636076 5.4583333333329049 0.50000000000003608 -0.45833333333290671 5.3333333333331892 1 -0.33333333333318949 5.4583333333329049 0.50000000000003608 -0.45833333333290671 5.2291666666662087 0.66666666666678287 -0.22916666666621041 5.6666666666666634 1 0.66666666666666341 5.4583333333329058 0.49999999999996392 0.45833333333290671 5.3333333333333313 1 0.33333333333333132 5.3333333333333313 1 0.33333333333333132 5.4583333333329058 0.49999999999996392 0.45833333333290671 5.2291666666662238 0.66666666666682306 0.22916666666622379 5.4583333333329049 0.50000000000003608 -0.45833333333290671 5.2132227891161653 0.31207482993217439 -0.21322278911616621 5.2291666666662087 0.66666666666678287 -0.22916666666621041 5 0.49999999999869399 0 5.2291666666662087 0.66666666666678287 -0.22916666666621041 5.2132227891161653 0.31207482993217439 -0.21322278911616621 5.4583333333329058 0.49999999999996392 0.45833333333290671 5.2132227891161733 0.31207482993225188 0.21322278911617421 5.2291666666662238 0.66666666666682306 0.22916666666622379 5 0.49999999999869399 0 5.2291666666662238 0.66666666666682306 0.22916666666622379 5.2132227891161733 0.31207482993225188 0.21322278911617421 5 0 0 5.2132227891161733 0.31207482993225188 0.21322278911617421 5.3333333333331892 0 0.33333333333318949 5 0.49999999999869399 0 5.2132227891161733 0.31207482993225188 0.21322278911617421 5 0 0 5 0 0 5.2132227891161653 0.31207482993217439 -0.21322278911616621 5.3333333333333313 0 -0.33333333333333132 5 0.49999999999869399 0 5.2132227891161653 0.31207482993217439 -0.21322278911616621 5 0 0 5.6666666666666634 0 -0.66666666666666341 5.3333333333333313 0 -0.33333333333333132 5.4583333333329049 0.50000000000003608 -0.45833333333290671 5.3333333333331892 0 0.33333333333318949 5.2132227891161733 0.31207482993225188 0.21322278911617421 5.4583333333329058 0.49999999999996392 0.45833333333290671 5.6666666666663614 0 0.66666666666636076 5.3333333333331892 0 0.33333333333318949 5.4583333333329058 0.49999999999996392 0.45833333333290671 5.3333333333333313 0 -0.33333333333333132 5.2132227891161653 0.31207482993217439 -0.21322278911616621 5.4583333333329049 0.50000000000003608 -0.45833333333290671 5.6666666666663614 0 0.66666666666636076 5.8611111111106986 0.512282690854023 0.86111111111069949 5.9999999999992077 0 0.99999999999920808 5.9999999999999956 0 -0.99999999999999556 5.6666666666666634 0 -0.66666666666666341 5.8611111111106604 0.49288233812051968 -0.86111111111066041 5.6666666666666634 0 -0.66666666666666341 5.4583333333329049 0.50000000000003608 -0.45833333333290671 5.8611111111106604 0.49288233812051968 -0.86111111111066041 5.6666666666663614 0 0.66666666666636076 5.4583333333329058 0.49999999999996392 0.45833333333290671 5.8611111111106986 0.512282690854023 0.86111111111069949 6.166666666665769 0.37301587301557287 1.166666666665769 5.8611111111106986 0.512282690854023 0.86111111111069949 6.1666666666666661 0.75595238095205264 1.1666666666666661 6.1666666666657663 0.6269841269844294 -1.1666666666657679 6.1666666666662664 0.29828042328064291 -1.166666666666266 5.8611111111106604 0.49288233812051968 -0.86111111111066041 5.9999999999992077 0 0.99999999999920808 5.8611111111106986 0.512282690854023 0.86111111111069949 6.166666666665769 0.37301587301557287 1.166666666665769 5.9999999999999956 0 -0.99999999999999556 6.1666666666662664 0.29828042328064291 -1.166666666666266 6.3333333333333277 0 -1.3333333333333279 5.9999999999999956 0 -0.99999999999999556 5.8611111111106604 0.49288233812051968 -0.86111111111066041 6.1666666666662664 0.29828042328064291 -1.166666666666266 5.9999999999992077 0 0.99999999999920808 6.166666666665769 0.37301587301557287 1.166666666665769 6.3333333333320549 0 1.3333333333320549 6.3333333333333277 0 -1.3333333333333279 6.1666666666662664 0.29828042328064291 -1.16666666
[...]
<PointData Scalars="A_conc," Vectors="" Tensors="">
<DataArray type="Float64" Name="A_conc" format="ascii">
1.0019939960096342 0.99404448305062709 0.99744178743380929 1.0004348134596071 0.99775946195736176 1.0004348134643655 1.0011921837337996 0.99732678951388853 0.99766702870433044 0.98849294659860565 0.99826004122735246 0.99782513690599117 0.9881191711376226 0.99816767714241428 0.99408733976643748 0.99516163214438791 0.97776044399800321 0.98819148412170554 0.95321579615342222 0.9663401044976988 0.97854917155888443 0.9893027570863685 0.97769071214241166 0.9663608482766517 0.97776945497506962 0.99517117160392332 0.98817197432128456 0.97855500357794045 0.96632065219101704 0.95322157917662986 0.98934586716184947 0.96634033537992503 0.9776970766947386 0.98809846969503468 0.99409748686205301 0.99864986333309202 1.000380230429853 1.0003802304271279 0.99804469922671268 1.0019028095322102 0.99780761025002573 0.99407755783875518 0.88748556867845541 0.92307599705117693 0.90440246959718917 0.93882644887914068 0.90443514176535278 0.92260619796440091 0.93829184742077565 0.95320705004929174 0.96706367306408558 0.92260766299937491 0.9538518891853911 0.93826754644508747 0.93830081613780791 0.96710731608065925 0.95320414515338903 0.9538492491560433 0.9226050827960055 0.93827598938654289 0.93883932775378987 0.92260436694231351 0.90444067440674691 0.9230743537570778 0.88748398653798033 0.90440763056734341 0.88780378303651442 0.84919790784184779 0.86777523347755336 0.82922479604621968 0.86800539550116229 0.84919213512867997 0.8874865882912949 0.86779620020390791 0.90478157781613522 0.88780392566973165 0.86777557276351391 0.84919799485685987 0.88748673599671712 0.90476318089053587 0.86779653198811069 0.82922252319598888 0.8491926336291733 0.86801552673068849 0.84938403283200004 0.82921318962806345 0.80883176707930537 0.82935124877705513 0.78785715981735427 0.80882392155280525 0.8293579928456366 0.80882388194484178 0.78785690040021461 0.80883137696362206 0.82921526560518299 0.84938363340670542 0.80891644493314474 0.76727566370409672 0.78784839925441208 0.74354309447888656 0.78789971272241455 0.76727013589719528 0.72526144976137263 0.74353621019923266 0.76728167576063899 0.7435263889611371 0.72525928313342292 0.70897767453782268 0.68339166544016205 0.70893425653941478 0.68338525131761885 0.68337053943056503 0.70896471163710684 0.72521345378298818 0.71473892905845515 0.70897143576654698 0.68337325205523825 0.71476164273437204 0.74350705365169423 0.70898408826957193 0.74352919359644576 0.71476605614961997 0.72526084488917697 0.68338679661770241 0.71469579539802208 0.68338781471023557 0.68336456021652259 0.72522066247145089 0.71474576088817943 0.72526128687636537 0.76728152570428498 0.74353546873328136 0.80891647492729024 0.78784867541137105 0.76727564624512856 0.74354215811802604 0.76727008415581077 0.7879015205553509 0.050860853335459331 0.029807617924619927 0.07255182056894359 0.55833183220338556 0.53868405590714163 0.57487969329437205 0.51945054335460328 0.5386823315957493 0.55812430623490361 0.047194770664916105 0.018537944603536079 0.03020830996310768 0.59876336190141688 0.57500241164607013 0.6244852053205846 0.12296739629729522 0.050840345871524743 0.076124990622738323 0.5985675226240964 0.55834216814999549 0.57502106689072896 0.1319074478409954 0.074581300296997818 0.21286229042314586 0.65280321402495001 0.32374609298649465 0.41632048229665125 0.67738887150430738 0.41143932954100443 0.67739391153433526 0.68335546810224046 0.65383305242103773 0.68335704955416154 0.68322815910042123 0.64056942422927221 0.65385837077804554 0.64042582924006786 0.59876279872063209 0.62473797749305726 0.64056508688576996 0.62476630926991128 0.65379723670526002 0.13020527090295725 0.23127900867647311 0.3069496637872895 0.32326228868337936 0.23327665393987537 0.40630633839357277 0.62473486468802142 0.65586084640538478 0.65382470545166371 0.68329902442790436 0.65386447668887726 0.65590899293779004 0.22820769292220106 0.42545275668071875 0.41114690604228027 0.66530439003327679 0.41791416744696319 0.43376701549909791 0.65446004415820713 0.43171314823695106 0.3231672017722923 0.67830184845911179 0.42826963055332551 0.67829172505034685 0.68323554121623342 0.65589824174010636 0.64056582217392577 0.68336538692125481 0.65588058906174662 0.68335844730181805 0.59876076172856485 0.64042391409786892 0.62474231390769253 0.32304766535161905 0.419775834521738 0.23368583285127925 0.13004100062460591 0.30675382896491199 0.23165641247500179 0.6405632585284412 0.65582660478820254 0.62477048078602715 0.12289720906212405 0.076419655648436072 0.050760901537706564 0.55833991625840573 0.59856539915006646 0.57502577287904499 0.59876128599463474 0.62449336566473024 0.57500703179690649 0.13181506606584242 0.21281502233692823 0.074920081788927062 0.031502109138942976 0.067311440264803027 0.031657831266228377 0.53872439537220429 0.53874711185776836 0.57466180051772275 0.0508049430562664 0.072412807291594564 0.030246184093407548 0.55812274686298824 0.5386760767220018 0.51944867491576119 0.5583302289755685 0.57489414841886333 0.53867791720194458 0.047165611314516173 0.030583718058225632 0.018463308416697202 0.51943645801046789 0.53847360664443245 0.50066874057491151 0.4822712472193999 0.51921335612016672 0.50066796659698964 0.0065281518321506976 0.017178848130397825 0.011109294033718173 0.018580099806665952 0.028452495004765752 0.010988602537216667 0.0022663412059572767 0.0060828986808968291 0.0038979935623719452 0.48227044972402872 0.50049619638848897 0.46435739283053518 0.48203817283263356 0.46435667928171126 0.44692351075647274 0.0065998187960719821 0.01036704403565589 0.0038516422017886584 0.50018027675531196 0.46481647974951101 0.46446152254589268 0.0040585011242792735 0.009502748734344266 0.0041236000682076312 0.02987217357169978 0.029995021297084892 0.009816537933318591 0.53858109068912197 0.50055498933874709 0.53860415182264754 0.51922089295011842 0.48227897000434744 0.5006544247610013 0.51944389914556566 0.5006553708209992 0.53846813251951287 0.018504943856905782 0.011065897446852577 0.028409716204598735 0.017115413989039634 0.0064861185408298097 0.011168034885197851 0.0060495479474579417 0.0022521319474854058 0.0038835094577656785 0.0065632931126912951 0.0038388593425035342 0.010458289524132513 0.4822796272157856 0.46477163037756913 0.50046167487775983 0.48204908009431091 0.44692964910037908 0.4647675557656179 0.0022711109726454835 0.0015012795665031889 0.0036581901231069239 0.44693739561762008 0.43278639119158258 0.46456041170949858 0.0020984553282215072 0.00074360315445245215 0.0014892516909601474 0.41344084560164041 0.43275991131125258 0.44671379916050391 0.00076451001884110948 0.00038762349698473865 0.0013230167183537161 0.41343147690740695 0.39326300220532179 0.43242196130242733 0.41341772213472061 0.43243192083434151 0.39329217114221227 0.0013127069087618003 0.00037643739451619638 0.00077076520139854787 0.43268861643857437 0.46433086540136154 0.46468088352513415 0.0013224799086457143 0.0038581291553172509 0.0039106660893848911 0.00075550841614244657 0.0021155979330931269 0.0014686932349663494 0.44692224287531085 0.46418629748817053 0.43281387481278494 0.0014746862774894776 0.0022919275546980241 0.0036381403597371765 0.41342552449261666 0.44669858761515024 0.43278748999839345 0.38188795568222872 0.41315947487409166 0.3933341218604367 0.00070381481610720957 0.00039269650373878457 0.00026448231628567118 0.38186668881945407 0.39317320348279433 0.36571354070418155 0.00037040673782155021 0.00014290460864416736 0.00026354363364815693 0.00015441526247932639 0.00015228142000898526 0.0003427222600381348 0.36578182193648767 0.39292351322845454 0.36687487641406352 0.00014537880113234012 4.4246368288833759e-05 0.00014367455636559562 0.36564055316328187 0.36671642895624651 0.33790378464480236 0.35219903779103684 0.38162607788162012 0.36572546865332523 0.35219134052896189 0.36551926238762966 0.33802240485386997 8.7681130989493479e-05 0.00024114094685765488 0.00014616882678188746 5.0155427008194947e-05 8.7621675172491056e-05 0.00013566733587093343 4.7181308998003685e-05 1.6076375754069481e-05 2.8933795843415358e-05 8.0238015473586049e-05 5.0802971609704644e-05 2.8540794099622309e-05 0.35196107974553714 0.33802360195765546 0.32437655721248004 0.32437687772989887 0.33782933704899831 0.31118453394708867 2.6446593177217862e-05 1.636118164517085e-05 9.4044659928824887e-06 5.5402397357457606e-06 9.4224726933448533e-06 1.5202269769870647e-05 0.29837909161196596 0.32415380952731615 0.31118497020704383 0.2983749830263257 0.31097199055918173 0.28610094903590638 4.7481977419182759e-06 1.6330750609396031e-05 1.6660552468984873e-05 0.31109710886134428 0.31110681567867371 0.28598882561757361 0.31124363925777143 0.33753674237177522 0.31125346070480608 4.2850634114044942e-05 1.7783745132049984e-05 1.736543785340793e-05 0.32437632663085281 0.31116808931700679 0.33783962462721256 0.32437602188297365 0.33802123780119619 0.35196049406103236 7.9736434113048931e-05 2.8129530123965021e-05 5.1785103327379205e-05 4.7824137250850044e-05 2.8676545024756214e-05 1.6556399390915582e-05 0.29836787072761473 0.28610820962020134 0.31096745850900875 0.29837867511167226 0.31116859677563197 0.32415322013728842 5.6423037129346035e-06 1.5461741891842762e-05 9.3783491827010582e-06 2.624499336020042e-05 9.2418198434752162e-06 1.6739986023768785e-05 0.35219074549968521 0.33802005993043349 0.3665811921450024 0.35220795373528163 0.36679790650789762 0.3816526337684083 8.698027321392712e-05 5.1393701378378249e-05 0.00013643286553534654 0.00023848659194001731 8.6306641412528041e-05 0.00014678554343494217 0.00026048946194364168 0.00014398274627686655 0.00037665429590479793 0.38188746873930818 0.36679759531734452 0.39317074128571528 0.00069885723325472824 0.00026055784205018833 0.00040155282241372659 0.38190171378274806 0.3933049624631913 0.41317323027095459 0.21136752377846996 0.22339905100896112 0.2112736035278151 0.21122287841616619 0.22348707339635196 0.23048430977091361 1.0053624362488171e-07 1.1725767450194446e-07 2.1579482183522938e-07 2.9108767297526089e-07 9.3061496635962635e-08 2.2629566555562863e-07 0.23065329908777363 0.22352108433354204 0.24148616666365039 0.25138507360228063 0.23063710236986834 0.24161550115354372 3.0378912712557624e-07 6.2451558810727568e-07 9.0250618387612654e-07 3.15690305221247e-07 2.3267723569180761e-07 5.8463750003460326e-07 0.27413022999343384 0.26266141329544918 0.28594836371780652 2.9726846956980483e-06 5.6642665444987049e-06 8.5897274049231778e-06 0.29815308648755023 0.27412928313479001 0.28610841422332856 5.2210165004018e-06 3.044697517346921e-06 1.7866007280903732e-06 0.25157712310760943 0.24162312949574877 0.26250149643006376 9.8424911139401304e-07 6.2842485140246064e-07 1.666807231182897e-06 0.2739243274452266 0.25158265274891362 0.26266209208279434 9.6449544802678662e-07 1.8003961957105556e-06 2.7844775209266231e-06 0.24150612495921894 0.26270621477733291 0.26263217315716703 5.2904797687198263e-07 1.7754206184859968e-06 1.8074652915382431e-06 0.28566059732076038 0.26275897350931465 0.2628344107129692 4.6816297644726691e-06 1.9259689731460495e-06 1.8854633283305497e-06 0.27413768508204334 0.28592082527205981 0.2627793410193478 8.6232892273679961e-06 5.5825689508563943e-06 3.0030910227896083e-06 5.1705206667633021e-06 1.7389524893470371e-06 3.0613349972430214e-06 0.29816014651592365 0.28610126141800507 0.27413619454505195 6.2211124864000696e-07 9.8737987142417038e-07 1.644080010751942e-06 0.25158919167477001 0.26259102018811115 0.2416053536797344 9.7710167906442531e-07 2.7965907719511847e-06 1.7619940518469018e-06 0.25158854557400728 0.27393239423165777 0.26277878746353095 0.23066721100256807 0.24147652110354276 0.22418907897488047 9.0494507932668616e-07 6.1949347709159053e-07 3.0584571085706468e-07 0.25139701800146796 0.2415979757976183 0.23064881815119004 5.7779380467451835e-07 2.187628923861837e-07 3.1678210065260289e-07 0.2412873266598336 0.22356769423733819 0.22422196610752276 5.326202386497644e-07 2.4435992646085601e-07 2.3011013716636236e-07 0.21129744313306176 0.22416470565658991 0.22351866963183437 2.3582461894900814e-07 1.0723167288579051e-07 2.2375564999261481e-07 2.912798909551608e-07 2.1474573668134341e-07 9.5243651373450772e-08 0.21122778542935569 0.23050232239451657 0.22414669351982378 1.1620237396594939e-07 1.0157644440805392e-07 2.0658949976858309e-07 0.21127943345694225 0.22404149068566021 0.21135572557833823 
</DataArray>
</PointData>
</Piece>
</UnstructuredGrid>
</VTKFile>
