<?xml version="1.0"?>
<VTKFile type="UnstructuredGrid" version="0.1" byte_order="LittleEndian">
<UnstructuredGrid>
<Piece NumberOfPoints="594" NumberOfCells="198">
<Points>
<DataArray type="Float64" NumberOfComponents="3" format="ascii">
9.6666666666666661 0 -4.6666666666666661 9.4901933183181697 0.51982786357785593 -4.4901933183181688 9.7758804637971792 0.34775096525134458 -4.7758804637971783 9.3333333333333321 0 -4.3333333333333313 9.4901933183181697 0.51982786357785593 -4.4901933183181688 9.6666666666666661 0 -4.6666666666666661 10 0 -5 9.6666666666666661 0 -4.6666666666666661 9.7758804637971792 0.34775096525134458 -4.7758804637971783 10 0 -5 9.7758804637971792 0.34775096525134458 -4.7758804637971783 10 0.50000000000205913 -5 10 0.50000000000205913 -5 9.7758804637971792 0.34775096525134458 -4.7758804637971783 9.7872434934932606 0.6855265980269214 -4.7872434934932597 9.4901933183181697 0.51982786357785593 -4.4901933183181688 9.7872434934932606 0.6855265980269214 -4.7872434934932597 9.7758804637971792 0.34775096525134458 -4.7758804637971783 9.6666666666664156 1 -4.6666666666664156 9.7872434934932606 0.6855265980269214 -4.7872434934932597 9.4901933183181697 0.51982786357785593 -4.4901933183181688 9.3333333333328294 1 -4.3333333333328294 9.6666666666664156 1 -4.6666666666664156 9.4901933183181697 0.51982786357785593 -4.4901933183181688 10 0.50000000000205913 -5 9.7872434934932606 0.6855265980269214 -4.7872434934932597 10 1 -5 10 1 -5 9.7872434934932606 0.6855265980269214 -4.7872434934932597 9.6666666666664156 1 -4.6666666666664156 8.999999999999245 1 -3.999999999999245 9.3333333333328294 1 -4.3333333333328294 9.166666666666039 0.75595238095243689 -4.1666666666660381 9.3333333333328294 1 -4.3333333333328294 9.4901933183181697 0.51982786357785593 -4.4901933183181688 9.166666666666039 0.75595238095243689 -4.1666666666660381 8.999999999999245 1 -3.999999999999245 9.166666666666039 0.75595238095243689 -4.1666666666660381 8.8333333333330302 0.52513227513218741 -3.8333333333330288 8.6666666666656589 1 -3.6666666666656589 8.999999999999245 1 -3.999999999999245 8.8333333333330302 0.52513227513218741 -3.8333333333330288 9.4901933183181697 0.51982786357785593 -4.4901933183181688 9.1653591091089677 0.37901055817719992 -4.1653591091089686 9.166666666666039 0.75595238095243689 -4.1666666666660381 9.3333333333333321 0 -4.3333333333333313 8.9999999999999964 0 -3.9999999999999969 9.1653591091089677 0.37901055817719992 -4.1653591091089686 9.3333333333333321 0 -4.3333333333333313 9.1653591091089677 0.37901055817719992 -4.1653591091089686 9.4901933183181697 0.51982786357785593 -4.4901933183181688 8.8333333333330302 0.52513227513218741 -3.8333333333330288 9.166666666666039 0.75595238095243689 -4.1666666666660381 9.1653591091089677 0.37901055817719992 -4.1653591091089686 8.6666666666666625 0 -3.666666666666663 8.8333333333330302 0.52513227513218741 -3.8333333333330288 8.9999999999999964 0 -3.9999999999999969 8.9999999999999964 0 -3.9999999999999969 8.8333333333330302 0.52513227513218741 -3.8333333333330288 9.1653591091089677 0.37901055817719992 -4.1653591091089686 8.4999999999998455 0.37301587301576589 -3.4999999999998459 8.4999999999992628 0.70507054673714353 -3.4999999999992641 8.8333333333330302 0.52513227513218741 -3.8333333333330288 8.6666666666666625 0 -3.666666666666663 8.4999999999998455 0.37301587301576589 -3.4999999999998459 8.8333333333330302 0.52513227513218741 -3.8333333333330288 8.6666666666666625 0 -3.666666666666663 8.3333333333333286 0 -3.3333333333333282 8.4999999999998455 0.37301587301576589 -3.4999999999998459 8.4999999999998455 0.37301587301576589 -3.4999999999998459 8.1677083333328273 0.51603966288628356 -3.167708333332826 8.4999999999992628 0.70507054673714353 -3.4999999999992641 8.3333333333333286 0 -3.3333333333333282 8.1677083333328273 0.51603966288628356 -3.167708333332826 8.4999999999998455 0.37301587301576589 -3.4999999999998459 7.9999999999999929 0 -2.9999999999999929 8.1677083333328273 0.51603966288628356 -3.167708333332826 8.3333333333333286 0 -3.3333333333333282 7.666666666666659 0 -2.666666666666659 7.5441798941785558 0.50932853577008119 -2.5441798941785572 7.8458333333325694 0.36721576227400882 -2.8458333333325689 7.666666666666659 0 -2.666666666666659 7.333333333333325 0 -2.333333333333325 7.5441798941785558 0.50932853577008119 -2.5441798941785572 7.9999999999999929 0 -2.9999999999999929 7.8458333333325694 0.36721576227400882 -2.8458333333325689 8.1677083333328273 0.51603966288628356 -3.167708333332826 7.9999999999999929 0 -2.9999999999999929 7.666666666666659 0 -2.666666666666659 7.8458333333325694 0.36721576227400882 -2.8458333333325689 7.8458333333325694 0.36721576227400882 -2.8458333333325689 7.8333333333316926 0.74717377261014672 -2.833333333331693 8.1677083333328273 0.51603966288628356 -3.167708333332826 7.8458333333325694 0.36721576227400882 -2.8458333333325689 7.5441798941785558 0.50932853577008119 -2.5441798941785572 7.8333333333316926 0.74717377261014672 -2.833333333331693 7.6666666666649013 1 -2.6666666666649008 7.8333333333316926 0.74717377261014672 -2.833333333331693 7.5441798941785558 0.50932853577008119 -2.5441798941785572 7.6666666666649013 1 -2.6666666666649008 7.5441798941785558 0.50932853577008119 -2.5441798941785572 7.3333333333313142 1 -2.3333333333313142 7.9999999999984883 1 -2.9999999999984879 8.1677083333328273 0.51603966288628356 -3.167708333332826 7.8333333333316926 0.74717377261014672 -2.833333333331693 7.9999999999984883 1 -2.9999999999984879 7.8333333333316926 0.74717377261014672 -2.833333333331693 7.6666666666649013 1 -2.6666666666649008 8.3333333333320745 1 -3.333333333332074 8.1677083333328273 0.51603966288628356 -3.167708333332826 7.9999999999984883 1 -2.9999999999984879 8.3333333333320745 1 -3.333333333332074 8.4999999999992628 0.70507054673714353 -3.4999999999992641 8.1677083333328273 0.51603966288628356 -3.167708333332826 8.6666666666656589 1 -3.6666666666656589 8.4999999999992628 0.70507054673714353 -3.4999999999992641 8.3333333333320745 1 -3.333333333332074 8.6666666666656589 1 -3.6666666666656589 8.8333333333330302 0.52513227513218741 -3.8333333333330288 8.4999999999992628 0.70507054673714353 -3.4999999999992641 5.3333333333333313 0 -0.33333333333333132 5.2132227891161653 0.31207482993217439 -0.21322278911616621 5.4583333333329049 0.50000000000003608 -0.45833333333290671 5.6666666666666634 0 -0.66666666666666341 5.3333333333333313 0 -0.33333333333333132 5.4583333333329049 0.50000000000003608 -0.45833333333290671 5 0 0 5.2132227891161653 0.31207482993217439 -0.21322278911616621 5.3333333333333313 0 -0.33333333333333132 5 0.49999999999869399 0 5.2132227891161653 0.31207482993217439 -0.21322278911616621 5 0 0 5.4583333333329049 0.50000000000003608 -0.45833333333290671 5.2132227891161653 0.31207482993217439 -0.21322278911616621 5.2291666666662087 0.66666666666678287 -0.22916666666621041 5 0.49999999999869399 0 5.2291666666662087 0.66666666666678287 -0.22916666666621041 5.2132227891161653 0.31207482993217439 -0.21322278911616621 5.3333333333331892 1 -0.33333333333318949 5.4583333333329049 0.50000000000003608 -0.45833333333290671 5.2291666666662087 0.66666666666678287 -0.22916666666621041 5.3333333333331892 1 -0.33333333333318949 5.6666666666663614 1 -0.66666666666636076 5.4583333333329049 0.50000000000003608 -0.45833333333290671 5 1 0 5.3333333333331892 1 -0.33333333333318949 5.2291666666662087 0.66666666666678287 -0.22916666666621041 5 1 0 5.2291666666662087 0.66666666666678287 -0.22916666666621041 5 0.49999999999869399 0 5.6666666666663614 1 -0.66666666666636076 5.8611111111106604 0.49288233812051968 -0.86111111111066041 5.4583333333329049 0.50000000000003608 -0.45833333333290671 5.6666666666663614 1 -0.66666666666636076 5.9999999999992077 1 -0.99999999999920808 5.8611111111106604 0.49288233812051968 -0.86111111111066041 5.9999999999992077 1 -0.99999999999920808 6.1666666666657663 0.6269841269844294 -1.1666666666657679 5.8611111111106604 0.49288233812051968 -0.86111111111066041 6.3333333333320549 1 -1.3333333333320549 6.1666666666657663 0.6269841269844294 -1.1666666666657679 5.9999999999992077 1 -0.99999999999920808 5.6666666666666634 0 -0.66666666666666341 5.4583333333329049 0.50000000000003608 -0.45833333333290671 5.8611111111106604 0.49288233812051968 -0.86111111111066041 5.9999999999999956 0 -0.99999999999999556 5.6666666666666634 0 -0.66666666666666341 5.8611111111106604 0.49288233812051968 -0.86111111111066041 6.1666666666657663 0.6269841269844294 -1.1666666666657679 6.1666666666662664 0.29828042328064291 -1.166666666666266 5.8611111111106604 0.49288233812051968 -0.86111111111066041 5.9999999999999956 0 -0.99999999999999556 5.8611111111106604 0.49288233812051968 -0.86111111111066041 6.1666666666662664 0.29828042328064291 -1.166666666666266 5.9999999999999956 0 -0.99999999999999556 6.1666666666662664 0.29828042328064291 -1.166666666666266 6.3333333333333277 0 -1.3333333333333279 6.1666666666657663 0.6269841269844294 -1.1666666666657679 6.4999999999989599 0.47938712522071519 -1.4999999999989611 6.1666666666662664 0.29828042328064291 -1.166666666666266 6.666666666666659 0 -1.666666666666659 6.3333333333333277 0 -1.3333333333333279 6.4999999999989599 0.47938712522071519 -1.4999999999989611 6.3333333333333277 0 -1.3333333333333279 6.1666666666662664 0.29828042328064291 -1.166666666666266 6.4999999999989599 0.47938712522071519 -1.4999999999989611 6.4999999999989599 0.47938712522071519 -1.4999999999989611 6.8296296296280934 0.62204375577420579 -1.8296296296280941 6.8333333333333259 0.24404761904793049 -1.8333333333333259 6.666666666666659 0 -1.666666666666659 6.8333333333333259 0.24404761904793049 -1.8333333333333259 6.9999999999999911 0 -1.9999999999999909 6.666666666666659 0 -1.666666666666659 6.4999999999989599 0.47938712522071519 -1.4999999999989611 6.8333333333333259 0.24404761904793049 -1.8333333333333259 6.9999999999999911 0 -1.9999999999999909 6.8333333333333259 0.24404761904793049 -1.8333333333333259 7.1388888888874096 0.48356009070323391 -2.13888888888
[...]
<PointData Scalars="A_conc," Vectors="" Tensors="">
<DataArray type="Float64" Name="A_conc" format="ascii">
0.69147419917275899 0.70541313509178927 0.68281587079876005 0.71775291207601344 0.70539494249735057 0.69147809614220013 0.66501470716447353 0.69149011883543832 0.68281931105821259 0.66501028210893609 0.68282644997474629 0.66500249171207193 0.66500794022557186 0.68281566236802527 0.68191196325562142 0.70543741970416662 0.68190764098409173 0.68281071417052364 0.69147608267861871 0.68191444621888775 0.70541132935151518 0.71775521331229064 0.69147999098516799 0.70539190451484213 0.66500170590474672 0.68192270035547653 0.66501056059315466 0.66501488636072947 0.6819172186488982 0.69149218712269656 0.74365343576343634 0.71772175021985352 0.73071352724509198 0.71772146989933605 0.70539065244687105 0.73074667339750554 0.74360019051661619 0.73071491869666505 0.75638078081861815 0.76903600827879814 0.74360219357037904 0.75633185086236299 0.70541696476326121 0.7308195791029688 0.73071552632236925 0.71772080516709758 0.74365096369787398 0.73080696155301283 0.71771894261893787 0.73084752832571509 0.70539413678768248 0.75646207480584204 0.73068660583303624 0.73079056188358282 0.76903380521901776 0.75633373506944568 0.74360030307664216 0.74359799824660477 0.75638840577195909 0.7308077446032869 0.78141799502646736 0.78141523289790604 0.75637753838354571 0.76896175892702512 0.78146749324285203 0.75633444784406534 0.76896205871447365 0.79374375086639326 0.78138838967387281 0.78136212070179833 0.8058104048739666 0.7813591330670715 0.79365173600790329 0.80568259718800095 0.78138960088225506 0.8176243329305346 0.80559424174487315 0.79365372364029674 0.84038350809256912 0.84854930350119617 0.82820803787479647 0.84037242649006461 0.86228095947837358 0.84845259525437888 0.81751225625321167 0.82830785118016248 0.80559556312672198 0.8175099799656097 0.84051860073204776 0.82820030997889171 0.82824202533406943 0.82912135643197815 0.80565867681252368 0.82816697450818189 0.848695882928719 0.82903721626152072 0.8403709722407523 0.82908279426827902 0.84855249412771316 0.84036341955715854 0.84847169698485592 0.86227171414990833 0.81751204974252201 0.80559747795103809 0.82919361533473057 0.81750480717779295 0.82908094737976279 0.84050330925942685 0.79365343090257456 0.80559613862019364 0.81762413484696506 0.7936515988636359 0.78139711477088702 0.80567892489380022 0.7689616329372585 0.78139567233023288 0.79374372802248894 0.7689640716113314 0.75633234725692222 0.78146987793398504 0.96069148660959203 0.96473052621634836 0.9563355828050315 0.94858420547172595 0.96090094020074213 0.9563735577969098 0.97129581986484115 0.96460748139002961 0.96068946317639603 0.97103101371770251 0.96464983103881863 0.97104589246237449 0.95639618094083734 0.96467004530743372 0.96414875780453202 0.97117132046074395 0.96407938146002448 0.96458506587485271 0.9606888010350082 0.95634084828079036 0.96419934966031129 0.96089827005604611 0.94858153426750313 0.95637878845531477 0.97131137322275929 0.96068313021361829 0.96409569716995847 0.97105410627933619 0.96415267861556953 0.97104364145015853 0.948573400308237 0.94063956927395731 0.95671560742860251 0.94880923833208641 0.93458835418107489 0.94061427939073372 0.93459759004933785 0.92695656309085905 0.9407717616681478 0.91887574135771688 0.92695569768230357 0.93481229552017853 0.9485759174415902 0.95670563331241176 0.94063514999190712 0.93459084037975371 0.94881172643656042 0.94060992247585395 0.92690993510159281 0.92688814541935238 0.94100666874025585 0.9345994129882379 0.94075690950041835 0.92696396509456513 0.93481413867269725 0.92696307250008159 0.91887744957112205 0.92704970965724498 0.91046882457564526 0.92702826595785259 0.90148596439930362 0.91908916166225041 0.91035760647099295 0.91888695066422266 0.92715717792181096 0.91035834024744733 0.91076960528003847 0.89234909716406119 0.89210897721328397 0.90167210639074225 0.89219554801043732 0.88251232850683159 0.90148466685330719 0.91050569918396373 0.89219695039922653 0.88251229397653141 0.89232346117737893 0.87412345071544273 0.86211583583799689 0.8826730920854855 0.87414173297432696 0.87421973393491847 0.89221033903932501 0.89245361391626887 0.86211706602753169 0.87438254476729627 0.84847975667066866 0.86210753839848009 0.84849942667585054 0.87439045703180862 0.86210446178774169 0.87416168947720596 0.88266139340246308 0.88250033367839908 0.87414393997520501 0.8925483429010499 0.90147643046144166 0.8923892970459516 0.91053484744945079 0.90166245161040048 0.88250756033397559 0.89239079449844638 0.91908201067651618 0.90147894127752337 0.91036930904868274 0.91887969241145229 0.9103702664075185 0.92716165277124618 0.15410232380294245 0.076860072417512804 0.11281099053636735 0.1604366667013378 0.11260888362656883 0.21726896590234318 0.073514285667241802 0.034749756940561566 0.052531445239119984 0.077126531761332662 0.052378593180222491 0.10882694986857616 0.033141254096298471 0.014784756268618669 0.024982426006030733 0.034884653215683604 0.025120289140871589 0.050498849304174573 0.01493535570397996 0.0086474738890343229 0.023066577865628907 0.022981042834865004 0.0085179138511960947 0.01500251533613039 0.023685168440883773 0.051963319453835234 0.052398401747875592 0.024893742740717147 0.035044516734316092 0.050308144506988402 0.014895578087412091 0.033280964433475231 0.024792309796592863 0.03486984761455636 0.07370114050116533 0.052566476594993271 0.077323643240186576 0.10826069889150801 0.052398803359780997 0.053583466273367783 0.10289606606002498 0.054086392386988848 0.16071493227920031 0.21720388528141504 0.11221293676962964 0.077077715921511872 0.15435576025656067 0.11246586437534624 0.2215347942813177 0.22226133781192337 0.10836938713600885 0.30896230511652056 0.38727695565192094 0.22478102731556759 0.29975158500018911 0.22494031893114966 0.16060323153470324 0.22690673926975299 0.37689334952959308 0.22772924045346063 0.52335117859283353 0.39432375461177493 0.30937973726070284 0.53283838803396477 0.6895833826066996 0.39367041710010897 0.30907428162298722 0.22399474465457855 0.38801111980064473 0.29984913272150254 0.16071629845826044 0.22417018802671482 0.53289844153828603 0.39365939635620623 0.68996868718839977 0.52343403181433545 0.30942703357893231 0.39426197674778407 0.97758797851773571 0.87137682679901585 0.97757742840768735 0.99632371600689962 0.79389672404900657 0.86615281847401382 0.53407843766760876 0.69811238414039911 0.79468800135783579 0.7938342774592495 0.69953513285472246 0.86998199022245737 0.98836313258972552 0.8646488777128386 0.87441705397677227 0.70162763345403556 0.87828010389113131 0.86760367252558201 0.97676808209151422 0.88040027886871042 0.97678254717714386 0.99526968918998682 0.87610068417701414 0.79443952980424348 0.79395177769229108 0.88087950888608724 0.69927792376800502 0.53411166631524598 0.79475744173551088 0.6979394908456481 0.00093097209953246958 0.00038067058842023761 0.00062718505029373288 0.00024406435855919069 0.00058850421415241607 0.00038374024608661542 0.0023728322101888395 0.00098695222560616974 0.0016263029174070182 0.0015317035400704228 0.00099707845587290928 0.00062283956180617193 0.005876270569268276 0.0025252282087814227 0.0038999134651385957 0.0025334873600323647 0.0016183539523917912 0.0036906753271665703 0.0062641984281324994 0.0038571736912804428 0.0084467714441645754 0.014030588412057267 0.0062792537874437034 0.008830870582234954 0.004022035051929068 0.0040110181002338229 0.007905131825143236 0.0038519514923482942 0.0014835890176171204 0.0038420659653880004 0.0025463570065796218 0.0059146582729149863 0.0039018749603014313 0.0015988286479971332 0.0025423524317351198 0.0036897273105769481 0.014086833785123938 0.0087218276815629863 0.0063274213313458906 0.0083725342738514615 0.0038558184403961943 0.0063059422414835017 0.002380054116971893 0.0016099516469062118 0.00099345965881122121 0.0015222794810172402 0.00061226904366480238 0.0010013206075945246 0.0014099864694982072 0.00065241707965917159 0.00064545654723086856 0.00093433412906127815 0.00061837276592774609 0.00038390134510947103 0.00024227618494364344 0.00038415258425745699 0.00058297141116879188 0.00021904130813031359 0.00061497343516849639 0.00062073484209707324 0.00022905345994302716 8.8882896872839119e-05 0.00014519905873456215 0.00035810037241653471 0.00024341446662401784 0.00014346652362929349 0.000210835217721748 9.5111648924639777e-05 9.4339111987659833e-05 3.5510884843237679e-05 5.3927591164286049e-05 8.4577564899510375e-05 5.3560871225023672e-05 0.00013498249291289623 8.9616903571472937e-05 3.1690896719469502e-05 8.9795004632256618e-05 9.0434746931366443e-05 0.00014305045185946581 0.00024494506865177003 0.00035780045475377643 0.00022969419411082511 0.00014503251803222466 9.0273247017999311e-05 5.3315488504055567e-05 9.080382016981442e-05 0.00013489704184936147 5.3965538493747059e-05 3.5548369442058372e-05 8.5152142426037856e-05 7.1611600784681064e-06 7.9331833601622063e-06 1.3916568035706305e-05 1.8496483064707312e-05 6.7796326621955888e-06 1.4502802431109766e-05 1.930874121555335e-05 3.5443195252201722e-05 5.0220768453792966e-05 1.9801560944679675e-05 1.4810257775601853e-05 3.3600468551312451e-05 3.1174207482335685e-05 1.5336856307324084e-05 1.4672680387341404e-05 1.4904749953896794e-05 7.4412989793769983e-06 1.4331499837881528e-05 1.8432640565249087e-05 1.3892420878338613e-05 6.8505931463283155e-06 7.9196276160732359e-06 7.185108320245934e-06 1.3439844403915879e-05 3.3447349231197611e-05 1.409982337375035e-05 1.9770862244092303e-05 5.0187301111183336e-05 3.5403814060331886e-05 1.9300618984078245e-05 0.99997796071590572 1.0000036962125023 1.0000029681784659 0.99997468169768999 1.0000054507488818 0.99999633988341863 1.0000053634712518 0.99999517111282499 0.99999883948628443 1.0000004073957289 0.99999915520019622 1.0000004073967173 1.000001759047529 0.99999891947673047 0.99999917095893032 1.0000049535573461 0.99999940727602166 0.99999506730626175 1.0000003099843231 1.0000003099828005 0.99999935871087231 0.99997455608507635 0.99999639994409173 1.0000068431854643 0.99991163192035748 1.0000164522850401 0.99997820253551306 1.0000180090141713 0.99978492302160482 0.99991282771596601 0.99996075467728984 0.99978729291675728 0.99957160359110542 1.0000157943745149 0.99991253603276409 0.99978466806630906 1.000016352754987 0.99991147583321383 0.99997841026517786 0.99957118010517321 0.99978712899078004 0.99996041373111288 0.99922733693349863 0.99985243228902376 0.999574297397409 0.99965333416614821 0.9987481111763532 0.99922898950521521 0.99922704384620031 0.9995746783026217 0.99985009963822635 0.99874856487129171 0.99965375297198078 0.99922862390229361 0.99932564273001467 0.99802953732919986 0.99875401223779903 0.99719264639134808 0.99886597110096298 0.99802739704989174 0.99932697292056916 0.99875353354352503 0.99803014577717231 0.99886545938013316 0.9971921135039401 0.99802806931408405 0.99733969891521135 0.99466515945392964 0.99600576062194135 0.99719932736389882 0.99600776232626753 0.99815079692417574 0.99296671800111269 0.99614561225024412 0.9946693170172608 0.99094865329043336 0.99296869445239311 0.99483222896744161 0.99314785035097408 0.99095156333388368 0.98854503990952258 0.99313999050965418 0.98854473183406755 0.99095177144272228 0.99483279641004541 0.99296782733676059 0.99094922057246881 0.99296589062037821 0.99466986389092127 0.99615207089087099 0.99719943451896675 0.99814517391663582 0.99600756200174645 0.99733980678785161 0.99600555894196707 0.99466527640930336 0.98238670071343026 0.97731284361261694 0.9792232670702683 0.97098225416332073 0.97754415727554456 0.97097186899625709 0.97105948353353833 0.97939600208470368 0.97738255705670574 0.97740101817593306 0.97624095745707817 0.97103291126984947 0.97103078468306303 0.97627366625176892 0.97942449279521981 0.97096888331232878 0.97636591971248221 0.97098373600542875 0.98241397357199955 0.97923254397703607 0.97624186198883001 0.9773153278236667 0.98255501759297859 0.97619510746024662 0.97923634271729765 0.98230186691936183 0.98607299492371037 0.99113552139084726 0.98585506415178081 0.98854480201126971 0.98231808480611948 0.98875002657390709 0.98586615152009272 0.98231621984925122 0.98586716246457728 0.98875860634442858 0.99113573032263114 0.98854449284217993 0.98585528177372772 0.9792373615618184 0.98607402425748214 0.98229996653315521 
</DataArray>
</PointData>
</Piece>
</UnstructuredGrid>
</VTKFile>
