<?xml version="1.0"?>
<VTKFile type="UnstructuredGrid" version="0.1" byte_order="LittleEndian">
<UnstructuredGrid>
<Piece NumberOfPoints="594" NumberOfCells="198">
<Points>
<DataArray type="Float64" NumberOfComponents="3" format="ascii">
9.6666666666666661 0 -4.6666666666666661 9.4901933183181697 0.51982786357785593 -4.4901933183181688 9.7758804637971792 0.34775096525134458 -4.7758804637971783 9.3333333333333321 0 -4.3333333333333313 9.4901933183181697 0.51982786357785593 -4.4901933183181688 9.6666666666666661 0 -4.6666666666666661 10 0 -5 9.6666666666666661 0 -4.6666666666666661 9.7758804637971792 0.34775096525134458 -4.7758804637971783 10 0 -5 9.7758804637971792 0.34775096525134458 -4.7758804637971783 10 0.50000000000205913 -5 10 0.50000000000205913 -5 9.7758804637971792 0.34775096525134458 -4.7758804637971783 9.7872434934932606 0.6855265980269214 -4.7872434934932597 9.4901933183181697 0.51982786357785593 -4.4901933183181688 9.7872434934932606 0.6855265980269214 -4.7872434934932597 9.7758804637971792 0.34775096525134458 -4.7758804637971783 9.6666666666664156 1 -4.6666666666664156 9.7872434934932606 0.6855265980269214 -4.7872434934932597 9.4901933183181697 0.51982786357785593 -4.4901933183181688 9.3333333333328294 1 -4.3333333333328294 9.6666666666664156 1 -4.6666666666664156 9.4901933183181697 0.51982786357785593 -4.4901933183181688 10 0.50000000000205913 -5 9.7872434934932606 0.6855265980269214 -4.7872434934932597 10 1 -5 10 1 -5 9.7872434934932606 0.6855265980269214 -4.7872434934932597 9.6666666666664156 1 -4.6666666666664156 8.999999999999245 1 -3.999999999999245 9.3333333333328294 1 -4.3333333333328294 9.166666666666039 0.75595238095243689 -4.1666666666660381 9.3333333333328294 1 -4.3333333333328294 9.4901933183181697 0.51982786357785593 -4.4901933183181688 9.166666666666039 0.75595238095243689 -4.1666666666660381 8.999999999999245 1 -3.999999999999245 9.166666666666039 0.75595238095243689 -4.1666666666660381 8.8333333333330302 0.52513227513218741 -3.8333333333330288 8.6666666666656589 1 -3.6666666666656589 8.999999999999245 1 -3.999999999999245 8.8333333333330302 0.52513227513218741 -3.8333333333330288 9.4901933183181697 0.51982786357785593 -4.4901933183181688 9.1653591091089677 0.37901055817719992 -4.1653591091089686 9.166666666666039 0.75595238095243689 -4.1666666666660381 9.3333333333333321 0 -4.3333333333333313 8.9999999999999964 0 -3.9999999999999969 9.1653591091089677 0.37901055817719992 -4.1653591091089686 9.3333333333333321 0 -4.3333333333333313 9.1653591091089677 0.37901055817719992 -4.1653591091089686 9.4901933183181697 0.51982786357785593 -4.4901933183181688 8.8333333333330302 0.52513227513218741 -3.8333333333330288 9.166666666666039 0.75595238095243689 -4.1666666666660381 9.1653591091089677 0.37901055817719992 -4.1653591091089686 8.6666666666666625 0 -3.666666666666663 8.8333333333330302 0.52513227513218741 -3.8333333333330288 8.9999999999999964 0 -3.9999999999999969 8.9999999999999964 0 -3.9999999999999969 8.8333333333330302 0.52513227513218741 -3.8333333333330288 9.1653591091089677 0.37901055817719992 -4.1653591091089686 8.4999999999998455 0.37301587301576589 -3.4999999999998459 8.4999999999992628 0.70507054673714353 -3.4999999999992641 8.8333333333330302 0.52513227513218741 -3.8333333333330288 8.6666666666666625 0 -3.666666666666663 8.4999999999998455 0.37301587301576589 -3.4999999999998459 8.8333333333330302 0.52513227513218741 -3.8333333333330288 8.6666666666666625 0 -3.666666666666663 8.3333333333333286 0 -3.3333333333333282 8.4999999999998455 0.37301587301576589 -3.4999999999998459 8.4999999999998455 0.37301587301576589 -3.4999999999998459 8.1677083333328273 0.51603966288628356 -3.167708333332826 8.4999999999992628 0.70507054673714353 -3.4999999999992641 8.3333333333333286 0 -3.3333333333333282 8.1677083333328273 0.51603966288628356 -3.167708333332826 8.4999999999998455 0.37301587301576589 -3.4999999999998459 7.9999999999999929 0 -2.9999999999999929 8.1677083333328273 0.51603966288628356 -3.167708333332826 8.3333333333333286 0 -3.3333333333333282 7.666666666666659 0 -2.666666666666659 7.5441798941785558 0.50932853577008119 -2.5441798941785572 7.8458333333325694 0.36721576227400882 -2.8458333333325689 7.666666666666659 0 -2.666666666666659 7.333333333333325 0 -2.333333333333325 7.5441798941785558 0.50932853577008119 -2.5441798941785572 7.9999999999999929 0 -2.9999999999999929 7.8458333333325694 0.36721576227400882 -2.8458333333325689 8.1677083333328273 0.51603966288628356 -3.167708333332826 7.9999999999999929 0 -2.9999999999999929 7.666666666666659 0 -2.666666666666659 7.8458333333325694 0.36721576227400882 -2.8458333333325689 7.8458333333325694 0.36721576227400882 -2.8458333333325689 7.8333333333316926 0.74717377261014672 -2.833333333331693 8.1677083333328273 0.51603966288628356 -3.167708333332826 7.8458333333325694 0.36721576227400882 -2.8458333333325689 7.5441798941785558 0.50932853577008119 -2.5441798941785572 7.8333333333316926 0.74717377261014672 -2.833333333331693 7.6666666666649013 1 -2.6666666666649008 7.8333333333316926 0.74717377261014672 -2.833333333331693 7.5441798941785558 0.50932853577008119 -2.5441798941785572 7.6666666666649013 1 -2.6666666666649008 7.5441798941785558 0.50932853577008119 -2.5441798941785572 7.3333333333313142 1 -2.3333333333313142 7.9999999999984883 1 -2.9999999999984879 8.1677083333328273 0.51603966288628356 -3.167708333332826 7.8333333333316926 0.74717377261014672 -2.833333333331693 7.9999999999984883 1 -2.9999999999984879 7.8333333333316926 0.74717377261014672 -2.833333333331693 7.6666666666649013 1 -2.6666666666649008 8.3333333333320745 1 -3.333333333332074 8.1677083333328273 0.51603966288628356 -3.167708333332826 7.9999999999984883 1 -2.9999999999984879 8.3333333333320745 1 -3.333333333332074 8.4999999999992628 0.70507054673714353 -3.4999999999992641 8.1677083333328273 0.51603966288628356 -3.167708333332826 8.6666666666656589 1 -3.6666666666656589 8.4999999999992628 0.70507054673714353 -3.4999999999992641 8.3333333333320745 1 -3.333333333332074 8.6666666666656589 1 -3.6666666666656589 8.8333333333330302 0.52513227513218741 -3.8333333333330288 8.4999999999992628 0.70507054673714353 -3.4999999999992641 5.3333333333333313 0 -0.33333333333333132 5.2132227891161653 0.31207482993217439 -0.21322278911616621 5.4583333333329049 0.50000000000003608 -0.45833333333290671 5.6666666666666634 0 -0.66666666666666341 5.3333333333333313 0 -0.33333333333333132 5.4583333333329049 0.50000000000003608 -0.45833333333290671 5 0 0 5.2132227891161653 0.31207482993217439 -0.21322278911616621 5.3333333333333313 0 -0.33333333333333132 5 0.49999999999869399 0 5.2132227891161653 0.31207482993217439 -0.21322278911616621 5 0 0 5.4583333333329049 0.50000000000003608 -0.45833333333290671 5.2132227891161653 0.31207482993217439 -0.21322278911616621 5.2291666666662087 0.66666666666678287 -0.22916666666621041 5 0.49999999999869399 0 5.2291666666662087 0.66666666666678287 -0.22916666666621041 5.2132227891161653 0.31207482993217439 -0.21322278911616621 5.3333333333331892 1 -0.33333333333318949 5.4583333333329049 0.50000000000003608 -0.45833333333290671 5.2291666666662087 0.66666666666678287 -0.22916666666621041 5.3333333333331892 1 -0.33333333333318949 5.6666666666663614 1 -0.66666666666636076 5.4583333333329049 0.50000000000003608 -0.45833333333290671 5 1 0 5.3333333333331892 1 -0.33333333333318949 5.2291666666662087 0.66666666666678287 -0.22916666666621041 5 1 0 5.2291666666662087 0.66666666666678287 -0.22916666666621041 5 0.49999999999869399 0 5.6666666666663614 1 -0.66666666666636076 5.8611111111106604 0.49288233812051968 -0.86111111111066041 5.4583333333329049 0.50000000000003608 -0.45833333333290671 5.6666666666663614 1 -0.66666666666636076 5.9999999999992077 1 -0.99999999999920808 5.8611111111106604 0.49288233812051968 -0.86111111111066041 5.9999999999992077 1 -0.99999999999920808 6.1666666666657663 0.6269841269844294 -1.1666666666657679 5.8611111111106604 0.49288233812051968 -0.86111111111066041 6.3333333333320549 1 -1.3333333333320549 6.1666666666657663 0.6269841269844294 -1.1666666666657679 5.9999999999992077 1 -0.99999999999920808 5.6666666666666634 0 -0.66666666666666341 5.4583333333329049 0.50000000000003608 -0.45833333333290671 5.8611111111106604 0.49288233812051968 -0.86111111111066041 5.9999999999999956 0 -0.99999999999999556 5.6666666666666634 0 -0.66666666666666341 5.8611111111106604 0.49288233812051968 -0.86111111111066041 6.1666666666657663 0.6269841269844294 -1.1666666666657679 6.1666666666662664 0.29828042328064291 -1.166666666666266 5.8611111111106604 0.49288233812051968 -0.86111111111066041 5.9999999999999956 0 -0.99999999999999556 5.8611111111106604 0.49288233812051968 -0.86111111111066041 6.1666666666662664 0.29828042328064291 -1.166666666666266 5.9999999999999956 0 -0.99999999999999556 6.1666666666662664 0.29828042328064291 -1.166666666666266 6.3333333333333277 0 -1.3333333333333279 6.1666666666657663 0.6269841269844294 -1.1666666666657679 6.4999999999989599 0.47938712522071519 -1.4999999999989611 6.1666666666662664 0.29828042328064291 -1.166666666666266 6.666666666666659 0 -1.666666666666659 6.3333333333333277 0 -1.3333333333333279 6.4999999999989599 0.47938712522071519 -1.4999999999989611 6.3333333333333277 0 -1.3333333333333279 6.1666666666662664 0.29828042328064291 -1.166666666666266 6.4999999999989599 0.47938712522071519 -1.4999999999989611 6.4999999999989599 0.47938712522071519 -1.4999999999989611 6.8296296296280934 0.62204375577420579 -1.8296296296280941 6.8333333333333259 0.24404761904793049 -1.8333333333333259 6.666666666666659 0 -1.666666666666659 6.8333333333333259 0.24404761904793049 -1.8333333333333259 6.9999999999999911 0 -1.9999999999999909 6.666666666666659 0 -1.666666666666659 6.4999999999989599 0.47938712522071519 -1.4999999999989611 6.8333333333333259 0.24404761904793049 -1.8333333333333259 6.9999999999999911 0 -1.9999999999999909 6.8333333333333259 0.24404761904793049 -1.8333333333333259 7.1388888888874096 0.48356009070323391 -2.13888888888
[...]
<PointData Scalars="A_conc," Vectors="" Tensors="">
<DataArray type="Float64" Name="A_conc" format="ascii">
0.99999999983019017 0.99999999987431332 0.99999999977119636 0.99999999992956645 0.99999999986814692 0.99999999983062826 0.99999999965948438 0.99999999984279275 0.9999999997747282 0.99999999965455544 0.99999999978420429 0.99999999963428998 0.99999999964015851 0.99999999977383713 0.99999999976317666 0.99999999989096389 0.99999999975883747 0.99999999976928033 0.99999999980373311 0.99999999975599718 0.99999999988474553 0.99999999989855914 0.99999999979878751 0.99999999988075117 0.99999999963653874 0.99999999976942944 0.9999999996268315 0.99999999963264496 0.99999999975845577 0.99999999981727783 0.99999999993652278 0.99999999988615751 0.99999999993230704 0.99999999988980082 0.99999999988086397 0.99999999994133215 0.99999999993226929 0.99999999993208188 0.99999999998495737 0.99999999996075239 0.9999999999320609 0.99999999998272748 0.99999999987695876 0.99999999994023558 0.99999999994207411 0.99999999992762834 0.99999999997812772 0.99999999993379418 0.99999999992160615 0.99999999993776434 0.99999999986776489 0.99999999998408429 0.99999999993859812 0.99999999993668953 0.99999999999086919 0.99999999996714239 0.99999999996601963 0.99999999997380851 0.99999999997053846 0.99999999993368083 0.99999999998756306 0.99999999997860467 0.99999999996746791 0.99999999998861999 0.99999999998797939 0.99999999996709465 0.99999999998837075 1.0000000000002156 0.99999999998635059 0.99999999998655231 0.99999999999191669 0.99999999997760858 0.99999999999905642 0.99999999999107425 0.99999999998634193 1.0000000000043365 0.9999999999904442 0.99999999999895606 1.0000000000049847 1.0000000000008629 1.0000000000007452 1.0000000000049543 1.0000000000059233 1.000000000000755 1.0000000000037699 0.99999999999822609 0.99999999999045353 1.0000000000012381 1.0000000000088587 0.99999999999892297 0.9999999999995951 0.99999999998510436 0.99999999998500599 1.0000000000012825 0.99999999999265965 0.99999999998107914 0.9999999999862309 0.99999999998576916 0.999999999987503 0.99999999998620204 0.99999999998742051 0.99999999998386069 0.99999999997850786 0.99999999998953648 0.9999999999901461 0.99999999997412348 0.99999999999201483 0.999999999984304 0.99999999997685196 0.99999999999251521 0.99999999998203026 0.99999999997442512 0.99999999997779343 0.99999999999061207 0.99999999996237499 0.99999999997634803 0.99999999997406142 0.99999999995985234 0.99999999998010014 0.99999999999007005 0.99999999999724765 0.99999999999944378 0.99999999999986189 0.99999999999722655 0.99999999999726041 0.99999999999987965 0.99999999999721667 0.99999999999883815 0.99999999999712819 0.99999999999990064 0.99999999999886657 0.99999999999715772 0.99999999999865796 1.0000000000004481 0.99999999999727729 0.99999999999889488 0.99999999999730571 1.000000000000433 0.99999999999255484 0.99999999999747113 0.99999999999702049 0.99999999999190947 0.99999999999148403 0.99999999999728773 0.99999999999130551 0.99999999999119638 0.9999999999979291 0.99999999999149947 0.99999999999768518 0.99999999999733857 0.99999999999117928 0.99999999999713618 0.99999999999698286 0.99999999999024114 0.99999999999025579 0.99999999999624989 0.99999999999025824 0.99999999999469036 0.99999999999625377 0.99999999999009603 0.99999999999463607 0.99999999999020517 1.0000000000000633 0.99999999999846567 0.99999999999420841 1.0000000000029128 1.0000000000029328 0.9999999999971062 0.99999999999397282 1.0000000000022295 0.9999999999972955 1.0000000000011369 0.99999999999803701 1.00000000000196 1.0000000000025313 1.0000000000034384 1.0000000000024627 0.9999999999943685 0.99999999999805733 1.0000000000026252 1.0000000000042018 1.0000000000041778 1.0000000000002465 1.0000000000041769 1.0000000000026208 1.0000000000002343 0.99999999999781064 0.99999999998691536 1.0000000000142979 0.99999999999885947 1.0000000000121092 0.99999999999862232 0.99999999999884315 1.0000000000016718 1.0000000000121063 1.0000000000057272 1.0000000000132276 1.0000000000049671 1.0000000000053373 1.0000000000057201 1.0000000000049278 0.99999999999662281 1.0000000000143328 0.99999999998702405 1.0000000000058422 1.0000000000037772 1.0000000000007554 0.99999999998868327 0.99999999998357003 0.99999999999656231 0.99999999998699607 0.99999999999421429 0.99999999998925038 0.99999999998795286 0.99999999999482414 0.99999999998585676 0.99999999998539268 0.99999999998968658 0.99999999999140232 0.99999999998360933 0.99999999998632516 0.9999999999908693 0.99999999998401834 0.99999999998542211 0.99999999999137867 0.99999999998498079 0.99999999999089417 1.0000000000063163 1.0000413051517887 0.99990179001051271 0.99996907780010325 1.0000025663876702 0.99996783118479671 1.0000145455399472 1.0000822073719451 0.99918919885433743 0.99968505266765673 0.99991332413276512 0.99967000571085063 1.0000294958551506 0.99967950133062 0.99623786962338168 0.99833925336120599 0.99920653605730003 0.99826437938961221 0.99994119047340257 0.99638794044235346 0.9914653442219008 0.9995292006390073 0.99951662049130685 0.99154262072915145 0.99635125344547426 0.9984125142489495 0.99983401765173674 0.9997928269036146 0.9983029256370608 0.99919371177384797 0.99995608426439941 0.99621615892994042 0.99966214671309839 0.99838784407068648 0.99918118081623553 1.0000794763268288 0.99968845889980451 0.99991053217818648 1.0000420285126006 0.99967209891176101 0.9996760375149758 1.0001850583819223 0.99964431514127206 1.0000016932042577 1.00001547514481 0.99997168305292539 0.99990004338039118 1.0000395862391491 0.99997471544493743 1.0000107567161656 1.0000074462243103 0.99997620063415371 1.0000014112123119 1.0000008695106744 1.000000646603012 1.0000056786005065 1.0000007781353797 0.99999826760280164 1.0000020285638669 1.0000026302239471 1.0000001953168391 1.0000000142085304 1.0000003556927279 1.0000010883317039 1.0000000403438056 0.99999984748282444 1.0000004041292037 1.0000015067017967 1.0000006055550463 1.0000005869731787 1.0000057566253266 0.9999983218352132 1.0000007914677378 1.0000000746319102 1.0000003377533999 0.99999985948047809 1.0000000843910752 1.0000011737410035 1.0000002264439631 0.99999999998920963 0.99999999999977929 0.99999999999285738 0.99999999914706483 1.0000000011019476 0.99999999882803603 1.000000083853176 0.99999996693379245 0.99999998581394611 1.0000000012761934 0.99999999862494138 0.99999999828542652 0.99999999996608546 1.0000000000006484 0.99999999999523226 1.0000000007784029 0.99999999973963294 0.99999999976022047 0.99999999999786526 1.0000000000002649 0.99999999999613132 0.99999999925984129 0.99999999896952652 1.000000000975872 1.0000000009979819 0.99999999839377873 0.99999999904467873 1.0000000785256535 0.99999998584339034 0.99999996978275418 0.9336223934821829 0.87284840765349903 0.9043229616650279 0.8350595926940596 0.90695368729524672 0.87287760406104031 0.97022786867783817 0.93083025766585981 0.95110757810866808 0.95339382001464901 0.93086252446845497 0.90430976374205341 0.98948596188586102 0.96758555775705835 0.97836345787893619 0.96773920151382353 0.95108254299668116 0.98033370542980369 0.98760253089149208 0.97840155058766176 0.99225105286883253 0.99761916792956129 0.98740245313572961 0.99128039155796976 0.97797361161158469 0.9783098104098773 0.99399748127984178 0.97928487398192299 0.95211755563318068 0.97968472928233441 0.96751281021215452 0.98937176937889804 0.9788055836156152 0.9511399306216316 0.96773099107052696 0.98081277767545916 0.99757474016839542 0.99137325292204503 0.98735195437021384 0.99226937350404132 0.97879335927439781 0.9875161843391369 0.97021704680480658 0.95117070253751901 0.93082238112979898 0.9533054451120635 0.90451803180910462 0.9308494198828281 0.95695756365354734 0.90361336458303654 0.90353987640756761 0.93360875573773983 0.9045348221494276 0.87283466613752636 0.83501142489243751 0.87295202431119534 0.90703395263503872 0.83643211526139016 0.9053520391262504 0.90541624648377794 0.83680071229518471 0.74660106238627666 0.79318273825421914 0.87545124083643056 0.83500104393037011 0.79326744208916777 0.83953309579710522 0.74579195717587177 0.74579650930888097 0.64505270389236091 0.69551322082575939 0.74759463443585783 0.69558929561905791 0.79493458648446103 0.74655318771558832 0.64577121324568565 0.74666558048957088 0.74664493601137505 0.79320308040198317 0.83504154576853651 0.87537953347502095 0.8369408345252547 0.79311925238237291 0.74642805362015019 0.69555403503074209 0.74638069072261271 0.79486922728181242 0.69545740709217474 0.64510148986794058 0.74752159457433975 0.47682932442704418 0.47692203593707633 0.5497361065144325 0.58679839346783969 0.4766930888005339 0.55011976390543416 0.58720313599446627 0.64508325013081835 0.69614237276996516 0.58709980447522103 0.55024640197566599 0.64528782964227949 0.64534240618602767 0.55017018305947207 0.54572173916551225 0.5500301457185689 0.47680358686204743 0.54560542729025752 0.58678804139419627 0.5456812140613948 0.47667901191962586 0.47695806380161448 0.47681093311593736 0.54533593342674125 0.64527102398958458 0.54578681247618899 0.58711094078969273 0.6961889437052563 0.64505330412719508 0.58722909142032609 0.99999999999960942 1.0000000000000702 0.99999999999953093 0.99999999999968914 0.99999999999935285 0.99999999999931499 0.99999999999973943 0.99999999999942812 0.99999999999923828 0.99999999999967082 0.99999999999927247 1.0000000000006586 0.99999999999958256 0.99999999999953082 1.0000000000000695 1.000000000000671 1.0000000000001541 1.0000000000003804 1.0000000000006701 0.99999999999914735 1.0000000000001543 0.99999999999982803 1.0000000000005125 1.0000000000001643 0.99999999999672073 0.99999999999685218 0.99999999999616773 0.99999999999950806 0.99999999999987743 0.9999999999996948 0.9999999999997099 0.99999999999989309 0.99999999999974032 1.0000000000018039 1.0000000000012836 1.0000000000018081 0.99999999999503575 1.0000000000012848 1.0000000000018041 0.9999999999999637 1.0000000000024853 1.0000000000009954 1.0000000000014353 1.000000000001916 0.99999999999990019 0.99999999999988465 0.99999999999965572 1.0000000000014186 0.99999999999500322 1.0000000000022664 0.99999999999858324 0.99999999999674571 0.99999999999673073 0.99999999998946631 0.99999999999163425 0.99999999999166966 0.99999999999891109 0.99999999999885436 0.99999999999890343 0.99999999999166111 1.0000000000012776 1.0000000000000302 1.0000000000007476 0.99999999999933664 0.99999999999752542 1.0000000000019904 0.99999999999729328 0.99999999999715394 1.000000000000135 0.9999999999972935 1.0000000000001359 1.0000000000007645 1.0000000000000318 1.0000000000001625 0.99999999999718092 0.9999999999946797 1.0000000000013318 0.9999999999965794 1.0000000000003213 0.99999999999379263 1.0000000000003886 0.9999999999993292 0.99999999999934841 0.99999999999389422 0.99999999999309785 0.999999999999311 0.9999999999939273 0.99999999999901756 0.99999999999363487 1.000000000000818 0.99999999999768063 0.99999999999224942 0.99999999999431277 0.99999999998617561 0.99999999999945144 0.99999999999435296 0.99999999999628342 0.9999999999959549 0.99999999999487155 0.9999999999929724 0.99999999999191502 0.99999999999662148 0.9999999999925544 0.9999999999995498 0.99999999999361677 0.9999999999950947 1.0000000000039821 0.9999999999963276 0.99999999999625189 1.000000000000038 0.99999999999622846 0.99999999999992284 0.99999999999878497 0.99999999999714639 1.0000000000026321 0.99999999999622746 1.0000000000000386 0.9999999999958421 1.0000000000000302 1.0000000000024878 0.9999999999962963 1.0000000000024942 0.99999999999624334 0.99999999999376887 0.99999999999387845 1.0000000000003657 1.0000000000025053 1.0000000000006475 0.99999999999621869 0.99999999999531419 0.99999999999393474 0.99999999999826816 0.99999999999551303 0.99999999999946587 0.99999999999177758 0.99999999999487044 0.99999999999480793 0.99999999999628286 
</DataArray>
</PointData>
</Piece>
</UnstructuredGrid>
</VTKFile>
