<?xml version="1.0"?>
<VTKFile type="UnstructuredGrid" version="0.1" byte_order="LittleEndian">
<UnstructuredGrid>
<Piece NumberOfPoints="2824" NumberOfCells="706">
<Points>
<DataArray type="Float64" NumberOfComponents="3" format="ascii">
0 0 0 0.33416666666645822 0 0.33416666666687761 0.33416666666749117 0.33416666666791067 0 0 0.32892434865109021 0.32892434865109021 0.33416666666645822 0 0.33416666666687761 0.26500093005959219 0 0.62412558229931248 0.57500000000061269 0 0.57499999999949769 0.77789883252811276 0.39570480562063071 0.39543357482263919 0.26500093005959219 0 0.62412558229931248 0 0.26235908848024581 0.61665443494884975 0.77789883252811276 0.39570480562063071 0.39543357482263919 0.33416666666645822 0 0.33416666666687761 0.33416666666749117 0.33416666666791067 0 0 0.32892434865109021 0.32892434865109021 0.77789883252811276 0.39570480562063071 0.39543357482263919 0.39531730444687918 0.80019605692788165 0.39654492749411491 0 0.32892434865109021 0.32892434865109021 0.77789883252811276 0.39570480562063071 0.39543357482263919 0 0.26235908848024581 0.61665443494884975 0.33416666666645822 0 0.33416666666687761 0.33416666666645822 0 0.33416666666687761 0.33416666666749117 0.33416666666791067 0 0 0.32892434865109021 0.32892434865109021 0.77789883252811276 0.39570480562063071 0.39543357482263919 0 0 0.40000000000166441 0.33416666666645822 0 0.33416666666687761 0 0.32892434865109021 0.32892434865109021 0 0.26235908848024581 0.61665443494884975 0.33416666666645822 0 0.33416666666687761 0 0 0 0 0 0.40000000000166441 0 0.32892434865109021 0.32892434865109021 0 0 0.40000000000166441 0.33416666666645822 0 0.33416666666687761 0 0.26235908848024581 0.61665443494884975 0.26500093005959219 0 0.62412558229931248 0.33416666666749117 0.33416666666791067 0 0 0.40000000000166441 0 0 0.32892434865109021 0.32892434865109021 0 0.62491530451403432 0.26235908848027167 0 0.40000000000166441 0 0.33416666666749117 0.33416666666791067 0 0.26340755208406552 0.6259637681177177 0 0 0.62491530451403432 0.26235908848027167 0 0.40000000000166441 0 0 0 0 0.33416666666749117 0.33416666666791067 0 0 0.32892434865109021 0.32892434865109021 0.33416666666645822 0 0.33416666666687761 0.62596376811530841 0 0.26340755208326921 0.39999999999911567 0 0 0.62412558229828341 0.26500093006025072 0 0.33416666666645822 0 0.33416666666687761 0 0 0 0.33416666666749117 0.33416666666791067 0 0.39999999999911567 0 0 0.33416666666749117 0.33416666666791067 0 0.33416666666645822 0 0.33416666666687761 0.39999999999911567 0 0 0.62412558229828341 0.26500093006025072 0 0.62596376811530841 0 0.26340755208326921 0.7999999999979498 0 0 0.62412558229828341 0.26500093006025072 0 0.77789883252811276 0.39570480562063071 0.39543357482263919 0.62596376811530841 0 0.26340755208326921 0.39999999999911567 0 0 0.62412558229828341 0.26500093006025072 0 0.7999999999979498 0 0 0.62596376811530841 0 0.26340755208326921 0.62412558229828341 0.26500093006025072 0 0.33416666666645822 0 0.33416666666687761 0.77789883252811276 0.39570480562063071 0.39543357482263919 0.97934782608699855 0.40787109375058261 0 1.0206521739124059 0 0.40787109374997071 1.19811642196055 0.57789440443542173 0.58983547034755146 0.77789883252811276 0.39570480562063071 0.39543357482263919 0.33416666666645822 0 0.33416666666687761 0.62412558229828341 0.26500093006025072 0 0.33416666666749117 0.33416666666791067 0 0.77789883252811276 0.39570480562063071 0.39543357482263919 0.33416666666749117 0.33416666666791067 0 0.62412558229828341 0.26500093006025072 0 0.57500000000222118 0.57500000000110618 0 0.77789883252811276 0.39570480562063071 0.39543357482263919 0.62412558229828341 0.26500093006025072 0 0.97934782608699855 0.40787109375058261 0 0.57500000000222118 0.57500000000110618 0 0.77789883252811276 0.39570480562063071 0.39543357482263919 0.62412558229828341 0.26500093006025072 0 0.7999999999979498 0 0 0.97934782608699855 0.40787109375058261 0 0.77789883252811276 0.39570480562063071 0.39543357482263919 0.97934782608699855 0.40787109375058261 0 0.7999999999979498 0 0 1.1999999999978941 0 0 1.0206521739124059 0 0.40787109374997071 0.97934782608699855 0.40787109375058261 0 0.7999999999979498 0 0 1.0206521739124059 0 0.40787109374997071 0.77789883252811276 0.39570480562063071 0.39543357482263919 0.62596376811530841 0 0.26340755208326921 1.0206521739124059 0 0.40787109374997071 0.7999999999979498 0 0 0.77789883252811276 0.39570480562063071 0.39543357482263919 0.62596376811530841 0 0.26340755208326921 0.33416666666645822 0 0.33416666666687761 0.57500000000061269 0 0.57499999999949769 0.77789883252811276 0.39570480562063071 0.39543357482263919 0.57500000000061269 0 0.57499999999949769 1.0206521739124059 0 0.40787109374997071 0.62596376811530841 0 0.26340755208326921 0.77789883252811276 0.39570480562063071 0.39543357482263919 0.849152677791018 0 0.76609408500333809 0.57500000000061269 0 0.57499999999949769 0.59772980397989239 0.59772980397970443 0.74731771606769093 0.77789883252811276 0.39570480562063071 0.39543357482263919 0.849152677791018 0 0.76609408500333809 0.98528458949709452 0.48395451161029718 1.014715410503322 1.19811642196055 0.57789440443542173 0.58983547034755146 0.77789883252811276 0.39570480562063071 0.39543357482263919 0.57500000000061269 0 0.57499999999949769 0.40787109375015718 0 0.97934782608792492 0.849152677791018 0 0.76609408500333809 0.59772980397989239 0.59772980397970443 0.74731771606769093 0.26500093005959219 0 0.62412558229931248 0.59772980397989239 0.59772980397970443 0.74731771606769093 0.57500000000061269 0 0.57499999999949769 0.77789883252811276 0.39570480562063071 0.39543357482263919 0.849152677791018 0 0.76609408500333809 1.19811642196055 0.57789440443542173 0.58983547034755146 1.0206521739124059 0 0.40787109374997071 0.77789883252811276 0.39570480562063071 0.39543357482263919 0.849152677791018 0 0.76609408500333809 0.59772980397989239 0.59772980397970443 0.74731771606769093 0.73709538452274337 0 1.137931943365984 0.98528458949709452 0.48395451161029718 1.014715410503322 0.40787109375015718 0 0.97934782608792492 0.73709538452274337 0 1.137931943365984 0.849152677791018 0 0.76609408500333809 0.59772980397989239 0.59772980397970443 0.74731771606769093 0.849152677791018 0 0.76609408500333809 0.59772980397989239 0.59772980397970443 0.74731771606769093 0.98528458949709452 0.48395451161029718 1.014715410503322 0.77789883252811276 0.39570480562063071 0.39543357482263919 0.849152677791018 0 0.76609408500333809 1.0206521739124059 0 0.40787109374997071 0.57500000000061269 0 0.57499999999949769 0.77789883252811276 0.39570480562063071 0.39543357482263919 0.849152677791018 0 0.76609408500333809 0.73709538452274337 0 1.137931943365984 1.0000000000002141 0 0.99999999999992895 0.98528458949709452 0.48395451161029718 1.014715410503322 0.26500093005959219 0 0.62412558229931248 0 0.26235908848024581 0.61665443494884975 0 0.40787109374995661 0.97934782608798243 0.59772980397989239 0.59772980397970443 0.74731771606769093 0.26500093005959219 0 0.62412558229931248 0.77789883252811276 0.39570480562063071 0.39543357482263919 0 0.26235908848024581 0.61665443494884975 0.59772980397989239 0.59772980397970443 0.74731771606769093 0 0.32892434865109021 0.32892434865109021 0 0.26235908848024581 0.61665443494884975 0.77789883252811276 0.39570480562063071 0.39543357482263919 0.59772980397989239 0.59772980397970443 0.74731771606769093 0 0.32892434865109021 0.32892434865109021 0 0.57500000000018214 0.57500000000018214 0 0.26235908848024581 0.61665443494884975 0.59772980397989239 0.59772980397970443 0.74731771606769093 0.57500000000061269 0 0.57499999999949769 0.26500093005959219 0 0.62412558229931248 0.40787109375015718 0 0.97934782608792492 0.59772980397989239 0.59772980397970443 0.74731771606769093 0 0.26235908848024581 0.61665443494884975 0 0.57500000000018214 0.57500000000018214 0 0.40787109374995661 0.97934782608798243 0.59772980397989239 0.59772980397970443 0.74731771606769093 0.26500093005959219 0 0.62412558229931248 0 0.40787109374995661 0.97934782608798243 0.40787109375015718 0 0.97934782608792492 0.59772980397989239 0.59772980397970443 0.74731771606769093 0 0 0.80000000000332872 0.26500093005959219 0 0.62412558229931248 0 0.40787109374995661 0.97934782608798243 0.40787109375015718 0 0.97934782608792492 0 0.26235908848024581 0.61665443494884975 0 0 0.80000000000332872 0.26500093005959219 0 0.62412558229931248 0 0.40787109374995661 0.97934782608798243 0 0 1.200000000002774 0 0 0.80000000000332872 0 0.40787109374995661 0.97934782608798243 0.40787109375015718 0 0.97934782608792492 0 0 0.80000000000332872 0 0 0.40000000000166441 0 0.26235908848024581 0.61665443494884975 0.26500093005959219 0 0.62412558229931248 0 0.85167501661028155 0.7670914684099619 0.48528811404415773 0.99061345538166756 1.009386544617999 0.59772980397989239 0.59772980397970443 0.74731771606769093 0.39531730444687918 0.80019605692788165 0.39654492749411491 0 0.32892434865109021 0.32892434865109021 0 0.57500000000018214 0.57500000000018214 0.59772980397989239 0.59772980397970443 0.74731771606769093 0.39531730444687918 0.80019605692788165 0.39654492749411491 0 0.85167501661028155 0.7670914684099619 0.59772980397989239 0.59772980397970443 0.74731771606769093 0 0.57500000000018214 0.57500000000018214 0.39531730444687918 0.80019605692788165 0.39654492749411491 0 0.40787109374995661 0.97934782608798243 0 0.85167501661028155 0.7670914684099619 0 0.73703553820768952 1.137914212601322 0.59772980397989239 0.59772980397970443 0.74731771606769093 0 0.85167501661028155 0.7670914684099619 0.58179751944592217 1.199262271083781 0.58179751944619096 0.48528811404415773 0.99061345538166756 1.009386544617999 0.39531730444687918 0.80019605692788165 0.39654492749411491 0 0.73703553820768952 1.137914212601322 0.59772980397989239 0.59772980397970443 0.74731771606769093 0 0.85167501661028155 0.7670914684099619 0.48528811404415773 0.99061345538166756 1.009386544617999 0 0.85167501661028155 0.7670914684099619 0 1.0206521739139061 0.40787109375008618 0.58179751944592217 1.1992622
[...]
<PointData Scalars="" Vectors="displacement," Tensors="">
<DataArray type="Float64" Name="displacement" NumberOfComponents="3" format="ascii">
-1.1437241898339731e-06 -1.1628436669266493e-06 -9.2910843239570827e-06 -1.0517844556006972e-06 -1.6275051638452589e-06 -0.037601047081558182 2.7706982072822034e-07 2.8115503271518606e-07 -5.4361537268081065e-06 -1.6152382263135563e-06 -8.7527316421514517e-07 -0.037011082242534001 -1.0517844556006972e-06 -1.6275051638452589e-06 -0.037601047081558182 -1.0576413973537315e-06 -1.1662869834646817e-06 -0.070221601592143745 -5.7835218419264094e-07 -1.4890219928504194e-06 -0.064694920224527303 -2.6068322373151984e-10 -7.591339129477071e-07 -0.044493327485174025 -1.0576413973537315e-06 -1.1662869834646817e-06 -0.070221601592143745 -1.1836508910538652e-06 -1.0510737556647355e-06 -0.069381195667945539 -2.6068322373148975e-10 -7.591339129477071e-07 -0.044493327485174018 -1.0517844556006972e-06 -1.6275051638452589e-06 -0.037601047081558182 2.7706982072822034e-07 2.8115503271518606e-07 -5.4361537268081065e-06 -1.6152382263135561e-06 -8.7527316421514475e-07 -0.037011082242533994 -2.6068322373135441e-10 -7.5913391294770646e-07 -0.044493327485174011 -9.1288436913113809e-07 2.996897167014111e-08 -0.044618578492471604 -1.6152382263135563e-06 -8.7527316421514517e-07 -0.037011082242534001 -2.606832237316265e-10 -7.5913391294770689e-07 -0.044493327485174025 -1.1836508910538652e-06 -1.0510737556647355e-06 -0.069381195667945539 -1.0517844556006974e-06 -1.6275051638452593e-06 -0.037601047081558182 -1.0517844556006972e-06 -1.6275051638452589e-06 -0.037601047081558182 2.7706982072822034e-07 2.8115503271518606e-07 -5.4361537268081065e-06 -1.6152382263135563e-06 -8.7527316421514517e-07 -0.037011082242534001 -2.6068322373160499e-10 -7.591339129477071e-07 -0.044493327485174025 -1.610870033789996e-06 -1.6641285476438537e-06 -0.045007796662184664 -1.0517844556006972e-06 -1.6275051638452589e-06 -0.037601047081558182 -1.6152382263135565e-06 -8.7527316421514506e-07 -0.037011082242533994 -1.1836508910538652e-06 -1.0510737556647355e-06 -0.069381195667945539 -1.0517844556006972e-06 -1.6275051638452589e-06 -0.037601047081558182 -1.1437241898339731e-06 -1.1628436669266493e-06 -9.2910843239570827e-06 -1.610870033789996e-06 -1.6641285476438537e-06 -0.045007796662184664 -1.6152382263135563e-06 -8.7527316421514517e-07 -0.037011082242534001 -1.610870033789996e-06 -1.6641285476438537e-06 -0.045007796662184664 -1.0517844556006972e-06 -1.6275051638452589e-06 -0.037601047081558182 -1.1836508910538654e-06 -1.0510737556647355e-06 -0.069381195667945539 -1.0576413973537315e-06 -1.1662869834646817e-06 -0.070221601592143745 2.7706982072822034e-07 2.8115503271518606e-07 -5.4361537268081065e-06 -7.393813765402345e-07 1.1913262339504389e-07 -5.9289463123753029e-06 -1.6152382263135563e-06 -8.7527316421514475e-07 -0.037011082242533994 -1.6240251027577223e-06 -2.221630175218113e-07 -0.029522635680216871 -7.393813765402345e-07 1.1913262339504389e-07 -5.9289463123753029e-06 2.7706982072822034e-07 2.8115503271518606e-07 -5.4361537268081065e-06 2.6998146304878523e-07 -5.6686939412650709e-08 -5.4832330560666758e-06 -1.6240251027577223e-06 -2.221630175218113e-07 -0.029522635680216871 -7.393813765402345e-07 1.1913262339504389e-07 -5.9289463123753029e-06 -1.1437241898339731e-06 -1.1628436669266493e-06 -9.2910843239582702e-06 2.7706982072822034e-07 2.8115503271518606e-07 -5.4361537268081065e-06 -1.6152382263135563e-06 -8.7527316421514517e-07 -0.037011082242534001 -1.0517844556006972e-06 -1.6275051638452589e-06 -0.037601047081558182 -3.2503207307761558e-07 -1.6199349468911886e-06 -0.029640622414729017 1.1689221825536017e-07 -7.4701891159394034e-07 -6.1814093938679922e-06 -5.5563166330817505e-08 2.7269068758291007e-07 -4.9021265908711286e-06 -1.0517844556006972e-06 -1.6275051638452589e-06 -0.037601047081558182 -1.1437241898339731e-06 -1.1628436669266493e-06 -9.2910843239570827e-06 2.7706982072822034e-07 2.8115503271518606e-07 -5.4361537268081065e-06 1.1689221825536017e-07 -7.4701891159394034e-07 -6.1814093938679922e-06 2.7706982072822034e-07 2.8115503271518606e-07 -5.4361537268081065e-06 -1.0517844556006972e-06 -1.6275051638452589e-06 -0.037601047081558182 1.1689221825536015e-07 -7.4701891159394034e-07 -6.1814093938679922e-06 -5.5563166330817505e-08 2.7269068758291007e-07 -4.9021265908711286e-06 -3.2503207307761569e-07 -1.6199349468911884e-06 -0.029640622414729013 -1.3487998474587854e-09 -9.9436283606844665e-07 -7.6468341894303034e-06 -5.5563166330817505e-08 2.7269068758291007e-07 -4.9021265908711286e-06 -2.6068322373164449e-10 -7.5913391294770699e-07 -0.044493327485174011 -3.2503207307761569e-07 -1.6199349468911884e-06 -0.029640622414729013 1.1689221825536018e-07 -7.4701891159394034e-07 -6.1814093938672375e-06 -5.5563166330817505e-08 2.7269068758291007e-07 -4.9021265908711286e-06 -1.3487998474587854e-09 -9.9436283606844665e-07 -7.6468341894303034e-06 -3.2503207307761569e-07 -1.6199349468911884e-06 -0.029640622414729013 -5.5563166330817505e-08 2.7269068758291007e-07 -4.9021265908711286e-06 -1.0517844556006972e-06 -1.6275051638452589e-06 -0.037601047081558182 -2.6068322373151379e-10 -7.591339129477071e-07 -0.044493327485174025 -3.2540468108078291e-10 2.0914835553013421e-07 -8.8082577350679402e-06 -1.487319352464344e-07 -2.3682850484688046e-06 -0.045893277902572735 2.0328949823796511e-07 -6.8846666516139169e-07 -0.066363563835468306 -2.6068322373154388e-10 -7.591339129477071e-07 -0.044493327485174018 -1.0517844556006972e-06 -1.6275051638452589e-06 -0.037601047081558182 -5.5563166330817372e-08 2.7269068758291001e-07 -4.9021265908761812e-06 2.7706982072822034e-07 2.8115503271518606e-07 -5.4361537268081065e-06 -2.6068322373172002e-10 -7.5913391294770689e-07 -0.044493327485174018 2.7706982072822034e-07 2.8115503271518606e-07 -5.4361537268081065e-06 -5.5563166330817505e-08 2.7269068758291007e-07 -4.9021265908711286e-06 -1.1391025220957601e-07 -1.1504872342335629e-07 -6.059569642879992e-06 -2.6068322373151984e-10 -7.591339129477071e-07 -0.044493327485174025 -5.5563166330817505e-08 2.7269068758291007e-07 -4.9021265908711286e-06 -3.2540468108078291e-10 2.0914835553013421e-07 -8.8082577350679402e-06 -1.1391025220957601e-07 -1.1504872342335629e-07 -6.059569642879992e-06 -2.6068322373151984e-10 -7.591339129477071e-07 -0.044493327485174025 -5.5563166330817505e-08 2.7269068758291007e-07 -4.9021265908711286e-06 -1.3487998474587854e-09 -9.9436283606844665e-07 -7.6468341894303034e-06 -3.2540468108078291e-10 2.0914835553013421e-07 -8.8082577350679402e-06 -2.6068322373151984e-10 -7.591339129477071e-07 -0.044493327485174025 -3.2540468108078291e-10 2.0914835553013421e-07 -8.8082577350679402e-06 -1.3487998474587854e-09 -9.9436283606844665e-07 -7.6468341894303034e-06 1.6971311895434125e-09 -9.6222839755603464e-07 -7.9076054456413882e-06 -1.487319352464344e-07 -2.3682850484688046e-06 -0.045893277902572735 -3.2540468108078291e-10 2.0914835553013421e-07 -8.8082577350679402e-06 -1.348799847458791e-09 -9.9436283606844665e-07 -7.6468341894292734e-06 -1.4873193524643443e-07 -2.368285048468805e-06 -0.045893277902572728 -2.6068322373151984e-10 -7.591339129477071e-07 -0.044493327485174025 -3.2503207307761569e-07 -1.6199349468911884e-06 -0.029640622414729013 -1.4873193524643438e-07 -2.3682850484688046e-06 -0.045893277902572735 -1.3487998474587854e-09 -9.9436283606844665e-07 -7.6468341894303034e-06 -2.6068322373151984e-10 -7.591339129477071e-07 -0.044493327485174025 -3.2503207307761569e-07 -1.6199349468911884e-06 -0.029640622414729013 -1.0517844556006972e-06 -1.6275051638452589e-06 -0.037601047081558182 -5.7835218419264094e-07 -1.4890219928504194e-06 -0.064694920224527303 -2.6068322373153525e-10 -7.5913391294770721e-07 -0.044493327485174032 -5.7835218419264094e-07 -1.4890219928504194e-06 -0.064694920224527303 -1.4873193524643438e-07 -2.3682850484688046e-06 -0.045893277902572735 -3.2503207307761569e-07 -1.6199349468911884e-06 -0.029640622414729013 -2.6068322373151984e-10 -7.591339129477071e-07 -0.044493327485174025 -1.8372557286915506e-07 -1.7201407338661059e-06 -0.086193261424062334 -5.7835218419264104e-07 -1.4890219928504196e-06 -0.064694920224527303 -6.2751146633239384e-07 -6.0428346057975923e-07 -0.084080607414070058 -2.6068322373151984e-10 -7.591339129477071e-07 -0.044493327485174025 -1.8372557286915506e-07 -1.7201407338661059e-06 -0.086193261424062334 -4.1782557321432068e-08 -8.3805439704036295e-07 -0.11416303671339965 2.0328949823796509e-07 -6.8846666516139159e-07 -0.066363563835468292 -2.6068322373151798e-10 -7.591339129477071e-07 -0.044493327485174018 -5.7835218419264094e-07 -1.4890219928504194e-06 -0.064694920224527303 -1.1146520123300943e-06 -2.1105469420251194e-06 -0.11018439928886213 -1.8372557286915506e-07 -1.7201407338661059e-06 -0.086193261424062334 -6.2751146633239384e-07 -6.0428346057975934e-07 -0.084080607414070058 -1.0576413973537315e-06 -1.1662869834646817e-06 -0.070221601592143745 -6.2751146633239363e-07 -6.0428346057975891e-07 -0.08408060741407003 -5.7835218419264094e-07 -1.4890219928504194e-06 -0.064694920224527303 -2.6068322373151984e-10 -7.591339129477071e-07 -0.044493327485174025 -1.8372557286915506e-07 -1.7201407338661059e-06 -0.086193261424062334 2.0328949823796509e-07 -6.8846666516139159e-07 -0.066363563835468292 -1.487319352464344e-07 -2.3682850484688046e-06 -0.045893277902572735 -2.6068322373151984e-10 -7.591339129477071e-07 -0.044493327485174025 -1.8372557286915506e-07 -1.7201407338661059e-06 -0.086193261424062334 -6.2751146633239384e-07 -6.0428346057975923e-07 -0.084080607414070058 -5.2452855144461483e-07 -1.7558241027410377e-06 -0.12802521977277156 -4.1782557321432068e-08 -8.3805439704036285e-07 -0.11416303671339965 -1.1146520123300943e-06 -2.1105469420251194e-06 -0.11018439928886213 -5.2452855144461483e-07 -1.7558241027410377e-06 -0.12802521977277156 -1.8372557286915506e-07 -1.7201407338661059e-06 -0.086193261424062334 -6.2751146633239374e-07 -6.0428346057975923e-07 -0.084080607414070044 -1.8372557286915506e-07 -1.7201407338661059e-06 -0.086193261424062334 -6.2751146633239384e-07 -6.0428346057975923e-07 -0.084080607414070058 -4.1782557321432154e-08 -8.3805439704036285e-07 -0.11416303671339967 -2.606832237316785e-10 -7.5913391294770721e-07 -0.044493327485174025 -1.8372557286915506e-07 -1.7201407338661059e-06 -0.086193261424062334 -1.487319352464344e-07 -2.3682850484688046e-06 -0.045893277902572735 -5.7835218419264094e-07 -1.4890219928504194e-06 -0.064694920224527303 -2.6068322373151984e-10 -7.591339129477071e-07 -0.044493327485174025 -1.8372557286915506e-07 -1.7201407338661059e-06 -0.086193261424062334 -5.2452855144461483e-07 -1.7558241027410377e-06 -0.12802521977277156 -3.7551287102183929e-08 -5.3757547439088497e-07 -0.11250770888502605 -4.1782557321432068e-08 -8.3805439704036285e-07 -0.11416303671339965 -1.0576413973537315e-06 -1.1662869834646817e-06 -0.070221601592143745 -1.1836508910538654e-06 -1.0510737556647358e-06 -0.069381195667945553 -2.122422722385205e-06 -1.2254363624462565e-06 -0.11018438916285854 -6.2751146633239384e-07 -6.0428346057975923e-07 -0.084080607414070058 -1.0576413973537315e-06 -1.1662869834646817e-06 -0.070221601592143745 -2.6068322373153328e-10 -7.591339129477071e-07 -0.044493327485174025 -1.1836508910538652e-06 -1.0510737556647355e-06 -0.069381195667945539 -6.2751146633239363e-07 -6.0428346057975923e-07 -0.084080607414070044 -1.6152382263135563e-06 -8.7527316421514517e-07 -0.037011082242534001 -1.1836508910538652e-06 -1.0510737556647355e-06 -0.069381195667945539 -2.6068322373012103e-10 -7.5913391294770763e-07 -0.044493327485174018 -6.2751146633239416e-07 -6.0428346057975913e-07 -0.084080607414070072 -1.6152382263135563e-06 -8.7527316421514517e-07 -0.037011082242534001 -1.5003321662178658e-06 -5.4903324989947759e-07 -0.064694901845269506 -1.1836508910538652e-06 -1.0510737556647355e-06 -0.069381195667945539 -6.2751146633239416e-07 -6.0428346057975955e-07 -0.084080607414070058 -5.7835218419264094e-07 -1.4890219928504194e-06 -0.064694920224527303 -1.0576413973537315e-06 -1.1662869834646817e-06 -0.070221601592143745 -1.1146520123300943e-06 -2.1105469420251194e-06 -0.11018439928886213 -6.2751146633239374e-07 -6.0428346057975923e-07 -0.084080607414070044 -1.1836508910538652e-06 -1.0510737556647355e-06 -0.069381195667945539 -1.5003321662178658e-06 -5.4903324989947759e-07 -0.064694901845269506 -2.122422722385205e-06 -1.2254363624462565e-06 -0.11018438916285854 -6.2751146633239384e-07 -6.0428346057975923e-07 -0.084080607414070058 -1.0576413973537315e-06 -1.1662869834646817e-06 -0.070221601592143745 -2.122422722385205e-06 -1.2254363624462565e-06 -0.11018438916285854 -1.1146520123300943e-06 -2.1105469420251194e-06 -0.11018439928886213 -6.2751146633239384e-07 -6.0428346057975923e-07 -0.084080607414070058 -1.95263521974949e-06 -1.9382567145798415e-06 -0.090007959897485709 -1.0576413973537315e-06 -1.1662869834646817e-06 -0.070221601592143745 -2.122422722385205e-06 -1.2254363624462565e-06 -0.11018438916285854 -1.1146520123300943e-06 -2.1105469420251194e-06 -0.11018439928886213 -1.1836508910538652e-06 -1.0510737556647355e-06 -0.069381195667945539 -1.95263521974949e-06 -1.9382567145798415e-06 -0.090007959897485709 -1.0576413973537317e-06 -1.1662869834646821e-06 -0.070221601592143759 -2.122422722385205e-06 -1.2254363624462565e-06 -0.11018438916285854 -1.9919384224075031e-06 -1.9978515390069703e-06 -0.13500775542255133 -1.95263521974949e-06 -1.9382567145798415e-06 -0.090007959897485709 -2.122422722385205e-06 -1.2254363624462565e-06 -0.11018438916285854 -1.1146520123300943e-06 -2.1105469420251194e-06 -0.11018439928886213 -1.95263521974949e-06 -1.9382567145798415e-06 -0.090007959897485709 -1.610870033789996e-06 -1.6641285476438537e-06 -0.045007796662184664 -1.1836508910538652e-06 -1.0510737556647355e-06 -0.069381195667945539 -1.0576413973537315e-06 -1.1662869834646817e-06 -0.070221601592143745 -1.7879555561625399e-06 -2.0031189923012702e-07 -0.086305432420555842 -8.3676624718560179e-07 -8.5966934163608295e-08 -0.11356349935481477 -6.2751146633239384e-07 -6.0428346057975923e-07 -0.084080607414070058 -9.1288436913113841e-07 2.9968971670141044e-08 -0.044618578492471625 -1.6152382263135563e-06 -8.7527316421514517e-07 -0.037011082242534001 -1.5003321662178658e-06 -5.4903324989947759e-07 -0.064694901845269506 -6.2751146633239374e-07 -6.042834605797586e-07 -0.084080607414070016 -9.1288436913113809e-07 2.9968971670141177e-08 -0.044618578492471625 -1.7879555561625399e-06 -2.0031189923012702e-07 -0.086305432420555842 -6.2751146633239384e-07 -6.0428346057975923e-07 -0.084080607414070058 -1.5003321662178658e-06 -5.4903324989947759e-07 -0.064694901845269506 -9.1288436913113809e-07 2.9968971670141071e-08 -0.044618578492471618 -2.122422722385205e-06 -1.2254363624462565e-06 -0.11018438916285854 -1.7879555561625399e-06 -2.0031189923012702e-07 -0.086305432420555842 -1.7271124640361885e-06 -5.9251520095778602e-07 -0.12802320450099669 -6.2751146633239384e-07 -6.0428346057975923e-07 -0.084080607414070058 -1.7879555561625399e-06 -2.0031189923012702e-07 -0.086305432420555842 -7.0300616243069253e-07 2.5936240158855776e-07 -0.065459204618209879 -8.36766247185602e-07 -8.5966934163608573e-08 -0.11356349935481479 -9.128843691311383e-07 2.9968971670141402e-08 -0.044618578492471604 -1.7271124640361885e-06 -5.9251520095778602e-07 -0.12802320450099669 -6.2751146633239384e-07 -6.0428346057975923e-07 -0.084080607414070058 -1.7879555561625399e-06 -2.0031189923012702e-07 -0.086305432420555842 -8.3676624718560179e-07 -8.5966934163608375e-08 -0.11356349935481479 -1.7879555561625399e-06 -2.0031189923012702e-07 -0.086305432420555842 -2.4259826060808704e-06 -1.2379690127294101e-07 -0.045893159383620818 -7.0300616243069253e-07 2.5936240158855776e-07 -0.065459204618209879 -9.128843691311383e-07 2.9968971670141355e-08 -0.044618578492471604 -2.122422722385205e-06 -1.2254363624462565e-06 -0.11018438916285854 -1.5003321662178658e-06 -5.4903324989947759e-07 -0.064694901845269506 -1.7879555561625399e-06 -2.0031189923012702e-07 -0.086305432420555842 -6.2751146633239384e-07 -6.0428346057975923e-07 -0.084080607414070058 -1.7879555561625399e-06 -2.0031189923012702e-07 -0.086305432420555842 -1.5003321662178658e-06 -5.4903324989947759e-07 -0.064694901845269506 -2.4259826060808704e-06 -1.2379690127294101e-07 -0.045893159383620805 -9.1288436913113851e-07 2.9968971670141203e-08 -0.044618578492471604 -1.7271124640361885e-06 -5.9251520095778602e-07 -0.12802320450099669 -1.7879555561625399e-06 -2.0031189923012702e-07 -0.086305432420555842 -6.0747646535357058e-07 -6.4488800055668519e-08 -0.11250765485392401 -8.36766247185602e-07 -8.59669341636086e-08 -0.11356349935481479 -6.2751146633239384e-07 -6.0428346057975923e-07 -0.084080607414070058 1.9737869475514652e-11 2.1593026908295335e-08 -0.055160151058131664 2.0328949823796517e-07 -6.8846666516139159e-07 -0.066363563835468278 -2.6068322373154512e-10 -7.5913391294770721e-07 -0.044493327485174032 -6.2751146633239384e-07 -6.0428346057975923e-07 -0.084080607414070058 -7.0300616243069253e-07 2.5936240158855776e-07 -0.065459204618209879 2.476652034606105e-08 -2.8604385151869255e-08 -0.11250737590774476 1.9737869475525001e-11 2.159302690829551e-08 -0.055160151058131671 -7.0300616243069253e-07 2.5936240158855776e-07 -0.065459204618209879 1.9737869475575617e-11 2.1593026908295414e-08 -0.055160151058131664 -6.2751146633239374e-07 -6.0428346057975934e-07 -0.084080607414070058 -9.128843691311382e-07 2.9968971670141488e-08 -0.044618578492471597 2.0328949823796509e-07 -6.8846666516139159e-07 -0.066363563835468292 -4.1782557321431903e-08 -8.3805439704036306e-07 -0.11416303671339965 -6.2751146633239427e-07 -6.0428346057975891e-07 -0.084080607414070058 -2.6068322373151984e-10 -7.591339129477071e-07 -0.044493327485174025 1.9737869475584322e-11 2.1593026908295404e-08 -0.055160151058131664 -2.6068322373126409e-10 -7.5913391294770731e-07 -0.044493327485174011 -6.2751146633239363e-07 -6.0428346057975913e-07 -0.08408060741407003 -9.1288436913113809e-07 2.9968971670141335e-08 -0.044618578492471604 -6.2751146633239384e-07 -6.0428346057975923e-07 -0.084080607414070058 -8.3676624718560211e-07 -8.5966934163608467e-08 -0.11356349935481479 -7.0300616243069253e-07 2.5936240158855776e-07 -0.065459204618209879 -9.1288436913113809e-07 2.9968971670141335e-08 -0.044618578492471604 2.476652034606105e-08 -2.8604385151869255e-08 -0.11250737590774476 -6.2751146633239384e-07 -6.0428346057975944e-07 -0.084080607414070072 2.0328949823796509e-07 -6.8846666516139159e-07 -0.066363563835468292 -4.1782557321432068e-08 -8.3805439704036285e-07 -0.11416303671339965 -6.2751146633239384e-07 -6.0428346057975923e-07 -0.084080607414070058 2.476652034606105e-08 -2.8604385151869255e-08 -0.11250737590774476 2.0328949823796509e-07 -6.8846666516139159e-07 -0.066363563835468292 1.9737869475697775e-11 2.1593026908295328e-08 -0.055160151058131671 2.476652034606105e-08 -2.8604385151869255e-08 -0.11250737590774476 -8.367662471856019e-07 -8.59669341636086e-08 -0.11356349935481477 -6.2751146633239384e-07 -6.0428346057975923e-07 -0.084080607414070058 -4.1782557321432068e-08 -8.3805439704036285e-07 -0.11416303671339965 2.476652034606105e-08 -2.8604385151869255e-08 -0.11250737590774476 -7.0300616243069253e-07 2.5936240158855776e-07 -0.065459204618209879 -6.2751146633239384e-07 -6.0428346057975923e-07 -0.084080607414070058 -8.367662471856019e-07 -8.59669341636086e-08 -0.11356349935481477 2.0822891451958603e-07 -5.5299303536937486e-11 -8.5010714907297946e-06 -1.5659848334724439e-08 -1.5817412780985991e-08 -7.4215003313520934e-06 -7.0300616243069242e-07 2.5936240158855781e-07 -0.065459204618209879 -9.1288436913113798e-07 2.9968971670141329e-08 -0.044618578492471597 -1.5659848334724419e-08 -1.5817412780985988e-08 -7.4215003313516589e-06 1.9737869475584322e-11 2.1593026908295404e-08 -0.055160151058131664 -7.0300616243069264e-07 2.593624015885576e-07 -0.065459204618209893 -9.128843691311383e-07 2.9968971670141216e-08 -0.044618578492471611 1.5686957438088017e-08 -1.5858432917167624e-08 -7.3730241147481008e-06 1.9737869475584322e-