<?xml version="1.0"?>
<VTKFile type="UnstructuredGrid" version="0.1" byte_order="LittleEndian">
<UnstructuredGrid>
<Piece NumberOfPoints="2824" NumberOfCells="706">
<Points>
<DataArray type="Float64" NumberOfComponents="3" format="ascii">
0 0 0 0.33416666666645822 0 0.33416666666687761 0.33416666666749117 0.33416666666791067 0 0 0.32892434865109021 0.32892434865109021 0.33416666666645822 0 0.33416666666687761 0.26500093005959219 0 0.62412558229931248 0.57500000000061269 0 0.57499999999949769 0.77789883252811276 0.39570480562063071 0.39543357482263919 0.26500093005959219 0 0.62412558229931248 0 0.26235908848024581 0.61665443494884975 0.77789883252811276 0.39570480562063071 0.39543357482263919 0.33416666666645822 0 0.33416666666687761 0.33416666666749117 0.33416666666791067 0 0 0.32892434865109021 0.32892434865109021 0.77789883252811276 0.39570480562063071 0.39543357482263919 0.39531730444687918 0.80019605692788165 0.39654492749411491 0 0.32892434865109021 0.32892434865109021 0.77789883252811276 0.39570480562063071 0.39543357482263919 0 0.26235908848024581 0.61665443494884975 0.33416666666645822 0 0.33416666666687761 0.33416666666645822 0 0.33416666666687761 0.33416666666749117 0.33416666666791067 0 0 0.32892434865109021 0.32892434865109021 0.77789883252811276 0.39570480562063071 0.39543357482263919 0 0 0.40000000000166441 0.33416666666645822 0 0.33416666666687761 0 0.32892434865109021 0.32892434865109021 0 0.26235908848024581 0.61665443494884975 0.33416666666645822 0 0.33416666666687761 0 0 0 0 0 0.40000000000166441 0 0.32892434865109021 0.32892434865109021 0 0 0.40000000000166441 0.33416666666645822 0 0.33416666666687761 0 0.26235908848024581 0.61665443494884975 0.26500093005959219 0 0.62412558229931248 0.33416666666749117 0.33416666666791067 0 0 0.40000000000166441 0 0 0.32892434865109021 0.32892434865109021 0 0.62491530451403432 0.26235908848027167 0 0.40000000000166441 0 0.33416666666749117 0.33416666666791067 0 0.26340755208406552 0.6259637681177177 0 0 0.62491530451403432 0.26235908848027167 0 0.40000000000166441 0 0 0 0 0.33416666666749117 0.33416666666791067 0 0 0.32892434865109021 0.32892434865109021 0.33416666666645822 0 0.33416666666687761 0.62596376811530841 0 0.26340755208326921 0.39999999999911567 0 0 0.62412558229828341 0.26500093006025072 0 0.33416666666645822 0 0.33416666666687761 0 0 0 0.33416666666749117 0.33416666666791067 0 0.39999999999911567 0 0 0.33416666666749117 0.33416666666791067 0 0.33416666666645822 0 0.33416666666687761 0.39999999999911567 0 0 0.62412558229828341 0.26500093006025072 0 0.62596376811530841 0 0.26340755208326921 0.7999999999979498 0 0 0.62412558229828341 0.26500093006025072 0 0.77789883252811276 0.39570480562063071 0.39543357482263919 0.62596376811530841 0 0.26340755208326921 0.39999999999911567 0 0 0.62412558229828341 0.26500093006025072 0 0.7999999999979498 0 0 0.62596376811530841 0 0.26340755208326921 0.62412558229828341 0.26500093006025072 0 0.33416666666645822 0 0.33416666666687761 0.77789883252811276 0.39570480562063071 0.39543357482263919 0.97934782608699855 0.40787109375058261 0 1.0206521739124059 0 0.40787109374997071 1.19811642196055 0.57789440443542173 0.58983547034755146 0.77789883252811276 0.39570480562063071 0.39543357482263919 0.33416666666645822 0 0.33416666666687761 0.62412558229828341 0.26500093006025072 0 0.33416666666749117 0.33416666666791067 0 0.77789883252811276 0.39570480562063071 0.39543357482263919 0.33416666666749117 0.33416666666791067 0 0.62412558229828341 0.26500093006025072 0 0.57500000000222118 0.57500000000110618 0 0.77789883252811276 0.39570480562063071 0.39543357482263919 0.62412558229828341 0.26500093006025072 0 0.97934782608699855 0.40787109375058261 0 0.57500000000222118 0.57500000000110618 0 0.77789883252811276 0.39570480562063071 0.39543357482263919 0.62412558229828341 0.26500093006025072 0 0.7999999999979498 0 0 0.97934782608699855 0.40787109375058261 0 0.77789883252811276 0.39570480562063071 0.39543357482263919 0.97934782608699855 0.40787109375058261 0 0.7999999999979498 0 0 1.1999999999978941 0 0 1.0206521739124059 0 0.40787109374997071 0.97934782608699855 0.40787109375058261 0 0.7999999999979498 0 0 1.0206521739124059 0 0.40787109374997071 0.77789883252811276 0.39570480562063071 0.39543357482263919 0.62596376811530841 0 0.26340755208326921 1.0206521739124059 0 0.40787109374997071 0.7999999999979498 0 0 0.77789883252811276 0.39570480562063071 0.39543357482263919 0.62596376811530841 0 0.26340755208326921 0.33416666666645822 0 0.33416666666687761 0.57500000000061269 0 0.57499999999949769 0.77789883252811276 0.39570480562063071 0.39543357482263919 0.57500000000061269 0 0.57499999999949769 1.0206521739124059 0 0.40787109374997071 0.62596376811530841 0 0.26340755208326921 0.77789883252811276 0.39570480562063071 0.39543357482263919 0.849152677791018 0 0.76609408500333809 0.57500000000061269 0 0.57499999999949769 0.59772980397989239 0.59772980397970443 0.74731771606769093 0.77789883252811276 0.39570480562063071 0.39543357482263919 0.849152677791018 0 0.76609408500333809 0.98528458949709452 0.48395451161029718 1.014715410503322 1.19811642196055 0.57789440443542173 0.58983547034755146 0.77789883252811276 0.39570480562063071 0.39543357482263919 0.57500000000061269 0 0.57499999999949769 0.40787109375015718 0 0.97934782608792492 0.849152677791018 0 0.76609408500333809 0.59772980397989239 0.59772980397970443 0.74731771606769093 0.26500093005959219 0 0.62412558229931248 0.59772980397989239 0.59772980397970443 0.74731771606769093 0.57500000000061269 0 0.57499999999949769 0.77789883252811276 0.39570480562063071 0.39543357482263919 0.849152677791018 0 0.76609408500333809 1.19811642196055 0.57789440443542173 0.58983547034755146 1.0206521739124059 0 0.40787109374997071 0.77789883252811276 0.39570480562063071 0.39543357482263919 0.849152677791018 0 0.76609408500333809 0.59772980397989239 0.59772980397970443 0.74731771606769093 0.73709538452274337 0 1.137931943365984 0.98528458949709452 0.48395451161029718 1.014715410503322 0.40787109375015718 0 0.97934782608792492 0.73709538452274337 0 1.137931943365984 0.849152677791018 0 0.76609408500333809 0.59772980397989239 0.59772980397970443 0.74731771606769093 0.849152677791018 0 0.76609408500333809 0.59772980397989239 0.59772980397970443 0.74731771606769093 0.98528458949709452 0.48395451161029718 1.014715410503322 0.77789883252811276 0.39570480562063071 0.39543357482263919 0.849152677791018 0 0.76609408500333809 1.0206521739124059 0 0.40787109374997071 0.57500000000061269 0 0.57499999999949769 0.77789883252811276 0.39570480562063071 0.39543357482263919 0.849152677791018 0 0.76609408500333809 0.73709538452274337 0 1.137931943365984 1.0000000000002141 0 0.99999999999992895 0.98528458949709452 0.48395451161029718 1.014715410503322 0.26500093005959219 0 0.62412558229931248 0 0.26235908848024581 0.61665443494884975 0 0.40787109374995661 0.97934782608798243 0.59772980397989239 0.59772980397970443 0.74731771606769093 0.26500093005959219 0 0.62412558229931248 0.77789883252811276 0.39570480562063071 0.39543357482263919 0 0.26235908848024581 0.61665443494884975 0.59772980397989239 0.59772980397970443 0.74731771606769093 0 0.32892434865109021 0.32892434865109021 0 0.26235908848024581 0.61665443494884975 0.77789883252811276 0.39570480562063071 0.39543357482263919 0.59772980397989239 0.59772980397970443 0.74731771606769093 0 0.32892434865109021 0.32892434865109021 0 0.57500000000018214 0.57500000000018214 0 0.26235908848024581 0.61665443494884975 0.59772980397989239 0.59772980397970443 0.74731771606769093 0.57500000000061269 0 0.57499999999949769 0.26500093005959219 0 0.62412558229931248 0.40787109375015718 0 0.97934782608792492 0.59772980397989239 0.59772980397970443 0.74731771606769093 0 0.26235908848024581 0.61665443494884975 0 0.57500000000018214 0.57500000000018214 0 0.40787109374995661 0.97934782608798243 0.59772980397989239 0.59772980397970443 0.74731771606769093 0.26500093005959219 0 0.62412558229931248 0 0.40787109374995661 0.97934782608798243 0.40787109375015718 0 0.97934782608792492 0.59772980397989239 0.59772980397970443 0.74731771606769093 0 0 0.80000000000332872 0.26500093005959219 0 0.62412558229931248 0 0.40787109374995661 0.97934782608798243 0.40787109375015718 0 0.97934782608792492 0 0.26235908848024581 0.61665443494884975 0 0 0.80000000000332872 0.26500093005959219 0 0.62412558229931248 0 0.40787109374995661 0.97934782608798243 0 0 1.200000000002774 0 0 0.80000000000332872 0 0.40787109374995661 0.97934782608798243 0.40787109375015718 0 0.97934782608792492 0 0 0.80000000000332872 0 0 0.40000000000166441 0 0.26235908848024581 0.61665443494884975 0.26500093005959219 0 0.62412558229931248 0 0.85167501661028155 0.7670914684099619 0.48528811404415773 0.99061345538166756 1.009386544617999 0.59772980397989239 0.59772980397970443 0.74731771606769093 0.39531730444687918 0.80019605692788165 0.39654492749411491 0 0.32892434865109021 0.32892434865109021 0 0.57500000000018214 0.57500000000018214 0.59772980397989239 0.59772980397970443 0.74731771606769093 0.39531730444687918 0.80019605692788165 0.39654492749411491 0 0.85167501661028155 0.7670914684099619 0.59772980397989239 0.59772980397970443 0.74731771606769093 0 0.57500000000018214 0.57500000000018214 0.39531730444687918 0.80019605692788165 0.39654492749411491 0 0.40787109374995661 0.97934782608798243 0 0.85167501661028155 0.7670914684099619 0 0.73703553820768952 1.137914212601322 0.59772980397989239 0.59772980397970443 0.74731771606769093 0 0.85167501661028155 0.7670914684099619 0.58179751944592217 1.199262271083781 0.58179751944619096 0.48528811404415773 0.99061345538166756 1.009386544617999 0.39531730444687918 0.80019605692788165 0.39654492749411491 0 0.73703553820768952 1.137914212601322 0.59772980397989239 0.59772980397970443 0.74731771606769093 0 0.85167501661028155 0.7670914684099619 0.48528811404415773 0.99061345538166756 1.009386544617999 0 0.85167501661028155 0.7670914684099619 0 1.0206521739139061 0.40787109375008618 0.58179751944592217 1.1992622
[...]
<PointData Scalars="" Vectors="displacement," Tensors="">
<DataArray type="Float64" Name="displacement" NumberOfComponents="3" format="ascii">
-1.1437241898339756e-06 -1.162843666926654e-06 -9.2910843239571081e-06 -1.0517844555903477e-06 -1.6275051638452714e-06 -0.037601047081558252 2.7706982072821536e-07 2.8115503271517299e-07 -5.4361537268081099e-06 -1.6152382263135525e-06 -8.7527316423321566e-07 -0.03701108224253407 -1.0517844555903477e-06 -1.6275051638452714e-06 -0.037601047081558252 -1.0576413973543393e-06 -1.1662869834646961e-06 -0.070221601592143884 -5.7835218417294022e-07 -1.489021992850419e-06 -0.064694920224527386 -2.6068319892437725e-10 -7.5913391295975403e-07 -0.044493327485174108 -1.0576413973543393e-06 -1.1662869834646961e-06 -0.070221601592143884 -1.1836508910538622e-06 -1.0510737556705178e-06 -0.069381195667945691 -2.6068319892434716e-10 -7.5913391295975403e-07 -0.044493327485174101 -1.0517844555903477e-06 -1.6275051638452714e-06 -0.037601047081558252 2.7706982072821536e-07 2.8115503271517299e-07 -5.4361537268081099e-06 -1.6152382263135523e-06 -8.7527316423321524e-07 -0.037011082242534063 -2.6068319892421182e-10 -7.5913391295975339e-07 -0.044493327485174095 -9.1288436910938321e-07 2.9968971682830934e-08 -0.044618578492471715 -1.6152382263135525e-06 -8.7527316423321566e-07 -0.03701108224253407 -2.6068319892448391e-10 -7.5913391295975381e-07 -0.044493327485174108 -1.1836508910538622e-06 -1.0510737556705178e-06 -0.069381195667945691 -1.051784455590348e-06 -1.6275051638452718e-06 -0.037601047081558252 -1.0517844555903477e-06 -1.6275051638452714e-06 -0.037601047081558252 2.7706982072821536e-07 2.8115503271517299e-07 -5.4361537268081099e-06 -1.6152382263135525e-06 -8.7527316423321566e-07 -0.03701108224253407 -2.606831989244624e-10 -7.5913391295975403e-07 -0.044493327485174108 -1.6108700337900155e-06 -1.664128547643846e-06 -0.045007796662184733 -1.0517844555903477e-06 -1.6275051638452714e-06 -0.037601047081558252 -1.6152382263135527e-06 -8.7527316423321556e-07 -0.037011082242534063 -1.1836508910538622e-06 -1.0510737556705178e-06 -0.069381195667945691 -1.0517844555903477e-06 -1.6275051638452714e-06 -0.037601047081558252 -1.1437241898339756e-06 -1.162843666926654e-06 -9.2910843239571081e-06 -1.6108700337900155e-06 -1.664128547643846e-06 -0.045007796662184733 -1.6152382263135525e-06 -8.7527316423321566e-07 -0.03701108224253407 -1.6108700337900155e-06 -1.664128547643846e-06 -0.045007796662184733 -1.0517844555903477e-06 -1.6275051638452714e-06 -0.037601047081558252 -1.1836508910538624e-06 -1.0510737556705178e-06 -0.069381195667945691 -1.0576413973543393e-06 -1.1662869834646961e-06 -0.070221601592143884 2.7706982072821536e-07 2.8115503271517299e-07 -5.4361537268081099e-06 -7.3938137654023249e-07 1.1913262339505827e-07 -5.9289463123752893e-06 -1.6152382263135525e-06 -8.7527316423321524e-07 -0.037011082242534063 -1.6240251027577252e-06 -2.2216301752970342e-07 -0.029522635680216895 -7.3938137654023249e-07 1.1913262339505827e-07 -5.9289463123752893e-06 2.7706982072821536e-07 2.8115503271517299e-07 -5.4361537268081099e-06 2.6998146304878412e-07 -5.6686939412644025e-08 -5.4832330560666817e-06 -1.6240251027577252e-06 -2.2216301752970342e-07 -0.029522635680216895 -7.3938137654023249e-07 1.1913262339505827e-07 -5.9289463123752893e-06 -1.1437241898339756e-06 -1.162843666926654e-06 -9.2910843239582957e-06 2.7706982072821536e-07 2.8115503271517299e-07 -5.4361537268081099e-06 -1.6152382263135525e-06 -8.7527316423321566e-07 -0.03701108224253407 -1.0517844555903477e-06 -1.6275051638452714e-06 -0.037601047081558252 -3.2503207306239747e-07 -1.619934946891195e-06 -0.029640622414729062 1.1689221825536559e-07 -7.4701891159392796e-07 -6.1814093938679838e-06 -5.5563166330815103e-08 2.7269068758291271e-07 -4.9021265908711329e-06 -1.0517844555903477e-06 -1.6275051638452714e-06 -0.037601047081558252 -1.1437241898339756e-06 -1.162843666926654e-06 -9.2910843239571081e-06 2.7706982072821536e-07 2.8115503271517299e-07 -5.4361537268081099e-06 1.1689221825536559e-07 -7.4701891159392796e-07 -6.1814093938679838e-06 2.7706982072821536e-07 2.8115503271517299e-07 -5.4361537268081099e-06 -1.0517844555903477e-06 -1.6275051638452714e-06 -0.037601047081558252 1.1689221825536558e-07 -7.4701891159392796e-07 -6.1814093938679838e-06 -5.5563166330815103e-08 2.7269068758291271e-07 -4.9021265908711329e-06 -3.2503207306239758e-07 -1.6199349468911948e-06 -0.029640622414729059 -1.3487998474541485e-09 -9.9436283606844707e-07 -7.6468341894303322e-06 -5.5563166330815103e-08 2.7269068758291271e-07 -4.9021265908711329e-06 -2.606831989245019e-10 -7.5913391295975392e-07 -0.044493327485174095 -3.2503207306239758e-07 -1.6199349468911948e-06 -0.029640622414729059 1.1689221825536561e-07 -7.4701891159392796e-07 -6.1814093938672291e-06 -5.5563166330815103e-08 2.7269068758291271e-07 -4.9021265908711329e-06 -1.3487998474541485e-09 -9.9436283606844707e-07 -7.6468341894303322e-06 -3.2503207306239758e-07 -1.6199349468911948e-06 -0.029640622414729059 -5.5563166330815103e-08 2.7269068758291271e-07 -4.9021265908711329e-06 -1.0517844555903477e-06 -1.6275051638452714e-06 -0.037601047081558252 -2.606831989243712e-10 -7.5913391295975403e-07 -0.044493327485174108 -3.2540468108364429e-10 2.0914835553013575e-07 -8.8082577350679555e-06 -1.487319352300324e-07 -2.3682850484688076e-06 -0.04589327790257277 2.0328949827532461e-07 -6.8846666517796474e-07 -0.066363563835468417 -2.6068319892440129e-10 -7.5913391295975403e-07 -0.044493327485174101 -1.0517844555903477e-06 -1.6275051638452714e-06 -0.037601047081558252 -5.556316633081497e-08 2.7269068758291266e-07 -4.9021265908761854e-06 2.7706982072821536e-07 2.8115503271517299e-07 -5.4361537268081099e-06 -2.6068319892457743e-10 -7.5913391295975381e-07 -0.044493327485174101 2.7706982072821536e-07 2.8115503271517299e-07 -5.4361537268081099e-06 -5.5563166330815103e-08 2.7269068758291271e-07 -4.9021265908711329e-06 -1.1391025220957351e-07 -1.1504872342335473e-07 -6.05956964288002e-06 -2.6068319892437725e-10 -7.5913391295975403e-07 -0.044493327485174108 -5.5563166330815103e-08 2.7269068758291271e-07 -4.9021265908711329e-06 -3.2540468108364429e-10 2.0914835553013575e-07 -8.8082577350679555e-06 -1.1391025220957351e-07 -1.1504872342335473e-07 -6.05956964288002e-06 -2.6068319892437725e-10 -7.5913391295975403e-07 -0.044493327485174108 -5.5563166330815103e-08 2.7269068758291271e-07 -4.9021265908711329e-06 -1.3487998474541485e-09 -9.9436283606844707e-07 -7.6468341894303322e-06 -3.2540468108364429e-10 2.0914835553013575e-07 -8.8082577350679555e-06 -2.6068319892437725e-10 -7.5913391295975403e-07 -0.044493327485174108 -3.2540468108364429e-10 2.0914835553013575e-07 -8.8082577350679555e-06 -1.3487998474541485e-09 -9.9436283606844707e-07 -7.6468341894303322e-06 1.6971311895538738e-09 -9.6222839755602765e-07 -7.9076054456413831e-06 -1.487319352300324e-07 -2.3682850484688076e-06 -0.04589327790257277 -3.2540468108364429e-10 2.0914835553013575e-07 -8.8082577350679555e-06 -1.3487998474541541e-09 -9.9436283606844707e-07 -7.6468341894293022e-06 -1.4873193523003243e-07 -2.368285048468808e-06 -0.045893277902572763 -2.6068319892437725e-10 -7.5913391295975403e-07 -0.044493327485174108 -3.2503207306239758e-07 -1.6199349468911948e-06 -0.029640622414729059 -1.4873193523003238e-07 -2.3682850484688076e-06 -0.04589327790257277 -1.3487998474541485e-09 -9.9436283606844707e-07 -7.6468341894303322e-06 -2.6068319892437725e-10 -7.5913391295975403e-07 -0.044493327485174108 -3.2503207306239758e-07 -1.6199349468911948e-06 -0.029640622414729059 -1.0517844555903477e-06 -1.6275051638452714e-06 -0.037601047081558252 -5.7835218417294022e-07 -1.489021992850419e-06 -0.064694920224527386 -2.6068319892439266e-10 -7.5913391295975413e-07 -0.044493327485174115 -5.7835218417294022e-07 -1.489021992850419e-06 -0.064694920224527386 -1.4873193523003238e-07 -2.3682850484688076e-06 -0.04589327790257277 -3.2503207306239758e-07 -1.6199349468911948e-06 -0.029640622414729059 -2.6068319892437725e-10 -7.5913391295975403e-07 -0.044493327485174108 -1.8372557285272355e-07 -1.7201407338661123e-06 -0.086193261424062376 -5.7835218417294033e-07 -1.4890219928504192e-06 -0.064694920224527386 -6.2751146630780744e-07 -6.0428346056349747e-07 -0.084080607414070321 -2.6068319892437725e-10 -7.5913391295975403e-07 -0.044493327485174108 -1.8372557285272355e-07 -1.7201407338661123e-06 -0.086193261424062376 -4.1782557290060608e-08 -8.3805439703365276e-07 -0.11416303671339988 2.0328949827532459e-07 -6.8846666517796464e-07 -0.066363563835468403 -2.6068319892437539e-10 -7.5913391295975403e-07 -0.044493327485174101 -5.7835218417294022e-07 -1.489021992850419e-06 -0.064694920224527386 -1.1146520123261954e-06 -2.1105469420251185e-06 -0.11018439928886238 -1.8372557285272355e-07 -1.7201407338661123e-06 -0.086193261424062376 -6.2751146630780744e-07 -6.0428346056349757e-07 -0.084080607414070321 -1.0576413973543393e-06 -1.1662869834646961e-06 -0.070221601592143884 -6.2751146630780723e-07 -6.0428346056349715e-07 -0.084080607414070294 -5.7835218417294022e-07 -1.489021992850419e-06 -0.064694920224527386 -2.6068319892437725e-10 -7.5913391295975403e-07 -0.044493327485174108 -1.8372557285272355e-07 -1.7201407338661123e-06 -0.086193261424062376 2.0328949827532459e-07 -6.8846666517796464e-07 -0.066363563835468403 -1.487319352300324e-07 -2.3682850484688076e-06 -0.04589327790257277 -2.6068319892437725e-10 -7.5913391295975403e-07 -0.044493327485174108 -1.8372557285272355e-07 -1.7201407338661123e-06 -0.086193261424062376 -6.2751146630780744e-07 -6.0428346056349747e-07 -0.084080607414070321 -5.2452855144912073e-07 -1.7558241027410238e-06 -0.12802521977277179 -4.1782557290060608e-08 -8.3805439703365265e-07 -0.11416303671339988 -1.1146520123261954e-06 -2.1105469420251185e-06 -0.11018439928886238 -5.2452855144912073e-07 -1.7558241027410238e-06 -0.12802521977277179 -1.8372557285272355e-07 -1.7201407338661123e-06 -0.086193261424062376 -6.2751146630780734e-07 -6.0428346056349747e-07 -0.084080607414070307 -1.8372557285272355e-07 -1.7201407338661123e-06 -0.086193261424062376 -6.2751146630780744e-07 -6.0428346056349747e-07 -0.084080607414070321 -4.1782557290060694e-08 -8.3805439703365265e-07 -0.11416303671339989 -2.6068319892453592e-10 -7.5913391295975413e-07 -0.044493327485174108 -1.8372557285272355e-07 -1.7201407338661123e-06 -0.086193261424062376 -1.487319352300324e-07 -2.3682850484688076e-06 -0.04589327790257277 -5.7835218417294022e-07 -1.489021992850419e-06 -0.064694920224527386 -2.6068319892437725e-10 -7.5913391295975403e-07 -0.044493327485174108 -1.8372557285272355e-07 -1.7201407338661123e-06 -0.086193261424062376 -5.2452855144912073e-07 -1.7558241027410238e-06 -0.12802521977277179 -3.7551287083214454e-08 -5.3757547439090477e-07 -0.1125077088850262 -4.1782557290060608e-08 -8.3805439703365265e-07 -0.11416303671339988 -1.0576413973543393e-06 -1.1662869834646961e-06 -0.070221601592143884 -1.1836508910538624e-06 -1.051073755670518e-06 -0.069381195667945705 -2.1224227223852236e-06 -1.2254363624308235e-06 -0.11018438916285879 -6.2751146630780744e-07 -6.0428346056349747e-07 -0.084080607414070321 -1.0576413973543393e-06 -1.1662869834646961e-06 -0.070221601592143884 -2.6068319892439069e-10 -7.5913391295975403e-07 -0.044493327485174108 -1.1836508910538622e-06 -1.0510737556705178e-06 -0.069381195667945691 -6.2751146630780723e-07 -6.0428346056349747e-07 -0.084080607414070307 -1.6152382263135525e-06 -8.7527316423321566e-07 -0.03701108224253407 -1.1836508910538622e-06 -1.0510737556705178e-06 -0.069381195667945691 -2.6068319892297844e-10 -7.5913391295975456e-07 -0.044493327485174101 -6.2751146630780776e-07 -6.0428346056349736e-07 -0.084080607414070335 -1.6152382263135525e-06 -8.7527316423321566e-07 -0.03701108224253407 -1.5003321662178845e-06 -5.4903324990944622e-07 -0.064694901845269687 -1.1836508910538622e-06 -1.0510737556705178e-06 -0.069381195667945691 -6.2751146630780776e-07 -6.0428346056349779e-07 -0.084080607414070321 -5.7835218417294022e-07 -1.489021992850419e-06 -0.064694920224527386 -1.0576413973543393e-06 -1.1662869834646961e-06 -0.070221601592143884 -1.1146520123261954e-06 -2.1105469420251185e-06 -0.11018439928886238 -6.2751146630780734e-07 -6.0428346056349747e-07 -0.084080607414070307 -1.1836508910538622e-06 -1.0510737556705178e-06 -0.069381195667945691 -1.5003321662178845e-06 -5.4903324990944622e-07 -0.064694901845269687 -2.1224227223852236e-06 -1.2254363624308235e-06 -0.11018438916285879 -6.2751146630780744e-07 -6.0428346056349747e-07 -0.084080607414070321 -1.0576413973543393e-06 -1.1662869834646961e-06 -0.070221601592143884 -2.1224227223852236e-06 -1.2254363624308235e-06 -0.11018438916285879 -1.1146520123261954e-06 -2.1105469420251185e-06 -0.11018439928886238 -6.2751146630780744e-07 -6.0428346056349747e-07 -0.084080607414070321 -1.9526352197495015e-06 -1.9382567145798398e-06 -0.090007959897485862 -1.0576413973543393e-06 -1.1662869834646961e-06 -0.070221601592143884 -2.1224227223852236e-06 -1.2254363624308235e-06 -0.11018438916285879 -1.1146520123261954e-06 -2.1105469420251185e-06 -0.11018439928886238 -1.1836508910538622e-06 -1.0510737556705178e-06 -0.069381195667945691 -1.9526352197495015e-06 -1.9382567145798398e-06 -0.090007959897485862 -1.0576413973543395e-06 -1.1662869834646965e-06 -0.070221601592143898 -2.1224227223852236e-06 -1.2254363624308235e-06 -0.11018438916285879 -1.9919384224075039e-06 -1.9978515390069601e-06 -0.13500775542255161 -1.9526352197495015e-06 -1.9382567145798398e-06 -0.090007959897485862 -2.1224227223852236e-06 -1.2254363624308235e-06 -0.11018438916285879 -1.1146520123261954e-06 -2.1105469420251185e-06 -0.11018439928886238 -1.9526352197495015e-06 -1.9382567145798398e-06 -0.090007959897485862 -1.6108700337900155e-06 -1.664128547643846e-06 -0.045007796662184733 -1.1836508910538622e-06 -1.0510737556705178e-06 -0.069381195667945691 -1.0576413973543393e-06 -1.1662869834646961e-06 -0.070221601592143884 -1.7879555561625242e-06 -2.0031189921196934e-07 -0.086305432420556286 -8.3676624714832271e-07 -8.5966934153781614e-08 -0.11356349935481508 -6.2751146630780744e-07 -6.0428346056349747e-07 -0.084080607414070321 -9.1288436910938353e-07 2.9968971682830868e-08 -0.044618578492471736 -1.6152382263135525e-06 -8.7527316423321566e-07 -0.03701108224253407 -1.5003321662178845e-06 -5.4903324990944622e-07 -0.064694901845269687 -6.2751146630780734e-07 -6.0428346056349683e-07 -0.08408060741407028 -9.1288436910938321e-07 2.9968971682831001e-08 -0.044618578492471736 -1.7879555561625242e-06 -2.0031189921196934e-07 -0.086305432420556286 -6.2751146630780744e-07 -6.0428346056349747e-07 -0.084080607414070321 -1.5003321662178845e-06 -5.4903324990944622e-07 -0.064694901845269687 -9.1288436910938321e-07 2.9968971682830895e-08 -0.044618578492471729 -2.1224227223852236e-06 -1.2254363624308235e-06 -0.11018438916285879 -1.7879555561625242e-06 -2.0031189921196934e-07 -0.086305432420556286 -1.7271124640361957e-06 -5.9251520097301175e-07 -0.12802320450099713 -6.2751146630780744e-07 -6.0428346056349747e-07 -0.084080607414070321 -1.7879555561625242e-06 -2.0031189921196934e-07 -0.086305432420556286 -7.0300616239810389e-07 2.5936240161175381e-07 -0.065459204618210032 -8.3676624714832292e-07 -8.5966934153781892e-08 -0.11356349935481509 -9.1288436910938342e-07 2.9968971682831226e-08 -0.044618578492471715 -1.7271124640361957e-06 -5.9251520097301175e-07 -0.12802320450099713 -6.2751146630780744e-07 -6.0428346056349747e-07 -0.084080607414070321 -1.7879555561625242e-06 -2.0031189921196934e-07 -0.086305432420556286 -8.3676624714832271e-07 -8.5966934153781694e-08 -0.11356349935481509 -1.7879555561625242e-06 -2.0031189921196934e-07 -0.086305432420556286 -2.4259826060808691e-06 -1.2379690124091321e-07 -0.045893159383620957 -7.0300616239810389e-07 2.5936240161175381e-07 -0.065459204618210032 -9.1288436910938342e-07 2.9968971682831179e-08 -0.044618578492471715 -2.1224227223852236e-06 -1.2254363624308235e-06 -0.11018438916285879 -1.5003321662178845e-06 -5.4903324990944622e-07 -0.064694901845269687 -1.7879555561625242e-06 -2.0031189921196934e-07 -0.086305432420556286 -6.2751146630780744e-07 -6.0428346056349747e-07 -0.084080607414070321 -1.7879555561625242e-06 -2.0031189921196934e-07 -0.086305432420556286 -1.5003321662178845e-06 -5.4903324990944622e-07 -0.064694901845269687 -2.4259826060808691e-06 -1.2379690124091321e-07 -0.045893159383620943 -9.1288436910938364e-07 2.9968971682831027e-08 -0.044618578492471715 -1.7271124640361957e-06 -5.9251520097301175e-07 -0.12802320450099713 -1.7879555561625242e-06 -2.0031189921196934e-07 -0.086305432420556286 -6.0747646535356592e-07 -6.4488800062169868e-08 -0.11250765485392443 -8.3676624714832292e-07 -8.5966934153781919e-08 -0.11356349935481509 -6.2751146630780744e-07 -6.0428346056349747e-07 -0.084080607414070321 1.9737886053861532e-11 2.1593026900763372e-08 -0.055160151058131754 2.0328949827532467e-07 -6.8846666517796464e-07 -0.066363563835468389 -2.6068319892440253e-10 -7.5913391295975413e-07 -0.044493327485174115 -6.2751146630780744e-07 -6.0428346056349747e-07 -0.084080607414070321 -7.0300616239810389e-07 2.5936240161175381e-07 -0.065459204618210032 2.4766520408687589e-08 -2.8604385142180839e-08 -0.11250737590774498 1.9737886053871881e-11 2.1593026900763548e-08 -0.055160151058131761 -7.0300616239810389e-07 2.5936240161175381e-07 -0.065459204618210032 1.9737886053922497e-11 2.1593026900763452e-08 -0.055160151058131754 -6.2751146630780734e-07 -6.0428346056349757e-07 -0.084080607414070321 -9.1288436910938332e-07 2.9968971682831312e-08 -0.044618578492471708 2.0328949827532459e-07 -6.8846666517796464e-07 -0.066363563835468403 -4.1782557290060443e-08 -8.3805439703365286e-07 -0.11416303671339988 -6.2751146630780787e-07 -6.0428346056349715e-07 -0.084080607414070321 -2.6068319892437725e-10 -7.5913391295975403e-07 -0.044493327485174108 1.9737886053931202e-11 2.1593026900763442e-08 -0.055160151058131754 -2.606831989241215e-10 -7.5913391295975424e-07 -0.044493327485174095 -6.2751146630780723e-07 -6.0428346056349736e-07 -0.084080607414070294 -9.1288436910938321e-07 2.9968971682831159e-08 -0.044618578492471715 -6.2751146630780744e-07 -6.0428346056349747e-07 -0.084080607414070321 -8.3676624714832303e-07 -8.5966934153781787e-08 -0.11356349935481509 -7.0300616239810389e-07 2.5936240161175381e-07 -0.065459204618210032 -9.1288436910938321e-07 2.9968971682831159e-08 -0.044618578492471715 2.4766520408687589e-08 -2.8604385142180839e-08 -0.11250737590774498 -6.2751146630780744e-07 -6.0428346056349768e-07 -0.084080607414070335 2.0328949827532459e-07 -6.8846666517796464e-07 -0.066363563835468403 -4.1782557290060608e-08 -8.3805439703365265e-07 -0.11416303671339988 -6.2751146630780744e-07 -6.0428346056349747e-07 -0.084080607414070321 2.4766520408687589e-08 -2.8604385142180839e-08 -0.11250737590774498 2.0328949827532459e-07 -6.8846666517796464e-07 -0.066363563835468403 1.9737886054044655e-11 2.1593026900763366e-08 -0.055160151058131761 2.4766520408687589e-08 -2.8604385142180839e-08 -0.11250737590774498 -8.3676624714832281e-07 -8.5966934153781919e-08 -0.11356349935481508 -6.2751146630780744e-07 -6.0428346056349747e-07 -0.084080607414070321 -4.1782557290060608e-08 -8.3805439703365265e-07 -0.11416303671339988 2.4766520408687589e-08 -2.8604385142180839e-08 -0.11250737590774498 -7.0300616239810389e-07 2.5936240161175381e-07 -0.065459204618210032 -6.2751146630780744e-07 -6.0428346056349747e-07 -0.084080607414070321 -8.3676624714832281e-07 -8.5966934153781919e-08 -0.11356349935481508 2.08228914519589e-07 -5.529930353581654e-11 -8.5010714907298336e-06 -1.5659848334708206e-08 -1.581741278100534e-08 -7.4215003313520892e-06 -7.0300616239810379e-07 2.5936240161175386e-07 -0.065459204618210032 -9.1288436910938311e-07 2.9968971682831153e-08 -0.044618578492471708 -1.5659848334708186e-08 -1.5817412781005337e-08 -7.4215003313516547e-06 1.9737886053931202e-11 2.1593026900763442e-08 -0.055160151058131754 -7.03006162398104e-07 2.5936240161175365e-07 -0.065459204618210046 -9.1288436910938342e-07 2.996897168283104e-08 -0.044618578492471722 1.5686957438091349e-08 -1.5858432917165056e-08 -7.3730241147481202