<?xml version="1.0"?>
<VTKFile type="UnstructuredGrid" version="0.1" byte_order="LittleEndian">
<UnstructuredGrid>
<Piece NumberOfPoints="2400" NumberOfCells="800">
<Points>
<DataArray type="Float64" NumberOfComponents="3" format="ascii">
1.000000000000000e+00 0.000000000000000e+00 0.000000000000000e+00 1.000000000000000e+00 4.999999999989965e-02 0.000000000000000e+00 9.500000000000000e-01 4.999999999989965e-02 0.000000000000000e+00 1.000000000000000e+00 0.000000000000000e+00 0.000000000000000e+00 9.500000000000000e-01 4.999999999989965e-02 0.000000000000000e+00 9.500000000000000e-01 0.000000000000000e+00 0.000000000000000e+00 9.500000000000000e-01 0.000000000000000e+00 0.000000000000000e+00 9.500000000000000e-01 4.999999999989965e-02 0.000000000000000e+00 9.000000000000000e-01 4.999999999989965e-02 0.000000000000000e+00 9.500000000000000e-01 0.000000000000000e+00 0.000000000000000e+00 9.000000000000000e-01 4.999999999989965e-02 0.000000000000000e+00 9.000000000000000e-01 0.000000000000000e+00 0.000000000000000e+00 9.000000000000000e-01 0.000000000000000e+00 0.000000000000000e+00 9.000000000000000e-01 4.999999999989965e-02 0.000000000000000e+00 8.500000000000000e-01 4.999999999989965e-02 0.000000000000000e+00 9.000000000000000e-01 0.000000000000000e+00 0.000000000000000e+00 8.500000000000000e-01 4.999999999989965e-02 0.000000000000000e+00 8.500000000000000e-01 0.000000000000000e+00 0.000000000000000e+00 8.500000000000000e-01 0.000000000000000e+00 0.000000000000000e+00 8.500000000000000e-01 4.999999999989965e-02 0.000000000000000e+00 8.000000000000000e-01 4.999999999989965e-02 0.000000000000000e+00 8.500000000000000e-01 0.000000000000000e+00 0.000000000000000e+00 8.000000000000000e-01 4.999999999989965e-02 0.000000000000000e+00 8.000000000000000e-01 0.000000000000000e+00 0.000000000000000e+00 8.000000000000000e-01 0.000000000000000e+00 0.000000000000000e+00 8.000000000000000e-01 4.999999999989965e-02 0.000000000000000e+00 7.500000000000000e-01 4.999999999989965e-02 0.000000000000000e+00 8.000000000000000e-01 0.000000000000000e+00 0.000000000000000e+00 7.500000000000000e-01 4.999999999989965e-02 0.000000000000000e+00 7.500000000000000e-01 0.000000000000000e+00 0.000000000000000e+00 7.500000000000000e-01 0.000000000000000e+00 0.000000000000000e+00 7.500000000000000e-01 4.999999999989965e-02 0.000000000000000e+00 7.000000000000000e-01 4.999999999989965e-02 0.000000000000000e+00 7.500000000000000e-01 0.000000000000000e+00 0.000000000000000e+00 7.000000000000000e-01 4.999999999989965e-02 0.000000000000000e+00 7.000000000000000e-01 0.000000000000000e+00 0.000000000000000e+00 7.000000000000000e-01 0.000000000000000e+00 0.000000000000000e+00 7.000000000000000e-01 4.999999999989965e-02 0.000000000000000e+00 6.500000000000000e-01 4.999999999989965e-02 0.000000000000000e+00 7.000000000000000e-01 0.000000000000000e+00 0.000000000000000e+00 6.500000000000000e-01 4.999999999989965e-02 0.000000000000000e+00 6.500000000000000e-01 0.000000000000000e+00 0.000000000000000e+00 6.500000000000000e-01 0.000000000000000e+00 0.000000000000000e+00 6.500000000000000e-01 4.999999999989965e-02 0.000000000000000e+00 6.000000000000000e-01 4.999999999989965e-02 0.000000000000000e+00 6.500000000000000e-01 0.000000000000000e+00 0.000000000000000e+00 6.000000000000000e-01 4.999999999989965e-02 0.000000000000000e+00 6.000000000000000e-01 0.000000000000000e+00 0.000000000000000e+00 6.000000000000000e-01 0.000000000000000e+00 0.000000000000000e+00 6.000000000000000e-01 4.999999999989965e-02 0.000000000000000e+00 5.500000000000000e-01 4.999999999989965e-02 0.000000000000000e+00 6.000000000000000e-01 0.000000000000000e+00 0.000000000000000e+00 5.500000000000000e-01 4.999999999989965e-02 0.000000000000000e+00 5.500000000000000e-01 0.000000000000000e+00 0.000000000000000e+00 5.500000000000000e-01 0.000000000000000e+00 0.000000000000000e+00 5.500000000000000e-01 4.999999999989965e-02 0.000000000000000e+00 5.000000000000000e-01 4.999999999989965e-02 0.000000000000000e+00 5.500000000000000e-01 0.000000000000000e+00 0.000000000000000e+00 5.000000000000000e-01 4.999999999989965e-02 0.000000000000000e+00 5.000000000000000e-01 0.000000000000000e+00 0.000000000000000e+00 5.000000000000000e-01 0.000000000000000e+00 0.000000000000000e+00 5.000000000000000e-01 4.999999999989965e-02 0.000000000000000e+00 4.500000000000000e-01 4.999999999989965e-02 0.000000000000000e+00 5.000000000000000e-01 0.000000000000000e+00 0.000000000000000e+00 4.500000000000000e-01 4.999999999989965e-02 0.000000000000000e+00 4.500000000000000e-01 0.000000000000000e+00 0.000000000000000e+00 4.500000000000000e-01 0.000000000000000e+00 0.000000000000000e+00 4.500000000000000e-01 4.999999999989965e-02 0.000000000000000e+00 4.000000000000000e-01 4.999999999989965e-02 0.000000000000000e+00 4.500000000000000e-01 0.000000000000000e+00 0.000000000000000e+00 4.000000000000000e-01 4.999999999989965e-02 0.000000000000000e+00 4.000000000000000e-01 0.000000000000000e+00 0.000000000000000e+00 4.000000000000000e-01 0.000000000000000e+00 0.000000000000000e+00 4.000000000000000e-01 4.999999999989965e-02 0.000000000000000e+00 3.500000000000000e-01 4.999999999989965e-02 0.000000000000000e+00 4.000000000000000e-01 0.000000000000000e+00 0.000000000000000e+00 3.500000000000000e-01 4.999999999989965e-02 0.000000000000000e+00 3.500000000000000e-01 0.000000000000000e+00 0.000000000000000e+00 3.500000000000000e-01 0.000000000000000e+00 0.000000000000000e+00 3.500000000000000e-01 4.999999999989965e-02 0.000000000000000e+00 3.000000000000000e-01 4.999999999989965e-02 0.000000000000000e+00 3.500000000000000e-01 0.000000000000000e+00 0.000000000000000e+00 3.000000000000000e-01 4.999999999989965e-02 0.000000000000000e+00 3.000000000000000e-01 0.000000000000000e+00 0.000000000000000e+00 3.000000000000000e-01 0.000000000000000e+00 0.000000000000000e+00 3.000000000000000e-01 4.999999999989965e-02 0.000000000000000e+00 2.500000000000000e-01 4.999999999989965e-02 0.000000000000000e+00 3.000000000000000e-01 0.000000000000000e+00 0.000000000000000e+00 2.500000000000000e-01 4.999999999989965e-02 0.000000000000000e+00 2.500000000000000e-01 0.000000000000000e+00 0.000000000000000e+00 2.500000000000000e-01 0.000000000000000e+00 0.000000000000000e+00 2.500000000000000e-01 4.999999999989965e-02 0.000000000000000e+00 2.000000000000000e-01 4.999999999989965e-02 0.000000000000000e+00 2.500000000000000e-01 0.000000000000000e+00 0.000000000000000e+00 2.000000000000000e-01 4.999999999989965e-02 0.000000000000000e+00 2.000000000000000e-01 0.000000000000000e+00 0.000000000000000e+00 2.000000000000000e-01 0.000000000000000e+00 0.000000000000000e+00 2.000000000000000e-01 4.999999999989965e-02 0.000000000000000e+00 1.500000000000000e-01 4.999999999989965e-02 0.000000000000000e+00 2.000000000000000e-01 0.000000000000000e+00 0.000000000000000e+00 1.500000000000000e-01 4.999999999989965e-02 0.000000000000000e+00 1.500000000000000e-01 0.000000000000000e+00 0.000000000000000e+00 1.500000000000000e-01 0.000000000000000e+00 0.000000000000000e+00 1.500000000000000e-01 4.999999999989965e-02 0.000000000000000e+00 9.999999999999998e-02 4.999999999989965e-02 0.000000000000000e+00 1.500000000000000e-01 0.000000000000000e+00 0.000000000000000e+00 9.999999999999998e-02 4.999999999989965e-02 0.000000000000000e+00 9.999999999999998e-02 0.000000000000000e+00 0.000000000000000e+00 9.999999999999998e-02 0.000000000000000e+00 0.000000000000000e+00 9.999999999999998e-02 4.999999999989965e-02 0.000000000000000e+00 5.000000000000004e-02 4.999999999989965e-02 0.000000000000000e+00 9.999999999999998e-02 0.000000000000000e+00 0.000000000000000e+00 5.000000000000004e-02 4.999999999989965e-02 0.000000000000000e+00 5.000000000000004e-02 0.000000000000000e+00 0.000000000000000e+00 5.000000000000004e-02 0.000000000000000e+00 0.000000000000000e+00 5.000000000000004e-02 4.999999999989965e-02 0.000000000000000e+00 0.000000000000000e+00 4.999999999989965e-02 0.000000000000000e+00 5.000000000000004e-02 0.000000000000000e+00 0.000000000000000e+00 0.000000000000000e+00 4.999999999989965e-02 0.000000000000000e+00 0.000000000000000e+00 0.000000000000000e+00 0.000000000000000e+00 1.000000000000000e+00 4.999999999989965e-02 0.000000000000000e+00 1.000000000000000e+00 9.999999999981467e-02 0.000000000000000e+00 9.500000000000000e-01 9.999999999981467e-02 0.000000000000000e+00 1.000000000000000e+00 4.999999999989965e-02 0.000000000000000e+00 9.500000000000000e-01 9.999999999981467e-02 0.000000000000000e+00 9.500000000000000e-01 4.999999999989965e-02 0.000000000000000e+00 9.500000000000000e-01 4.999999999989965e-02 0.000000000000000e+00 9.500000000000000e-01 9.999999999981467e-02 0.000000000000000e+00 9.000000000000000e-01 9.999999999981467e-02 0.000000000000000e+00 9.500000000000000e-01 4.999999999989965e-02 0.000000000000000e+00 9.000000000000000e-01 9.999999999981467e-02 0.000000000000000e+00 9.000000000000000e-01 4.999999999989965e-02 0.000000000000000e+00 9.000000000000000e-01 4.999999999989965e-02 0.000000000000000e+00 9.000000000000000e-01 9.999999999981467e-02 0.000000000000000e+00 8.500000000000000e-01 9.999999999981467e-02 0.000000000000000e+00 9.000000000000000e-01 4.999999999989965e-02 0.000000000000000e+00 8.500000000000000e-01 9.999999999981467e-02 0.000000000000000e+00 8.500000000000000e-01 4.999999999989965e-02 0.000000000000000e+00 8.500000000000000e-01 4.999999999989965e-02 0.000000000000000e+00 8.500000000000000e-01 9.999999999981467e-02 0.000000000000000e+00 8.000000000000000e-01 9.999999999981467e-02 0.000000000000000e+00 8.500000000000000e-01 4.999999999989965e-02 0.000000000000000e+00 8.000000000000000e-01 9.999999999981467e-02 0.000000000000000e+00 8.000000000000000e-01 4.999999999989965e-02 0.000000000000000e+00 8.000000000000000e-01 4.999999999989965e-02 0.000000000000000e+00 8.000000000000000e-01 9.999999999981467e-02 0.000000000000000e+00 7.500000000000000e-01 9.999999999981467e-02 0.000000000000000e+00 8.000000000000000e-01 4.999999999989965e-02 0.0000000000000
[...]
<PointData Scalars="tracer_conc," Vectors="" Tensors="">
<DataArray type="Float64" Name="tracer_conc" format="ascii">
1.000037280218619e+00 1.000013609009700e+00 1.000031365191340e+00 1.000019567052294e+00 1.000049228330260e+00 1.000064185027621e+00 1.000085792248811e+00 1.000023395833618e+00 1.000123503206137e+00 1.000036157900239e+00 1.000177057170312e+00 1.000219916054024e+00 1.000286825853977e+00 1.000092306260046e+00 1.000431588421628e+00 1.000131709593384e+00 1.000598887310259e+00 1.000724127675101e+00 1.000918931344305e+00 1.000357292908522e+00 1.001379578799117e+00 1.000471750556037e+00 1.001856899085970e+00 1.002187719433093e+00 1.002702663385374e+00 1.001236430631880e+00 1.004025208202288e+00 1.001531140364076e+00 1.005258887149225e+00 1.006040783500751e+00 1.007274768914290e+00 1.003820172820626e+00 1.010725884225236e+00 1.004485087343946e+00 1.013615600968949e+00 1.015263663634031e+00 1.017955757491164e+00 1.010593123017834e+00 1.026150264096360e+00 1.011891643270025e+00 1.032307822483185e+00 1.035400390772172e+00 1.040801414841680e+00 1.026509152192300e+00 1.058518680816661e+00 1.028647822840718e+00 1.070557411798159e+00 1.075724796246733e+00 1.085897246190024e+00 1.060241005460256e+00 1.120775755368193e+00 1.062889549558478e+00 1.142784612103048e+00 1.150476169583028e+00 1.169202771003396e+00 1.125522092395174e+00 1.231540192917595e+00 1.125896177259724e+00 1.270013158833158e+00 1.280783404262528e+00 1.324065112644305e+00 1.236220725891889e+00 1.409069608148372e+00 1.306927056705150e+00 1.423136572954546e+00 1.500740317083993e+00 1.533781336694567e+00 1.402823377992766e+00 1.598748644389313e+00 1.551182987359786e+00 1.583446005794483e+00 1.722582993075875e+00 1.725238457184938e+00 1.591810989218252e+00 1.750316577961298e+00 1.741796047686532e+00 1.735436784473674e+00 1.865295725896517e+00 1.857252990962662e+00 1.752527103523840e+00 1.859367000624205e+00 1.866207555218263e+00 1.850690867881568e+00 1.942764318667358e+00 1.933933995511258e+00 1.865880619667366e+00 1.928350424145768e+00 1.937172981798740e+00 1.924552812866939e+00 1.978863593794382e+00 1.972598033133724e+00 1.934686135431247e+00 1.966968179959158e+00 1.973167080327701e+00 1.965673899411318e+00 1.993337324420540e+00 1.989775880982076e+00 1.971301101717306e+00 1.986194740646634e+00 1.989550383554232e+00 1.985868131072347e+00 1.998281658482335e+00 1.996562650869623e+00 1.988569272816585e+00 1.994732422776418e+00 1.996282080648783e+00 1.994689071731489e+00 1.999672989864249e+00 1.998969540464512e+00 1.995818779961221e+00 1.998079644970242e+00 1.998785494628190e+00 1.998096723120778e+00 1.999954874142234e+00 1.999783409837737e+00 1.998491531284776e+00 1.999087316648835e+00 1.999696701198282e+00 1.999106789123534e+00 1.999883818188021e+00 1.000016667665191e+00 1.000003406461703e+00 1.000012916869332e+00 1.000012551235792e+00 1.000016819409725e+00 1.000034042791763e+00 1.000045136032441e+00 1.000004864853220e+00 1.000053505212571e+00 1.000029602616145e+00 1.000069019706954e+00 1.000121532021832e+00 1.000161825341399e+00 1.000024355926329e+00 1.000201270308750e+00 1.000109084625067e+00 1.000254823173045e+00 1.000426653167512e+00 1.000552804642843e+00 1.000116879247666e+00 1.000692350190277e+00 1.000389176644913e+00 1.000858863174831e+00 1.001375662569285e+00 1.001730984732827e+00 1.000478364942466e+00 1.002172462325633e+00 1.001269054340003e+00 1.002640348926985e+00 1.004045757068313e+00 1.004949430837660e+00 1.001698559888086e+00 1.006213919568910e+00 1.003763724815691e+00 1.007400088771185e+00 1.010849530006666e+00 1.012928602406729e+00 1.005309953941227e+00 1.016204356372405e+00 1.010162044651739e+00 1.018909783278483e+00 1.026562418088258e+00 1.030905985656692e+00 1.014755955225712e+00 1.038551314625300e+00 1.025051404048166e+00 1.044062245581619e+00 1.059495750342855e+00 1.067783215053154e+00 1.036700950425706e+00 1.083715914565342e+00 1.056699589575804e+00 1.093478488926795e+00 1.122204540914618e+00 1.136693736568634e+00 1.082020193633727e+00 1.165603432981562e+00 1.119405244236832e+00 1.178893392615823e+00 1.230252917237431e+00 1.252891080427422e+00 1.163206354965522e+00 1.294633306233786e+00 1.240543137876058e+00 1.301242232887414e+00 1.394524123832006e+00 1.413728006356582e+00 1.289241453033007e+00 1.454341502750028e+00 1.413193090738491e+00 1.450923664988723e+00 1.583309135297524e+00 1.588756971696286e+00 1.449857869328500e+00 1.614076513151386e+00 1.593786197915266e+00 1.607562756419413e+00 1.747374027981416e+00 1.742470939320967e+00 1.615742756130656e+00 1.752215145814786e+00 1.747219336933352e+00 1.746658859052366e+00 1.864806027923919e+00 1.855750089409476e+00 1.758569834193370e+00 1.856137678729805e+00 1.858360153227689e+00 1.852685323402395e+00 1.936239289135028e+00 1.927606914553510e+00 1.863686432941871e+00 1.924598937723135e+00 1.928435194904571e+00 1.922866684321577e+00 1.973599918319704e+00 1.967386599697705e+00 1.930797550705655e+00 1.964310944303146e+00 1.967339475195072e+00 1.963573428987118e+00 1.990461571845219e+00 1.986784344699340e+00 1.968331457620909e+00 1.984657912190693e+00 1.986509859569293e+00 1.984377169070169e+00 1.996995630465597e+00 1.995187352164981e+00 1.986805006065499e+00 1.993762634908935e+00 1.994938811514069e+00 1.993656770376481e+00 1.999083809412556e+00 1.998520388850586e+00 1.994705269326860e+00 1.996823753023725e+00 1.998461651599655e+00 1.996717180172375e+00 1.999244690360654e+00 1.000005382734316e+00 1.000000592272607e+00 1.000004247441683e+00 1.000004463501453e+00 1.000004969348762e+00 1.000012594603958e+00 1.000016887677955e+00 1.000000360616873e+00 1.000018582010450e+00 1.000012287605897e+00 1.000022570941359e+00 1.000048346316982e+00 1.000065661164960e+00 1.000003950545550e+00 1.000075570851501e+00 1.000048650498056e+00 1.000090756221389e+00 1.000183351909647e+00 1.000242334983410e+00 1.000027945558569e+00 1.000281358833692e+00 1.000185609343601e+00 1.000332843755217e+00 1.000639563757329e+00 1.000819912771838e+00 1.000143540540104e+00 1.000955974221640e+00 1.000648097392540e+00 1.001113228453210e+00 1.002034471616157e+00 1.002531257642462e+00 1.000601890913936e+00 1.002959080323821e+00 1.002059599800557e+00 1.003390009511426e+00 1.005891863199491e+00 1.007123104168431e+00 1.002156509919288e+00 1.008333616120571e+00 1.005955541948991e+00 1.009383813963790e+00 1.015524743018736e+00 1.018264418699333e+00 1.006741937263473e+00 1.021326444495724e+00 1.015688079611878e+00 1.023561704437201e+00 1.037205322515662e+00 1.042651990964562e+00 1.018589462954298e+00 1.049492891315473e+00 1.037733615136286e+00 1.053468549166919e+00 1.081017294535539e+00 1.090551739381228e+00 1.045413720494380e+00 1.103714490467359e+00 1.083093676575229e+00 1.108905586056173e+00 1.159769696613532e+00 1.173874760946561e+00 1.098103959430009e+00 1.194315884710127e+00 1.167091073456880e+00 1.197547673058676e+00 1.283039002125752e+00 1.297573995095913e+00 1.187484027848092e+00 1.320998709111493e+00 1.294876853321905e+00 1.320239770132564e+00 1.441703248031058e+00 1.450520293591457e+00 1.315618297849997e+00 1.470184148086712e+00 1.451767130229175e+00 1.466510080042706e+00 1.607896490474720e+00 1.609123439069812e+00 1.469261412078351e+00 1.621083961618182e+00 1.612104718363266e+00 1.616692529469448e+00 1.753822609437275e+00 1.748980461149278e+00 1.625295029663785e+00 1.753499385998254e+00 1.751563471554586e+00 1.749829860235523e+00 1.862535408179282e+00 1.854980692862346e+00 1.760754278561765e+00 1.854840967410233e+00 1.856390295035129e+00 1.852336445740824e+00 1.932023215328989e+00 1.924742862831551e+00 1.862325596511131e+00 1.922778287569543e+00 1.925159673891215e+00 1.921287667369852e+00 1.970327087515437e+00 1.964914683558135e+00 1.928628434714339e+00 1.962764705181997e+00 1.964829826902835e+00 1.961943339280519e+00 1.988523656980844e+00 1.985293857558911e+00 1.966450186212557e+00 1.983169870151790e+00 1.985067513804371e+00 1.982688487934982e+00 1.995773020287456e+00 1.994576874970723e+00 1.985064898597900e+00 1.990907674460280e+00 1.994816238214381e+00 1.990303341330117e+00 1.997080643873508e+00 1.000001441512820e+00 1.000000053493683e+00 1.000001190695562e+00 1.000001246781546e+00 1.000001292360405e+00 1.000003800371170e+00 1.000005189629587e+00 9.999997847048397e-01 1.000005527358331e+00 1.000003954911600e+00 1.000006415131405e+00 1.000015815027256e+00 1.000021914809786e+00 9.999998769804999e-01 1.000024279759708e+00 1.000016964502726e+00 1.000027996531378e+00 1.000064952021749e+00 1.000087596541835e+00 1.000003892949756e+00 1.000097864082209e+00 1.000069882232122e+00 1.000111590013025e+00 1.000245760986597e+00 1.000321290552826e+00 1.000031921459124e+00 1.000360547700862e+00 1.000263854971712e+00 1.000406082398892e+00 1.000848783185364e+00 1.001075663625906e+00 1.000169757861118e+00 1.001210912932945e+00 1.000907471871353e+00 1.001345796044775e+00 1.002668381199947e+00 1.003280146690984e+00 1.000719672987668e+00 1.003698667064207e+00 1.002838900435984e+00 1.004050899279429e+00 1.007621466280910e+00 1.009094549012898e+00 1.002579809804356e+00 1.010248605510718e+00 1.008073473180536e+00 1.011040763835756e+00 1.019738901571561e+00 1.022879136809302e+00 1.008008688735567e+00 1.025680197672426e+00 1.020859565458446e+00 1.027142634345753e+00 1.046235646478157e+00 1.052064912190942e+00 1.021761394355404e+00 1.057925378404885e+00 1.048859609407354e+00 1.059895051548392e+00 1.097547179242106e+00 1.106739433937312e+00 1.051942876351385e+00 1.116768759086988e+00 1.103173129394900e+00 1.118243217861433e+00 1.184387191863436e+00 1.195719019377470e+00 1.109108950620387e+00 1.209037581442977e+00 1.193271711602746e+00 1.209010928736889e+00 1.309562372681559e+00 1.319660754333797e+00 1.201701376582865e+00 1.333430248425370e+00 1.319233728780045e+00 1.331642427664478e+00 1.461550433400868e+00 1.467224043214543e+00 1.329164762667215e+00 1.478430436056520e+00 1.468652293416487e+00 1.475375892408805e+00 1.618317834292532e+00 1.618356489098010e+00 1.478929556358091e+00 1.625074546754354e+00 1.620475602782941e+00 1.621854701762915e+00 1.756636445483194e+00 1.752055136742811e+00 1.630145482491547e+00 1.754447159223143e+00 1.753777032433471e+00 1.751691233829324e+00 1.861399364231461e+00 1.854649634200223e+00 1.761891969071029e+00 1.854202719325120e+00 1.855562847499762e+00 1.852134641222962e+00 1.929814407462316e+00 1.923307166626085e+00 1.861495408987018e+00 1.921485967932144e+00 1.923566579858514e+00 1.920033302517965e+00 1.968325642971068e+00 1.963569881101507e+00 1.927007716597512e+00 1.960632541026543e+00 1.963537916753300e+00 1.959495021251942e+00 1.986571547334396e+00 1.984485232485534e+00 1.963998678753372e+00 1.977457428457851e+00 1.985701210434439e+00 1.975601274426446e+00 1.991178672628539e+00 1.000000338200717e+00 9.999999931330449e-01 1.000000299488850e+00 1.000000296493068e+00 1.000000308877966e+00 1.000000994421565e+00 1.000001383274415e+00 9.999998783380044e-01 1.000001470785547e+00 1.000001077056259e+00 1.000001644883895e+00 1.000004486960500e+00 1.000006329219638e+00 9.999996476970963e-01 1.000006926884226e+00 1.000005010597994e+00 1.000007718021797e+00 1.000019910718180e+00 1.000027364555840e+00 9.999996868264150e-01 1.000030071398179e+00 1.000022320259285e+00 1.000033231732244e+00 1.000081607525170e+00 1.000108772368412e+00 1.000004123178195e+00 1.000119773739960e+00 1.000091301285693e+00 1.000131124357273e+00 1.000305977660215e+00 1.000395225404554e+00 1.000036140908164e+00 1.000436082303971e+00 1.000340669223297e+00 1.000472418067667e+00 1.001045619156041e+00 1.001308838689938e+00 1.000194910891612e+00 1.001446301952052e+00 1.001156775741742e+00 1.001548273490952e+00 1.003247298692707e+00 1.003939931077942e+00 1.000827553869922e+00 1.004353947398605e+00 1.003567887803341e+00 1.004598157858436e+00 1.009138139543144e+00 1.010749731102742e+00 1.002950439516154e+00 1.011851107466450e+00 1.009973033449226e+00 1.012325741418712e+00 1.023223159940732e+00 1.026493355339310e+00 1.009059512336183e+00 1.029036787453870e+00 1.025164397054842e+00 1.029699559763051e+00 1.053080070760430e+00 1.058803645055209e+00 1.024230391527354e+00 1.063665467887777e+00 1.057039011811477e+00 1.064185903924413e+00 1.108738751302606e+00 1.117009506266598e+00 1.056678098290845e+00 1.124425051641249e+00 1.115324288412450e+00 1.124367755940655e+00 1.198659161720976e+00 1.208066011572058e+00 1.116278487279057e+00 1.217194417701246e+00 1.207187070105575e+00 1.216208733104643e+00 1.323287006785884e+00 1.331357102432435e+00 1.210078512154036e+00 1.340481988259076e+00 1.331743807381154e+00 1.338543619550156e+00 1.471689388371112e+00 1.475972688855006e+00 1.336843481340978e+00 1.483275869714321e+00 1.477459437456747e+00 1.480711302648033e+00 1.623762079661880e+00 1.623310142347175e+00 1.484406611932650e+00 1.627568706251646e+00 1.625102404862730e+00 1.624983196048153e+00 1.758188937014354e+00 1.753820172618966e+00 1.632933199862903e+00 1.755071501010636e+00 1.755215599270161e+00 1.752749002621851e+00 1.860718494697821e+00 1.854515236911379e+00 1.762460280041441e+00 1.853444200582807e+00 1.855311357113372e+00 1.851431837588563e+00 1.928138213479205e+00 1.922369027111891e+00 1.860453643421117e+00 1.918687844012498e+00 1.922873561912903e+00 1.916610458691716e+00 1.965484999047952e+00 1.962435925988757e+00 1.923860456742969e+00 1.950540767857513e+00 1.965979980167461e+00 1.946156872383075e+00 1.977417138933806e+00 1.000000072968726e+00 9.999999962985713e-01 1.000000074792166e+00 1.000000062653990e+00 1.000000076197964e+00 1.000000239220018e+00 1.000000333561899e+00 9.999999653695647e-01 1.000000380602351e+00 1.000000259210494e+00 1.000000415202886e+00 1.000001157428971e+00 1.000001639281730e+00 9.999998723254993e-01 1.000001869152113e+00 1.000001305951051e+00 1.000002023927005e+00 1.000005483941338e+00 1.000007616308104e+00 9.999996641350198e-01 1.000008533962039e+00 1.000006278528998e+00 1.000009165069313e+00 1.000024133628934e+00 1.000032659841453e+00 9.999998198942782e-01 1.000036116353477e+00 1.000027761062034e+00 1.000038503810230e+00 1.000097699081944e+00 1.000128452583290e+00 1.000004963104302e+00 1.000141075674422e+00 1.000112187495526e+00 1.000149264305134e+00 1.000362023083663e+00 1.000461628757682e+00 1.000041031277946e+00 1.000505684772562e+00 1.000413327894203e+00 1.000530360635604e+00 1.001222537154023e+00 1.001510583311452e+00 1.000218790287680e+00 1.001653095551333e+00 1.001384689526672e+00 1.001715999455798e+00 1.003746762247124e+00 1.004484824758444e+00 1.000922764641160e+00 1.004900126299608e+00 1.004204157760430e+00 1.005027574160203e+00 1.010378463934483e+00 1.012036502762733e+00 1.003263113342211e+00 1.013102070811993e+00 1.011512507353112e+00 1.013274689135923e+00 1.025875425674210e+00 1.029132128113376e+00 1.009918535554716e+00 1.031421582283782e+00 1.028310471564589e+00 1.031510597688717e+00 1.057918675214512e+00 1.063356064743399e+00 1.026129068399474e+00 1.067345502046778e+00 1.062336317247523e+00 1.067158621017826e+00 1.115944067228730e+00 1.123398242582564e+00 1.060019504759309e+00 1.129134601325017e+00 1.122559256542352e+00 1.128440907454072e+00 1.207103540369667e+00 1.215351625503001e+00 1.120940775696497e+00 1.222191094944081e+00 1.215178864929328e+00 1.220871681335573e+00 1.331221032796241e+00 1.338146428400999e+00 1.215314495829591e+00 1.344848966980545e+00 1.338927948618710e+00 1.342982039794395e+00 1.477577387090274e+00 1.481095921759870e+00 1.341586079832681e+00 1.486351653210840e+00 1.482668921466745e+00 1.484143657337882e+00 1.626998174711121e+00 1.626293098845066e+00 1.487798313606995e+00 1.629131146727469e+00 1.628022605284109e+00 1.626883020002267e+00 1.759048857080165e+00 1.754877574927478e+00 1.634574178920548e+00 1.754951099770410e+00 1.756340236966538e+00 1.752609888023939e+00 1.859703638698807e+00 1.854118841131509e+00 1.762178413681033e+00 1.850064209588541e+00 1.855646709826416e+00 1.846871374049835e+00 1.924348206191343e+00 1.920610669536798e+00 1.856793832630578e+00 1.902871930656491e+00 1.928573358930240e+00 1.894268518331609e+00 1.949465061613221e+00 1.000000016137663e+00 9.999999996340296e-01 1.000000023854501e+00 1.000000012059298e+00 1.000000026391352e+00 1.000000061346235e+00 1.000000079050901e+00 9.999999975354397e-01 1.000000124529970e+00 1.000000056447946e+00 1.000000138800306e+00 1.000000307648307e+00 1.000000406193599e+00 9.999999992847954e-01 1.000000600912995e+00 1.000000310713886e+00 1.000000646856333e+00 1.000001488228876e+00 1.000001984573659e+00 1.000000029552534e+00 1.000002654089403e+00 1.000001621821048e+00 1.000002785707107e+00 1.000006750500000e+00 1.000009019834302e+00 1.000000169370580e+00 1.000010971332391e+00 1.000007715514443e+00 1.000011371885839e+00 1.000028651213854e+00 1.000037886176663e+00 1.000001011773265e+00 1.000043234060306e+00 1.000033426221278e+00 1.000044576281460e+00 1.000113182771387e+00 1.000146507586230e+00 1.000007366859878e+00 1.000161913096846e+00 1.000132427889968e+00 1.000166259964041e+00 1.000412439570647e+00 1.000519116376418e+00 1.000046947255372e+00 1.000566850003681e+00 1.000479572265043e+00 1.000578699001765e+00 1.001373948421562e+00 1.001676302792161e+00 1.000239991017450e+00 1.001824070559231e+00 1.001580913668583e+00 1.001847675094390e+00 1.004153687158308e+00 1.004908502492899e+00 1.001003130071155e+00 1.005329778733833e+00 1.004712285016347e+00 1.005349597677947e+00 1.011332653406252e+00 1.012997674357933e+00 1.003532368609164e+00 1.014019776059027e+00 1.012634167934169e+00 1.013970015756356e+00 1.027831589356375e+00 1.031010326660042e+00 1.010617640927652e+00 1.033041598992436e+00 1.030438903755866e+00 1.032816655214368e+00 1.061291062749534e+00 1.066397821173502e+00 1.027554086711986e+00 1.069773300257410e+00 1.065746595620281e+00 1.069224658302848e+00 1.120625923161440e+00 1.127479154063094e+00 1.062356923098801e+00 1.132197474235588e+00 1.127060380202911e+00 1.131211233190746e+00 1.212448546931802e+00 1.219917201601783e+00 1.124075693388195e+00 1.225433364858751e+00 1.220114283706708e+00 1.224012369118110e+00 1.336216547364969e+00 1.342396896240909e+00 1.218771979446043e+00 1.347701868724728e+00 1.343428734128512e+00 1.345951668260582e+00 1.481305666251105e+00 1.484327441676814e+00 1.344695809570305e+00 1.488306033390808e+00 1.486068348779016e+00 1.486296700068981e+00 1.628956739955527e+00 1.628096383597174e+00 1.489940325265405e+00 1.629541084647233e+00 1.630165622616271e+00 1.627129681610003e+00 1.758817128296099e+00 1.754938440910264e+00 1.635015968167430e+00 1.751199707034902e+00 1.757960654793912e+00 1.746901825936467e+00 1.855044095167216e+00 1.851249123624096e+00 1.758356828099708e+00 1.828052439659545e+00 1.866045150058929e+00 1.813598727089180e+00 1.899602805594852e+00 1.000000004845919e+00 1.000000000031313e+00 1.000000011201585e+00 1.000000001964462e+00 1.000000015034746e+00 1.000000023120467e+00 1.000000022317585e+00 1.000000002111727e+00 1.000000072652040e+00 1.000000008384941e+00 1.000000089690411e+00 1.000000121893322e+00 1.000000113417943e+00 1.000000037941952e+00 1.000000376657358e+00 1.000000057538326e+00 1.000000425123929e+00 1.000000563361418e+00 1.000000564009116e+00 1.000000278260052e+00 1.000001545293386e+00 1.000000406434655e+00 1.000001620568468e+00 1.000002314951647e+00 1.000002604374616e+00 1.000001087223165e+00 1.000005204379381e+00 1.000002221277729e+00 1.000005230151995e+00 1.000008972405948e+00 1.000011034900400e+00 1.000002769969214e+00 1.000016247227110e+00 1.000010015421533e+00 1.000016087612952e+00 1.000034235679876e+00 1.000043838454937e+00 1.000005247251437e+00 1.000052455687800e+00 1.000040517682849e+00 1.000052191125853e+00 1.000128023119555e+00 1.000163559690389e+00 1.000011592354533e+00 1.000179246631474e+00 1.000152649102972e+00 1.000179521837294e+00 1.000455087037161e+00 1.000567137143108e+00 1.000049983359007e+00 1.000610743225853e+00 1.000536919149110e+00 1.000610945211529e+00 1.001495137700998e+00 1.001804853890371e+00 1.000250796479912e+00 1.001947898293473e+00 1.001734657129241e+00 1.001936845673324e+00 1.004466549241080e+00 1.005229673977536e+00 1.001066885872952e+00 1.005637224603603e+00 1.00507539886498