<?xml version="1.0"?>
<VTKFile type="UnstructuredGrid" version="0.1" byte_order="LittleEndian">
<UnstructuredGrid>
<Piece NumberOfPoints="714" NumberOfCells="1306">
<Points>
<DataArray type="Float64" NumberOfComponents="3" format="ascii">
0.000000000000000e+00 0.000000000000000e+00 0.000000000000000e+00 5.000000000000000e+00 0.000000000000000e+00 0.000000000000000e+00 5.000000000000000e+00 1.000000000000000e+00 0.000000000000000e+00 0.000000000000000e+00 1.000000000000000e+00 0.000000000000000e+00 9.999999999992801e-02 0.000000000000000e+00 0.000000000000000e+00 1.999999999998339e-01 0.000000000000000e+00 0.000000000000000e+00 2.999999999997341e-01 0.000000000000000e+00 0.000000000000000e+00 3.999999999996643e-01 0.000000000000000e+00 0.000000000000000e+00 4.999999999995944e-01 0.000000000000000e+00 0.000000000000000e+00 5.999999999995166e-01 0.000000000000000e+00 0.000000000000000e+00 6.999999999992880e-01 0.000000000000000e+00 0.000000000000000e+00 7.999999999989961e-01 0.000000000000000e+00 0.000000000000000e+00 8.999999999987042e-01 0.000000000000000e+00 0.000000000000000e+00 9.999999999984124e-01 0.000000000000000e+00 0.000000000000000e+00 1.099999999998120e+00 0.000000000000000e+00 0.000000000000000e+00 1.199999999997829e+00 0.000000000000000e+00 0.000000000000000e+00 1.299999999997537e+00 0.000000000000000e+00 0.000000000000000e+00 1.399999999997245e+00 0.000000000000000e+00 0.000000000000000e+00 1.499999999996953e+00 0.000000000000000e+00 0.000000000000000e+00 1.599999999996661e+00 0.000000000000000e+00 0.000000000000000e+00 1.699999999996369e+00 0.000000000000000e+00 0.000000000000000e+00 1.799999999996077e+00 0.000000000000000e+00 0.000000000000000e+00 1.899999999995785e+00 0.000000000000000e+00 0.000000000000000e+00 1.999999999995511e+00 0.000000000000000e+00 0.000000000000000e+00 2.099999999995593e+00 0.000000000000000e+00 0.000000000000000e+00 2.199999999995745e+00 0.000000000000000e+00 0.000000000000000e+00 2.299999999995897e+00 0.000000000000000e+00 0.000000000000000e+00 2.399999999996049e+00 0.000000000000000e+00 0.000000000000000e+00 2.499999999996201e+00 0.000000000000000e+00 0.000000000000000e+00 2.599999999996353e+00 0.000000000000000e+00 0.000000000000000e+00 2.699999999996505e+00 0.000000000000000e+00 0.000000000000000e+00 2.799999999996657e+00 0.000000000000000e+00 0.000000000000000e+00 2.899999999996809e+00 0.000000000000000e+00 0.000000000000000e+00 2.999999999996961e+00 0.000000000000000e+00 0.000000000000000e+00 3.099999999997114e+00 0.000000000000000e+00 0.000000000000000e+00 3.199999999997265e+00 0.000000000000000e+00 0.000000000000000e+00 3.299999999997417e+00 0.000000000000000e+00 0.000000000000000e+00 3.399999999997569e+00 0.000000000000000e+00 0.000000000000000e+00 3.499999999997721e+00 0.000000000000000e+00 0.000000000000000e+00 3.599999999997873e+00 0.000000000000000e+00 0.000000000000000e+00 3.699999999998025e+00 0.000000000000000e+00 0.000000000000000e+00 3.799999999998176e+00 0.000000000000000e+00 0.000000000000000e+00 3.899999999998329e+00 0.000000000000000e+00 0.000000000000000e+00 3.999999999998481e+00 0.000000000000000e+00 0.000000000000000e+00 4.099999999998633e+00 0.000000000000000e+00 0.000000000000000e+00 4.199999999998784e+00 0.000000000000000e+00 0.000000000000000e+00 4.299999999998937e+00 0.000000000000000e+00 0.000000000000000e+00 4.399999999999088e+00 0.000000000000000e+00 0.000000000000000e+00 4.499999999999240e+00 0.000000000000000e+00 0.000000000000000e+00 4.599999999999393e+00 0.000000000000000e+00 0.000000000000000e+00 4.699999999999545e+00 0.000000000000000e+00 0.000000000000000e+00 4.799999999999696e+00 0.000000000000000e+00 0.000000000000000e+00 4.899999999999848e+00 0.000000000000000e+00 0.000000000000000e+00 5.000000000000000e+00 9.999999999981467e-02 0.000000000000000e+00 5.000000000000000e+00 1.999999999995579e-01 0.000000000000000e+00 5.000000000000000e+00 2.999999999992664e-01 0.000000000000000e+00 5.000000000000000e+00 3.999999999989749e-01 0.000000000000000e+00 5.000000000000000e+00 4.999999999986943e-01 0.000000000000000e+00 5.000000000000000e+00 5.999999999989468e-01 0.000000000000000e+00 5.000000000000000e+00 6.999999999992100e-01 0.000000000000000e+00 5.000000000000000e+00 7.999999999994734e-01 0.000000000000000e+00 5.000000000000000e+00 8.999999999997368e-01 0.000000000000000e+00 4.899999999999999e+00 1.000000000000000e+00 0.000000000000000e+00 4.800000000000000e+00 1.000000000000000e+00 0.000000000000000e+00 4.699999999999999e+00 1.000000000000000e+00 0.000000000000000e+00 4.600000000000000e+00 1.000000000000000e+00 0.000000000000000e+00 4.499999999999999e+00 1.000000000000000e+00 0.000000000000000e+00 4.399999999999999e+00 1.000000000000000e+00 0.000000000000000e+00 4.299999999999999e+00 1.000000000000000e+00 0.000000000000000e+00 4.199999999999998e+00 1.000000000000000e+00 0.000000000000000e+00 4.099999999999999e+00 1.000000000000000e+00 0.000000000000000e+00 3.999999999999999e+00 1.000000000000000e+00 0.000000000000000e+00 3.899999999999999e+00 1.000000000000000e+00 0.000000000000000e+00 3.799999999999999e+00 1.000000000000000e+00 0.000000000000000e+00 3.699999999999998e+00 1.000000000000000e+00 0.000000000000000e+00 3.599999999999999e+00 1.000000000000000e+00 0.000000000000000e+00 3.499999999999999e+00 1.000000000000000e+00 0.000000000000000e+00 3.399999999999999e+00 1.000000000000000e+00 0.000000000000000e+00 3.299999999999999e+00 1.000000000000000e+00 0.000000000000000e+00 3.199999999999998e+00 1.000000000000000e+00 0.000000000000000e+00 3.099999999999999e+00 1.000000000000000e+00 0.000000000000000e+00 2.999999999999999e+00 1.000000000000000e+00 0.000000000000000e+00 2.899999999999999e+00 1.000000000000000e+00 0.000000000000000e+00 2.799999999999999e+00 1.000000000000000e+00 0.000000000000000e+00 2.699999999999999e+00 1.000000000000000e+00 0.000000000000000e+00 2.599999999999999e+00 1.000000000000000e+00 0.000000000000000e+00 2.500000000000000e+00 1.000000000000000e+00 0.000000000000000e+00 2.399999999999999e+00 1.000000000000000e+00 0.000000000000000e+00 2.299999999999999e+00 1.000000000000000e+00 0.000000000000000e+00 2.199999999999999e+00 1.000000000000000e+00 0.000000000000000e+00 2.100000000000000e+00 1.000000000000000e+00 0.000000000000000e+00 2.000000000000000e+00 1.000000000000000e+00 0.000000000000000e+00 1.899999999999999e+00 1.000000000000000e+00 0.000000000000000e+00 1.799999999999999e+00 1.000000000000000e+00 0.000000000000000e+00 1.699999999999999e+00 1.000000000000000e+00 0.000000000000000e+00 1.599999999999999e+00 1.000000000000000e+00 0.000000000000000e+00 1.500000000000000e+00 1.000000000000000e+00 0.000000000000000e+00 1.399999999999999e+00 1.000000000000000e+00 0.000000000000000e+00 1.299999999999999e+00 1.000000000000000e+00 0.000000000000000e+00 1.199999999999999e+00 1.000000000000000e+00 0.000000000000000e+00 1.100000000000000e+00 1.000000000000000e+00 0.000000000000000e+00 9.999999999999991e-01 1.000000000000000e+00 0.000000000000000e+00 8.999999999999995e-01 1.000000000000000e+00 0.000000000000000e+00 7.999999999999998e-01 1.000000000000000e+00 0.000000000000000e+00 7.000000000000002e-01 1.000000000000000e+00 0.000000000000000e+00 5.999999999999996e-01 1.000000000000000e+00 0.000000000000000e+00 4.999999999999991e-01 1.000000000000000e+00 0.000000000000000e+00 3.999999999999995e-01 1.000000000000000e+00 0.000000000000000e+00 3.000000000000007e-01 1.000000000000000e+00 0.000000000000000e+00 1.999999999999993e-01 1.000000000000000e+00 0.000000000000000e+00 9.999999999999964e-02 1.000000000000000e+00 0.000000000000000e+00 0.000000000000000e+00 8.999999999995836e-01 0.000000000000000e+00 0.000000000000000e+00 7.999999999999998e-01 0.000000000000000e+00 0.000000000000000e+00 7.000000000006934e-01 0.000000000000000e+00 0.000000000000000e+00 6.000000000013869e-01 0.000000000000000e+00 0.000000000000000e+00 5.000000000020587e-01 0.000000000000000e+00 0.000000000000000e+00 4.000000000016644e-01 0.000000000000000e+00 0.000000000000000e+00 3.000000000012483e-01 0.000000000000000e+00 0.000000000000000e+00 2.000000000008322e-01 0.000000000000000e+00 0.000000000000000e+00 1.000000000004160e-01 0.000000000000000e+00 7.477570327540725e-01 4.905967956478702e-01 0.000000000000000e+00 1.346210646643281e+00 4.806066422083806e-01 0.000000000000000e+00 1.949496869330408e+00 5.032480558805372e-01 0.000000000000000e+00 4.449999999999997e+00 5.000000000000384e-01 0.000000000000000e+00 3.859142349610828e+00 5.103468031113156e-01 0.000000000000000e+00 3.246530027037640e+00 5.183101712757180e-01 0.000000000000000e+00 2.657531292711257e+00 5.037429884868682e-01 0.000000000000000e+00 3.824015840967434e-01 6.064457502813875e-01 0.000000000000000e+00 2.306343155343502e+00 6.315316747431162e-01 0.000000000000000e+00 1.049999999998266e+00 3.374999999994497e-01 0.000000000000000e+00 1.641930697057102e+00 3.436055112169133e-01 0.000000000000000e+00 4.150000000000006e+00 6.625000000000185e-01 0.000000000000000e+00 3.552784161359181e+00 6.642488388863971e-01 0.000000000000000e+00 2.940292465243163e+00 6.575992780735344e-01 0.000000000000000e+00 1.641237689750194e+00 6.703960699373966e-01 0.000000000000000e+00 1.050000000000000e+00 6.706367924525535e-01 0.000000000000000e+00 2.960517759676693e+00 3.261740577967960e-01 0.000000000000000e+00 3.551899302943298e+00 3.210887133285832e-01 0.000000000000000e+00 4.150779393876139e+00 3.209867287821391e-01 0.000000000000000e+00 2.213980362532827e+00 3.194901812685164e-01 0.000000000000000e+00 4.927283029162088e-01 3.252862896001115e-01 0.000000000000000e+00 4.696684455724628e+00 3.145438084075651e-01 0.000000000000000e+00 4.690990908683984e+00 6.962960281446974e-01 0.000000000000000e+00 2.487221901830106e+00 2.763334294511438e-01 0.000000000000000e+00 6.215262983536076e-01 7.328515730233995e-01 0.000000000000000e+00 2.065768881873406e+00 7.342557316219342e-01 0.000000000000000e+00 2.543072460766750e+00 7.257064952909391e-01 0.000000000000000e+00 8.105176211436336e-01 2.535517621144286e-01 0.0000000000000
[...]
<CellData Scalars="A_conc,As-lin_conc,Bs-lang_conc,Cs-freund_conc," Vectors="" Tensors="">
<DataArray type="Float64" Name="A_conc" format="ascii">
1.164547443300864e-06 4.129423297174931e-01 6.116930757371928e-05 1.586723294848635e-06 3.249868774857684e-01 2.112715799011521e-02 2.593352894356385e-02 2.260884632878372e-01 3.901341264386646e-01 1.634822995701393e-06 1.397542499644112e-04 7.763587106520914e-07 4.950429720864765e-07 2.328425183716516e-04 3.903801301453413e-06 1.532421032032839e-06 4.038680002228928e-06 4.163458318060185e-06 9.728709821912662e-03 2.705341072413086e-06 1.338314643037683e-08 4.923534191768665e-07 1.491972686203244e-07 1.468162438147265e-07 1.607167778056396e-06 8.278134606459528e-08 1.877092011835597e-06 2.993972282757271e-01 2.287885744098670e-06 3.801467032523641e-06 2.007368755875974e-07 2.390164200052181e-06 1.722314980447624e-08 2.327598833514699e-07 1.192467541700801e-02 3.661971397635974e-01 3.997865274934658e-07 4.369412872680491e-08 1.059170528825734e-07 3.342818524018701e-01 3.987722815809676e-04 5.838287590557386e-07 1.096239875869671e-07 1.043776811167993e-09 6.273827134345551e-09 2.191326319847822e-02 4.471110211752253e-06 1.165000549694276e-01 9.420281478574139e-03 1.716716255971624e-02 3.879694186354930e-01 1.126344742394685e-06 3.369412030840613e-04 3.535232308432308e-01 3.814992680069488e-01 4.314752294252643e-01 2.220159435956727e-08 2.171953343371719e-01 2.855747329036077e-01 4.072647114735647e-06 1.644805435330992e-03 2.217782972557852e-01 6.267556397760718e-02 4.615482712142564e-10 2.619904652781682e-09 3.462573360903946e-02 1.133913381020949e-01 5.657991278781991e-09 4.042291307257398e-01 2.736863852131771e-01 1.020532228564406e-08 7.138220810612030e-06 1.378394742017796e-07 4.371774807867951e-06 1.299837294096758e-01 1.294419490535804e-02 4.149424569003351e-07 2.231424163275395e-02 1.553842534914714e-01 3.873385255244417e-09 3.716401554599948e-06 1.201336564789224e-02 3.867537211073676e-06 6.537569333600211e-04 8.296745694294042e-02 4.350639271331652e-07 1.720159909355866e-02 1.421725507274538e-01 4.724868860414476e-07 4.974888385745213e-09 4.350751939870374e-03 8.566076892367502e-02 2.523255562606031e-01 7.218474448780288e-02 1.551725391359446e-02 2.638692358218038e-06 7.039123683400131e-02 2.294021661658143e-01 3.434040027225736e-05 2.853972713527669e-01 3.158569318483634e-08 5.455719816976452e-07 5.647417265630880e-07 7.341851927022447e-02 3.108071533950184e-07 1.360620322097061e-01 3.457531666013771e-06 3.051099263868746e-01 2.947109153464744e-07 1.487574880429040e-01 4.635419093748226e-09 9.023919910512470e-07 8.509084492945648e-07 2.425419531073503e-08 2.127361523407879e-06 2.377402766372944e-01 3.927960671874111e-06 4.865902559885514e-08 1.543443408333142e-09 2.986588807467214e-01 1.671668561939007e-09 3.386618614768001e-07 1.113511973576825e-05 1.416848570226587e-06 2.895724747934474e-01 1.773158284501773e-08 1.081402788898304e-04 4.965935332742328e-07 2.489506919123545e-01 1.798011515845614e-01 1.414998363645444e-02 6.975594555136721e-09 1.582005872901788e-01 1.919216040077920e-01 4.111327032956174e-02 5.826691195834904e-09 4.111959097390440e-06 4.234906703963904e-01 1.051767465871548e-01 3.670147115331612e-02 5.379780105141525e-08 2.862476370040067e-01 1.136007490081783e-06 1.310768973757682e-10 2.713220539285602e-03 1.962612230376840e-03 1.359899487415935e-01 2.645792029123531e-08 2.173710222342726e-02 1.482727505349019e-01 2.542593958164972e-08 1.842064841431794e-02 4.337542221506903e-02 9.865034260078630e-02 1.173289096235442e-09 1.574576692560391e-03 1.247309106943971e-07 2.516963825131268e-01 9.901191858608896e-08 1.119228107649523e-03 4.679124285321131e-06 1.749623534105736e-01 6.691419705873840e-06 2.177452332461216e-05 1.580678142529547e-08 1.283485569353666e-06 1.085123632159243e-06 1.618629369482003e-09 1.574200799716530e-09 1.239095444656124e-03 1.478302130577617e-06 2.808437447070029e-07 2.068962975091516e-03 1.384222042353243e-03 1.282080755313389e-08 5.682616798507036e-02 2.141604997474806e-01 2.129687804571476e-05 3.118807536480163e-07 1.624975152326515e-09 6.716333408293905e-02 2.274388346811010e-01 3.429350095082359e-01 2.131935879826005e-09 1.554812510552868e-07 1.746097131982562e-07 6.249103982819878e-07 2.482784638183153e-09 7.199167847621980e-05 3.834104255474609e-08 2.089224397647338e-07 4.692163874744286e-07 3.667628318605079e-06 2.116186611913114e-06 1.118631672651831e-06 4.232048864583551e-08 1.592917380529601e-06 1.208998450836855e-06 1.012861481671426e-06 1.748783093961528e-06 1.039236080151441e-06 8.844093981904759e-11 4.600382810837220e-01 6.516171161822403e-09 5.189022702513497e-02 2.085032413266499e-01 1.781098617859042e-10 2.887542704831970e-08 2.538133119712499e-06 3.616805311629511e-01 1.219774337822612e-08 3.686091667074748e-05 3.475993118268859e-02 1.264244517619143e-06 4.855063644275774e-06 1.135623534457352e-09 1.346953546557194e-06 4.330204121065354e-10 2.827702037692272e-06 1.163046870133261e-02 9.110067117427892e-03 3.142942134622883e-01 3.910192367489628e-08 1.720766431939445e-08 3.938237882986584e-08 4.453591092309512e-01 1.506331444921189e-06 1.704476285359325e-07 4.967339724287101e-04 6.619849116204648e-08 7.300406166701962e-08 1.062729031162826e-06 1.725496718087246e-06 2.813533684864408e-07 4.828595666888192e-02 9.242198809557053e-02 1.194961878698323e-01 3.114933260078927e-02 1.337694937454500e-06 7.901893743131230e-04 1.335335616820204e-01 6.461447414063783e-08 2.390989108547517e-02 5.754330437363975e-11 2.852729179198821e-03 7.332687821968378e-02 2.368383390165861e-01 8.322301313417955e-04 5.241853450804337e-06 5.578450164693686e-04 4.216475265702484e-10 2.934574917137787e-09 2.486502633369049e-03 7.476352178532518e-02 2.357774392736283e-01 2.359914984652813e-01 2.423829120456957e-06 4.216878970739053e-07 3.792839264900885e-06 3.218243924414890e-04 5.071019771594499e-09 1.774247849723526e-07 9.256714847518804e-02 8.208766762973610e-02 2.539198257126153e-07 3.757907251827861e-06 6.657623363134354e-07 2.503173857495666e-06 8.902794181302567e-08 6.754648384883997e-04 4.980639588511006e-10 7.494726924822184e-09 1.495023256276296e-01 1.832830101405493e-02 2.034773734086166e-04 2.731856895680805e-06 6.396760836974056e-05 3.031658404315213e-06 4.528829009855237e-07 4.817284151869620e-07 2.163704068988803e-09 1.687402415288610e-01 5.835000007508690e-10 5.018808886222101e-06 3.029189890302738e-01 1.665239900093106e-07 3.768099574922344e-07 1.110719252625968e-07 4.318558736983087e-02 1.007790631515989e-01 1.262041954561320e-08 4.458288204840538e-10 2.885787949399401e-08 6.190662791073141e-08 7.529047884139941e-03 9.538305048869714e-09 1.575848968124942e-08 4.122295957884462e-06 5.436182091136648e-04 6.365233009920289e-07 4.144838671681552e-03 4.307495091228402e-09 8.505957242133386e-02 2.487119721638406e-01 4.150351023905440e-07 4.076662168520897e-06 3.958879119992393e-06 2.920398996658030e-01 9.453216924669751e-02 5.458746747583991e-03 1.061498767911840e-01 7.171407920795720e-03 1.053901289468728e-03 5.247220446635980e-08 1.641112431480440e-03 4.145397996004691e-07 1.893620361585999e-06 3.374874915012151e-06 3.904952783689195e-01 2.176416408418413e-01 2.071520042829116e-01 4.495028583354570e-08 4.762630632972423e-08 7.948878060394893e-07 2.467883327117022e-09 7.551572210385413e-02 6.422743060650415e-02 2.888213424602987e-07 4.339113451549200e-03 2.323637873647757e-06 4.253972639936717e-01 4.182235867363638e-01 4.196061642603720e-01 4.246277553433228e-01 2.791135706636287e-01 2.688548294739994e-06 2.413368064371566e-06 1.177696520589887e-08 4.804868997488326e-02 1.670175351654434e-08 4.185050836982000e-08 1.801432277712729e-06 7.774235000119571e-05 3.481613929602083e-01 1.757408328545448e-04 3.046357918782935e-06 1.911281462219317e-07 2.758429873012370e-04 1.000639988813067e-06 5.344591362823619e-06 4.501432792174305e-01 4.431324583093825e-05 4.907464350118589e-07 1.417572450006654e-08 5.420845501079597e-06 2.301958914301888e-01 1.370293665856498e-08 2.207348985959258e-08 1.374215712378011e-06 3.720219684312279e-08 4.614928927076613e-06 8.433900652576970e-11 4.510039226172592e-06 1.889115276701826e-01 2.171173405939194e-06 1.933822487768040e-01 1.350203177945971e-08 8.788640322449298e-02 5.247339423449544e-02 4.007302288042402e-01 4.610607307590756e-01 4.610607380045241e-01 3.200398798409999e-01 3.182090858855450e-01 3.341373580526224e-03 1.224589092000947e-08 2.473330989756386e-01 6.063146497174711e-09 2.139891244225339e-01 9.602530403172924e-10 3.987777253509765e-01 3.666879276574312e-06 9.241148374267641e-07 1.079124855086384e-01 7.816894567660500e-03 1.049599054787997e-05 2.727786249062204e-08 8.040897683551126e-07 7.759906595250071e-07 3.153208227945526e-01 3.959307279143263e-01 5.732368419814402e-10 2.772928593225775e-07 9.859176010521607e-05 2.870911711926704e-08 3.803519673349472e-06 2.215358053385777e-06 1.643047373521860e-01 1.483642303130709e-01 1.709633620263067e-07 2.238163967357822e-03 3.795839458026974e-01 6.013703219571024e-05 2.295226643837172e-06 1.667542110719080e-06 2.033679061040353e-06 1.888189375244034e-07 2.246358818691249e-02 3.549117489287511e-01 1.565226527721654e-01 1.008056980373385e-03 4.603208308480525e-01 1.087248494430307e-03 5.153491499778014e-07 2.002831370497512e-01 3.860062495648773e-01 2.763938098807761e-07 4.501674118500509e-07 5.545214935033838e-02 7.099308904803334e-08 5.378870787351562e-08 1.819015007465092e-02 1.452595058468633e-01 2.893375614793126e-01 1.110655847448175e-08 1.399618778010349e-06 7.021362015513638e-09 4.393850418398943e-09 8.446041758879391e-03 1.094804944948237e-01 2.798394382028124e-01 1.124775995072372e-06 4.719445472898999e-09 6.324550910067648e-03 1.003698979373327e-01 2.688966744047956e-01 1.217028522236162e-06 1.291406808839431e-09 8.624421832531046e-02 5.283040092239547e-02 1.851467288705425e-03 5.819579679458670e-02 8.270804083666258e-02 1.812934505730908e-01 3.406503298937420e-02 2.067186131773406e-01 5.043999787573741e-02 2.956764399906817e-05 4.774075049576343e-06 4.384967229130496e-01 5.304674708134937e-05 1.869628688058553e-07 2.856735158592533e-02 4.272572302657683e-01 1.673582558993083e-01 2.683856017629240e-02 9.320525962391588e-04 2.362901119858449e-07 6.363843644206511e-07 1.456425669393723e-09 3.442991210273024e-01 3.885805356788131e-01 4.506249074375334e-06 1.455201656017163e-05 5.569234318351440e-05 1.523882709676078e-06 4.289752369794283e-01 4.194443248539736e-01 4.920751218164695e-07 2.119719785875097e-01 3.632393398379095e-04 3.956133221884338e-04 1.463490133293253e-03 3.826329543638110e-01 3.668481359808055e-01 3.782485459030196e-01 7.194920173468581e-07 3.222122216220543e-07 4.055202613094845e-08 1.779351496699035e-05 2.789436285627435e-01 2.827353158095810e-07 3.202013959673533e-01 5.860415602385752e-02 5.057547591332126e-09 6.739221587249543e-11 2.441937050436772e-01 7.115065020570253e-02 6.009900510678642e-02 1.360821855985980e-06 1.594933519170978e-01 4.184596541083367e-01 3.319850517765717e-01 1.959364655417747e-01 2.234026029252781e-01 6.250796414984183e-02 1.192314419366066e-04 3.026337777836044e-01 5.710177587543008e-03 3.338996389900746e-01 1.300794466452969e-08 1.580865858632069e-06 1.657484020344574e-06 1.545482136692975e-01 2.223945540036134e-02 1.051835802104612e-01 4.016432799566972e-02 1.850680842406519e-07 1.339582671384060e-08 2.780523288110837e-07 3.060398878665239e-01 3.411107816311744e-06 2.060391746038612e-05 3.593829042749703e-06 1.758838850912688e-06 1.055327505789245e-06 1.836481581334846e-01 2.728090952014506e-01 3.366092576196152e-01 3.407394846278288e-01 2.515923765761885e-06 5.026151625322828e-06 3.687314292041530e-07 1.397893262461904e-09 3.580615370115109e-01 3.131851378139577e-01 4.650715799278102e-07 2.224596548807219e-01 1.862021892330284e-03 3.667863023747156e-01 2.820583347947808e-03 1.267902065349455e-06 3.238990466843493e-01 2.467895905947113e-01 1.988479289946567e-04 2.028400182544422e-02 6.037614883313702e-04 2.086757680993394e-06 1.065877248221681e-06 3.050097818799831e-01 1.604111595202547e-02 2.513132563972495e-01 2.223190108413636e-10 8.654345279666059e-02 4.120097306374575e-03 6.262073393403414e-09 1.368089438991962e-10 3.308623661872230e-01 4.439660810862669e-04 2.037273954560733e-06 5.666122748368033e-06 1.764829123923288e-07 4.404429624166244e-08 1.590835073774483e-01 2.381818182681795e-02 2.624520325287813e-06 2.884360179330013e-01 3.725872132580210e-01 3.660525504190151e-06 3.217047833192420e-06 3.763828974402369e-08 3.047880391333727e-07 9.772339412296309e-08 8.556402363039697e-03 1.139313152397924e-01 1.920446111199867e-07 1.872682177726586e-01 5.024565603835020e-06 4.050642297016965e-01 3.558975725136328e-06 3.035150767132741e-07 3.449787302129210e-01 3.373860480041548e-01 2.329287810920627e-08 2.928959795492556e-01 3.011634286749826e-01 4.498866249710654e-07 1.199407472390831e-03 8.451667595195370e-02 6.822039436316573e-07 2.066231105380269e-04 4.007935270456116e-01 3.893244490051464e-01 6.140498672437867e-06 1.225921418355339e-07 5.870420174006079e-02 1.109395906425896e-05 1.939287078547623e-04 5.596205484454272e-08 2.622318525694968e-01 2.421342826921185e-08 1.467746202617729e-08 1.701588756022147e-01 1.392818893268965e-08 1.789286369849195e-01 4.277582136220461e-01 4.161395409234967e-01 4.995637121294403e-06 1.770887643424636e-02 5.258505290179389e-06 7.024441403533961e-09 4.560938458948589e-08 1.419530283636963e-01 5.493144410212883e-06 1.690154665862328e-02 3.984890898992390e-01 2.715939154003048e-10 2.004647833748892e-08 1.396408739275471e-08 1.019177458146219e-04 2.795611898790176e-07 5.233023565933036e-06 1.093741164174809e-08 3.003508417898754e-07 3.017823968365423e-01 3.279071365315832e-07 1.355535223584631e-07 3.032132282200039e-06 4.743373598807970e-03 6.593288446433067e-09 2.066318312860684e-01 3.056433523379363e-04 8.700991262423564e-07 2.370480844978486e-06 2.615630063162883e-01 1.048726287894930e-09 1.274571616952484e-05 6.284752730530237e-08 4.639841695073186e-06 2.072073440922463e-06 2.184416071581246e-01 2.081264628413978e-01 4.795576607543490e-09 1.407244894346708e-07 1.443759748418048e-01 9.345014441287955e-07 1.163360656370270e-08 6.236657225182221e-02 9.412817500751855e-08 1.107950318322956e-02 1.231008607360154e-01 1.502326440630870e-07 1.735906400037497e-07 1.048648529931208e-07 1.313325433129005e-01 2.605970488986509e-02 1.253166576959279e-06 2.509693284089876e-04 5.599112767253144e-08 1.467066072976003e-07 1.945338203303602e-06 3.304443465579862e-01 7.068090821760154e-06 1.861147621832461e-07 1.557544950968835e-01 2.225004955248630e-02 1.532946130845863e-06 2.676983866874614e-01 2.596754791678761e-01 1.781263176921755e-07 1.431079235427542e-07 2.270212002670000e-01 2.188641232816775e-06 2.545324941876022e-08 4.035508957418440e-08 2.364029490251734e-08 3.582316192898295e-06 5.333645648639612e-04 6.240314765573015e-06 3.213237519175595e-08 1.457101849272117e-06 2.374582271000705e-01 2.285459731584676e-01 2.381442799602971e-03 2.265496031622423e-08 2.415463470584550e-08 2.659804144430036e-09 1.174634661069483e-04 5.501598772720069e-03 2.612089157027388e-09 1.590286035692545e-08 5.108089124450371e-09 9.633495965655205e-02 4.845389712011473e-06 6.646221670902480e-04 3.580449965970393e-01 2.650484179260750e-06 4.519575311757574e-01 4.503128471797050e-01 2.734111837387914e-05 5.328540902439814e-06 5.224811631776950e-02 4.496348286853667e-02 3.194554739676009e-03 2.923870923496312e-05 1.802077678260109e-05 1.433282234103514e-02 5.696233474294922e-08 1.347892421621033e-01 1.395872284369356e-04 2.737321982242620e-01 1.993947788108327e-08 4.392157340154396e-01 4.511657279172152e-01 4.515001169044456e-01 4.395623731352192e-01 4.352548326111927e-01 4.369436040806547e-01 2.299234894917356e-07 1.306899002239623e-01 3.812848203811163e-03 3.366129010790204e-03 9.580798657274168e-08 1.180982327401070e-05 2.993435489567356e-06 5.857944937759111e-08 3.445417622252036e-01 1.962757100145126e-05 3.549835433415287e-05 9.785898719009712e-07 1.013550533677196e-06 1.211260054079192e-01 3.221424431516871e-02 6.166503975349629e-06 3.538358576324151e-05 2.675231620217581e-07 2.138656703115245e-04 1.212137760756439e-08 1.896849829995673e-06 2.605114546804690e-08 6.478636401924963e-09 7.391093520972827e-03 1.813132362698689e-01 4.013714324660110e-08 3.488209777126867e-02 1.555413564845422e-06 1.100068846352130e-07 1.171998491899378e-08 4.014089252125371e-07 5.371901855551157e-06 1.032260377028538e-01 4.613586743901081e-07 8.192060147855199e-08 7.799578720732040e-03 6.426491984266347e-03 2.396391598493240e-09 1.820865753182442e-01 6.038135173573350e-08 2.083699341045654e-06 3.442311724278065e-03 4.643392575818558e-01 4.643392602209636e-01 1.953735364095137e-08 2.760827038729400e-01 9.028746601531785e-03 3.618041629496799e-06 1.453797023726973e-06 1.504887025201977e-01 7.349831988500200e-08 1.783133895283039e-02 5.972811173830629e-06 4.444364169008458e-02 4.503999878581471e-01 4.503999957805875e-01 1.208691779049103e-01 3.442269614728424e-01 3.315468037891342e-01 2.979252524963111e-01 2.414996545042072e-06 1.030423463849123e-08 3.683032846016971e-01 3.560777468218987e-01 1.008192145936833e-05 7.859074457676842e-09 1.182533381942545e-06 7.411833654814581e-09 5.706924061493721e-09 3.400730481947625e-01 4.814623999814738e-03 4.373081535963304e-01 4.375316431675109e-01 2.436685688564942e-08 1.223714650799567e-07 1.926170845705080e-01 2.259752322563497e-07 4.203820833188403e-02 5.317601943255203e-08 1.460437063872177e-06 2.338752979215041e-01 2.596866189179827e-01 4.587532816966829e-06 3.789354226113902e-06 3.969280260902226e-06 6.643730296690758e-06 8.316373182233820e-04 1.652574902051544e-08 2.763973544923536e-01 3.386500499040195e-02 2.823489371295800e-02 1.784312383151180e-01 1.668317837304433e-01 5.292209489367691e-03 3.463123012705888e-06 4.272355759904767e-02 1.724407803594351e-07 1.069765697791498e-01 6.322267776704097e-08 3.082560033959627e-03 7.706357463069693e-02 2.395575702800455e-01 2.012895621829449e-01 4.784164773043614e-02 3.747377784641949e-03 3.629008641470044e-02 4.274822420960674e-08 1.137604588111636e-01 4.979985533062849e-06 6.790851875715458e-09 3.730991679140123e-06 1.539689326181738e-06 2.224396585354133e-01 4.021453399561015e-03 3.793205025012788e-01 6.989074723923122e-02 2.587554308319153e-01 1.260603822700361e-02 6.786385060130336e-08 1.241979315841147e-01 2.935104285145909e-02 2.517182242733542e-01 7.817641082718028e-04 4.867274207567776e-04 1.668678960517085e-06 5.190674799966887e-06 3.737574671872241e-08 1.287200132625188e-03 3.957635545141324e-01 4.045557022878986e-01 1.874308277397901e-06 9.326738539182437e-02 5.003699472302704e-03 3.816059057810279e-01 9.210425859092318e-09 2.971242258050549e-06 3.474272653210177e-06 3.521128391627803e-01 3.647401604724072e-01 2.306715890049849e-08 4.102215770791656e-09 1.146537666116102e-02 1.218806868969592e-01 8.351574098707318e-07 7.850350291992042e-07 7.107443935527910e-02 1.953421708568448e-09 5.472445637889574e-07 2.090315879798155e-05 3.326728119177860e-08 3.674992719455356e-01 3.858856987539057e-10 6.609686536200244e-06 5.376058214353631e-06 4.045226253932686e-01 4.380812193108028e-01 4.507602147814579e-01 1.346509372928563e-01 3.220935782872421e-10 4.344761358886549e-05 6.849959397133827e-05 1.061900712715558e-08 2.174977127859783e-01 6.096849893438345e-02 2.963775570406162e-06 7.407103254192450e-06 1.027964990254229e-02 7.635753449069223e-03 3.633427560715604e-06 7.790602005191441e-07 1.425338511453188e-06 5.885856080732352e-09 1.713947678097295e-10 1.034695264750068e-08 6.341095337862302e-06 2.734428482715620e-07 3.545172439740891e-02 1.818651966715573e-01 1.014993608187065e-06 1.977722386208747e-06 1.355312536173170e-07 2.407994456742381e-01 7.254383809699995e-08 1.362231814967682e-01 3.088475880756522e-04 1.976895221594810e-07 4.003451809737226e-07 9.393816733172719e-02 3.956941041388683e-01 2.240167150371688e-06 3.817534477960800e-06 7.560595310297245e-06 3.362023389598328e-01 3.923347569370847e-01 1.1237441