<?xml version="1.0"?>
<VTKFile type="UnstructuredGrid" version="0.1" byte_order="LittleEndian">
<UnstructuredGrid>
<Piece NumberOfPoints="567" NumberOfCells="966">
<Points>
<DataArray type="Float64" NumberOfComponents="3" format="ascii">
0.000000000000000e+00 0.000000000000000e+00 0.000000000000000e+00 0.000000000000000e+00 1.000000000000000e+00 0.000000000000000e+00 1.600000000000000e+01 1.000000000000000e+00 0.000000000000000e+00 1.600000000000000e+01 0.000000000000000e+00 0.000000000000000e+00 0.000000000000000e+00 2.499999999993998e-01 0.000000000000000e+00 0.000000000000000e+00 4.999999999990217e-01 0.000000000000000e+00 0.000000000000000e+00 7.499999999993374e-01 0.000000000000000e+00 2.025316455691341e-01 1.000000000000000e+00 0.000000000000000e+00 4.050632911382681e-01 1.000000000000000e+00 0.000000000000000e+00 6.075949367074022e-01 1.000000000000000e+00 0.000000000000000e+00 8.101265822765362e-01 1.000000000000000e+00 0.000000000000000e+00 1.012658227845670e+00 1.000000000000000e+00 0.000000000000000e+00 1.215189873414804e+00 1.000000000000000e+00 0.000000000000000e+00 1.417721518983938e+00 1.000000000000000e+00 0.000000000000000e+00 1.620253164553072e+00 1.000000000000000e+00 0.000000000000000e+00 1.822784810122207e+00 1.000000000000000e+00 0.000000000000000e+00 2.025316455691340e+00 1.000000000000000e+00 0.000000000000000e+00 2.227848101260475e+00 1.000000000000000e+00 0.000000000000000e+00 2.430379746829609e+00 1.000000000000000e+00 0.000000000000000e+00 2.632911392398743e+00 1.000000000000000e+00 0.000000000000000e+00 2.835443037967877e+00 1.000000000000000e+00 0.000000000000000e+00 3.037974683537010e+00 1.000000000000000e+00 0.000000000000000e+00 3.240506329106145e+00 1.000000000000000e+00 0.000000000000000e+00 3.443037974675279e+00 1.000000000000000e+00 0.000000000000000e+00 3.645569620244413e+00 1.000000000000000e+00 0.000000000000000e+00 3.848101265813547e+00 1.000000000000000e+00 0.000000000000000e+00 4.050632911382726e+00 1.000000000000000e+00 0.000000000000000e+00 4.253164556952040e+00 1.000000000000000e+00 0.000000000000000e+00 4.455696202521353e+00 1.000000000000000e+00 0.000000000000000e+00 4.658227848090667e+00 1.000000000000000e+00 0.000000000000000e+00 4.860759493659981e+00 1.000000000000000e+00 0.000000000000000e+00 5.063291139229296e+00 1.000000000000000e+00 0.000000000000000e+00 5.265822784798610e+00 1.000000000000000e+00 0.000000000000000e+00 5.468354430367923e+00 1.000000000000000e+00 0.000000000000000e+00 5.670886075937237e+00 1.000000000000000e+00 0.000000000000000e+00 5.873417721506551e+00 1.000000000000000e+00 0.000000000000000e+00 6.075949367075864e+00 1.000000000000000e+00 0.000000000000000e+00 6.278481012645178e+00 1.000000000000000e+00 0.000000000000000e+00 6.481012658214492e+00 1.000000000000000e+00 0.000000000000000e+00 6.683544303783806e+00 1.000000000000000e+00 0.000000000000000e+00 6.886075949353121e+00 1.000000000000000e+00 0.000000000000000e+00 7.088607594922435e+00 1.000000000000000e+00 0.000000000000000e+00 7.291139240491749e+00 1.000000000000000e+00 0.000000000000000e+00 7.493670886061063e+00 1.000000000000000e+00 0.000000000000000e+00 7.696202531630375e+00 1.000000000000000e+00 0.000000000000000e+00 7.898734177199691e+00 1.000000000000000e+00 0.000000000000000e+00 8.101265822769285e+00 1.000000000000000e+00 0.000000000000000e+00 8.303797468339161e+00 1.000000000000000e+00 0.000000000000000e+00 8.506329113909036e+00 1.000000000000000e+00 0.000000000000000e+00 8.708860759478913e+00 1.000000000000000e+00 0.000000000000000e+00 8.911392405048788e+00 1.000000000000000e+00 0.000000000000000e+00 9.113924050618664e+00 1.000000000000000e+00 0.000000000000000e+00 9.316455696188541e+00 1.000000000000000e+00 0.000000000000000e+00 9.518987341758416e+00 1.000000000000000e+00 0.000000000000000e+00 9.721518987328292e+00 1.000000000000000e+00 0.000000000000000e+00 9.924050632898169e+00 1.000000000000000e+00 0.000000000000000e+00 1.012658227846805e+01 1.000000000000000e+00 0.000000000000000e+00 1.032911392403792e+01 1.000000000000000e+00 0.000000000000000e+00 1.053164556960780e+01 1.000000000000000e+00 0.000000000000000e+00 1.073417721517767e+01 1.000000000000000e+00 0.000000000000000e+00 1.093670886074755e+01 1.000000000000000e+00 0.000000000000000e+00 1.113924050631742e+01 1.000000000000000e+00 0.000000000000000e+00 1.134177215188730e+01 1.000000000000000e+00 0.000000000000000e+00 1.154430379745718e+01 1.000000000000000e+00 0.000000000000000e+00 1.174683544302705e+01 1.000000000000000e+00 0.000000000000000e+00 1.194936708859693e+01 1.000000000000000e+00 0.000000000000000e+00 1.215189873416701e+01 1.000000000000000e+00 0.000000000000000e+00 1.235443037973717e+01 1.000000000000000e+00 0.000000000000000e+00 1.255696202530733e+01 1.000000000000000e+00 0.000000000000000e+00 1.275949367087749e+01 1.000000000000000e+00 0.000000000000000e+00 1.296202531644764e+01 1.000000000000000e+00 0.000000000000000e+00 1.316455696201780e+01 1.000000000000000e+00 0.000000000000000e+00 1.336708860758796e+01 1.000000000000000e+00 0.000000000000000e+00 1.356962025315812e+01 1.000000000000000e+00 0.000000000000000e+00 1.377215189872827e+01 1.000000000000000e+00 0.000000000000000e+00 1.397468354429843e+01 1.000000000000000e+00 0.000000000000000e+00 1.417721518986859e+01 1.000000000000000e+00 0.000000000000000e+00 1.437974683543874e+01 1.000000000000000e+00 0.000000000000000e+00 1.458227848100890e+01 1.000000000000000e+00 0.000000000000000e+00 1.478481012657906e+01 1.000000000000000e+00 0.000000000000000e+00 1.498734177214921e+01 1.000000000000000e+00 0.000000000000000e+00 1.518987341771937e+01 1.000000000000000e+00 0.000000000000000e+00 1.539240506328953e+01 1.000000000000000e+00 0.000000000000000e+00 1.559493670885968e+01 1.000000000000000e+00 0.000000000000000e+00 1.579746835442984e+01 1.000000000000000e+00 0.000000000000000e+00 1.600000000000000e+01 7.500000000003469e-01 0.000000000000000e+00 1.600000000000000e+01 5.000000000013878e-01 0.000000000000000e+00 1.600000000000000e+01 2.500000000010407e-01 0.000000000000000e+00 1.579746835443066e+01 0.000000000000000e+00 0.000000000000000e+00 1.559493670886132e+01 0.000000000000000e+00 0.000000000000000e+00 1.539240506329198e+01 0.000000000000000e+00 0.000000000000000e+00 1.518987341772264e+01 0.000000000000000e+00 0.000000000000000e+00 1.498734177215330e+01 0.000000000000000e+00 0.000000000000000e+00 1.478481012658396e+01 0.000000000000000e+00 0.000000000000000e+00 1.458227848101463e+01 0.000000000000000e+00 0.000000000000000e+00 1.437974683544529e+01 0.000000000000000e+00 0.000000000000000e+00 1.417721518987595e+01 0.000000000000000e+00 0.000000000000000e+00 1.397468354430661e+01 0.000000000000000e+00 0.000000000000000e+00 1.377215189873727e+01 0.000000000000000e+00 0.000000000000000e+00 1.356962025316793e+01 0.000000000000000e+00 0.000000000000000e+00 1.336708860759859e+01 0.000000000000000e+00 0.000000000000000e+00 1.316455696202925e+01 0.000000000000000e+00 0.000000000000000e+00 1.296202531645991e+01 0.000000000000000e+00 0.000000000000000e+00 1.275949367089057e+01 0.000000000000000e+00 0.000000000000000e+00 1.255696202532123e+01 0.000000000000000e+00 0.000000000000000e+00 1.235443037975189e+01 0.000000000000000e+00 0.000000000000000e+00 1.215189873418256e+01 0.000000000000000e+00 0.000000000000000e+00 1.194936708861336e+01 0.000000000000000e+00 0.000000000000000e+00 1.174683544304458e+01 0.000000000000000e+00 0.000000000000000e+00 1.154430379747580e+01 0.000000000000000e+00 0.000000000000000e+00 1.134177215190703e+01 0.000000000000000e+00 0.000000000000000e+00 1.113924050633825e+01 0.000000000000000e+00 0.000000000000000e+00 1.093670886076947e+01 0.000000000000000e+00 0.000000000000000e+00 1.073417721520070e+01 0.000000000000000e+00 0.000000000000000e+00 1.053164556963192e+01 0.000000000000000e+00 0.000000000000000e+00 1.032911392406314e+01 0.000000000000000e+00 0.000000000000000e+00 1.012658227849436e+01 0.000000000000000e+00 0.000000000000000e+00 9.924050632925587e+00 0.000000000000000e+00 0.000000000000000e+00 9.721518987356809e+00 0.000000000000000e+00 0.000000000000000e+00 9.518987341788034e+00 0.000000000000000e+00 0.000000000000000e+00 9.316455696219256e+00 0.000000000000000e+00 0.000000000000000e+00 9.113924050650478e+00 0.000000000000000e+00 0.000000000000000e+00 8.911392405081703e+00 0.000000000000000e+00 0.000000000000000e+00 8.708860759512925e+00 0.000000000000000e+00 0.000000000000000e+00 8.506329113944147e+00 0.000000000000000e+00 0.000000000000000e+00 8.303797468375370e+00 0.000000000000000e+00 0.000000000000000e+00 8.101265822806592e+00 0.000000000000000e+00 0.000000000000000e+00 7.898734177237253e+00 0.000000000000000e+00 0.000000000000000e+00 7.696202531667353e+00 0.000000000000000e+00 0.000000000000000e+00 7.493670886097451e+00 0.000000000000000e+00 0.000000000000000e+00 7.291139240527549e+00 0.000000000000000e+00 0.000000000000000e+00 7.088607594957649e+00 0.000000000000000e+00 0.000000000000000e+00 6.886075949387747e+00 0.000000000000000e+00 0.000000000000000e+00 6.683544303817845e+00 0.000000000000000e+00 0.000000000000000e+00 6.481012658247945e+00 0.000000000000000e+00 0.000000000000000e+00 6.278481012678045e+00 0.000000000000000e+00 0.000000000000000e+00 6.075949367108143e+00 0.000000000000000e+00 0.000000000000000e+00 5.873417721538242e+00 0.000000000000000e+00 0.000000000000000e+00 5.670886075968340e+00 0.000000000000000e+00 0.000000000000000e+00 5.468354430398438e+00 0.000000000000000e+00 0.000000000000000e+00 5.265822784828536e+00 0.000000000000000e+00 0.000000000000000e+00 5.063291139258636e+00 0.000000000000000e+00 0.000000000000000e+00 4.860759493688734e+00 0.000000000000000e+00 0.000000000000000e+00 4.658227848118834e+00 0.000000000000000e+00 0.000000000000000e+00 4.455696202548932e+00 0.000000000000000e+00 0.000000000000000e+00 4.253164556979030e+00 0.000000000000000e+00 0.000000000000000e+00 4.050632911409130e+00 0.000000000000000e+00 0.000000000000000e+00 3.848101265838807e+00 0.000000000000000e+00 0.00000000000000
[...]
<PointData Scalars="pressure_nodes_[L]," Vectors="">
<DataArray type="Float64" Name="pressure_nodes_[L]" format="ascii">
-2.652216989600632e-02 -2.460377295368427e-02 -6.194216132692850e+00 -6.193919022857497e+00 -2.338913832566785e-02 -3.160851660749700e-02 -3.537192183926609e-02 -7.973135315052020e-02 -1.596647934714671e-01 -2.428532134565528e-01 -3.238086219553797e-01 -4.042250000069570e-01 -4.854433899021295e-01 -5.680173978256624e-01 -6.491377802504810e-01 -7.295252972249588e-01 -8.103379078316428e-01 -8.913024323007896e-01 -9.723170908795952e-01 -1.053370342439533e+00 -1.134201748570203e+00 -1.214612292911487e+00 -1.294433663081932e+00 -1.373260829180343e+00 -1.461769610317321e+00 -1.544996144478326e+00 -1.622509808281066e+00 -1.702620925125151e+00 -1.783327358847691e+00 -1.864263861542091e+00 -1.945316965355375e+00 -2.026291037414032e+00 -2.107290406938980e+00 -2.188394984354861e+00 -2.269446575109331e+00 -2.350488466589302e+00 -2.431605088133920e+00 -2.512685982529541e+00 -2.593765167793836e+00 -2.674845435832828e+00 -2.755803551014364e+00 -2.836850867263290e+00 -2.917440427159551e+00 -2.995980214221742e+00 -3.080699564246884e+00 -3.165986467366459e+00 -3.244708029384946e+00 -3.324463829125734e+00 -3.404402597572035e+00 -3.485741600162729e+00 -3.568046048258866e+00 -3.648238698097117e+00 -3.729180370698941e+00 -3.811342942710709e+00 -3.891505175463276e+00 -3.972488917722114e+00 -4.054663881296810e+00 -4.134795094288429e+00 -4.215766868298044e+00 -4.297899717758171e+00 -4.377973471117219e+00 -4.458988595376839e+00 -4.541231218329120e+00 -4.621541754004109e+00 -4.701262680790346e+00 -4.780855786260508e+00 -4.859745650350569e+00 -4.948483857367163e+00 -5.030725812886522e+00 -5.108384820802945e+00 -5.188396555249005e+00 -5.268545457218479e+00 -5.350043407368727e+00 -5.432029936868770e+00 -5.511469103815913e+00 -5.591737096225287e+00 -5.672657068503359e+00 -5.750859158841629e+00 -5.827567469839991e+00 -5.902495536668982e+00 -5.974158668825165e+00 -6.040936357371760e+00 -6.100463103017718e+00 -6.148913631216192e+00 -6.180954907227217e+00 -6.195111962272788e+00 -6.195144532173480e+00 -6.194087955830517e+00 -6.182083890033878e+00 -6.149964726495363e+00 -6.099755182874264e+00 -6.040563449169156e+00 -5.974542043562057e+00 -5.903485065752599e+00 -5.827060664798410e+00 -5.749033088425918e+00 -5.670953468743188e+00 -5.591615689975250e+00 -5.511598364590553e+00 -5.431209660556428e+00 -5.350467842247013e+00 -5.269627861014733e+00 -5.188972833854437e+00 -5.109048921093754e+00 -5.031064711096873e+00 -4.946111166707762e+00 -4.859876212501627e+00 -4.781057057774056e+00 -4.701266942286834e+00 -4.620947253882963e+00 -4.540251574434251e+00 -4.459252697568722e+00 -4.378230183715768e+00 -4.297214167260283e+00 -4.216073034570143e+00 -4.134960559601736e+00 -4.053876222791415e+00 -3.972730631268032e+00 -3.891642944906475e+00 -3.810608236209207e+00 -3.729519351734281e+00 -3.648487178477793e+00 -3.567458284508530e+00 -3.486353676568113e+00 -3.405429041347398e+00 -3.324865253653900e+00 -3.244830245754586e+00 -3.165975687090622e+00 -3.080318340040220e+00 -2.996401999495066e+00 -2.921000023671027e+00 -2.839341093663083e+00 -2.756594238237427e+00 -2.675992436596172e+00 -2.593795453243840e+00 -2.512988823861692e+00 -2.432682350243289e+00 -2.350555740283153e+00 -2.269810201760490e+00 -2.189472573839978e+00 -2.107322922025215e+00 -2.026591841120076e+00 -1.946232087121299e+00 -1.863944428703718e+00 -1.782805369089553e+00 -1.702768954510679e+00 -1.623130870621212e+00 -1.545110656057605e+00 -1.459775998906563e+00 -1.373523872204195e+00 -1.294759731552903e+00 -1.215133849371056e+00 -1.135330513920522e+00 -1.054524257330404e+00 -9.722096453187584e-01 -8.915217448309394e-01 -8.109586783319487e-01 -7.285261505004720e-01 -6.472317286108362e-01 -5.666740924615116e-01 -4.856843808255452e-01 -4.045970986933645e-01 -3.234703940041161e-01 -2.421648376161509e-01 -1.612092575424454e-01 -8.317509464614713e-02 -6.072879557852633e+00 -2.807760019516011e-01 -5.866797302312755e+00 -4.735882073427258e+00 -5.248940566085883e-01 -5.632640288179220e+00 -4.501112303187996e+00 -5.391589817210924e+00 -7.685670321749861e-01 -4.257913406448734e+00 -5.149384610681189e+00 -4.014333457006606e+00 -1.012183049674592e+00 -3.770817697818746e+00 -1.247645134712040e+00 -3.527328911595310e+00 -1.662364056373665e+00 -3.289723450963701e+00 -1.903913023550010e+00 -2.146951775706134e+00 -2.390178534588070e+00 -2.633502516196139e+00 -2.863329575468999e+00 -3.075875540691856e+00 -4.938194832000249e+00 -1.451301281065593e+00 -6.152728559415312e+00 -1.542252686172907e-01 -2.754732242194931e+00 -2.511736187775329e+00 -2.268583933110101e+00 -3.401841807394076e+00 -2.025485920774487e+00 -1.778986668980173e+00 -3.648190582677381e+00 -3.891521051227346e+00 -4.135119584885496e+00 -4.378258736162048e+00 -4.624198233011959e+00 -5.265439198312885e+00 -5.977955764465589e+00 -5.511256754177285e+00 -5.746711739665089e+00 -1.136902491438602e+00 -3.995303945379326e-01 -8.904131255550661e-01 -6.508508370352009e-01 -4.621601709350803e+00 -4.379646914707830e+00 -4.136306344372110e+00 -3.892557342795769e+00 -3.649363040754349e+00 -3.406236979450086e+00 -6.430425118071414e-01 -5.754307133116383e+00 -5.976115475134201e+00 -4.020619083212149e-01 -5.512467251508056e+00 -8.899463227036135e-01 -5.270263971032957e+00 -1.132681046992190e+00 -1.782060848752575e+00 -2.025127713595224e+00 -2.268039061969762e+00 -2.511397211352970e+00 -2.753826284028901e+00 -2.973791329465873e+00 -2.988575820701500e+00 -5.034265314109149e+00 -5.047791025207011e+00 -1.548043611909815e+00 -1.561792011565316e+00 -3.178270827651763e+00 -1.358165739206098e+00 -4.845682789773590e+00 -1.355620133002359e+00 -3.178305209264324e+00 -4.843132379249758e+00 -1.701115716534174e-01 -6.143948928440318e+00 -3.526852088625792e+00 -2.887732198996577e+00 -2.634384422855653e+00 -3.770366313937715e+00 -2.391086345351601e+00 -2.147877505361387e+00 -4.013808773912596e+00 -1.904564066067929e+00 -1.663980689423166e+00 -4.257144061594582e+00 -4.500454437315882e+00 -5.149117485253585e+00 -2.829948838656908e-01 -1.013023582484494e+00 -6.071389245343749e+00 -5.391038405418141e+00 -5.865901354199481e+00 -5.261436772467241e-01 -5.632642036131378e+00 -7.690232618841876e-01 -4.500544406250845e+00 -5.631637786048411e+00 -5.866324665572568e+00 -7.694868835855690e-01 -5.391562295963855e+00 -5.251793728404139e-01 -6.072698079677527e+00 -4.257495270176564e+00 -5.150490774778741e+00 -1.012178767762730e+00 -4.013929274481500e+00 -2.815182231790766e-01 -3.770610292692052e+00 -3.527446054389367e+00 -1.663067395359683e+00 -1.904277031565684e+00 -2.147125988163924e+00 -2.390345246535597e+00 -2.633732320922074e+00 -2.876689377442389e+00 -4.738903258719231e+00 -4.739226408987399e+00 -1.251551335639248e+00 -3.287039782523318e+00 -1.252446529304929e+00 -3.286468086501216e+00 -3.078930268122640e+00 -3.079737857075906e+00 -1.472042129777336e+00 -4.947425720906742e+00 -4.958841420569078e+00 -1.461023320730666e+00 -6.176143345194749e+00 -1.001544870629530e-01 -6.127486970896600e+00 -1.996539330897565e-01 -1.087910591602513e-01 -6.172650479346788e+00 -6.842824814112913e-01 -5.714934737963518e+00 -4.440306269857404e-01 -5.939760431928843e+00 -5.472098857135829e+00 -5.230114639113486e+00 -4.581199034069138e+00 -9.310587285928486e-01 -4.338642745756107e+00 -4.095181522147241e+00 -1.823251013745640e+00 -2.066032618479638e+00 -3.851715721838053e+00 -2.309188974819057e+00 -2.552529960860784e+00 -3.608612706731334e+00 -2.795281399827842e+00 -5.713997310272657e+00 -5.943197859685354e+00 -6.847995685719465e-01 -5.474448257679714e+00 -5.229054099494210e+00 -4.398186644994438e-01 -1.819288469228882e+00 -2.063151675358040e+00 -2.306221586382295e+00 -2.549534933783620e+00 -4.584629782096543e+00 -2.789964599296974e+00 -4.341258150939098e+00 -4.097926757570542e+00 -9.280477070250929e-01 -3.854211333327626e+00 -1.172384802322487e+00 -3.610941227542384e+00 -3.366010227139714e+00 -1.172968154260308e+00 -3.366174588306459e+00 -2.795617205455116e+00 -2.550656444592597e+00 -3.610202185391520e+00 -2.307481507738712e+00 -2.064270799293215e+00 -3.853530773363524e+00 -1.820152870498341e+00 -4.096956637976004e+00 -4.340151814469534e+00 -4.584062965129497e+00 -9.292270367969878e-01 -5.228060807159096e+00 -5.473749948243082e+00 -5.942093329139258e+00 -5.709750010823441e+00 -4.414072798289212e-01 -6.009072362635871e+00 -5.785416592119851e+00 -3.628900846000669e-01 -6.895315019211211e-01 -6.110514860049530e-01 -5.549305549600822e+00 -5.306222121324163e+00 -8.529643314684798e-01 -1.097341740415766e+00 -4.416272121356224e+00 -4.173108635131430e+00 -1.742308665128735e+00 -3.929720397092696e+00 -1.988153316531461e+00 -2.231358165411932e+00 -3.686362390061693e+00 -2.474496659460886e+00 -2.718011166268761e+00 -3.442152775465205e+00 -3.364448010309032e+00 -1.174821372025969e+00 -4.661367067578732e+00 -3.215653821998246e+00 -1.387183902696978e+00 -4.807955864744008e+00 -5.062695845339419e+00 -1.576096980502438e+00 -2.997148084480639e+00 -3.930282656288514e+00 -3.686956193616225e+00 -4.417209565954940e+00 -3.442854799921702e+00 -4.174028343966496e+00 -4.660741174932379e+00 -1.987292468949645e+00 -2.716207239214623e+00 -1.741580269521907e+00 -2.230192108472925e+00 -2.473448544343983e+00 -5.787334510767034e+00 -6.087192798401776e-01 -6.010252229540217e+00 -5.549683863746474e+00 -3.611739172179759e-01 -5.306939772916052e+00 -8.520236935113068e-01 -1.096088003804689e+00 -6.168015803421100e+00 -1.200831589778687e-01 -3.932673615417216e+00 -3.446396937761542e+00 -4.419493117201183e+00 -4.176239864011329e+00 -3.689480208920884e+00 -1.093068709098776e+00 -8.502192075251291e-01 -1.742784656289225e+00 -2.714663084449885e+00 -2.228233856968550e+00 -1.985282846280180e+00 -2.471520010614128e+00 -5.310659808609167e+00 -5.552064378810718e+00 -6.009115940762330e+00 -3.629410560890958e-01 -5.790688682449280e+00 -6.055481560544698e-01 -4.660811342885788e+00 -6.128299383544894e+00 -1.977149927357111e-01 -2.016633108465663e-01 -6.125945615474864e+00 -3.136791273230715e+00 -4.887986043096148e+00 -3.136930854742361e+00 -4.888469466243205e+00 -1.400976704922593e+00 -1.401761202655096e+00 -2.954726924769545e+00 -1.588503060857016e+00 -2.960532932802041e+00 -5.074391984979900e+00 -1.586082886975200e+00 -5.071999110775367e+00 -2.818228166291610e+00 -2.575763784345823e+00 -3.584572502869522e+00 -2.332525038879871e+00 -2.089358148272957e+00 -3.827927112656579e+00 -1.845433582033061e+00 -4.071497998676148e+00 -4.314764478491050e+00 -4.558543985620543e+00 -9.544101164059317e-01 -5.188752179834245e+00 -5.448262436955082e+00 -5.671711489853282e+00 -5.919444150687431e+00 -7.286157814976917e-01 -4.665244662074211e-01 -1.211706912222728e+00 -3.326668776766779e+00 -4.815086518471706e+00 -4.815769661928509e+00 -3.209767394524913e+00 -1.328049187341412e+00 -1.328892945854665e+00 -3.209630219030012e+00 -5.810537967906432e+00 -6.041674944565075e+00 -5.842899659150911e-01 -3.220050822955848e-01 -5.574836085207849e+00 -5.332127382308457e+00 -8.265858080043654e-01 -1.070979284817963e+00 -4.442334797593386e+00 -4.199198020879930e+00 -1.702772047161142e+00 -3.955662650068457e+00 -1.961866615155514e+00 -3.712260156555128e+00 -2.204923152391051e+00 -2.448085777219230e+00 -3.468085585156823e+00 -2.691303187745998e+00 -4.699030087401690e+00 -6.185203289720036e+00 -7.121514141250807e-02 -2.928857702100101e+00 -4.996147742870764e+00 -1.509617185509141e+00 -2.920638671741383e+00 -7.098410265057307e-01 -4.834198041771721e-01 -5.689649074666415e+00 -3.568763847109383e+00 -3.811973186806617e+00 -4.055529467450445e+00 -4.299124466571100e+00 -4.541972582156035e+00 -5.904693770668556e+00 -2.833351727380075e+00 -2.592385459951035e+00 -2.348960502284792e+00 -2.105783656380830e+00 -1.862911211261842e+00 -9.707993073671574e-01 -5.432746551200005e+00 -5.190529582360042e+00 -3.327826306321650e+00 -1.210333740547896e+00 -3.486769100502192e+00 -3.730099410693298e+00 -3.973446038269966e+00 -4.217250936611431e+00 -4.460397059172199e+00 -2.674093213123914e+00 -2.430811732091359e+00 -2.187500415398727e+00 -1.944787665200189e+00 -1.702579659314274e+00 -1.052690921115552e+00 -8.095908895935208e-01 -5.351219153321875e+00 -5.592111723839239e+00 -6.042429328509063e+00 -3.212172733633315e-01 -5.829210157205329e+00 -5.650666364033571e-01 -1.518528617289316e+00 -3.024689411228231e+00 -1.521254007767446e+00 -5.004568837970237e+00 -5.007332385374821e+00 -3.022735786958111e+00 -4.698912804368800e+00 -3.110362687409969e+00 -3.109957658444703e+00 -1.426405000579189e+00 -4.900116041377290e+00 -4.913346046636753e+00 -1.413150419762486e+00 -4.773408326886273e+00 -4.774039901368345e+00 -3.251391057560959e+00 -1.285433295739259e+00 -3.251066202385625e+00 -1.286404709748409e+00 -1.625929060373734e+00 -5.112451800566023e+00 -1.623229347877333e+00 -5.109689985895952e+00 -6.099519293927617e+00 -2.425834696634452e-01 -4.987066684560777e+00 -1.500584228469039e+00 -2.389996140565059e-01 -6.102350975680422e+00 -3.046053326562885e+00 -3.043444733390866e+00 -6.188892834755509e+00 -5.441821973164326e-02 -6.190463825662484e+00 -4.747108405242275e-02 -3.145001453774495e+00 -4.874612036193422e+00 -1.319954849457444e+00 
</DataArray>
</PointData>
<CellData Scalars="pressure_elements_[L]," Vectors="velocity_elements_[L/T],">
<DataArray type="Float64" Name="pressure_elements_[L]" format="ascii">