<?xml version="1.0"?>
<VTKFile type="UnstructuredGrid" version="0.1" byte_order="LittleEndian">
<UnstructuredGrid>
<Piece NumberOfPoints="486" NumberOfCells="800">
<Points>
<DataArray type="Float64" NumberOfComponents="3" format="ascii">
0.000000000000000e+00 0.000000000000000e+00 0.000000000000000e+00 0.000000000000000e+00 1.000000000000000e+00 0.000000000000000e+00 1.600000000000000e+01 0.000000000000000e+00 0.000000000000000e+00 1.600000000000000e+01 1.000000000000000e+00 0.000000000000000e+00 0.000000000000000e+00 1.999999999995579e-01 0.000000000000000e+00 0.000000000000000e+00 3.999999999989749e-01 0.000000000000000e+00 0.000000000000000e+00 5.999999999989468e-01 0.000000000000000e+00 0.000000000000000e+00 7.999999999994734e-01 0.000000000000000e+00 1.600000000000000e+01 1.999999999995579e-01 0.000000000000000e+00 1.600000000000000e+01 3.999999999989749e-01 0.000000000000000e+00 1.600000000000000e+01 5.999999999989468e-01 0.000000000000000e+00 1.600000000000000e+01 7.999999999994734e-01 0.000000000000000e+00 2.000000000000000e-01 0.000000000000000e+00 0.000000000000000e+00 4.000000000000000e-01 0.000000000000000e+00 0.000000000000000e+00 6.000000000000000e-01 0.000000000000000e+00 0.000000000000000e+00 8.000000000000000e-01 0.000000000000000e+00 0.000000000000000e+00 1.000000000000000e+00 0.000000000000000e+00 0.000000000000000e+00 1.200000000000000e+00 0.000000000000000e+00 0.000000000000000e+00 1.400000000000000e+00 0.000000000000000e+00 0.000000000000000e+00 1.600000000000000e+00 0.000000000000000e+00 0.000000000000000e+00 1.800000000000000e+00 0.000000000000000e+00 0.000000000000000e+00 2.000000000000000e+00 0.000000000000000e+00 0.000000000000000e+00 2.200000000000000e+00 0.000000000000000e+00 0.000000000000000e+00 2.400000000000000e+00 0.000000000000000e+00 0.000000000000000e+00 2.600000000000000e+00 0.000000000000000e+00 0.000000000000000e+00 2.800000000000000e+00 0.000000000000000e+00 0.000000000000000e+00 3.000000000000000e+00 0.000000000000000e+00 0.000000000000000e+00 3.200000000000000e+00 0.000000000000000e+00 0.000000000000000e+00 3.400000000000000e+00 0.000000000000000e+00 0.000000000000000e+00 3.600000000000000e+00 0.000000000000000e+00 0.000000000000000e+00 3.800000000000000e+00 0.000000000000000e+00 0.000000000000000e+00 4.000000000000000e+00 0.000000000000000e+00 0.000000000000000e+00 4.200000000000000e+00 0.000000000000000e+00 0.000000000000000e+00 4.400000000000000e+00 0.000000000000000e+00 0.000000000000000e+00 4.600000000000000e+00 0.000000000000000e+00 0.000000000000000e+00 4.800000000000000e+00 0.000000000000000e+00 0.000000000000000e+00 5.000000000000000e+00 0.000000000000000e+00 0.000000000000000e+00 5.200000000000000e+00 0.000000000000000e+00 0.000000000000000e+00 5.400000000000000e+00 0.000000000000000e+00 0.000000000000000e+00 5.600000000000000e+00 0.000000000000000e+00 0.000000000000000e+00 5.800000000000000e+00 0.000000000000000e+00 0.000000000000000e+00 6.000000000000000e+00 0.000000000000000e+00 0.000000000000000e+00 6.200000000000000e+00 0.000000000000000e+00 0.000000000000000e+00 6.400000000000000e+00 0.000000000000000e+00 0.000000000000000e+00 6.600000000000000e+00 0.000000000000000e+00 0.000000000000000e+00 6.800000000000000e+00 0.000000000000000e+00 0.000000000000000e+00 7.000000000000000e+00 0.000000000000000e+00 0.000000000000000e+00 7.200000000000000e+00 0.000000000000000e+00 0.000000000000000e+00 7.400000000000000e+00 0.000000000000000e+00 0.000000000000000e+00 7.600000000000000e+00 0.000000000000000e+00 0.000000000000000e+00 7.800000000000000e+00 0.000000000000000e+00 0.000000000000000e+00 8.000000000000000e+00 0.000000000000000e+00 0.000000000000000e+00 8.199999999999999e+00 0.000000000000000e+00 0.000000000000000e+00 8.400000000000000e+00 0.000000000000000e+00 0.000000000000000e+00 8.600000000000000e+00 0.000000000000000e+00 0.000000000000000e+00 8.800000000000001e+00 0.000000000000000e+00 0.000000000000000e+00 9.000000000000000e+00 0.000000000000000e+00 0.000000000000000e+00 9.199999999999999e+00 0.000000000000000e+00 0.000000000000000e+00 9.400000000000000e+00 0.000000000000000e+00 0.000000000000000e+00 9.600000000000000e+00 0.000000000000000e+00 0.000000000000000e+00 9.800000000000001e+00 0.000000000000000e+00 0.000000000000000e+00 1.000000000000000e+01 0.000000000000000e+00 0.000000000000000e+00 1.020000000000000e+01 0.000000000000000e+00 0.000000000000000e+00 1.040000000000000e+01 0.000000000000000e+00 0.000000000000000e+00 1.060000000000000e+01 0.000000000000000e+00 0.000000000000000e+00 1.080000000000000e+01 0.000000000000000e+00 0.000000000000000e+00 1.100000000000000e+01 0.000000000000000e+00 0.000000000000000e+00 1.120000000000000e+01 0.000000000000000e+00 0.000000000000000e+00 1.140000000000000e+01 0.000000000000000e+00 0.000000000000000e+00 1.160000000000000e+01 0.000000000000000e+00 0.000000000000000e+00 1.180000000000000e+01 0.000000000000000e+00 0.000000000000000e+00 1.200000000000000e+01 0.000000000000000e+00 0.000000000000000e+00 1.220000000000000e+01 0.000000000000000e+00 0.000000000000000e+00 1.240000000000000e+01 0.000000000000000e+00 0.000000000000000e+00 1.260000000000000e+01 0.000000000000000e+00 0.000000000000000e+00 1.280000000000000e+01 0.000000000000000e+00 0.000000000000000e+00 1.300000000000000e+01 0.000000000000000e+00 0.000000000000000e+00 1.320000000000000e+01 0.000000000000000e+00 0.000000000000000e+00 1.340000000000000e+01 0.000000000000000e+00 0.000000000000000e+00 1.360000000000000e+01 0.000000000000000e+00 0.000000000000000e+00 1.380000000000000e+01 0.000000000000000e+00 0.000000000000000e+00 1.400000000000000e+01 0.000000000000000e+00 0.000000000000000e+00 1.420000000000000e+01 0.000000000000000e+00 0.000000000000000e+00 1.440000000000000e+01 0.000000000000000e+00 0.000000000000000e+00 1.460000000000000e+01 0.000000000000000e+00 0.000000000000000e+00 1.480000000000000e+01 0.000000000000000e+00 0.000000000000000e+00 1.500000000000000e+01 0.000000000000000e+00 0.000000000000000e+00 1.520000000000000e+01 0.000000000000000e+00 0.000000000000000e+00 1.540000000000000e+01 0.000000000000000e+00 0.000000000000000e+00 1.560000000000000e+01 0.000000000000000e+00 0.000000000000000e+00 1.580000000000000e+01 0.000000000000000e+00 0.000000000000000e+00 2.000000000000000e-01 1.000000000000000e+00 0.000000000000000e+00 4.000000000000000e-01 1.000000000000000e+00 0.000000000000000e+00 6.000000000000000e-01 1.000000000000000e+00 0.000000000000000e+00 8.000000000000000e-01 1.000000000000000e+00 0.000000000000000e+00 1.000000000000000e+00 1.000000000000000e+00 0.000000000000000e+00 1.200000000000000e+00 1.000000000000000e+00 0.000000000000000e+00 1.400000000000000e+00 1.000000000000000e+00 0.000000000000000e+00 1.600000000000000e+00 1.000000000000000e+00 0.000000000000000e+00 1.800000000000000e+00 1.000000000000000e+00 0.000000000000000e+00 2.000000000000000e+00 1.000000000000000e+00 0.000000000000000e+00 2.200000000000000e+00 1.000000000000000e+00 0.000000000000000e+00 2.400000000000000e+00 1.000000000000000e+00 0.000000000000000e+00 2.600000000000000e+00 1.000000000000000e+00 0.000000000000000e+00 2.800000000000000e+00 1.000000000000000e+00 0.000000000000000e+00 3.000000000000000e+00 1.000000000000000e+00 0.000000000000000e+00 3.200000000000000e+00 1.000000000000000e+00 0.000000000000000e+00 3.400000000000000e+00 1.000000000000000e+00 0.000000000000000e+00 3.600000000000000e+00 1.000000000000000e+00 0.000000000000000e+00 3.800000000000000e+00 1.000000000000000e+00 0.000000000000000e+00 4.000000000000000e+00 1.000000000000000e+00 0.000000000000000e+00 4.200000000000000e+00 1.000000000000000e+00 0.000000000000000e+00 4.400000000000000e+00 1.000000000000000e+00 0.000000000000000e+00 4.600000000000000e+00 1.000000000000000e+00 0.000000000000000e+00 4.800000000000000e+00 1.000000000000000e+00 0.000000000000000e+00 5.000000000000000e+00 1.000000000000000e+00 0.000000000000000e+00 5.200000000000000e+00 1.000000000000000e+00 0.000000000000000e+00 5.400000000000000e+00 1.000000000000000e+00 0.000000000000000e+00 5.600000000000000e+00 1.000000000000000e+00 0.000000000000000e+00 5.800000000000000e+00 1.000000000000000e+00 0.000000000000000e+00 6.000000000000000e+00 1.000000000000000e+00 0.000000000000000e+00 6.200000000000000e+00 1.000000000000000e+00 0.000000000000000e+00 6.400000000000000e+00 1.000000000000000e+00 0.000000000000000e+00 6.600000000000000e+00 1.000000000000000e+00 0.000000000000000e+00 6.800000000000000e+00 1.000000000000000e+00 0.000000000000000e+00 7.000000000000000e+00 1.000000000000000e+00 0.000000000000000e+00 7.200000000000000e+00 1.000000000000000e+00 0.000000000000000e+00 7.400000000000000e+00 1.000000000000000e+00 0.000000000000000e+00 7.600000000000000e+00 1.000000000000000e+00 0.000000000000000e+00 7.800000000000000e+00 1.000000000000000e+00 0.000000000000000e+00 8.000000000000000e+00 1.000000000000000e+00 0.000000000000000e+00 8.199999999999999e+00 1.000000000000000e+00 0.000000000000000e+00 8.400000000000000e+00 1.000000000000000e+00 0.000000000000000e+00 8.600000000000000e+00 1.000000000000000e+00 0.000000000000000e+00 8.800000000000001e+00 1.000000000000000e+00 0.000000000000000e+00 9.000000000000000e+00 1.000000000000000e+00 0.000000000000000e+00 9.199999999999999e+00 1.000000000000000e+00 0.000000000000000e+00 9.400000000000000e+00 1.000000000000000e+00 0.000000000000000e+00 9.600000000000000e+00 1.000000000000000e+00 0.000000000000000e+00 9.800000000000001e+00 1.000000000000000e+00 0.000000000000000e+00 1.000000000000000e+01 1.000000000000000e+00 0.000000000000000e+00 1.020000000000000e+01 1.000000000000000e+00 0.000000000000000e+00 1.040000000000000e+01 1.000000000000000e+00 0.000000000000000e+00 1.060000000000000e+01 1.000000000000000e+00 0.000000000000000e+00 1.080000000000000e+01 1.000000000000000e+00 0.000000000000000e+00 1.100000000000000e+01 1.000000000000000e+00 0.000000000000000e+00 1.120000000000000e+01 1.000000000000000e+00 0.000000000000000e+00 1.140000000000000e+01 1.000000000000000e+00 0.00000000000000
[...]
<PointData Scalars="pressure_p1," Vectors="" Tensors="">
<DataArray type="Float64" Name="pressure_p1" format="ascii">
-8.390039364816325e-03 -5.491669921577451e-03 -1.573490867062205e+00 -1.572163429762448e+00 -7.417418890608964e-03 -7.389668061531619e-03 -7.368048642119827e-03 -7.325651050245761e-03 -1.572866262488422e+00 -1.572748708853751e+00 -1.572656591148003e+00 -1.572552652369543e+00 -2.382719079430796e-02 -4.394478512704142e-02 -6.403622807322941e-02 -8.411703285233781e-02 -1.041934249976793e-01 -1.242679684216763e-01 -1.443417333868149e-01 -1.644151697313005e-01 -1.844884671886939e-01 -2.045617059234966e-01 -2.246349198253116e-01 -2.447081232197458e-01 -2.647813221635631e-01 -2.848545192209745e-01 -3.049277154798864e-01 -3.250009114021790e-01 -3.450741071832571e-01 -3.651473029051033e-01 -3.852204986018049e-01 -4.052936942875383e-01 -4.253668899683277e-01 -4.454400856468593e-01 -4.655132813243983e-01 -4.855864770015563e-01 -5.056596726786178e-01 -5.257328683556984e-01 -5.458060640328296e-01 -5.658792597100071e-01 -5.859524553872147e-01 -6.060256510644373e-01 -6.260988467416642e-01 -6.461720424188901e-01 -6.662452380961141e-01 -6.863184337733359e-01 -7.063916294505580e-01 -7.264648251277835e-01 -7.465380208050186e-01 -7.666112164822700e-01 -7.866844121595448e-01 -8.067576078368489e-01 -8.268308035141797e-01 -8.469039991915063e-01 -8.669771948687209e-01 -8.870503905455468e-01 -9.071235862213300e-01 -9.271967818946298e-01 -9.472699775624122e-01 -9.673431732184761e-01 -9.874163688504597e-01 -1.007489564434170e+00 -1.027562759922931e+00 -1.047635955227670e+00 -1.067709150179730e+00 -1.087782344461493e+00 -1.107855537476904e+00 -1.127928728109630e+00 -1.148001914271090e+00 -1.168075092055413e+00 -1.188148254159392e+00 -1.208221386928458e+00 -1.228294464834873e+00 -1.248367440156798e+00 -1.268440223686219e+00 -1.288512648662542e+00 -1.308584403336969e+00 -1.328654904876600e+00 -1.348723063593221e+00 -1.368786842152217e+00 -1.388842431555531e+00 -1.408882710738470e+00 -1.428894366801347e+00 -1.448852510942724e+00 -1.468710612072397e+00 -1.488381676590651e+00 -1.507703063323308e+00 -1.526370704688166e+00 -1.543816130682806e+00 -1.558976556635360e+00 -1.569865045249815e+00 -1.634644926858650e-02 -3.635909810522356e-02 -5.640755387809163e-02 -7.647046381770364e-02 -9.653934511937973e-02 -1.166107230888961e-01 -1.366831512595865e-01 -1.567560225140805e-01 -1.768290809834305e-01 -1.969022186150934e-01 -2.169753897336382e-01 -2.370485750208784e-01 -2.571217663033771e-01 -2.771949601223249e-01 -2.972681550141449e-01 -3.173413503597567e-01 -3.374145458973993e-01 -3.574877415163808e-01 -3.775609371698379e-01 -3.976341328378941e-01 -4.177073285121081e-01 -4.377805241889044e-01 -4.578537198667827e-01 -4.779269155451232e-01 -4.980001112236712e-01 -5.180733069023227e-01 -5.381465025810319e-01 -5.582196982597761e-01 -5.782928939385424e-01 -5.983660896173200e-01 -6.184392852961031e-01 -6.385124809748879e-01 -6.585856766536730e-01 -6.786588723324605e-01 -6.987320680112501e-01 -7.188052636900454e-01 -7.388784593688520e-01 -7.589516550476803e-01 -7.790248507265446e-01 -7.990980464054624e-01 -8.191712420844568e-01 -8.392444377635501e-01 -8.593176334427349e-01 -8.793908291219190e-01 -8.994640248007876e-01 -9.195372204785087e-01 -9.396104161531186e-01 -9.596836118202957e-01 -9.797568074709594e-01 -9.998300030866658e-01 -1.019903198630910e+00 -1.039976394032855e+00 -1.060049589157102e+00 -1.080122783747617e+00 -1.100195977323758e+00 -1.120269168986976e+00 -1.140342357060459e+00 -1.160415538415500e+00 -1.180488707210109e+00 -1.200561852525948e+00 -1.220634953943658e+00 -1.240707973266543e+00 -1.260780839054419e+00 -1.280853417734648e+00 -1.300925459632505e+00 -1.320996498092462e+00 -1.341065660820749e+00 -1.361131317007307e+00 -1.381190417414561e+00 -1.401237260719460e+00 -1.421261187699077e+00 -1.441242271088088e+00 -1.461143257299051e+00 -1.480894499339595e+00 -1.500365786489855e+00 -1.519313679208920e+00 -1.537283051859093e+00 -1.553423022692829e+00 -1.566142822404253e+00 -2.015863572262419e-02 -4.027379237034821e-02 -6.036498138957925e-02 -8.044605274721646e-02 -1.005228479060063e-01 -1.205978346739193e-01 -1.406720564401949e-01 -1.607459545284663e-01 -1.808197156590083e-01 -2.008934188470209e-01 -2.209670975262701e-01 -2.410407658368050e-01 -2.611144297568675e-01 -2.811880918159141e-01 -3.012617530863830e-01 -3.213354140237473e-01 -3.414090748211392e-01 -3.614827355598918e-01 -3.815563962739146e-01 -4.016300569772719e-01 -4.217037176758723e-01 -4.417773783723006e-01 -4.618510390677567e-01 -4.819246997628212e-01 -5.019983604577715e-01 -5.220720211527260e-01 -5.421456818477227e-01 -5.622193425427620e-01 -5.822930032378312e-01 -6.023666639329165e-01 -6.224403246280080e-01 -6.425139853230993e-01 -6.625876460181886e-01 -6.826613067132766e-01 -7.027349674083653e-01 -7.228086281034579e-01 -7.428822887985600e-01 -7.629559494936800e-01 -7.830296101888273e-01 -8.031032708840137e-01 -8.231769315792458e-01 -8.432505922745133e-01 -8.633242529697505e-01 -8.833979136647562e-01 -9.034715743590201e-01 -9.235452350513650e-01 -9.436188957392332e-01 -9.636925564172872e-01 -9.837662170747151e-01 -1.003839877690123e+00 -1.023913538221910e+00 -1.043987198590267e+00 -1.064060858643605e+00 -1.084134518095968e+00 -1.104208176410391e+00 -1.124281832581175e+00 -1.144355484727127e+00 -1.164429129330966e+00 -1.184502759816752e+00 -1.204576363889447e+00 -1.224649918561056e+00 -1.244723380854117e+00 -1.264796670427206e+00 -1.284869637099086e+00 -1.304942000132080e+00 -1.325013234696547e+00 -1.345082359562513e+00 -1.365147540135007e+00 -1.385205346344859e+00 -1.405249365421526e+00 -1.425267608651787e+00 -1.445237663162794e+00 -1.465117627267015e+00 -1.484829162558970e+00 -1.504225808704254e+00 -1.523033747913566e+00 -1.540741063091376e+00 -1.556390699112382e+00 -1.568193389611696e+00 -2.009327459208740e-02 -4.018127685763318e-02 -6.026173490485507e-02 -8.033842320828188e-02 -1.004133964538425e-01 -1.204876190906676e-01 -1.405615189342244e-01 -1.606352811004865e-01 -1.807089847795626e-01 -2.007826636683786e-01 -2.208563320647797e-01 -2.409299960221503e-01 -2.610036580994159e-01 -2.810773193787761e-01 -3.011509803193486e-01 -3.212246411166458e-01 -3.412983018538744e-01 -3.613719625661111e-01 -3.814456232678904e-01 -4.015192839651521e-01 -4.215929446603532e-01 -4.416666053545759e-01 -4.617402660483458e-01 -4.818139267419372e-01 -5.018875874354904e-01 -5.219612481290685e-01 -5.420349088226889e-01 -5.621085695163471e-01 -5.821822302100311e-01 -6.022558909037299e-01 -6.223295515974337e-01 -6.424032122911384e-01 -6.624768729848417e-01 -6.825505336785440e-01 -7.026241943722481e-01 -7.226978550659567e-01 -7.427715157596776e-01 -7.628451764534194e-01 -7.829188371471950e-01 -8.029924978410222e-01 -8.230661585349184e-01 -8.431398192288896e-01 -8.632134799229009e-01 -8.832871406168011e-01 -9.033608013101605e-01 -9.234344620019236e-01 -9.435081226897076e-01 -9.635817833684158e-01 -9.836554440275417e-01 -1.003729104646038e+00 -1.023802765182641e+00 -1.043876425557763e+00 -1.063950085619777e+00 -1.084023745082297e+00 -1.104097403407453e+00 -1.124171059588313e+00 -1.144244711742575e+00 -1.164318356352738e+00 -1.184391986844272e+00 -1.204465590925131e+00 -1.224539145610029e+00 -1.244612607919936e+00 -1.264685897503304e+00 -1.284758864160891e+00 -1.304831227141523e+00 -1.324902461631262e+00 -1.344971586465114e+00 -1.365036767141604e+00 -1.385094573625135e+00 -1.405138593005149e+00 -1.425156836254489e+00 -1.445126890248980e+00 -1.465006853466418e+00 -1.484718388154469e+00 -1.504115034645867e+00 -1.522922975118217e+00 -1.540630291659394e+00 -1.556279928092191e+00 -1.568082617902318e+00 -2.004710453271301e-02 -4.011003864952742e-02 -6.017874040917879e-02 -8.025021551167073e-02 -1.003229332682064e-01 -1.203961912128044e-01 -1.404696807137621e-01 -1.605432688054738e-01 -1.806168987382792e-01 -2.006905464045792e-01 -2.207642015846639e-01 -2.408378599475473e-01 -2.609115196570364e-01 -2.809851799350664e-01 -3.010588404528516e-01 -3.211325010720025e-01 -3.412061617343309e-01 -3.612798224152009e-01 -3.813534831040202e-01 -4.014271437961694e-01 -4.215008044896429e-01 -4.415744651836095e-01 -4.616481258777579e-01 -4.817217865719908e-01 -5.017954472662844e-01 -5.218691079606336e-01 -5.419427686550297e-01 -5.620164293494616e-01 -5.820900900439172e-01 -6.021637507383858e-01 -6.222374114328599e-01 -6.423110721273346e-01 -6.623847328218093e-01 -6.824583935162845e-01 -7.025320542107610e-01 -7.226057149052441e-01 -7.426793755997395e-01 -7.627530362942578e-01 -7.828266969888129e-01 -8.029003576834236e-01 -8.229740183781128e-01 -8.430476790728941e-01 -8.631213397677447e-01 -8.831950004625356e-01 -9.032686611568693e-01 -9.233423218497423e-01 -9.434159825388432e-01 -9.634896432191679e-01 -9.835633038803163e-01 -1.003636964501334e+00 -1.023710625040989e+00 -1.043784285419575e+00 -1.063857945485085e+00 -1.083931604950377e+00 -1.104005263276407e+00 -1.124078919454805e+00 -1.144152571602034e+00 -1.164226216200418e+00 -1.184299846677291e+00 -1.204373450744955e+00 -1.224447005423689e+00 -1.244520467737329e+00 -1.264593757328625e+00 -1.284666723980466e+00 -1.304739086917826e+00 -1.324810321318366e+00 -1.344879446052609e+00 -1.364944626704270e+00 -1.385002433320587e+00 -1.405046452971060e+00 -1.425064696448329e+00 -1.445034750380575e+00 -1.464914713141715e+00 -1.484626247151830e+00 -1.504022893120115e+00 -1.522830833572618e+00 -1.540538150704157e+00 -1.556187788204582e+00 -1.567990478745434e+00 -1.998035040664476e-02 -4.001795399043306e-02 -6.007588815025258e-02 -8.014279681205894e-02 -1.002135801911537e-01 -1.202860191738619e-01 -1.403591620437515e-01 -1.604326034444214e-01 -1.805061713060536e-01 -2.005797927091063e-01 -2.206534367764773e-01 -2.407270904369843e-01 -2.608007481571283e-01 -2.808744075945133e-01 -3.009480677580268e-01 -3.210217282286512e-01 -3.410953888293276e-01 -3.611690494851766e-01 -3.812427101644438e-01 -4.013163708536172e-01 -4.213900315469433e-01 -4.414636922419904e-01 -4.615373529377509e-01 -4.816110136338187e-01 -5.016846743300333e-01 -5.217583350263294e-01 -5.418319957226770e-01 -5.619056564190584e-01 -5.819793171154607e-01 -6.020529778118746e-01 -6.221266385082934e-01 -6.422002992047134e-01 -6.622739599011344e-01 -6.823476205975564e-01 -7.024212812939806e-01 -7.224949419904116e-01 -7.425686026868555e-01 -7.626422633833231e-01 -7.827159240798287e-01 -8.027895847763916e-01 -8.228632454730359e-01 -8.429369061697788e-01 -8.630105668666018e-01 -8.830842275633836e-01 -9.031578882597381e-01 -9.232315489546773e-01 -9.433052096459106e-01 -9.633788703284526e-01 -9.834525309919119e-01 -1.003526191615306e+00 -1.023599852157295e+00 -1.043673512537918e+00 -1.063747172604680e+00 -1.083820832069629e+00 -1.103894490392573e+00 -1.123968146563778e+00 -1.144041798698563e+00 -1.164115443279098e+00 -1.184189073734579e+00 -1.204262677781878e+00 -1.224336232447914e+00 -1.244409694762001e+00 -1.264482984365234e+00 -1.284555951025738e+00 -1.304628313941359e+00 -1.324699548265339e+00 -1.344768672875075e+00 -1.364833853414563e+00 -1.384891660026850e+00 -1.404935679842481e+00 -1.424953923601839e+00 -1.444923977754619e+00 -1.464803940453174e+00 -1.484515474002901e+00 -1.503912119266800e+00 -1.522720059240661e+00 -1.540427376617097e+00 -1.556077015168430e+00 -1.567879706749300e+00 
</DataArray>
</PointData>
<CellData Scalars="pressure_p0," Vectors="velocity_p0," Tensors="">
<DataArray type="Float64" Name="pressure_p0" format="ascii">