<?xml version="1.0"?>
<VTKFile type="UnstructuredGrid" version="0.1" byte_order="LittleEndian">
<UnstructuredGrid>
<Piece NumberOfPoints="486" NumberOfCells="800">
<Points>
<DataArray type="Float64" NumberOfComponents="3" format="ascii">
0.000000000000000e+00 0.000000000000000e+00 0.000000000000000e+00 0.000000000000000e+00 1.000000000000000e+00 0.000000000000000e+00 1.600000000000000e+01 0.000000000000000e+00 0.000000000000000e+00 1.600000000000000e+01 1.000000000000000e+00 0.000000000000000e+00 0.000000000000000e+00 1.999999999995579e-01 0.000000000000000e+00 0.000000000000000e+00 3.999999999989749e-01 0.000000000000000e+00 0.000000000000000e+00 5.999999999989468e-01 0.000000000000000e+00 0.000000000000000e+00 7.999999999994734e-01 0.000000000000000e+00 1.600000000000000e+01 1.999999999995579e-01 0.000000000000000e+00 1.600000000000000e+01 3.999999999989749e-01 0.000000000000000e+00 1.600000000000000e+01 5.999999999989468e-01 0.000000000000000e+00 1.600000000000000e+01 7.999999999994734e-01 0.000000000000000e+00 2.000000000000000e-01 0.000000000000000e+00 0.000000000000000e+00 4.000000000000000e-01 0.000000000000000e+00 0.000000000000000e+00 6.000000000000000e-01 0.000000000000000e+00 0.000000000000000e+00 8.000000000000000e-01 0.000000000000000e+00 0.000000000000000e+00 1.000000000000000e+00 0.000000000000000e+00 0.000000000000000e+00 1.200000000000000e+00 0.000000000000000e+00 0.000000000000000e+00 1.400000000000000e+00 0.000000000000000e+00 0.000000000000000e+00 1.600000000000000e+00 0.000000000000000e+00 0.000000000000000e+00 1.800000000000000e+00 0.000000000000000e+00 0.000000000000000e+00 2.000000000000000e+00 0.000000000000000e+00 0.000000000000000e+00 2.200000000000000e+00 0.000000000000000e+00 0.000000000000000e+00 2.400000000000000e+00 0.000000000000000e+00 0.000000000000000e+00 2.600000000000000e+00 0.000000000000000e+00 0.000000000000000e+00 2.800000000000000e+00 0.000000000000000e+00 0.000000000000000e+00 3.000000000000000e+00 0.000000000000000e+00 0.000000000000000e+00 3.200000000000000e+00 0.000000000000000e+00 0.000000000000000e+00 3.400000000000000e+00 0.000000000000000e+00 0.000000000000000e+00 3.600000000000000e+00 0.000000000000000e+00 0.000000000000000e+00 3.800000000000000e+00 0.000000000000000e+00 0.000000000000000e+00 4.000000000000000e+00 0.000000000000000e+00 0.000000000000000e+00 4.200000000000000e+00 0.000000000000000e+00 0.000000000000000e+00 4.400000000000000e+00 0.000000000000000e+00 0.000000000000000e+00 4.600000000000000e+00 0.000000000000000e+00 0.000000000000000e+00 4.800000000000000e+00 0.000000000000000e+00 0.000000000000000e+00 5.000000000000000e+00 0.000000000000000e+00 0.000000000000000e+00 5.200000000000000e+00 0.000000000000000e+00 0.000000000000000e+00 5.400000000000000e+00 0.000000000000000e+00 0.000000000000000e+00 5.600000000000000e+00 0.000000000000000e+00 0.000000000000000e+00 5.800000000000000e+00 0.000000000000000e+00 0.000000000000000e+00 6.000000000000000e+00 0.000000000000000e+00 0.000000000000000e+00 6.200000000000000e+00 0.000000000000000e+00 0.000000000000000e+00 6.400000000000000e+00 0.000000000000000e+00 0.000000000000000e+00 6.600000000000000e+00 0.000000000000000e+00 0.000000000000000e+00 6.800000000000000e+00 0.000000000000000e+00 0.000000000000000e+00 7.000000000000000e+00 0.000000000000000e+00 0.000000000000000e+00 7.200000000000000e+00 0.000000000000000e+00 0.000000000000000e+00 7.400000000000000e+00 0.000000000000000e+00 0.000000000000000e+00 7.600000000000000e+00 0.000000000000000e+00 0.000000000000000e+00 7.800000000000000e+00 0.000000000000000e+00 0.000000000000000e+00 8.000000000000000e+00 0.000000000000000e+00 0.000000000000000e+00 8.199999999999999e+00 0.000000000000000e+00 0.000000000000000e+00 8.400000000000000e+00 0.000000000000000e+00 0.000000000000000e+00 8.600000000000000e+00 0.000000000000000e+00 0.000000000000000e+00 8.800000000000001e+00 0.000000000000000e+00 0.000000000000000e+00 9.000000000000000e+00 0.000000000000000e+00 0.000000000000000e+00 9.199999999999999e+00 0.000000000000000e+00 0.000000000000000e+00 9.400000000000000e+00 0.000000000000000e+00 0.000000000000000e+00 9.600000000000000e+00 0.000000000000000e+00 0.000000000000000e+00 9.800000000000001e+00 0.000000000000000e+00 0.000000000000000e+00 1.000000000000000e+01 0.000000000000000e+00 0.000000000000000e+00 1.020000000000000e+01 0.000000000000000e+00 0.000000000000000e+00 1.040000000000000e+01 0.000000000000000e+00 0.000000000000000e+00 1.060000000000000e+01 0.000000000000000e+00 0.000000000000000e+00 1.080000000000000e+01 0.000000000000000e+00 0.000000000000000e+00 1.100000000000000e+01 0.000000000000000e+00 0.000000000000000e+00 1.120000000000000e+01 0.000000000000000e+00 0.000000000000000e+00 1.140000000000000e+01 0.000000000000000e+00 0.000000000000000e+00 1.160000000000000e+01 0.000000000000000e+00 0.000000000000000e+00 1.180000000000000e+01 0.000000000000000e+00 0.000000000000000e+00 1.200000000000000e+01 0.000000000000000e+00 0.000000000000000e+00 1.220000000000000e+01 0.000000000000000e+00 0.000000000000000e+00 1.240000000000000e+01 0.000000000000000e+00 0.000000000000000e+00 1.260000000000000e+01 0.000000000000000e+00 0.000000000000000e+00 1.280000000000000e+01 0.000000000000000e+00 0.000000000000000e+00 1.300000000000000e+01 0.000000000000000e+00 0.000000000000000e+00 1.320000000000000e+01 0.000000000000000e+00 0.000000000000000e+00 1.340000000000000e+01 0.000000000000000e+00 0.000000000000000e+00 1.360000000000000e+01 0.000000000000000e+00 0.000000000000000e+00 1.380000000000000e+01 0.000000000000000e+00 0.000000000000000e+00 1.400000000000000e+01 0.000000000000000e+00 0.000000000000000e+00 1.420000000000000e+01 0.000000000000000e+00 0.000000000000000e+00 1.440000000000000e+01 0.000000000000000e+00 0.000000000000000e+00 1.460000000000000e+01 0.000000000000000e+00 0.000000000000000e+00 1.480000000000000e+01 0.000000000000000e+00 0.000000000000000e+00 1.500000000000000e+01 0.000000000000000e+00 0.000000000000000e+00 1.520000000000000e+01 0.000000000000000e+00 0.000000000000000e+00 1.540000000000000e+01 0.000000000000000e+00 0.000000000000000e+00 1.560000000000000e+01 0.000000000000000e+00 0.000000000000000e+00 1.580000000000000e+01 0.000000000000000e+00 0.000000000000000e+00 2.000000000000000e-01 1.000000000000000e+00 0.000000000000000e+00 4.000000000000000e-01 1.000000000000000e+00 0.000000000000000e+00 6.000000000000000e-01 1.000000000000000e+00 0.000000000000000e+00 8.000000000000000e-01 1.000000000000000e+00 0.000000000000000e+00 1.000000000000000e+00 1.000000000000000e+00 0.000000000000000e+00 1.200000000000000e+00 1.000000000000000e+00 0.000000000000000e+00 1.400000000000000e+00 1.000000000000000e+00 0.000000000000000e+00 1.600000000000000e+00 1.000000000000000e+00 0.000000000000000e+00 1.800000000000000e+00 1.000000000000000e+00 0.000000000000000e+00 2.000000000000000e+00 1.000000000000000e+00 0.000000000000000e+00 2.200000000000000e+00 1.000000000000000e+00 0.000000000000000e+00 2.400000000000000e+00 1.000000000000000e+00 0.000000000000000e+00 2.600000000000000e+00 1.000000000000000e+00 0.000000000000000e+00 2.800000000000000e+00 1.000000000000000e+00 0.000000000000000e+00 3.000000000000000e+00 1.000000000000000e+00 0.000000000000000e+00 3.200000000000000e+00 1.000000000000000e+00 0.000000000000000e+00 3.400000000000000e+00 1.000000000000000e+00 0.000000000000000e+00 3.600000000000000e+00 1.000000000000000e+00 0.000000000000000e+00 3.800000000000000e+00 1.000000000000000e+00 0.000000000000000e+00 4.000000000000000e+00 1.000000000000000e+00 0.000000000000000e+00 4.200000000000000e+00 1.000000000000000e+00 0.000000000000000e+00 4.400000000000000e+00 1.000000000000000e+00 0.000000000000000e+00 4.600000000000000e+00 1.000000000000000e+00 0.000000000000000e+00 4.800000000000000e+00 1.000000000000000e+00 0.000000000000000e+00 5.000000000000000e+00 1.000000000000000e+00 0.000000000000000e+00 5.200000000000000e+00 1.000000000000000e+00 0.000000000000000e+00 5.400000000000000e+00 1.000000000000000e+00 0.000000000000000e+00 5.600000000000000e+00 1.000000000000000e+00 0.000000000000000e+00 5.800000000000000e+00 1.000000000000000e+00 0.000000000000000e+00 6.000000000000000e+00 1.000000000000000e+00 0.000000000000000e+00 6.200000000000000e+00 1.000000000000000e+00 0.000000000000000e+00 6.400000000000000e+00 1.000000000000000e+00 0.000000000000000e+00 6.600000000000000e+00 1.000000000000000e+00 0.000000000000000e+00 6.800000000000000e+00 1.000000000000000e+00 0.000000000000000e+00 7.000000000000000e+00 1.000000000000000e+00 0.000000000000000e+00 7.200000000000000e+00 1.000000000000000e+00 0.000000000000000e+00 7.400000000000000e+00 1.000000000000000e+00 0.000000000000000e+00 7.600000000000000e+00 1.000000000000000e+00 0.000000000000000e+00 7.800000000000000e+00 1.000000000000000e+00 0.000000000000000e+00 8.000000000000000e+00 1.000000000000000e+00 0.000000000000000e+00 8.199999999999999e+00 1.000000000000000e+00 0.000000000000000e+00 8.400000000000000e+00 1.000000000000000e+00 0.000000000000000e+00 8.600000000000000e+00 1.000000000000000e+00 0.000000000000000e+00 8.800000000000001e+00 1.000000000000000e+00 0.000000000000000e+00 9.000000000000000e+00 1.000000000000000e+00 0.000000000000000e+00 9.199999999999999e+00 1.000000000000000e+00 0.000000000000000e+00 9.400000000000000e+00 1.000000000000000e+00 0.000000000000000e+00 9.600000000000000e+00 1.000000000000000e+00 0.000000000000000e+00 9.800000000000001e+00 1.000000000000000e+00 0.000000000000000e+00 1.000000000000000e+01 1.000000000000000e+00 0.000000000000000e+00 1.020000000000000e+01 1.000000000000000e+00 0.000000000000000e+00 1.040000000000000e+01 1.000000000000000e+00 0.000000000000000e+00 1.060000000000000e+01 1.000000000000000e+00 0.000000000000000e+00 1.080000000000000e+01 1.000000000000000e+00 0.000000000000000e+00 1.100000000000000e+01 1.000000000000000e+00 0.000000000000000e+00 1.120000000000000e+01 1.000000000000000e+00 0.000000000000000e+00 1.140000000000000e+01 1.000000000000000e+00 0.00000000000000
[...]
<PointData Scalars="pressure_p1," Vectors="" Tensors="">
<DataArray type="Float64" Name="pressure_p1" format="ascii">
-2.493254407472555e-02 -1.660164552846135e-02 -4.665888965822132e+00 -4.663646652721558e+00 -2.213936742420808e-02 -2.209773474309693e-02 -2.206203403439646e-02 -2.200668982454031e-02 -4.664852151240872e+00 -4.664656122198226e+00 -4.664468998625899e+00 -4.664277574519089e+00 -7.103020664152843e-02 -1.311881654151645e-01 -1.913036194743879e-01 -2.513978566889433e-01 -3.114814620639940e-01 -3.715597658427670e-01 -4.316354471975282e-01 -4.917098427699412e-01 -5.517836133605307e-01 -6.118570826336007e-01 -6.719304077043926e-01 -7.320036642064590e-01 -7.920768882857038e-01 -8.521500971145096e-01 -9.122232988100828e-01 -9.722964971892156e-01 -1.032369694035174e+00 -1.092442890174993e+00 -1.152516085989640e+00 -1.212589281653996e+00 -1.272662477248538e+00 -1.332735672810620e+00 -1.392808868357781e+00 -1.452882063898303e+00 -1.512955259436066e+00 -1.573028454972820e+00 -1.633101650509295e+00 -1.693174846045757e+00 -1.753248041582260e+00 -1.813321237118786e+00 -1.873394432655293e+00 -1.933467628191731e+00 -1.993540823728028e+00 -2.053614019264070e+00 -2.113687214799652e+00 -2.173760410334399e+00 -2.233833605867622e+00 -2.293906801398053e+00 -2.353979996923354e+00 -2.414053192439252e+00 -2.474126387937953e+00 -2.534199583405288e+00 -2.594272778815554e+00 -2.654345974122291e+00 -2.714419169241767e+00 -2.774492364023541e+00 -2.834565558198167e+00 -2.894638751284488e+00 -2.954711942425833e+00 -3.014785130101293e+00 -3.074858311618060e+00 -3.134931482220927e+00 -3.195004633533667e+00 -3.255077750837297e+00 -3.315150808328185e+00 -3.375223760876933e+00 -3.435296529744020e+00 -3.495368977892868e+00 -3.555440867461458e+00 -3.615511786755417e+00 -3.675581025399783e+00 -3.735647361727827e+00 -3.795708702360989e+00 -3.855761474275521e+00 -3.915799605058281e+00 -3.975812822987308e+00 -4.035783843032089e+00 -4.095683745458933e+00 -4.155464454461013e+00 -4.215046623231309e+00 -4.274300352885771e+00 -4.333014936209692e+00 -4.390852172641288e+00 -4.447275796548587e+00 -4.501447480075738e+00 -4.552078470530717e+00 -4.597226791994869e+00 -4.634035929720381e+00 -4.658426225593029e+00 -4.916215947920179e-02 -1.091275420181721e-01 -1.691470157902702e-01 -2.291934088382222e-01 -2.892533066290173e-01 -3.493199570547363e-01 -4.093899582356099e-01 -4.694616074232094e-01 -5.295340600390329e-01 -5.896069011172739e-01 -6.496799286059316e-01 -7.097530449339441e-01 -7.698262033354489e-01 -8.298993815475919e-01 -8.899725690385067e-01 -9.500457608548211e-01 -1.010118954679161e+00 -1.070192149432346e+00 -1.130265344613717e+00 -1.190338539991748e+00 -1.250411735459711e+00 -1.310484930968606e+00 -1.370558126496070e+00 -1.430631322031971e+00 -1.490704517571745e+00 -1.550777713113345e+00 -1.610850908655840e+00 -1.670924104198793e+00 -1.730997299741990e+00 -1.791070495285304e+00 -1.851143690828655e+00 -1.911216886371982e+00 -1.971290081915219e+00 -2.031363277458272e+00 -2.091436473000970e+00 -2.151509668543015e+00 -2.211582864083857e+00 -2.271656059622497e+00 -2.331729255157090e+00 -2.391802450684245e+00 -2.451875646197774e+00 -2.511948841686404e+00 -2.572022037129632e+00 -2.632095232490285e+00 -2.692168427701166e+00 -2.752241622641174e+00 -2.812314817092731e+00 -2.872388010666141e+00 -2.932461202665664e+00 -2.992534391853037e+00 -3.052607576031273e+00 -3.112680751314016e+00 -3.172753910846291e+00 -3.232827042569998e+00 -3.292900125329851e+00 -3.352973122102648e+00 -3.413045968252844e+00 -3.473118551213823e+00 -3.533190675437559e+00 -3.593262002132372e+00 -3.653331946041318e+00 -3.713399499372662e+00 -3.773462932839678e+00 -3.833519290543901e+00 -3.893563541109116e+00 -3.953587159506081e+00 -4.013575773297444e+00 -4.073505285290420e+00 -4.133335541290468e+00 -4.193000091110934e+00 -4.252389821397209e+00 -4.311327138457787e+00 -4.369525880438588e+00 -4.426530243765992e+00 -4.481623901172600e+00 -4.533698721132787e+00 -4.581072312768549e+00 -4.621247371106977e+00 -4.650617250926519e+00 -6.020565448693951e-02 -1.203562607297030e-01 -1.804692012004957e-01 -2.405626588866393e-01 -3.006461803868288e-01 -3.607247005713512e-01 -4.208007331251151e-01 -4.808755414620501e-01 -5.409497530891922e-01 -6.010236763857800e-01 -6.610974614437161e-01 -7.211711806718589e-01 -7.812448687325154e-01 -8.413185421135260e-01 -9.013922086173402e-01 -9.614658719181911e-01 -1.021539533736245e+00 -1.081613194871084e+00 -1.141686855691612e+00 -1.201760516367156e+00 -1.261834176975456e+00 -1.321907837552461e+00 -1.381981498115002e+00 -1.442055158671037e+00 -1.502128819224322e+00 -1.562202479776577e+00 -1.622276140328538e+00 -1.682349800880477e+00 -1.742423461432464e+00 -1.802497121984482e+00 -1.862570782536493e+00 -1.922644443088446e+00 -1.982718103640276e+00 -2.042791764191878e+00 -2.102865424743066e+00 -2.162939085293505e+00 -2.223012745842575e+00 -2.283086406389135e+00 -2.343160066931089e+00 -2.403233727464592e+00 -2.463307387982631e+00 -2.523381048472443e+00 -2.583454708910860e+00 -2.643528369255960e+00 -2.703602029432119e+00 -2.763675689303320e+00 -2.823749348625713e+00 -2.883823006963418e+00 -2.943896663539697e+00 -3.003970316974414e+00 -3.064043964822260e+00 -3.124117602762432e+00 -3.184191223179957e+00 -3.244264812687665e+00 -3.304338347807695e+00 -3.364411787463648e+00 -3.424485059961837e+00 -3.484558040480553e+00 -3.544630512268802e+00 -3.604702099996782e+00 -3.664772155705162e+00 -3.724839564449023e+00 -3.784902414584412e+00 -3.844957441184636e+00 -3.904999091585452e+00 -3.965017966024823e+00 -4.024998233243946e+00 -4.084913380417961e+00 -4.144719285553149e+00 -4.204343039569434e+00 -4.263665120578981e+00 -4.322491354148476e+00 -4.380509521927362e+00 -4.437223532527465e+00 -4.491855975091300e+00 -4.543208292122139e+00 -4.589468150807225e+00 -4.627958463315248e+00 -4.654835894487825e+00 -6.010754984730580e-02 -1.202092164172148e-01 -1.802983938416936e-01 -2.403801524977956e-01 -3.004579112745325e-01 -3.605336071294345e-01 -4.206082651532342e-01 -4.806824094912976e-01 -5.407563026487656e-01 -6.008300742086091e-01 -6.609037874050526e-01 -7.209774727879655e-01 -7.810511449913093e-01 -8.411248109794585e-01 -9.011984740516032e-01 -9.612721357643471e-01 -1.021345796848016e+00 -1.081419457642385e+00 -1.141493118303934e+00 -1.201566778904162e+00 -1.261640439475751e+00 -1.321714100033839e+00 -1.381787760585611e+00 -1.441861421134550e+00 -1.501935081682354e+00 -1.562008742229811e+00 -1.622082402777252e+00 -1.682156063324777e+00 -1.742229723872390e+00 -1.802303384420053e+00 -1.862377044967717e+00 -1.922450705515328e+00 -1.982524366062822e+00 -2.042598026610091e+00 -2.102671687156953e+00 -2.162745347703073e+00 -2.222819008247837e+00 -2.282892668790111e+00 -2.342966329327810e+00 -2.403039989857124e+00 -2.463113650371081e+00 -2.523187310856998e+00 -2.583260971291836e+00 -2.643334631633884e+00 -2.703408291807829e+00 -2.763481951678143e+00 -2.823555611001634e+00 -2.883629269343325e+00 -2.943702925927564e+00 -3.003776579375411e+00 -3.063850227242633e+00 -3.123923865208983e+00 -3.183997485659037e+00 -3.244071075203692e+00 -3.304144610361524e+00 -3.364218050051571e+00 -3.424291322576324e+00 -3.484364303113708e+00 -3.544436774918243e+00 -3.604508362670837e+00 -3.664578418421040e+00 -3.724645827216928e+00 -3.784708677377823e+00 -3.844763703915195e+00 -3.904805354122837e+00 -3.964824228300788e+00 -4.024804495418692e+00 -4.084719642965381e+00 -4.144525549040707e+00 -4.204149304064962e+00 -4.263471385083172e+00 -4.322297616841047e+00 -4.380315781585565e+00 -4.437029790144732e+00 -4.491662233893558e+00 -4.543014555230523e+00 -4.589274418621522e+00 -4.627764732747995e+00 -4.654642161944879e+00 -6.002679215152873e-02 -1.200781386709866e-01 -1.801397402873435e-01 -2.402071855771565e-01 -3.002777245116013e-01 -3.603498430626670e-01 -4.204227510669803e-01 -4.804960478485651e-01 -5.405695339570599e-01 -6.006431114392203e-01 -6.607167326878648e-01 -7.207903747561392e-01 -7.808640266620652e-01 -8.409376831865910e-01 -9.010113418677336e-01 -9.610850015523580e-01 -1.021158661703172e+00 -1.081232322070282e+00 -1.141305982537332e+00 -1.201379643050099e+00 -1.261453303583437e+00 -1.321526964125877e+00 -1.381600624672332e+00 -1.441674285220629e+00 -1.501747945769860e+00 -1.561821606319639e+00 -1.621895266869773e+00 -1.681968927420143e+00 -1.742042587970660e+00 -1.802116248521252e+00 -1.862189909071858e+00 -1.922263569622419e+00 -1.982337230172868e+00 -2.042410890723100e+00 -2.102484551272930e+00 -2.162558211822023e+00 -2.222631872369766e+00 -2.282705532915029e+00 -2.342779193455741e+00 -2.402852853988098e+00 -2.462926514505162e+00 -2.523000174994289e+00 -2.583073835432508e+00 -2.643147495778222e+00 -2.703221155956285e+00 -2.763294815831407e+00 -2.823368475160728e+00 -2.883442133509666e+00 -2.943515790103007e+00 -3.003589443562155e+00 -3.063663091442921e+00 -3.123736729424452e+00 -3.183810349889655e+00 -3.243883939446324e+00 -3.303957474608433e+00 -3.364030914289657e+00 -3.424104186788216e+00 -3.484177167281963e+00 -3.544249639032815e+00 -3.604321226737427e+00 -3.664391282464084e+00 -3.724458691268238e+00 -3.784521541445637e+00 -3.844576567943813e+00 -3.904618217978317e+00 -3.964637091832873e+00 -4.024617358615310e+00 -4.084532506112119e+00 -4.144338412686736e+00 -4.203962168647145e+00 -4.263284250381535e+00 -4.322110481789679e+00 -4.380128644823014e+00 -4.436842650997637e+00 -4.491475093054387e+00 -4.542827414578806e+00 -4.589087280298572e+00 -4.627577598254676e+00 -4.654455030059292e+00 -5.992877823482144e-02 -1.199327729609990e-01 -1.799701451969953e-01 -2.400253660137159e-01 -3.000898130557373e-01 -3.601589287988904e-01 -4.202303709885294e-01 -4.803029584345613e-01 -5.403761039533331e-01 -6.004495190429348e-01 -6.605230633484281e-01 -7.205966691672000e-01 -7.806703040855828e-01 -8.407439526902287e-01 -9.008176076981780e-01 -9.608912656884322e-01 -1.020964925062436e+00 -1.081038585076371e+00 -1.141112245385232e+00 -1.201185905829423e+00 -1.261259566335362e+00 -1.321333226869308e+00 -1.381406887415920e+00 -1.441480547968293e+00 -1.501554208523345e+00 -1.561627869079697e+00 -1.621701529636717e+00 -1.681775190194097e+00 -1.741848850751676e+00 -1.801922511309349e+00 -1.861996171867044e+00 -1.922069832424702e+00 -1.982143492982254e+00 -2.042217153539593e+00 -2.102290814096534e+00 -2.162364474652740e+00 -2.222438135207600e+00 -2.282511795759989e+00 -2.342585456307834e+00 -2.402659116847344e+00 -2.462732777371588e+00 -2.522806437867945e+00 -2.582880098313479e+00 -2.642953758666639e+00 -2.703027418852352e+00 -2.763101078735424e+00 -2.823174738073112e+00 -2.883248396430956e+00 -2.943322053033799e+00 -3.003395706502949e+00 -3.063469354393778e+00 -3.123542992384390e+00 -3.183616612855723e+00 -3.243690202412402e+00 -3.303763737564020e+00 -3.363837177219278e+00 -3.423910449672480e+00 -3.483983430101447e+00 -3.544055901775319e+00 -3.604127489407150e+00 -3.664197545087625e+00 -3.724264953888760e+00 -3.784327804096835e+00 -3.844382830605937e+00 -3.904424480541135e+00 -3.964443354113621e+00 -4.024423620471392e+00 -4.084338767617113e+00 -4.144144674229458e+00 -4.203768430785782e+00 -4.263090513447815e+00 -4.321916745486534e+00 -4.379934908140252e+00 -4.436648912635853e+00 -4.491281352336721e+00 -4.542633672430617e+00 -4.588893539231466e+00 -4.627383860912793e+00 -4.654261296333636e+00 
</DataArray>
</PointData>
<CellData Scalars="pressure_p0," Vectors="velocity_p0," Tensors="">
<DataArray type="Float64" Name="pressure_p0" format="ascii">