<?xml version="1.0"?>
<VTKFile type="UnstructuredGrid" version="0.1" byte_order="LittleEndian">
<UnstructuredGrid>
<Piece NumberOfPoints="567" NumberOfCells="966">
<Points>
<DataArray type="Float64" NumberOfComponents="3" format="ascii">
0.000000000000000e+00 0.000000000000000e+00 0.000000000000000e+00 0.000000000000000e+00 1.000000000000000e+00 0.000000000000000e+00 1.600000000000000e+01 1.000000000000000e+00 0.000000000000000e+00 1.600000000000000e+01 0.000000000000000e+00 0.000000000000000e+00 0.000000000000000e+00 2.499999999993998e-01 0.000000000000000e+00 0.000000000000000e+00 4.999999999990217e-01 0.000000000000000e+00 0.000000000000000e+00 7.499999999993374e-01 0.000000000000000e+00 2.025316455691341e-01 1.000000000000000e+00 0.000000000000000e+00 4.050632911382681e-01 1.000000000000000e+00 0.000000000000000e+00 6.075949367074022e-01 1.000000000000000e+00 0.000000000000000e+00 8.101265822765362e-01 1.000000000000000e+00 0.000000000000000e+00 1.012658227845670e+00 1.000000000000000e+00 0.000000000000000e+00 1.215189873414804e+00 1.000000000000000e+00 0.000000000000000e+00 1.417721518983938e+00 1.000000000000000e+00 0.000000000000000e+00 1.620253164553072e+00 1.000000000000000e+00 0.000000000000000e+00 1.822784810122207e+00 1.000000000000000e+00 0.000000000000000e+00 2.025316455691340e+00 1.000000000000000e+00 0.000000000000000e+00 2.227848101260475e+00 1.000000000000000e+00 0.000000000000000e+00 2.430379746829609e+00 1.000000000000000e+00 0.000000000000000e+00 2.632911392398743e+00 1.000000000000000e+00 0.000000000000000e+00 2.835443037967877e+00 1.000000000000000e+00 0.000000000000000e+00 3.037974683537010e+00 1.000000000000000e+00 0.000000000000000e+00 3.240506329106145e+00 1.000000000000000e+00 0.000000000000000e+00 3.443037974675279e+00 1.000000000000000e+00 0.000000000000000e+00 3.645569620244413e+00 1.000000000000000e+00 0.000000000000000e+00 3.848101265813547e+00 1.000000000000000e+00 0.000000000000000e+00 4.050632911382726e+00 1.000000000000000e+00 0.000000000000000e+00 4.253164556952040e+00 1.000000000000000e+00 0.000000000000000e+00 4.455696202521353e+00 1.000000000000000e+00 0.000000000000000e+00 4.658227848090667e+00 1.000000000000000e+00 0.000000000000000e+00 4.860759493659981e+00 1.000000000000000e+00 0.000000000000000e+00 5.063291139229296e+00 1.000000000000000e+00 0.000000000000000e+00 5.265822784798610e+00 1.000000000000000e+00 0.000000000000000e+00 5.468354430367923e+00 1.000000000000000e+00 0.000000000000000e+00 5.670886075937237e+00 1.000000000000000e+00 0.000000000000000e+00 5.873417721506551e+00 1.000000000000000e+00 0.000000000000000e+00 6.075949367075864e+00 1.000000000000000e+00 0.000000000000000e+00 6.278481012645178e+00 1.000000000000000e+00 0.000000000000000e+00 6.481012658214492e+00 1.000000000000000e+00 0.000000000000000e+00 6.683544303783806e+00 1.000000000000000e+00 0.000000000000000e+00 6.886075949353121e+00 1.000000000000000e+00 0.000000000000000e+00 7.088607594922435e+00 1.000000000000000e+00 0.000000000000000e+00 7.291139240491749e+00 1.000000000000000e+00 0.000000000000000e+00 7.493670886061063e+00 1.000000000000000e+00 0.000000000000000e+00 7.696202531630375e+00 1.000000000000000e+00 0.000000000000000e+00 7.898734177199691e+00 1.000000000000000e+00 0.000000000000000e+00 8.101265822769285e+00 1.000000000000000e+00 0.000000000000000e+00 8.303797468339161e+00 1.000000000000000e+00 0.000000000000000e+00 8.506329113909036e+00 1.000000000000000e+00 0.000000000000000e+00 8.708860759478913e+00 1.000000000000000e+00 0.000000000000000e+00 8.911392405048788e+00 1.000000000000000e+00 0.000000000000000e+00 9.113924050618664e+00 1.000000000000000e+00 0.000000000000000e+00 9.316455696188541e+00 1.000000000000000e+00 0.000000000000000e+00 9.518987341758416e+00 1.000000000000000e+00 0.000000000000000e+00 9.721518987328292e+00 1.000000000000000e+00 0.000000000000000e+00 9.924050632898169e+00 1.000000000000000e+00 0.000000000000000e+00 1.012658227846805e+01 1.000000000000000e+00 0.000000000000000e+00 1.032911392403792e+01 1.000000000000000e+00 0.000000000000000e+00 1.053164556960780e+01 1.000000000000000e+00 0.000000000000000e+00 1.073417721517767e+01 1.000000000000000e+00 0.000000000000000e+00 1.093670886074755e+01 1.000000000000000e+00 0.000000000000000e+00 1.113924050631742e+01 1.000000000000000e+00 0.000000000000000e+00 1.134177215188730e+01 1.000000000000000e+00 0.000000000000000e+00 1.154430379745718e+01 1.000000000000000e+00 0.000000000000000e+00 1.174683544302705e+01 1.000000000000000e+00 0.000000000000000e+00 1.194936708859693e+01 1.000000000000000e+00 0.000000000000000e+00 1.215189873416701e+01 1.000000000000000e+00 0.000000000000000e+00 1.235443037973717e+01 1.000000000000000e+00 0.000000000000000e+00 1.255696202530733e+01 1.000000000000000e+00 0.000000000000000e+00 1.275949367087749e+01 1.000000000000000e+00 0.000000000000000e+00 1.296202531644764e+01 1.000000000000000e+00 0.000000000000000e+00 1.316455696201780e+01 1.000000000000000e+00 0.000000000000000e+00 1.336708860758796e+01 1.000000000000000e+00 0.000000000000000e+00 1.356962025315812e+01 1.000000000000000e+00 0.000000000000000e+00 1.377215189872827e+01 1.000000000000000e+00 0.000000000000000e+00 1.397468354429843e+01 1.000000000000000e+00 0.000000000000000e+00 1.417721518986859e+01 1.000000000000000e+00 0.000000000000000e+00 1.437974683543874e+01 1.000000000000000e+00 0.000000000000000e+00 1.458227848100890e+01 1.000000000000000e+00 0.000000000000000e+00 1.478481012657906e+01 1.000000000000000e+00 0.000000000000000e+00 1.498734177214921e+01 1.000000000000000e+00 0.000000000000000e+00 1.518987341771937e+01 1.000000000000000e+00 0.000000000000000e+00 1.539240506328953e+01 1.000000000000000e+00 0.000000000000000e+00 1.559493670885968e+01 1.000000000000000e+00 0.000000000000000e+00 1.579746835442984e+01 1.000000000000000e+00 0.000000000000000e+00 1.600000000000000e+01 7.500000000003469e-01 0.000000000000000e+00 1.600000000000000e+01 5.000000000013878e-01 0.000000000000000e+00 1.600000000000000e+01 2.500000000010407e-01 0.000000000000000e+00 1.579746835443066e+01 0.000000000000000e+00 0.000000000000000e+00 1.559493670886132e+01 0.000000000000000e+00 0.000000000000000e+00 1.539240506329198e+01 0.000000000000000e+00 0.000000000000000e+00 1.518987341772264e+01 0.000000000000000e+00 0.000000000000000e+00 1.498734177215330e+01 0.000000000000000e+00 0.000000000000000e+00 1.478481012658396e+01 0.000000000000000e+00 0.000000000000000e+00 1.458227848101463e+01 0.000000000000000e+00 0.000000000000000e+00 1.437974683544529e+01 0.000000000000000e+00 0.000000000000000e+00 1.417721518987595e+01 0.000000000000000e+00 0.000000000000000e+00 1.397468354430661e+01 0.000000000000000e+00 0.000000000000000e+00 1.377215189873727e+01 0.000000000000000e+00 0.000000000000000e+00 1.356962025316793e+01 0.000000000000000e+00 0.000000000000000e+00 1.336708860759859e+01 0.000000000000000e+00 0.000000000000000e+00 1.316455696202925e+01 0.000000000000000e+00 0.000000000000000e+00 1.296202531645991e+01 0.000000000000000e+00 0.000000000000000e+00 1.275949367089057e+01 0.000000000000000e+00 0.000000000000000e+00 1.255696202532123e+01 0.000000000000000e+00 0.000000000000000e+00 1.235443037975189e+01 0.000000000000000e+00 0.000000000000000e+00 1.215189873418256e+01 0.000000000000000e+00 0.000000000000000e+00 1.194936708861336e+01 0.000000000000000e+00 0.000000000000000e+00 1.174683544304458e+01 0.000000000000000e+00 0.000000000000000e+00 1.154430379747580e+01 0.000000000000000e+00 0.000000000000000e+00 1.134177215190703e+01 0.000000000000000e+00 0.000000000000000e+00 1.113924050633825e+01 0.000000000000000e+00 0.000000000000000e+00 1.093670886076947e+01 0.000000000000000e+00 0.000000000000000e+00 1.073417721520070e+01 0.000000000000000e+00 0.000000000000000e+00 1.053164556963192e+01 0.000000000000000e+00 0.000000000000000e+00 1.032911392406314e+01 0.000000000000000e+00 0.000000000000000e+00 1.012658227849436e+01 0.000000000000000e+00 0.000000000000000e+00 9.924050632925587e+00 0.000000000000000e+00 0.000000000000000e+00 9.721518987356809e+00 0.000000000000000e+00 0.000000000000000e+00 9.518987341788034e+00 0.000000000000000e+00 0.000000000000000e+00 9.316455696219256e+00 0.000000000000000e+00 0.000000000000000e+00 9.113924050650478e+00 0.000000000000000e+00 0.000000000000000e+00 8.911392405081703e+00 0.000000000000000e+00 0.000000000000000e+00 8.708860759512925e+00 0.000000000000000e+00 0.000000000000000e+00 8.506329113944147e+00 0.000000000000000e+00 0.000000000000000e+00 8.303797468375370e+00 0.000000000000000e+00 0.000000000000000e+00 8.101265822806592e+00 0.000000000000000e+00 0.000000000000000e+00 7.898734177237253e+00 0.000000000000000e+00 0.000000000000000e+00 7.696202531667353e+00 0.000000000000000e+00 0.000000000000000e+00 7.493670886097451e+00 0.000000000000000e+00 0.000000000000000e+00 7.291139240527549e+00 0.000000000000000e+00 0.000000000000000e+00 7.088607594957649e+00 0.000000000000000e+00 0.000000000000000e+00 6.886075949387747e+00 0.000000000000000e+00 0.000000000000000e+00 6.683544303817845e+00 0.000000000000000e+00 0.000000000000000e+00 6.481012658247945e+00 0.000000000000000e+00 0.000000000000000e+00 6.278481012678045e+00 0.000000000000000e+00 0.000000000000000e+00 6.075949367108143e+00 0.000000000000000e+00 0.000000000000000e+00 5.873417721538242e+00 0.000000000000000e+00 0.000000000000000e+00 5.670886075968340e+00 0.000000000000000e+00 0.000000000000000e+00 5.468354430398438e+00 0.000000000000000e+00 0.000000000000000e+00 5.265822784828536e+00 0.000000000000000e+00 0.000000000000000e+00 5.063291139258636e+00 0.000000000000000e+00 0.000000000000000e+00 4.860759493688734e+00 0.000000000000000e+00 0.000000000000000e+00 4.658227848118834e+00 0.000000000000000e+00 0.000000000000000e+00 4.455696202548932e+00 0.000000000000000e+00 0.000000000000000e+00 4.253164556979030e+00 0.000000000000000e+00 0.000000000000000e+00 4.050632911409130e+00 0.000000000000000e+00 0.000000000000000e+00 3.848101265838807e+00 0.000000000000000e+00 0.00000000000000
[...]
<PointData Scalars="pressure_nodes_[L]," Vectors="">
<DataArray type="Float64" Name="pressure_nodes_[L]" format="ascii">
-7.948461661081380e-02 -7.375515263885971e-02 -1.818040530329125e+01 -1.818050211437505e+01 -7.016039471889919e-02 -9.481547171933392e-02 -1.059961686253298e-01 -2.391508323117469e-01 -4.789147604768583e-01 -7.284011792479326e-01 -9.711009241908343e-01 -1.212169235139634e+00 -1.455557502721907e+00 -1.703147174675109e+00 -1.946489483034598e+00 -2.187524797754075e+00 -2.429858552323036e+00 -2.672662767300924e+00 -2.915616278099105e+00 -3.158705424233716e+00 -3.401142439893761e+00 -3.642296813200856e+00 -3.881643125539048e+00 -4.117871506730760e+00 -4.382880992790153e+00 -4.632998209510657e+00 -4.865295815644042e+00 -5.105478747231474e+00 -5.347486900163797e+00 -5.590180036782402e+00 -5.833242626467463e+00 -6.076071166383545e+00 -6.318944975889772e+00 -6.562151559250973e+00 -6.805208618051759e+00 -7.048213773177888e+00 -7.291451181525478e+00 -7.534592824914360e+00 -7.777711746619354e+00 -8.020861779569048e+00 -8.263647284454231e+00 -8.506646207030254e+00 -8.748429693089323e+00 -8.984104711040489e+00 -9.237901794959829e+00 -9.493481099055730e+00 -9.729595930489948e+00 -9.968769389270189e+00 -1.020842130426546e+01 -1.045155523851159e+01 -1.069839213296769e+01 -1.093957297681738e+01 -1.118150304068498e+01 -1.142788576188162e+01 -1.166900722424118e+01 -1.191100564181945e+01 -1.215739655777412e+01 -1.239845271478817e+01 -1.264035253045111e+01 -1.288659337909032e+01 -1.312746544639929e+01 -1.336932300909976e+01 -1.361575924357731e+01 -1.385734505500445e+01 -1.409609693273534e+01 -1.433411967912629e+01 -1.456938975724985e+01 -1.483300978298401e+01 -1.507979619730333e+01 -1.530975317007480e+01 -1.554604391656439e+01 -1.578154597353476e+01 -1.601830186797131e+01 -1.625544430253752e+01 -1.648344646601431e+01 -1.670826433185534e+01 -1.693151607698347e+01 -1.714310432490218e+01 -1.734371753534025e+01 -1.753290648585347e+01 -1.770661208267796e+01 -1.786103003643313e+01 -1.799169769130169e+01 -1.809245955979817e+01 -1.815587405224953e+01 -1.818164468533595e+01 -1.817988205531370e+01 -1.817832578535834e+01 -1.815827156891803e+01 -1.809407878940247e+01 -1.799028609887337e+01 -1.786025623075693e+01 -1.770743375824322e+01 -1.753426390690769e+01 -1.734123251468800e+01 -1.713815466472457e+01 -1.692789403535402e+01 -1.670899115633630e+01 -1.648391685265342e+01 -1.625422794107439e+01 -1.602074078404007e+01 -1.578483710074452e+01 -1.554778978511938e+01 -1.531171602318537e+01 -1.508012213180390e+01 -1.482685007691073e+01 -1.457000469331456e+01 -1.433474944530451e+01 -1.409612234279776e+01 -1.385566347039351e+01 -1.361389180195859e+01 -1.337116209305721e+01 -1.312835634665777e+01 -1.288548550600332e+01 -1.264223239001823e+01 -1.239907428753165e+01 -1.215594513149508e+01 -1.191263590528705e+01 -1.166952289779914e+01 -1.142652239279515e+01 -1.118336279718041e+01 -1.094039538607392e+01 -1.069738897203784e+01 -1.045417957316080e+01 -1.021155242466403e+01 -9.969984941098701e+00 -9.729983071384833e+00 -9.493463579097993e+00 -9.236773870762844e+00 -8.985824211323678e+00 -8.758561885405113e+00 -8.512920290309559e+00 -8.265804863543623e+00 -8.023662455027026e+00 -7.777185712165485e+00 -7.535431258969893e+00 -7.294151444542342e+00 -7.047872347838386e+00 -6.806244058088531e+00 -6.564917527920734e+00 -6.318568798149025e+00 -6.076931608143763e+00 -5.835581830453460e+00 -5.588797443396477e+00 -5.345887456100692e+00 -5.105917692931212e+00 -4.867143086135027e+00 -4.633122932146908e+00 -4.377172619612540e+00 -4.118726734977983e+00 -3.882605109956933e+00 -3.643824666097441e+00 -3.404485007466096e+00 -3.161914531149636e+00 -2.915048835803670e+00 -2.673308160347468e+00 -2.431592767165463e+00 -2.184401569442799e+00 -1.940803550574596e+00 -1.699270166604055e+00 -1.456420434368470e+00 -1.213294498913567e+00 -9.700540349948954e-01 -7.262541463216370e-01 -4.834689035668546e-01 -2.494265860966282e-01 -1.793224879211917e+01 -8.420948794079761e-01 -1.744331189917654e+01 -1.420040812794777e+01 -1.573935695841937e+00 -1.682255376111975e+01 -1.349633357566611e+01 -1.613966971085211e+01 -2.304572138648843e+00 -1.276744570905170e+01 -1.543079898989510e+01 -1.203715943771884e+01 -3.035087859740083e+00 -1.130701366024587e+01 -3.741508891870088e+00 -1.057685424549013e+01 -4.984758117984226e+00 -9.865068551613650e+00 -5.708971945053168e+00 -6.437768165080329e+00 -7.167091935369204e+00 -7.896750915565565e+00 -8.586179863749351e+00 -9.224203609383391e+00 -1.480524345855066e+01 -4.352315515884257e+00 -1.809928645704596e+01 -4.625801807427533e-01 -8.261324036611081e+00 -7.532543107318840e+00 -6.803344232465962e+00 -1.020147691339884e+01 -6.074310277645882e+00 -5.334819651936621e+00 -1.094068560840882e+01 -1.167040177674636e+01 -1.240087141413484e+01 -1.312982463129374e+01 -1.386630602181507e+01 -1.577348708775679e+01 -1.771645738139712e+01 -1.648472737736649e+01 -1.713306370923543e+01 -3.409429827043116e+00 -1.198182676905863e+00 -2.670276469922093e+00 -1.951734998636256e+00 -1.385790345647815e+01 -1.313278482940472e+01 -1.240326950925459e+01 -1.167241301596074e+01 -1.094317252707918e+01 -1.021415797198864e+01 -1.928363905218797e+00 -1.715323757811170e+01 -1.771139644913173e+01 -1.205695589651654e+00 -1.648663156545839e+01 -2.668620973565181e+00 -1.578688366130079e+01 -3.396633529819136e+00 -5.343753977934369e+00 -6.072659851144476e+00 -6.801058540954500e+00 -7.530814074731707e+00 -8.257907439129468e+00 -8.917711684172279e+00 -8.962539856412732e+00 -1.509047586566952e+01 -1.513102274076067e+01 -4.642199369230857e+00 -4.683532444585065e+00 -9.531103370638464e+00 -4.072979764101241e+00 -1.452885159640358e+01 -4.065478813623029e+00 -9.531199566402279e+00 -1.452169611588652e+01 -5.103263113673036e-01 -1.808229788390237e+01 -1.057517884359712e+01 -8.658663144981578e+00 -7.899183125198274e+00 -1.130539360050456e+01 -7.169654181212372e+00 -6.440399391888571e+00 -1.203531260093044e+01 -5.710798826058349e+00 -4.989705853832857e+00 -1.276484120744108e+01 -1.349402719636687e+01 -1.543027920172962e+01 -8.487499478159757e-01 -3.037541130551208e+00 -1.792896882610420e+01 -1.613771018047626e+01 -1.744069677222268e+01 -1.577638569590353e+00 -1.682220250716083e+01 -2.305903966557026e+00 -1.349483794752705e+01 -1.681998560145097e+01 -1.744243427655514e+01 -2.307346236671555e+00 -1.613980616452219e+01 -1.574834558317803e+00 -1.793162289483491e+01 -1.276634000756248e+01 -1.543443954504712e+01 -3.035139132869003e+00 -1.203608828689755e+01 -8.442651804811370e-01 -1.130651372591017e+01 -1.057734101244591e+01 -4.986914899076330e+00 -5.710135264416749e+00 -6.438355921418086e+00 -7.167677858048239e+00 -7.897518878395529e+00 -8.625965355988413e+00 -1.420897092968425e+01 -1.420990165595654e+01 -3.753113154934135e+00 -9.856702223986371e+00 -3.755777470987537e+00 -9.855004660612559e+00 -9.233515026700994e+00 -9.236014913684160e+00 -4.414129462135874e+00 -1.483195976817148e+01 -1.486543863751933e+01 -4.381251729108253e+00 -1.814390422327910e+01 -3.004466845737851e-01 -1.804848755393608e+01 -5.987803386626501e-01 -3.263218036314137e-01 -1.813844825294901e+01 -2.051916957723919e+00 -1.704729569060549e+01 -1.331514835224293e+00 -1.762416371059430e+01 -1.637144714593332e+01 -1.566894746641679e+01 -1.373659871598030e+01 -2.791870800946645e+00 -1.300966871394186e+01 -1.227977567957864e+01 -5.467187590281837e+00 -6.195219090372080e+00 -1.154977649760372e+01 -6.924352436623105e+00 -7.654043595292815e+00 -1.082080138226329e+01 -8.382011849114811e+00 -1.704527920153387e+01 -1.763293681956888e+01 -2.053509748452518e+00 -1.637893850162342e+01 -1.566615703399611e+01 -1.318925621619557e+00 -5.455495824493640e+00 -6.186868897605413e+00 -6.915768018576663e+00 -7.645412946147721e+00 -1.374737164950068e+01 -8.366744308340637e+00 -1.301812622368910e+01 -1.228858873978238e+01 -2.782953491489306e+00 -1.155781130287035e+01 -3.515775158309189e+00 -1.082831373614480e+01 -1.009378685370709e+01 -3.517427556222712e+00 -1.009392606054419e+01 -8.382876385808347e+00 -7.648576157544095e+00 -1.082581305023809e+01 -6.919378716033588e+00 -6.190070812816404e+00 -1.155547277144281e+01 -5.457966138373357e+00 -1.228536903966256e+01 -1.301446808224634e+01 -1.374529153069052e+01 -2.786429071304551e+00 -1.566301566974748e+01 -1.637652143709654e+01 -1.762994151312224e+01 -1.703326011496194e+01 -1.323658917097065e+00 -1.778851854388010e+01 -1.723437405029028e+01 -1.088278069392765e+00 -2.067615350836674e+00 -1.832317052261140e+00 -1.659082140557756e+01 -1.589198092596838e+01 -2.557768519128823e+00 -3.290600269617452e+00 -1.324259778255410e+01 -1.251367217307238e+01 -5.224575702063859e+00 -1.178390370840956e+01 -5.961842513835914e+00 -6.691137740861603e+00 -1.105417754463112e+01 -7.420227151139249e+00 -8.150412640939196e+00 -1.032176566407873e+01 -1.008884606518835e+01 -3.522985276212714e+00 -1.397692470838016e+01 -9.643148321427894e+00 -4.160201486818154e+00 -1.441629258602860e+01 -1.517414607896871e+01 -4.726087876497181e+00 -8.987676436710272e+00 -1.178589517460119e+01 -1.105624897715696e+01 -1.324575961869924e+01 -1.032413380291968e+01 -1.251675041631629e+01 -1.397542695771049e+01 -5.959409309718042e+00 -8.145345000984396e+00 -5.222468463931627e+00 -6.687802341704666e+00 -7.417268568010952e+00 -1.723994196244213e+01 -1.825401773182515e+00 -1.779143792611042e+01 -1.659229877341898e+01 -1.083144344143681e+00 -1.589444192571587e+01 -2.554996518348172e+00 -3.286928587705967e+00 -1.813060634515340e+01 -3.601503157142912e-01 -1.179251609879243e+01 -1.033437658520511e+01 -1.325200163926547e+01 -1.252279998578262e+01 -1.106329548328475e+01 -3.277768439878266e+00 -2.549453339081439e+00 -5.225934600773693e+00 -8.140272216510059e+00 -6.681605878616885e+00 -5.953088459900118e+00 -7.411131555615166e+00 -1.590478929060732e+01 -1.659823378033415e+01 -1.778842692540485e+01 -1.088396316683242e+00 -1.724822832318251e+01 -1.815845963007173e+00 -1.397515818508908e+01 -1.804990137374857e+01 -5.930569443684048e-01 -6.049047981486011e-01 -1.804534348778929e+01 -9.406493759082888e+00 -1.465407552866071e+01 -9.406920871447497e+00 -1.465595284325591e+01 -4.201041458603608e+00 -4.203524281512375e+00 -8.860533515943999e+00 -4.763537980023942e+00 -8.878102336858190e+00 -1.520967897389725e+01 -4.756246511444312e+00 -1.520247793251185e+01 -8.451398060034341e+00 -7.724199056740924e+00 -1.074939928689869e+01 -6.994764089846700e+00 -6.265561321485147e+00 -1.147917729596381e+01 -5.533998687555131e+00 -1.220953792294836e+01 -1.293889469034653e+01 -1.366939565462392e+01 -2.862059879580670e+00 -1.554738840233385e+01 -1.630429171413236e+01 -1.692986925361065e+01 -1.757548860461410e+01 -2.184765656217399e+00 -1.399024699568393e+00 -3.633686042085233e+00 -9.975788926348979e+00 -1.443679754621182e+01 -1.443882232450983e+01 -9.625098210352016e+00 -3.982516407519205e+00 -3.985034498746114e+00 -9.624684337016259e+00 -1.730060038994960e+01 -1.786310527854967e+01 -1.752147148544713e+00 -9.657195450266399e-01 -1.666324141350552e+01 -1.596820849113172e+01 -2.478761814898763e+00 -3.211656369728152e+00 -1.332127062014676e+01 -1.259242251697800e+01 -5.106094446390139e+00 -1.186218977473181e+01 -5.883254705572996e+00 -1.113230573543640e+01 -6.612138990250395e+00 -7.341331590983023e+00 -1.039994350188027e+01 -8.070725054861356e+00 -1.409001020276635e+01 -1.816274729726922e+01 -2.136233898936757e-01 -8.782556228013801e+00 -1.497722344508475e+01 -4.526997781835345e+00 -8.757844430097801e+00 -2.128635144868784e+00 -1.449580611400963e+00 -1.697971816652628e+01 -1.070111525491142e+01 -1.143040617208186e+01 -1.216066949507089e+01 -1.289098512599453e+01 -1.361879878308763e+01 -1.753806112991295e+01 -8.496121148901404e+00 -7.773414177971226e+00 -7.043472441116017e+00 -6.314298581641603e+00 -5.585999343014440e+00 -2.910981696318666e+00 -1.625838978201755e+01 -1.555260558749947e+01 -9.979162444298280e+00 -3.629561520473040e+00 -1.045522235061156e+01 -1.118489398817061e+01 -1.191454280043775e+01 -1.264552157210721e+01 -1.337434025847962e+01 -8.018486066360587e+00 -7.288933517267091e+00 -6.559350154963839e+00 -5.831555462696624e+00 -5.105423138021334e+00 -3.156596999053103e+00 -2.427584416344491e+00 -1.602260607830642e+01 -1.671014870567511e+01 -1.786453022443556e+01 -9.633180610250835e-01 -1.734776930600919e+01 -1.694427078315137e+00 -4.553632386134805e+00 -9.070820013614135e+00 -4.561776015712125e+00 -1.500196873433888e+01 -1.501007679525194e+01 -9.064918194348435e+00 -1.408953625776439e+01 -9.327973581322288e+00 -9.326694941644121e+00 -4.277637675690142e+00 -1.469221058710469e+01 -1.473101329927851e+01 -4.238082101677621e+00 -1.431268174667012e+01 -1.431446786000145e+01 -9.750106682828434e+00 -3.854843845146313e+00 -9.749143296391328e+00 -3.857725944033017e+00 -4.875688247194341e+00 -1.532218187170629e+01 -4.867401723052310e+00 -1.531343358156695e+01 -1.799022821131704e+01 -7.276224009455933e-01 -1.495017224400403e+01 -4.499908163557141e+00 -7.168070213525258e-01 -1.799564005472480e+01 -9.135205920254748e+00 -9.127018376661663e+00 -1.817081358770207e+01 -1.632139059109431e-01 -1.817380863803564e+01 -1.423528417102350e-01 -9.431563700798771e+00 -1.461601358193022e+01 -3.958450589082551e+00 
</DataArray>
</PointData>
<CellData Scalars="pressure_elements_[L]," Vectors="velocity_elements_[L/T],">
<DataArray type="Float64" Name="pressure_elements_[L]" format="ascii">