<?xml version="1.0"?>
<VTKFile type="UnstructuredGrid" version="0.1" byte_order="LittleEndian">
<UnstructuredGrid>
<Piece NumberOfPoints="567" NumberOfCells="966">
<Points>
<DataArray type="Float64" NumberOfComponents="3" format="ascii">
0.000000000000000e+00 0.000000000000000e+00 0.000000000000000e+00 0.000000000000000e+00 1.000000000000000e+00 0.000000000000000e+00 1.600000000000000e+01 1.000000000000000e+00 0.000000000000000e+00 1.600000000000000e+01 0.000000000000000e+00 0.000000000000000e+00 0.000000000000000e+00 2.499999999993998e-01 0.000000000000000e+00 0.000000000000000e+00 4.999999999990217e-01 0.000000000000000e+00 0.000000000000000e+00 7.499999999993374e-01 0.000000000000000e+00 2.025316455691341e-01 1.000000000000000e+00 0.000000000000000e+00 4.050632911382681e-01 1.000000000000000e+00 0.000000000000000e+00 6.075949367074022e-01 1.000000000000000e+00 0.000000000000000e+00 8.101265822765362e-01 1.000000000000000e+00 0.000000000000000e+00 1.012658227845670e+00 1.000000000000000e+00 0.000000000000000e+00 1.215189873414804e+00 1.000000000000000e+00 0.000000000000000e+00 1.417721518983938e+00 1.000000000000000e+00 0.000000000000000e+00 1.620253164553072e+00 1.000000000000000e+00 0.000000000000000e+00 1.822784810122207e+00 1.000000000000000e+00 0.000000000000000e+00 2.025316455691340e+00 1.000000000000000e+00 0.000000000000000e+00 2.227848101260475e+00 1.000000000000000e+00 0.000000000000000e+00 2.430379746829609e+00 1.000000000000000e+00 0.000000000000000e+00 2.632911392398743e+00 1.000000000000000e+00 0.000000000000000e+00 2.835443037967877e+00 1.000000000000000e+00 0.000000000000000e+00 3.037974683537010e+00 1.000000000000000e+00 0.000000000000000e+00 3.240506329106145e+00 1.000000000000000e+00 0.000000000000000e+00 3.443037974675279e+00 1.000000000000000e+00 0.000000000000000e+00 3.645569620244413e+00 1.000000000000000e+00 0.000000000000000e+00 3.848101265813547e+00 1.000000000000000e+00 0.000000000000000e+00 4.050632911382726e+00 1.000000000000000e+00 0.000000000000000e+00 4.253164556952040e+00 1.000000000000000e+00 0.000000000000000e+00 4.455696202521353e+00 1.000000000000000e+00 0.000000000000000e+00 4.658227848090667e+00 1.000000000000000e+00 0.000000000000000e+00 4.860759493659981e+00 1.000000000000000e+00 0.000000000000000e+00 5.063291139229296e+00 1.000000000000000e+00 0.000000000000000e+00 5.265822784798610e+00 1.000000000000000e+00 0.000000000000000e+00 5.468354430367923e+00 1.000000000000000e+00 0.000000000000000e+00 5.670886075937237e+00 1.000000000000000e+00 0.000000000000000e+00 5.873417721506551e+00 1.000000000000000e+00 0.000000000000000e+00 6.075949367075864e+00 1.000000000000000e+00 0.000000000000000e+00 6.278481012645178e+00 1.000000000000000e+00 0.000000000000000e+00 6.481012658214492e+00 1.000000000000000e+00 0.000000000000000e+00 6.683544303783806e+00 1.000000000000000e+00 0.000000000000000e+00 6.886075949353121e+00 1.000000000000000e+00 0.000000000000000e+00 7.088607594922435e+00 1.000000000000000e+00 0.000000000000000e+00 7.291139240491749e+00 1.000000000000000e+00 0.000000000000000e+00 7.493670886061063e+00 1.000000000000000e+00 0.000000000000000e+00 7.696202531630375e+00 1.000000000000000e+00 0.000000000000000e+00 7.898734177199691e+00 1.000000000000000e+00 0.000000000000000e+00 8.101265822769285e+00 1.000000000000000e+00 0.000000000000000e+00 8.303797468339161e+00 1.000000000000000e+00 0.000000000000000e+00 8.506329113909036e+00 1.000000000000000e+00 0.000000000000000e+00 8.708860759478913e+00 1.000000000000000e+00 0.000000000000000e+00 8.911392405048788e+00 1.000000000000000e+00 0.000000000000000e+00 9.113924050618664e+00 1.000000000000000e+00 0.000000000000000e+00 9.316455696188541e+00 1.000000000000000e+00 0.000000000000000e+00 9.518987341758416e+00 1.000000000000000e+00 0.000000000000000e+00 9.721518987328292e+00 1.000000000000000e+00 0.000000000000000e+00 9.924050632898169e+00 1.000000000000000e+00 0.000000000000000e+00 1.012658227846805e+01 1.000000000000000e+00 0.000000000000000e+00 1.032911392403792e+01 1.000000000000000e+00 0.000000000000000e+00 1.053164556960780e+01 1.000000000000000e+00 0.000000000000000e+00 1.073417721517767e+01 1.000000000000000e+00 0.000000000000000e+00 1.093670886074755e+01 1.000000000000000e+00 0.000000000000000e+00 1.113924050631742e+01 1.000000000000000e+00 0.000000000000000e+00 1.134177215188730e+01 1.000000000000000e+00 0.000000000000000e+00 1.154430379745718e+01 1.000000000000000e+00 0.000000000000000e+00 1.174683544302705e+01 1.000000000000000e+00 0.000000000000000e+00 1.194936708859693e+01 1.000000000000000e+00 0.000000000000000e+00 1.215189873416701e+01 1.000000000000000e+00 0.000000000000000e+00 1.235443037973717e+01 1.000000000000000e+00 0.000000000000000e+00 1.255696202530733e+01 1.000000000000000e+00 0.000000000000000e+00 1.275949367087749e+01 1.000000000000000e+00 0.000000000000000e+00 1.296202531644764e+01 1.000000000000000e+00 0.000000000000000e+00 1.316455696201780e+01 1.000000000000000e+00 0.000000000000000e+00 1.336708860758796e+01 1.000000000000000e+00 0.000000000000000e+00 1.356962025315812e+01 1.000000000000000e+00 0.000000000000000e+00 1.377215189872827e+01 1.000000000000000e+00 0.000000000000000e+00 1.397468354429843e+01 1.000000000000000e+00 0.000000000000000e+00 1.417721518986859e+01 1.000000000000000e+00 0.000000000000000e+00 1.437974683543874e+01 1.000000000000000e+00 0.000000000000000e+00 1.458227848100890e+01 1.000000000000000e+00 0.000000000000000e+00 1.478481012657906e+01 1.000000000000000e+00 0.000000000000000e+00 1.498734177214921e+01 1.000000000000000e+00 0.000000000000000e+00 1.518987341771937e+01 1.000000000000000e+00 0.000000000000000e+00 1.539240506328953e+01 1.000000000000000e+00 0.000000000000000e+00 1.559493670885968e+01 1.000000000000000e+00 0.000000000000000e+00 1.579746835442984e+01 1.000000000000000e+00 0.000000000000000e+00 1.600000000000000e+01 7.500000000003469e-01 0.000000000000000e+00 1.600000000000000e+01 5.000000000013878e-01 0.000000000000000e+00 1.600000000000000e+01 2.500000000010407e-01 0.000000000000000e+00 1.579746835443066e+01 0.000000000000000e+00 0.000000000000000e+00 1.559493670886132e+01 0.000000000000000e+00 0.000000000000000e+00 1.539240506329198e+01 0.000000000000000e+00 0.000000000000000e+00 1.518987341772264e+01 0.000000000000000e+00 0.000000000000000e+00 1.498734177215330e+01 0.000000000000000e+00 0.000000000000000e+00 1.478481012658396e+01 0.000000000000000e+00 0.000000000000000e+00 1.458227848101463e+01 0.000000000000000e+00 0.000000000000000e+00 1.437974683544529e+01 0.000000000000000e+00 0.000000000000000e+00 1.417721518987595e+01 0.000000000000000e+00 0.000000000000000e+00 1.397468354430661e+01 0.000000000000000e+00 0.000000000000000e+00 1.377215189873727e+01 0.000000000000000e+00 0.000000000000000e+00 1.356962025316793e+01 0.000000000000000e+00 0.000000000000000e+00 1.336708860759859e+01 0.000000000000000e+00 0.000000000000000e+00 1.316455696202925e+01 0.000000000000000e+00 0.000000000000000e+00 1.296202531645991e+01 0.000000000000000e+00 0.000000000000000e+00 1.275949367089057e+01 0.000000000000000e+00 0.000000000000000e+00 1.255696202532123e+01 0.000000000000000e+00 0.000000000000000e+00 1.235443037975189e+01 0.000000000000000e+00 0.000000000000000e+00 1.215189873418256e+01 0.000000000000000e+00 0.000000000000000e+00 1.194936708861336e+01 0.000000000000000e+00 0.000000000000000e+00 1.174683544304458e+01 0.000000000000000e+00 0.000000000000000e+00 1.154430379747580e+01 0.000000000000000e+00 0.000000000000000e+00 1.134177215190703e+01 0.000000000000000e+00 0.000000000000000e+00 1.113924050633825e+01 0.000000000000000e+00 0.000000000000000e+00 1.093670886076947e+01 0.000000000000000e+00 0.000000000000000e+00 1.073417721520070e+01 0.000000000000000e+00 0.000000000000000e+00 1.053164556963192e+01 0.000000000000000e+00 0.000000000000000e+00 1.032911392406314e+01 0.000000000000000e+00 0.000000000000000e+00 1.012658227849436e+01 0.000000000000000e+00 0.000000000000000e+00 9.924050632925587e+00 0.000000000000000e+00 0.000000000000000e+00 9.721518987356809e+00 0.000000000000000e+00 0.000000000000000e+00 9.518987341788034e+00 0.000000000000000e+00 0.000000000000000e+00 9.316455696219256e+00 0.000000000000000e+00 0.000000000000000e+00 9.113924050650478e+00 0.000000000000000e+00 0.000000000000000e+00 8.911392405081703e+00 0.000000000000000e+00 0.000000000000000e+00 8.708860759512925e+00 0.000000000000000e+00 0.000000000000000e+00 8.506329113944147e+00 0.000000000000000e+00 0.000000000000000e+00 8.303797468375370e+00 0.000000000000000e+00 0.000000000000000e+00 8.101265822806592e+00 0.000000000000000e+00 0.000000000000000e+00 7.898734177237253e+00 0.000000000000000e+00 0.000000000000000e+00 7.696202531667353e+00 0.000000000000000e+00 0.000000000000000e+00 7.493670886097451e+00 0.000000000000000e+00 0.000000000000000e+00 7.291139240527549e+00 0.000000000000000e+00 0.000000000000000e+00 7.088607594957649e+00 0.000000000000000e+00 0.000000000000000e+00 6.886075949387747e+00 0.000000000000000e+00 0.000000000000000e+00 6.683544303817845e+00 0.000000000000000e+00 0.000000000000000e+00 6.481012658247945e+00 0.000000000000000e+00 0.000000000000000e+00 6.278481012678045e+00 0.000000000000000e+00 0.000000000000000e+00 6.075949367108143e+00 0.000000000000000e+00 0.000000000000000e+00 5.873417721538242e+00 0.000000000000000e+00 0.000000000000000e+00 5.670886075968340e+00 0.000000000000000e+00 0.000000000000000e+00 5.468354430398438e+00 0.000000000000000e+00 0.000000000000000e+00 5.265822784828536e+00 0.000000000000000e+00 0.000000000000000e+00 5.063291139258636e+00 0.000000000000000e+00 0.000000000000000e+00 4.860759493688734e+00 0.000000000000000e+00 0.000000000000000e+00 4.658227848118834e+00 0.000000000000000e+00 0.000000000000000e+00 4.455696202548932e+00 0.000000000000000e+00 0.000000000000000e+00 4.253164556979030e+00 0.000000000000000e+00 0.000000000000000e+00 4.050632911409130e+00 0.000000000000000e+00 0.000000000000000e+00 3.848101265838807e+00 0.000000000000000e+00 0.00000000000000
[...]
<PointData Scalars="pressure_nodes_[L]," Vectors="">
<DataArray type="Float64" Name="pressure_nodes_[L]" format="ascii">
-3.976190281977620e-02 -3.689073073117089e-02 -9.230186968336271e+00 -9.230008324519154e+00 -3.508115748781929e-02 -4.740915569744178e-02 -5.302672116222368e-02 -1.195834383235000e-01 -2.394722618133990e-01 -3.642338402359554e-01 -4.856250942794900e-01 -6.062050626453499e-01 -7.279670489376755e-01 -8.517962802585204e-01 -9.734732684291019e-01 -1.094023489548780e+00 -1.215216677300431e+00 -1.336640949578021e+00 -1.458139845169267e+00 -1.579701587078659e+00 -1.700934195146442e+00 -1.821531028296246e+00 -1.941234662535150e+00 -2.059413738083593e+00 -2.192049688812493e+00 -2.317000592161898e+00 -2.433211368259026e+00 -2.553340976538159e+00 -2.674372700037358e+00 -2.795747647599099e+00 -2.917302127780659e+00 -3.038738747287950e+00 -3.160205766623076e+00 -3.281835042181017e+00 -3.403387236523190e+00 -3.524919156979491e+00 -3.646565183566721e+00 -3.768160423526186e+00 -3.889748645645212e+00 -4.011345515190611e+00 -4.132759857980079e+00 -4.254294827684300e+00 -4.375183207060243e+00 -4.493007926277593e+00 -4.619998753079673e+00 -4.747860981406561e+00 -4.865932668276399e+00 -4.985544272529359e+00 -5.105412246395279e+00 -5.227200429601768e+00 -5.350638104598241e+00 -5.471077894567309e+00 -5.592266870029240e+00 -5.715485131014981e+00 -5.835888522388365e+00 -5.957128326304748e+00 -6.080361445403534e+00 -6.200730489425778e+00 -6.321944218684523e+00 -6.445119056421722e+00 -6.565414063380721e+00 -6.686671489904622e+00 -6.810009925682934e+00 -6.930706777291067e+00 -7.050280436165207e+00 -7.169614512642165e+00 -7.287782789554381e+00 -7.420529173027736e+00 -7.544281562409835e+00 -7.660486306750801e+00 -7.780212713652654e+00 -7.900050497242335e+00 -8.021479761655502e+00 -8.143708499650051e+00 -8.262074693597681e+00 -8.380676404814382e+00 -8.499877265509788e+00 -8.614531950231907e+00 -8.725695917044199e+00 -8.832991411374248e+00 -8.934115140974805e+00 -9.026667208024641e+00 -9.107473292116939e+00 -9.171794794441595e+00 -9.213452194677679e+00 -9.231187768886487e+00 -9.230663671812959e+00 -9.229452189426240e+00 -9.214968963798043e+00 -9.173017866324777e+00 -9.106550611230752e+00 -9.026174104888604e+00 -8.934627888061181e+00 -8.834090374216837e+00 -8.724637777851290e+00 -8.611844038027877e+00 -8.497648588247406e+00 -8.380776035343224e+00 -8.262289905210665e+00 -8.142781021821429e+00 -8.022421269017247e+00 -7.901697609483671e+00 -7.781086911153905e+00 -7.661480271701122e+00 -7.544618156887774e+00 -7.417202074070811e+00 -7.288034946021670e+00 -7.169923135520191e+00 -7.050289680501627e+00 -6.929839353058242e+00 -6.808807247438487e+00 -6.687329041413333e+00 -6.565828819782589e+00 -6.444327325258394e+00 -6.322643506275023e+00 -6.201009794165002e+00 -6.079407709663345e+00 -5.957717057154339e+00 -5.836120597985683e+00 -5.714593091486700e+00 -5.592985922123828e+00 -5.471469789236793e+00 -5.349946463650829e+00 -5.228315548263873e+00 -5.106964875005858e+00 -4.986149342093933e+00 -4.866121393115141e+00 -4.747848933468221e+00 -4.619431164438584e+00 -4.493754401968335e+00 -4.380386436558616e+00 -4.257731779440943e+00 -4.133893113170982e+00 -4.012906612492786e+00 -3.889640226669171e+00 -3.768597303336482e+00 -3.648048283814547e+00 -3.524884383343236e+00 -3.403918901954706e+00 -3.283334672039588e+00 -3.160135916855790e+00 -3.039179199882993e+00 -2.918573009757029e+00 -2.795162210522661e+00 -2.673581149674245e+00 -2.553561536138494e+00 -2.434138792476089e+00 -2.317117474132901e+00 -2.189127191909422e+00 -2.059824715467045e+00 -1.941719694348941e+00 -1.822304221935150e+00 -1.702616489623308e+00 -1.581369339922301e+00 -1.457917380569411e+00 -1.336966669121165e+00 -1.216115611972034e+00 -1.092493095321122e+00 -9.706220475940802e-01 -8.498194321791227e-01 -7.283635406262844e-01 -6.067656207140406e-01 -4.851100346141328e-01 -3.631812387578948e-01 -2.417695072052106e-01 -1.247353141656910e-01 -9.070312629043416e+00 -4.210992812632104e-01 -8.781949564007737e+00 -7.102374877644444e+00 -7.871501952392949e-01 -8.441239207748238e+00 -6.750038777869403e+00 -8.083678866167991e+00 -1.152566718963999e+00 -6.385334162831296e+00 -7.721805146546226e+00 -6.020051957155840e+00 -1.517906972445908e+00 -5.654872687308472e+00 -1.871109035207335e+00 -5.289715691617661e+00 -2.492967899601502e+00 -4.933563076187097e+00 -2.855181875449764e+00 -3.219657096570638e+00 -3.584405910475160e+00 -3.949311328060136e+00 -4.294037772652741e+00 -4.612956295294241e+00 -7.405832609063958e+00 -2.176556780946324e+00 -9.176528456704833e+00 -2.313093529803818e-01 -4.131376089243991e+00 -3.766935778370848e+00 -3.402274155586070e+00 -5.101755495698437e+00 -3.037694491065151e+00 -2.667950192949265e+00 -5.471319846021707e+00 -5.836248952419559e+00 -6.201578384596797e+00 -6.566217549130148e+00 -6.934941670090313e+00 -7.895669150587871e+00 -8.939665776432028e+00 -8.262237547901611e+00 -8.608747819767615e+00 -1.705031656950290e+00 -5.991874240419091e-01 -1.335377313399557e+00 -9.760694330536456e-01 -6.930890907655337e+00 -6.567999133435851e+00 -6.203068109467704e+00 -5.837529001263805e+00 -5.472820964427815e+00 -5.108222193713559e+00 -9.643702277542587e-01 -8.619811046052028e+00 -8.936895365830075e+00 -6.029644231085052e-01 -8.263644661553620e+00 -1.334613401401264e+00 -7.902694763125369e+00 -1.698666472346486e+00 -2.672489500359937e+00 -3.037013419535746e+00 -3.401294081045625e+00 -3.766249276539960e+00 -4.129842086194336e+00 -4.459768122763764e+00 -4.482063472851340e+00 -7.549623471123347e+00 -7.569976912311335e+00 -2.321586539954387e+00 -2.342231260701460e+00 -4.766480019289795e+00 -2.036869044246417e+00 -7.267063576372401e+00 -2.033084592504362e+00 -4.766530024689908e+00 -7.263355289947208e+00 -2.551600491692485e-01 -9.165237067227798e+00 -5.288939234578423e+00 -4.330460853299108e+00 -3.950580947175294e+00 -5.654129171466288e+00 -3.585727358026771e+00 -3.221009148227996e+00 -6.019196745908404e+00 -2.856126800768035e+00 -2.495417220662125e+00 -6.384106002859421e+00 -6.748968507745601e+00 -7.721472496208602e+00 -4.244270434373255e-01 -1.519150681876973e+00 -9.068287141249058e+00 -8.082762994879275e+00 -8.780567756846995e+00 -7.890131668478406e-01 -8.441147965043967e+00 -1.153241772274358e+00 -6.749238388375526e+00 -8.439814158623726e+00 -8.781360606819661e+00 -1.153950234491063e+00 -8.083693238827404e+00 -7.875888877073922e-01 -9.070001644906473e+00 -6.384743888409364e+00 -7.723554251249481e+00 -1.517916568570110e+00 -6.019481003077353e+00 -4.221987103898661e-01 -5.654592089880931e+00 -5.289925257953198e+00 -2.494034674048593e+00 -2.855745830408960e+00 -3.219934779747837e+00 -3.584677387441986e+00 -3.949675416126015e+00 -4.314003636317842e+00 -7.106786768138508e+00 -7.107262194020411e+00 -1.876939801735680e+00 -4.929458968113880e+00 -1.878277307162434e+00 -4.928605629579231e+00 -4.617575329585256e+00 -4.618805719438138e+00 -2.207566409202200e+00 -7.419467316958735e+00 -7.436445157695221e+00 -2.191082514812795e+00 -9.206437554372995e+00 -1.502242262560836e-01 -9.143503134033638e+00 -2.994301038978864e-01 -1.631700826984803e-01 -9.202341907601769e+00 -1.026188860708215e+00 -8.562162218160214e+00 -6.658962706649838e-01 -8.885774699785580e+00 -8.203616331766876e+00 -7.842641312026320e+00 -6.870225751304495e+00 -1.396259971448897e+00 -6.506454712852872e+00 -6.141347325001938e+00 -2.734240286733213e+00 -3.098331431094624e+00 -5.776237837322379e+00 -3.462979614003876e+00 -3.827905716325673e+00 -5.411665404956349e+00 -4.191959233600087e+00 -8.560924797820350e+00 -8.890750745026111e+00 -1.026974976972426e+00 -8.207309211818949e+00 -7.841137540939903e+00 -6.595898819059325e-01 -2.728345332175016e+00 -3.094083096641798e+00 -3.458607990518765e+00 -3.823501941903765e+00 -6.875495158671128e+00 -4.184155052815138e+00 -6.510531523266766e+00 -6.145609739299703e+00 -1.391772359427553e+00 -5.780118327003887e+00 -1.758229800974670e+00 -5.415289825914297e+00 -5.047958911465316e+00 -1.759080375045929e+00 -5.048117070408288e+00 -4.192427930742116e+00 -3.825133891697202e+00 -5.414110412215685e+00 -3.460455660666776e+00 -3.095722765884896e+00 -5.779023320409758e+00 -2.729611160778125e+00 -6.144077181464934e+00 -6.508787116629579e+00 -6.874549768232052e+00 -1.393525707371684e+00 -7.839596134967257e+00 -8.206163023224823e+00 -8.889101726826805e+00 -8.554556337264739e+00 -6.619646589987782e-01 -8.982788452384989e+00 -8.664780382830921e+00 -5.442306849537478e-01 -1.034050455371491e+00 -9.163649412481889e-01 -8.318284369251023e+00 -7.956400527391125e+00 -1.279163802968951e+00 -1.645653745921832e+00 -6.622934572858866e+00 -6.258274681470504e+00 -2.612880834980025e+00 -5.893274979218445e+00 -2.981578552208319e+00 -3.346303572273680e+00 -5.528321825844196e+00 -3.710927509021125e+00 -4.076107861214874e+00 -5.162061216194706e+00 -5.045552048268348e+00 -1.761859781703251e+00 -6.990513874535861e+00 -4.822529314801438e+00 -2.080438739975372e+00 -7.210538645604202e+00 -7.592024297709408e+00 -2.363599119955077e+00 -4.494777240446016e+00 -5.894194486850846e+00 -5.529284989048831e+00 -6.624428291691941e+00 -5.163179781384498e+00 -6.259734021507433e+00 -6.989668982200371e+00 -2.980324756095572e+00 -4.073487647686278e+00 -2.611807779823524e+00 -3.344595151450063e+00 -3.709401781895017e+00 -8.667708459805649e+00 -9.128868769518442e-01 -8.984478488451087e+00 -8.318950825835127e+00 -5.416602099707877e-01 -7.957565164706998e+00 -1.277765394761678e+00 -1.643795507470923e+00 -9.196724326482173e+00 -1.800962185060117e-01 -5.897642971313156e+00 -5.168397090988804e+00 -6.627702118879738e+00 -6.262905224220478e+00 -5.532939623306162e+00 -1.639240972564083e+00 -1.275026304387367e+00 -2.613577730915522e+00 -4.071061055516074e+00 -3.341577394212177e+00 -2.977237457789216e+00 -3.706421083242026e+00 -7.962990978433945e+00 -8.322278186338911e+00 -8.982795045864457e+00 -5.442987104127769e-01 -8.672438446393661e+00 -9.081194720162891e-01 -6.989654472756175e+00 -9.144495965874423e+00 -2.965448885013913e-01 -3.024678518068302e-01 -9.141472723925489e+00 -4.704217298498450e+00 -7.330214939297118e+00 -4.704428428503928e+00 -7.331048361840299e+00 -2.100993746880890e+00 -2.102202724893898e+00 -4.431174528076324e+00 -2.382266263359501e+00 -4.439921641435499e+00 -7.609750449012880e+00 -2.378628391297143e+00 -7.606140062570497e+00 -4.226516349986411e+00 -3.862869858714423e+00 -5.375784648539283e+00 -3.498084379730297e+00 -3.133410653414983e+00 -5.740746272661928e+00 -2.767579616071856e+00 -6.106023363549005e+00 -6.470846543301942e+00 -6.836415726334631e+00 -1.431320596477578e+00 -7.780818641947313e+00 -8.168433325950495e+00 -8.498734997669114e+00 -8.857271176161534e+00 -1.092651520102151e+00 -6.996443532020787e-01 -1.817199336387158e+00 -4.988952796717475e+00 -7.221029246832449e+00 -7.222049267237442e+00 -4.813602241418760e+00 -1.991665256049237e+00 -1.992927563642633e+00 -4.813395592311140e+00 -8.701340179982592e+00 -9.027796801766163e+00 -8.762509225807613e-01 -4.829271341298058e-01 -8.356256052060720e+00 -7.995250841926483e+00 -1.239628303129069e+00 -1.606145987012710e+00 -6.662160170232100e+00 -6.297532520299408e+00 -2.553608086182953e+00 -5.932303935993157e+00 -2.942216974235639e+00 -5.567277246999402e+00 -3.306727822554359e+00 -3.671395702889831e+00 -5.201055417118797e+00 -4.036154995024237e+00 -7.047080833126941e+00 -9.218507026066476e+00 -1.068148478729265e-01 -4.392278454905425e+00 -7.492531407326410e+00 -2.263965578313999e+00 -4.379935931068222e+00 -1.064537589984182e+00 -7.249551113068378e-01 -8.525323072451101e+00 -5.351857203126187e+00 -5.716587823625379e+00 -6.081828874930826e+00 -6.447135539943163e+00 -6.811326070554858e+00 -8.836036241288157e+00 -4.249039378412170e+00 -3.887639656984764e+00 -3.522587891106915e+00 -3.157914110188316e+00 -2.793687915383458e+00 -1.455842883798376e+00 -8.145002853013724e+00 -7.783473012912803e+00 -4.990664414995809e+00 -1.815138296496972e+00 -5.228887807884192e+00 -5.593803790086525e+00 -5.958730393399023e+00 -6.324349481617918e+00 -6.688982530719231e+00 -4.010187593617459e+00 -3.645340792872346e+00 -3.280463744435447e+00 -2.916483303033153e+00 -2.553296069644281e+00 -1.578664935319176e+00 -1.214087831224330e+00 -8.023460888390593e+00 -8.381449000967091e+00 -9.028754081090067e+00 -4.817360838796041e-01 -8.728012731924414e+00 -8.474030661605157e-01 -2.277307860295694e+00 -4.536219310458956e+00 -2.281388001065951e+00 -7.505073295508521e+00 -7.509186178252607e+00 -4.533278875789952e+00 -7.046874134913677e+00 -4.664764837296344e+00 -4.664141589444772e+00 -2.139214489269222e+00 -7.348884051308294e+00 -7.368551301285026e+00 -2.119384430591679e+00 -7.158654381593873e+00 -7.159575837649691e+00 -4.876072716970204e+00 -1.927784405332914e+00 -4.875588107754957e+00 -1.929233502940948e+00 -2.438373843082428e+00 -7.666671723463869e+00 -2.434277490573326e+00 -7.662392926740194e+00 -9.106364569348411e+00 -3.638369114308529e-01 -7.478918468909677e+00 -2.250418208586839e+00 -3.584454242870695e-01 -9.109979230228971e+00 -4.568339353314849e+00 -4.564336201453474e+00 -9.223546213384509e+00 -8.161534650279330e-02 -9.225553619180079e+00 -7.118982751675643e-02 -4.716642360390912e+00 -7.310630240996146e+00 -1.979577812354623e+00 
</DataArray>
</PointData>
<CellData Scalars="pressure_elements_[L]," Vectors="velocity_elements_[L/T],">
<DataArray type="Float64" Name="pressure_elements_[L]" format="ascii">