<?xml version="1.0"?>
<VTKFile type="UnstructuredGrid" version="0.1" byte_order="LittleEndian">
<UnstructuredGrid>
<Piece NumberOfPoints="486" NumberOfCells="800">
<Points>
<DataArray type="Float64" NumberOfComponents="3" format="ascii">
0.000000000000000e+00 0.000000000000000e+00 0.000000000000000e+00 0.000000000000000e+00 1.000000000000000e+00 0.000000000000000e+00 1.600000000000000e+01 0.000000000000000e+00 0.000000000000000e+00 1.600000000000000e+01 1.000000000000000e+00 0.000000000000000e+00 0.000000000000000e+00 1.999999999995579e-01 0.000000000000000e+00 0.000000000000000e+00 3.999999999989749e-01 0.000000000000000e+00 0.000000000000000e+00 5.999999999989468e-01 0.000000000000000e+00 0.000000000000000e+00 7.999999999994734e-01 0.000000000000000e+00 1.600000000000000e+01 1.999999999995579e-01 0.000000000000000e+00 1.600000000000000e+01 3.999999999989749e-01 0.000000000000000e+00 1.600000000000000e+01 5.999999999989468e-01 0.000000000000000e+00 1.600000000000000e+01 7.999999999994734e-01 0.000000000000000e+00 2.000000000000000e-01 0.000000000000000e+00 0.000000000000000e+00 4.000000000000000e-01 0.000000000000000e+00 0.000000000000000e+00 6.000000000000000e-01 0.000000000000000e+00 0.000000000000000e+00 8.000000000000000e-01 0.000000000000000e+00 0.000000000000000e+00 1.000000000000000e+00 0.000000000000000e+00 0.000000000000000e+00 1.200000000000000e+00 0.000000000000000e+00 0.000000000000000e+00 1.400000000000000e+00 0.000000000000000e+00 0.000000000000000e+00 1.600000000000000e+00 0.000000000000000e+00 0.000000000000000e+00 1.800000000000000e+00 0.000000000000000e+00 0.000000000000000e+00 2.000000000000000e+00 0.000000000000000e+00 0.000000000000000e+00 2.200000000000000e+00 0.000000000000000e+00 0.000000000000000e+00 2.400000000000000e+00 0.000000000000000e+00 0.000000000000000e+00 2.600000000000000e+00 0.000000000000000e+00 0.000000000000000e+00 2.800000000000000e+00 0.000000000000000e+00 0.000000000000000e+00 3.000000000000000e+00 0.000000000000000e+00 0.000000000000000e+00 3.200000000000000e+00 0.000000000000000e+00 0.000000000000000e+00 3.400000000000000e+00 0.000000000000000e+00 0.000000000000000e+00 3.600000000000000e+00 0.000000000000000e+00 0.000000000000000e+00 3.800000000000000e+00 0.000000000000000e+00 0.000000000000000e+00 4.000000000000000e+00 0.000000000000000e+00 0.000000000000000e+00 4.200000000000000e+00 0.000000000000000e+00 0.000000000000000e+00 4.400000000000000e+00 0.000000000000000e+00 0.000000000000000e+00 4.600000000000000e+00 0.000000000000000e+00 0.000000000000000e+00 4.800000000000000e+00 0.000000000000000e+00 0.000000000000000e+00 5.000000000000000e+00 0.000000000000000e+00 0.000000000000000e+00 5.200000000000000e+00 0.000000000000000e+00 0.000000000000000e+00 5.400000000000000e+00 0.000000000000000e+00 0.000000000000000e+00 5.600000000000000e+00 0.000000000000000e+00 0.000000000000000e+00 5.800000000000000e+00 0.000000000000000e+00 0.000000000000000e+00 6.000000000000000e+00 0.000000000000000e+00 0.000000000000000e+00 6.200000000000000e+00 0.000000000000000e+00 0.000000000000000e+00 6.400000000000000e+00 0.000000000000000e+00 0.000000000000000e+00 6.600000000000000e+00 0.000000000000000e+00 0.000000000000000e+00 6.800000000000000e+00 0.000000000000000e+00 0.000000000000000e+00 7.000000000000000e+00 0.000000000000000e+00 0.000000000000000e+00 7.200000000000000e+00 0.000000000000000e+00 0.000000000000000e+00 7.400000000000000e+00 0.000000000000000e+00 0.000000000000000e+00 7.600000000000000e+00 0.000000000000000e+00 0.000000000000000e+00 7.800000000000000e+00 0.000000000000000e+00 0.000000000000000e+00 8.000000000000000e+00 0.000000000000000e+00 0.000000000000000e+00 8.199999999999999e+00 0.000000000000000e+00 0.000000000000000e+00 8.400000000000000e+00 0.000000000000000e+00 0.000000000000000e+00 8.600000000000000e+00 0.000000000000000e+00 0.000000000000000e+00 8.800000000000001e+00 0.000000000000000e+00 0.000000000000000e+00 9.000000000000000e+00 0.000000000000000e+00 0.000000000000000e+00 9.199999999999999e+00 0.000000000000000e+00 0.000000000000000e+00 9.400000000000000e+00 0.000000000000000e+00 0.000000000000000e+00 9.600000000000000e+00 0.000000000000000e+00 0.000000000000000e+00 9.800000000000001e+00 0.000000000000000e+00 0.000000000000000e+00 1.000000000000000e+01 0.000000000000000e+00 0.000000000000000e+00 1.020000000000000e+01 0.000000000000000e+00 0.000000000000000e+00 1.040000000000000e+01 0.000000000000000e+00 0.000000000000000e+00 1.060000000000000e+01 0.000000000000000e+00 0.000000000000000e+00 1.080000000000000e+01 0.000000000000000e+00 0.000000000000000e+00 1.100000000000000e+01 0.000000000000000e+00 0.000000000000000e+00 1.120000000000000e+01 0.000000000000000e+00 0.000000000000000e+00 1.140000000000000e+01 0.000000000000000e+00 0.000000000000000e+00 1.160000000000000e+01 0.000000000000000e+00 0.000000000000000e+00 1.180000000000000e+01 0.000000000000000e+00 0.000000000000000e+00 1.200000000000000e+01 0.000000000000000e+00 0.000000000000000e+00 1.220000000000000e+01 0.000000000000000e+00 0.000000000000000e+00 1.240000000000000e+01 0.000000000000000e+00 0.000000000000000e+00 1.260000000000000e+01 0.000000000000000e+00 0.000000000000000e+00 1.280000000000000e+01 0.000000000000000e+00 0.000000000000000e+00 1.300000000000000e+01 0.000000000000000e+00 0.000000000000000e+00 1.320000000000000e+01 0.000000000000000e+00 0.000000000000000e+00 1.340000000000000e+01 0.000000000000000e+00 0.000000000000000e+00 1.360000000000000e+01 0.000000000000000e+00 0.000000000000000e+00 1.380000000000000e+01 0.000000000000000e+00 0.000000000000000e+00 1.400000000000000e+01 0.000000000000000e+00 0.000000000000000e+00 1.420000000000000e+01 0.000000000000000e+00 0.000000000000000e+00 1.440000000000000e+01 0.000000000000000e+00 0.000000000000000e+00 1.460000000000000e+01 0.000000000000000e+00 0.000000000000000e+00 1.480000000000000e+01 0.000000000000000e+00 0.000000000000000e+00 1.500000000000000e+01 0.000000000000000e+00 0.000000000000000e+00 1.520000000000000e+01 0.000000000000000e+00 0.000000000000000e+00 1.540000000000000e+01 0.000000000000000e+00 0.000000000000000e+00 1.560000000000000e+01 0.000000000000000e+00 0.000000000000000e+00 1.580000000000000e+01 0.000000000000000e+00 0.000000000000000e+00 2.000000000000000e-01 1.000000000000000e+00 0.000000000000000e+00 4.000000000000000e-01 1.000000000000000e+00 0.000000000000000e+00 6.000000000000000e-01 1.000000000000000e+00 0.000000000000000e+00 8.000000000000000e-01 1.000000000000000e+00 0.000000000000000e+00 1.000000000000000e+00 1.000000000000000e+00 0.000000000000000e+00 1.200000000000000e+00 1.000000000000000e+00 0.000000000000000e+00 1.400000000000000e+00 1.000000000000000e+00 0.000000000000000e+00 1.600000000000000e+00 1.000000000000000e+00 0.000000000000000e+00 1.800000000000000e+00 1.000000000000000e+00 0.000000000000000e+00 2.000000000000000e+00 1.000000000000000e+00 0.000000000000000e+00 2.200000000000000e+00 1.000000000000000e+00 0.000000000000000e+00 2.400000000000000e+00 1.000000000000000e+00 0.000000000000000e+00 2.600000000000000e+00 1.000000000000000e+00 0.000000000000000e+00 2.800000000000000e+00 1.000000000000000e+00 0.000000000000000e+00 3.000000000000000e+00 1.000000000000000e+00 0.000000000000000e+00 3.200000000000000e+00 1.000000000000000e+00 0.000000000000000e+00 3.400000000000000e+00 1.000000000000000e+00 0.000000000000000e+00 3.600000000000000e+00 1.000000000000000e+00 0.000000000000000e+00 3.800000000000000e+00 1.000000000000000e+00 0.000000000000000e+00 4.000000000000000e+00 1.000000000000000e+00 0.000000000000000e+00 4.200000000000000e+00 1.000000000000000e+00 0.000000000000000e+00 4.400000000000000e+00 1.000000000000000e+00 0.000000000000000e+00 4.600000000000000e+00 1.000000000000000e+00 0.000000000000000e+00 4.800000000000000e+00 1.000000000000000e+00 0.000000000000000e+00 5.000000000000000e+00 1.000000000000000e+00 0.000000000000000e+00 5.200000000000000e+00 1.000000000000000e+00 0.000000000000000e+00 5.400000000000000e+00 1.000000000000000e+00 0.000000000000000e+00 5.600000000000000e+00 1.000000000000000e+00 0.000000000000000e+00 5.800000000000000e+00 1.000000000000000e+00 0.000000000000000e+00 6.000000000000000e+00 1.000000000000000e+00 0.000000000000000e+00 6.200000000000000e+00 1.000000000000000e+00 0.000000000000000e+00 6.400000000000000e+00 1.000000000000000e+00 0.000000000000000e+00 6.600000000000000e+00 1.000000000000000e+00 0.000000000000000e+00 6.800000000000000e+00 1.000000000000000e+00 0.000000000000000e+00 7.000000000000000e+00 1.000000000000000e+00 0.000000000000000e+00 7.200000000000000e+00 1.000000000000000e+00 0.000000000000000e+00 7.400000000000000e+00 1.000000000000000e+00 0.000000000000000e+00 7.600000000000000e+00 1.000000000000000e+00 0.000000000000000e+00 7.800000000000000e+00 1.000000000000000e+00 0.000000000000000e+00 8.000000000000000e+00 1.000000000000000e+00 0.000000000000000e+00 8.199999999999999e+00 1.000000000000000e+00 0.000000000000000e+00 8.400000000000000e+00 1.000000000000000e+00 0.000000000000000e+00 8.600000000000000e+00 1.000000000000000e+00 0.000000000000000e+00 8.800000000000001e+00 1.000000000000000e+00 0.000000000000000e+00 9.000000000000000e+00 1.000000000000000e+00 0.000000000000000e+00 9.199999999999999e+00 1.000000000000000e+00 0.000000000000000e+00 9.400000000000000e+00 1.000000000000000e+00 0.000000000000000e+00 9.600000000000000e+00 1.000000000000000e+00 0.000000000000000e+00 9.800000000000001e+00 1.000000000000000e+00 0.000000000000000e+00 1.000000000000000e+01 1.000000000000000e+00 0.000000000000000e+00 1.020000000000000e+01 1.000000000000000e+00 0.000000000000000e+00 1.040000000000000e+01 1.000000000000000e+00 0.000000000000000e+00 1.060000000000000e+01 1.000000000000000e+00 0.000000000000000e+00 1.080000000000000e+01 1.000000000000000e+00 0.000000000000000e+00 1.100000000000000e+01 1.000000000000000e+00 0.000000000000000e+00 1.120000000000000e+01 1.000000000000000e+00 0.000000000000000e+00 1.140000000000000e+01 1.000000000000000e+00 0.00000000000000
[...]
<PointData Scalars="pressure_p1," Vectors="" Tensors="">
<DataArray type="Float64" Name="pressure_p1" format="ascii">
-1.488212440630532e-01 -1.002143870032083e-01 -2.694069600475224e+01 -2.693668392219013e+01 -1.324969943632733e-01 -1.324524188039509e-01 -1.324134944608528e-01 -1.323558370013986e-01 -2.693854622400950e+01 -2.693832402895024e+01 -2.693810184019831e+01 -2.693787965263960e+01 -4.244228303721926e-01 -7.845194644077558e-01 -1.144571028962114e+00 -1.504598852775354e+00 -1.864613937586632e+00 -2.224622131656855e+00 -2.584626585205606e+00 -2.944629005211789e+00 -3.304630319278528e+00 -3.664631031992977e+00 -4.024631417704265e+00 -4.384631625458117e+00 -4.744631736258205e+00 -5.104631794208237e+00 -5.464631823356274e+00 -5.824631836796178e+00 -6.184631841612937e+00 -6.544631841588607e+00 -6.904631838681925e+00 -7.264631833823985e+00 -7.624631827326833e+00 -7.984631819068738e+00 -8.344631808542847e+00 -8.704631794809190e+00 -9.064631776359846e+00 -9.424631750885549e+00 -9.784631714913189e+00 -1.014463166326292e+01 -1.050463158824769e+01 -1.086463147850223e+01 -1.122463131727917e+01 -1.158463107998056e+01 -1.194463073059605e+01 -1.230463021658371e+01 -1.266462946154245e+01 -1.302462835476561e+01 -1.338462673641201e+01 -1.374462437654640e+01 -1.410462094564791e+01 -1.446461597330431e+01 -1.482460879063450e+01 -1.518459845042332e+01 -1.554458361690176e+01 -1.590456241443182e+01 -1.626453222089579e+01 -1.662448938715900e+01 -1.698442885835528e+01 -1.734434366569212e+01 -1.770422424872714e+01 -1.806405755735484e+01 -1.842382586980282e+01 -1.878350524754244e+01 -1.914306353001216e+01 -1.950245775139692e+01 -1.986163083853407e+01 -2.022050742370268e+01 -2.057898857928609e+01 -2.093694525415421e+01 -2.129421016562992e+01 -2.165056787812246e+01 -2.200574278249669e+01 -2.235938468204170e+01 -2.271105169491987e+01 -2.306019020282618e+01 -2.340611161481887e+01 -2.374796577712375e+01 -2.408471094668603e+01 -2.441508035960221e+01 -2.473754556437967e+01 -2.505027684997610e+01 -2.535110127178825e+01 -2.563745895534904e+01 -2.590635852978149e+01 -2.615433270673927e+01 -2.637739516578435e+01 -2.657100000457832e+01 -2.673000502147197e+01 -2.684864001285118e+01 -2.692048114447535e+01 -2.956277666107547e-01 -6.555072944415948e-01 -1.015443339860089e+00 -1.375408903106926e+00 -1.735390246431996e+00 -2.095380112031937e+00 -2.455374600117605e+00 -2.815371599902019e+00 -3.175369965468480e+00 -3.535369073983276e+00 -3.895368586739347e+00 -4.255368319463518e+00 -4.615368171862905e+00 -4.975368089340376e+00 -5.335368042173791e+00 -5.695368014177326e+00 -6.055367996519251e+00 -6.415367984348781e+00 -6.775367974952928e+00 -7.135367966742950e+00 -7.495367958684967e+00 -7.855367949961784e+00 -8.215367939745654e+00 -8.575367927010371e+00 -8.935367910334085e+00 -9.295367887652302e+00 -9.655367855917643e+00 -1.001536781061287e+01 -1.037536774504428e+01 -1.073536764931363e+01 -1.109536750882395e+01 -1.145536730211391e+01 -1.181536699772982e+01 -1.217536654972434e+01 -1.253536589120409e+01 -1.289536492511808e+01 -1.325536351116148e+01 -1.361536144723644e+01 -1.397535844332420e+01 -1.433535408482965e+01 -1.469534778139885e+01 -1.505533869579852e+01 -1.541532564558567e+01 -1.577530696786015e+01 -1.613528033423360e+01 -1.649524249908654e+01 -1.685518895901642e+01 -1.721511349486638e+01 -1.757500755961340e+01 -1.793485946541397e+01 -1.829465331098802e+01 -1.865436757602537e+01 -1.901397329223690e+01 -1.937343168095921e+01 -1.973269112492107e+01 -2.009168331717293e+01 -2.045031840383067e+01 -2.080847891011776e+01 -2.116601221256656e+01 -2.152272129601882e+01 -2.187835351464492e+01 -2.223258706450655e+01 -2.258501487456999e+01 -2.293512563710715e+01 -2.328228173055449e+01 -2.362569384114535e+01 -2.396439216643454e+01 -2.429719418626746e+01 -2.462266911647611e+01 -2.493909931701726e+01 -2.524443910198718e+01 -2.553627157704786e+01 -2.581176429362997e+01 -2.606762466129328e+01 -2.630005621558200e+01 -2.650471697959276e+01 -2.667668121908925e+01 -2.681040582797412e+01 -2.689970245407105e+01 -3.601427151593092e-01 -7.202296445582604e-01 -1.080276913536707e+00 -1.440302624301093e+00 -1.800316610337992e+00 -2.160324218205856e+00 -2.520328355607578e+00 -2.880330604320346e+00 -3.240331825300076e+00 -3.600332487295967e+00 -3.960332845347853e+00 -4.320333038049584e+00 -4.680333140691303e+00 -5.040333194230386e+00 -5.400333220989430e+00 -5.760333233130694e+00 -6.120333237245436e+00 -6.480333236857498e+00 -6.840333233792445e+00 -7.200333228916477e+00 -7.560333222517980e+00 -7.920333214481251e+00 -8.280333204332292e+00 -8.640333191193740e+00 -9.000333173658431e+00 -9.360333149570737e+00 -9.720333115687113e+00 -1.008033306716768e+01 -1.044033299682626e+01 -1.080033289403275e+01 -1.116033274311499e+01 -1.152033252104212e+01 -1.188033219407970e+01 -1.224033171297931e+01 -1.260033100608806e+01 -1.296032996951912e+01 -1.332032845318792e+01 -1.368032624106170e+01 -1.404032302334785e+01 -1.440031835751088e+01 -1.476031161388902e+01 -1.512030190019686e+01 -1.548028795724427e+01 -1.584026801564705e+01 -1.620023959999557e+01 -1.656019926270107e+01 -1.692014222434477e+01 -1.728006189057261e+01 -1.763994920714935e+01 -1.799979180443995e+01 -1.835957287005671e+01 -1.871926967346558e+01 -1.907885164881011e+01 -1.943827792202652e+01 -1.979749414558620e+01 -2.015642847924005e+01 -2.051498652858114e+01 -2.087304502608974e+01 -2.123044401302984e+01 -2.158697725708032e+01 -2.194238062238221e+01 -2.229631809873662e+01 -2.264836519835373e+01 -2.299798944540171e+01 -2.334452771917360e+01 -2.368716026922464e+01 -2.402488130300962e+01 -2.435646615506701e+01 -2.468043518152229e+01 -2.499501468118322e+01 -2.529809531676889e+01 -2.558718868551398e+01 -2.585938285841147e+01 -2.611129786993902e+01 -2.633904229284332e+01 -2.653817214955085e+01 -2.670365344188074e+01 -2.682982950101787e+01 -2.691039425669987e+01 -3.600373496794407e-01 -7.200692568200723e-01 -1.080087938080539e+00 -1.440098401510119e+00 -1.800104161288069e+00 -2.160107309077589e+00 -2.520109023402434e+00 -2.880109954637194e+00 -3.240110459015347e+00 -3.600110731121241e+00 -3.960110876980618e+00 -4.320110954190874e+00 -4.680110993991896e+00 -5.040111013355042e+00 -5.400111021530173e+00 -5.760111023558199e+00 -6.120111022158675e+00 -6.480111018755232e+00 -6.840111014035145e+00 -7.200111008246702e+00 -7.560111001341611e+00 -7.920110993019986e+00 -8.280110982706818e+00 -8.640110969469392e+00 -9.000110951870340e+00 -9.360110927737693e+00 -9.720110893819133e+00 -1.008011084527011e+01 -1.044011077490200e+01 -1.080011067208339e+01 -1.116011052114145e+01 -1.152011029904494e+01 -1.188010997205926e+01 -1.224010949093589e+01 -1.260010878402195e+01 -1.296010774743057e+01 -1.332010623107730e+01 -1.368010401892946e+01 -1.404010080119460e+01 -1.440009613533751e+01 -1.476008939169685e+01 -1.512007967798783e+01 -1.548006573502129e+01 -1.584004579341457e+01 -1.620001737776029e+01 -1.655997704047292e+01 -1.691992000213810e+01 -1.727983966840744e+01 -1.763972698505253e+01 -1.799956958244539e+01 -1.835935064820423e+01 -1.871904745179713e+01 -1.907862942736297e+01 -1.943805570082377e+01 -1.979727192462674e+01 -2.015620625849325e+01 -2.051476430799276e+01 -2.087282280560502e+01 -2.123022179263021e+01 -2.158675503681358e+01 -2.194215840234648e+01 -2.229609587897673e+01 -2.264814297867709e+01 -2.299776722523400e+01 -2.334430549770439e+01 -2.368693804607091e+01 -2.402465907923586e+01 -2.435624393365758e+01 -2.468021296594506e+01 -2.499479247169954e+01 -2.529787310701277e+01 -2.558696646416574e+01 -2.585916061805227e+01 -2.611107561700186e+01 -2.633882004757811e+01 -2.653794993153509e+01 -2.670343125384341e+01 -2.682960732418974e+01 -2.691017206906742e+01 -3.599480497762286e-01 -7.199220947462605e-01 -1.079907180412063e+00 -1.439898883074660e+00 -1.799894325298183e+00 -2.159891834144240e+00 -2.519890474570607e+00 -2.879889732079677e+00 -3.239889325593821e+00 -3.599889102074096e+00 -3.959888978233749e+00 -4.319888908676024e+00 -4.679888868623181e+00 -5.039888844561858e+00 -5.399888829138099e+00 -5.759888818347647e+00 -6.119888809987238e+00 -6.479888802805647e+00 -6.839888796038480e+00 -7.199888789146009e+00 -7.559888781651303e+00 -7.919888773020666e+00 -8.279888762551250e+00 -8.639888749240408e+00 -8.999888731612621e+00 -9.359888707475223e+00 -9.719888673564737e+00 -1.007988862503065e+01 -1.043988855468118e+01 -1.079988845188321e+01 -1.115988830096302e+01 -1.151988807888889e+01 -1.187988775192597e+01 -1.223988727082562e+01 -1.259988656393486e+01 -1.295988552736683e+01 -1.331988401103705e+01 -1.367988179891290e+01 -1.403987858120203e+01 -1.439987391536934e+01 -1.475986717175372e+01 -1.511985745807079e+01 -1.547984351513196e+01 -1.583982357355544e+01 -1.619979515793513e+01 -1.655975482068732e+01 -1.691969778239999e+01 -1.727961744872750e+01 -1.763950476544425e+01 -1.799934736292420e+01 -1.835912842878511e+01 -1.871882523248993e+01 -1.907840720816505e+01 -1.943783348171053e+01 -1.979704970554232e+01 -2.015598403934653e+01 -2.051454208866594e+01 -2.087260058598152e+01 -2.122999957264200e+01 -2.158653281649098e+01 -2.194193618183057e+01 -2.229587365844110e+01 -2.264792075813287e+01 -2.299754500429164e+01 -2.334408327551617e+01 -2.368671582175271e+01 -2.402443685283389e+01 -2.435602170707949e+01 -2.467999074262906e+01 -2.499457025417965e+01 -2.529765089356547e+01 -2.558674424783558e+01 -2.585893839035728e+01 -2.611085337423131e+01 -2.633859779488627e+01 -2.653772768141303e+01 -2.670320901992687e+01 -2.682938511537350e+01 -2.690994987730673e+01 -3.598433776023710e-01 -7.197638917206284e-01 -1.079719805501513e+00 -1.439695625212218e+00 -1.799682423005121e+00 -2.159675227726437e+00 -2.519671308459801e+00 -2.879669173272493e+00 -3.239668009111335e+00 -3.599667373397257e+00 -3.959667025294242e+00 -4.319666833716114e+00 -4.679666727286929e+00 -5.039666667140856e+00 -5.399666632119213e+00 -5.759666610697905e+00 -6.119666596579903e+00 -6.479666586288521e+00 -6.839666577851196e+00 -7.199666570072426e+00 -7.559666562118827e+00 -7.919666553262432e+00 -8.279666542694230e+00 -8.639666529353510e+00 -8.999666511733039e+00 -9.359666487622919e+00 -9.719666453750383e+00 -1.007966640525996e+01 -1.043966633495719e+01 -1.079966623220758e+01 -1.115966608133663e+01 -1.151966585931226e+01 -1.187966553239937e+01 -1.223966505134922e+01 -1.259966434450877e+01 -1.295966330799107e+01 -1.331966179171167e+01 -1.367965957963794e+01 -1.403965636197756e+01 -1.439965169619545e+01 -1.475964495263064e+01 -1.511963523899890e+01 -1.547962129611191e+01 -1.583960135458831e+01 -1.619957293902258e+01 -1.655953260183177e+01 -1.691947556360478e+01 -1.727939522999690e+01 -1.763928254678291e+01 -1.799912514433601e+01 -1.835890621027064e+01 -1.871860301404222e+01 -1.907818498976329e+01 -1.943761126331215e+01 -1.979682748707546e+01 -2.015576182070692e+01 -2.051431986972480e+01 -2.087237836661111e+01 -2.122977735276133e+01 -2.158631059612089e+01 -2.194171396112598e+01 -2.229565143764788e+01 -2.264769853742371e+01 -2.299732278350333e+01 -2.334386105394794e+01 -2.368649359831393e+01 -2.402421462675774e+01 -2.435579947897086e+01 -2.467976851497091e+01 -2.499434803031272e+01 -2.529742867521213e+01 -2.558652203275713e+01 -2.585871617212712e+01 -2.611063114511741e+01 -2.633837555145985e+01 -2.653750543020339e+01 -2.670298677685437e+01 -2.682916289655383e+01 -2.690972768164659e+01 
</DataArray>
</PointData>
<CellData Scalars="pressure_p0," Vectors="velocity_p0," Tensors="">
<DataArray type="Float64" Name="pressure_p0" format="ascii">