<?xml version="1.0"?>
<VTKFile type="UnstructuredGrid" version="0.1" byte_order="LittleEndian">
<UnstructuredGrid>
<Piece NumberOfPoints="486" NumberOfCells="800">
<Points>
<DataArray type="Float64" NumberOfComponents="3" format="ascii">
0.000000000000000e+00 0.000000000000000e+00 0.000000000000000e+00 0.000000000000000e+00 1.000000000000000e+00 0.000000000000000e+00 1.600000000000000e+01 0.000000000000000e+00 0.000000000000000e+00 1.600000000000000e+01 1.000000000000000e+00 0.000000000000000e+00 0.000000000000000e+00 1.999999999995579e-01 0.000000000000000e+00 0.000000000000000e+00 3.999999999989749e-01 0.000000000000000e+00 0.000000000000000e+00 5.999999999989468e-01 0.000000000000000e+00 0.000000000000000e+00 7.999999999994734e-01 0.000000000000000e+00 1.600000000000000e+01 1.999999999995579e-01 0.000000000000000e+00 1.600000000000000e+01 3.999999999989749e-01 0.000000000000000e+00 1.600000000000000e+01 5.999999999989468e-01 0.000000000000000e+00 1.600000000000000e+01 7.999999999994734e-01 0.000000000000000e+00 2.000000000000000e-01 0.000000000000000e+00 0.000000000000000e+00 4.000000000000000e-01 0.000000000000000e+00 0.000000000000000e+00 6.000000000000000e-01 0.000000000000000e+00 0.000000000000000e+00 8.000000000000000e-01 0.000000000000000e+00 0.000000000000000e+00 1.000000000000000e+00 0.000000000000000e+00 0.000000000000000e+00 1.200000000000000e+00 0.000000000000000e+00 0.000000000000000e+00 1.400000000000000e+00 0.000000000000000e+00 0.000000000000000e+00 1.600000000000000e+00 0.000000000000000e+00 0.000000000000000e+00 1.800000000000000e+00 0.000000000000000e+00 0.000000000000000e+00 2.000000000000000e+00 0.000000000000000e+00 0.000000000000000e+00 2.200000000000000e+00 0.000000000000000e+00 0.000000000000000e+00 2.400000000000000e+00 0.000000000000000e+00 0.000000000000000e+00 2.600000000000000e+00 0.000000000000000e+00 0.000000000000000e+00 2.800000000000000e+00 0.000000000000000e+00 0.000000000000000e+00 3.000000000000000e+00 0.000000000000000e+00 0.000000000000000e+00 3.200000000000000e+00 0.000000000000000e+00 0.000000000000000e+00 3.400000000000000e+00 0.000000000000000e+00 0.000000000000000e+00 3.600000000000000e+00 0.000000000000000e+00 0.000000000000000e+00 3.800000000000000e+00 0.000000000000000e+00 0.000000000000000e+00 4.000000000000000e+00 0.000000000000000e+00 0.000000000000000e+00 4.200000000000000e+00 0.000000000000000e+00 0.000000000000000e+00 4.400000000000000e+00 0.000000000000000e+00 0.000000000000000e+00 4.600000000000000e+00 0.000000000000000e+00 0.000000000000000e+00 4.800000000000000e+00 0.000000000000000e+00 0.000000000000000e+00 5.000000000000000e+00 0.000000000000000e+00 0.000000000000000e+00 5.200000000000000e+00 0.000000000000000e+00 0.000000000000000e+00 5.400000000000000e+00 0.000000000000000e+00 0.000000000000000e+00 5.600000000000000e+00 0.000000000000000e+00 0.000000000000000e+00 5.800000000000000e+00 0.000000000000000e+00 0.000000000000000e+00 6.000000000000000e+00 0.000000000000000e+00 0.000000000000000e+00 6.200000000000000e+00 0.000000000000000e+00 0.000000000000000e+00 6.400000000000000e+00 0.000000000000000e+00 0.000000000000000e+00 6.600000000000000e+00 0.000000000000000e+00 0.000000000000000e+00 6.800000000000000e+00 0.000000000000000e+00 0.000000000000000e+00 7.000000000000000e+00 0.000000000000000e+00 0.000000000000000e+00 7.200000000000000e+00 0.000000000000000e+00 0.000000000000000e+00 7.400000000000000e+00 0.000000000000000e+00 0.000000000000000e+00 7.600000000000000e+00 0.000000000000000e+00 0.000000000000000e+00 7.800000000000000e+00 0.000000000000000e+00 0.000000000000000e+00 8.000000000000000e+00 0.000000000000000e+00 0.000000000000000e+00 8.199999999999999e+00 0.000000000000000e+00 0.000000000000000e+00 8.400000000000000e+00 0.000000000000000e+00 0.000000000000000e+00 8.600000000000000e+00 0.000000000000000e+00 0.000000000000000e+00 8.800000000000001e+00 0.000000000000000e+00 0.000000000000000e+00 9.000000000000000e+00 0.000000000000000e+00 0.000000000000000e+00 9.199999999999999e+00 0.000000000000000e+00 0.000000000000000e+00 9.400000000000000e+00 0.000000000000000e+00 0.000000000000000e+00 9.600000000000000e+00 0.000000000000000e+00 0.000000000000000e+00 9.800000000000001e+00 0.000000000000000e+00 0.000000000000000e+00 1.000000000000000e+01 0.000000000000000e+00 0.000000000000000e+00 1.020000000000000e+01 0.000000000000000e+00 0.000000000000000e+00 1.040000000000000e+01 0.000000000000000e+00 0.000000000000000e+00 1.060000000000000e+01 0.000000000000000e+00 0.000000000000000e+00 1.080000000000000e+01 0.000000000000000e+00 0.000000000000000e+00 1.100000000000000e+01 0.000000000000000e+00 0.000000000000000e+00 1.120000000000000e+01 0.000000000000000e+00 0.000000000000000e+00 1.140000000000000e+01 0.000000000000000e+00 0.000000000000000e+00 1.160000000000000e+01 0.000000000000000e+00 0.000000000000000e+00 1.180000000000000e+01 0.000000000000000e+00 0.000000000000000e+00 1.200000000000000e+01 0.000000000000000e+00 0.000000000000000e+00 1.220000000000000e+01 0.000000000000000e+00 0.000000000000000e+00 1.240000000000000e+01 0.000000000000000e+00 0.000000000000000e+00 1.260000000000000e+01 0.000000000000000e+00 0.000000000000000e+00 1.280000000000000e+01 0.000000000000000e+00 0.000000000000000e+00 1.300000000000000e+01 0.000000000000000e+00 0.000000000000000e+00 1.320000000000000e+01 0.000000000000000e+00 0.000000000000000e+00 1.340000000000000e+01 0.000000000000000e+00 0.000000000000000e+00 1.360000000000000e+01 0.000000000000000e+00 0.000000000000000e+00 1.380000000000000e+01 0.000000000000000e+00 0.000000000000000e+00 1.400000000000000e+01 0.000000000000000e+00 0.000000000000000e+00 1.420000000000000e+01 0.000000000000000e+00 0.000000000000000e+00 1.440000000000000e+01 0.000000000000000e+00 0.000000000000000e+00 1.460000000000000e+01 0.000000000000000e+00 0.000000000000000e+00 1.480000000000000e+01 0.000000000000000e+00 0.000000000000000e+00 1.500000000000000e+01 0.000000000000000e+00 0.000000000000000e+00 1.520000000000000e+01 0.000000000000000e+00 0.000000000000000e+00 1.540000000000000e+01 0.000000000000000e+00 0.000000000000000e+00 1.560000000000000e+01 0.000000000000000e+00 0.000000000000000e+00 1.580000000000000e+01 0.000000000000000e+00 0.000000000000000e+00 2.000000000000000e-01 1.000000000000000e+00 0.000000000000000e+00 4.000000000000000e-01 1.000000000000000e+00 0.000000000000000e+00 6.000000000000000e-01 1.000000000000000e+00 0.000000000000000e+00 8.000000000000000e-01 1.000000000000000e+00 0.000000000000000e+00 1.000000000000000e+00 1.000000000000000e+00 0.000000000000000e+00 1.200000000000000e+00 1.000000000000000e+00 0.000000000000000e+00 1.400000000000000e+00 1.000000000000000e+00 0.000000000000000e+00 1.600000000000000e+00 1.000000000000000e+00 0.000000000000000e+00 1.800000000000000e+00 1.000000000000000e+00 0.000000000000000e+00 2.000000000000000e+00 1.000000000000000e+00 0.000000000000000e+00 2.200000000000000e+00 1.000000000000000e+00 0.000000000000000e+00 2.400000000000000e+00 1.000000000000000e+00 0.000000000000000e+00 2.600000000000000e+00 1.000000000000000e+00 0.000000000000000e+00 2.800000000000000e+00 1.000000000000000e+00 0.000000000000000e+00 3.000000000000000e+00 1.000000000000000e+00 0.000000000000000e+00 3.200000000000000e+00 1.000000000000000e+00 0.000000000000000e+00 3.400000000000000e+00 1.000000000000000e+00 0.000000000000000e+00 3.600000000000000e+00 1.000000000000000e+00 0.000000000000000e+00 3.800000000000000e+00 1.000000000000000e+00 0.000000000000000e+00 4.000000000000000e+00 1.000000000000000e+00 0.000000000000000e+00 4.200000000000000e+00 1.000000000000000e+00 0.000000000000000e+00 4.400000000000000e+00 1.000000000000000e+00 0.000000000000000e+00 4.600000000000000e+00 1.000000000000000e+00 0.000000000000000e+00 4.800000000000000e+00 1.000000000000000e+00 0.000000000000000e+00 5.000000000000000e+00 1.000000000000000e+00 0.000000000000000e+00 5.200000000000000e+00 1.000000000000000e+00 0.000000000000000e+00 5.400000000000000e+00 1.000000000000000e+00 0.000000000000000e+00 5.600000000000000e+00 1.000000000000000e+00 0.000000000000000e+00 5.800000000000000e+00 1.000000000000000e+00 0.000000000000000e+00 6.000000000000000e+00 1.000000000000000e+00 0.000000000000000e+00 6.200000000000000e+00 1.000000000000000e+00 0.000000000000000e+00 6.400000000000000e+00 1.000000000000000e+00 0.000000000000000e+00 6.600000000000000e+00 1.000000000000000e+00 0.000000000000000e+00 6.800000000000000e+00 1.000000000000000e+00 0.000000000000000e+00 7.000000000000000e+00 1.000000000000000e+00 0.000000000000000e+00 7.200000000000000e+00 1.000000000000000e+00 0.000000000000000e+00 7.400000000000000e+00 1.000000000000000e+00 0.000000000000000e+00 7.600000000000000e+00 1.000000000000000e+00 0.000000000000000e+00 7.800000000000000e+00 1.000000000000000e+00 0.000000000000000e+00 8.000000000000000e+00 1.000000000000000e+00 0.000000000000000e+00 8.199999999999999e+00 1.000000000000000e+00 0.000000000000000e+00 8.400000000000000e+00 1.000000000000000e+00 0.000000000000000e+00 8.600000000000000e+00 1.000000000000000e+00 0.000000000000000e+00 8.800000000000001e+00 1.000000000000000e+00 0.000000000000000e+00 9.000000000000000e+00 1.000000000000000e+00 0.000000000000000e+00 9.199999999999999e+00 1.000000000000000e+00 0.000000000000000e+00 9.400000000000000e+00 1.000000000000000e+00 0.000000000000000e+00 9.600000000000000e+00 1.000000000000000e+00 0.000000000000000e+00 9.800000000000001e+00 1.000000000000000e+00 0.000000000000000e+00 1.000000000000000e+01 1.000000000000000e+00 0.000000000000000e+00 1.020000000000000e+01 1.000000000000000e+00 0.000000000000000e+00 1.040000000000000e+01 1.000000000000000e+00 0.000000000000000e+00 1.060000000000000e+01 1.000000000000000e+00 0.000000000000000e+00 1.080000000000000e+01 1.000000000000000e+00 0.000000000000000e+00 1.100000000000000e+01 1.000000000000000e+00 0.000000000000000e+00 1.120000000000000e+01 1.000000000000000e+00 0.000000000000000e+00 1.140000000000000e+01 1.000000000000000e+00 0.00000000000000
[...]
<PointData Scalars="pressure_p1," Vectors="" Tensors="">
<DataArray type="Float64" Name="pressure_p1" format="ascii">
-1.666863248090362e-02 -1.104084751142149e-02 -3.125569714908409e+00 -3.123690292719495e+00 -1.478217147909857e-02 -1.474438746167869e-02 -1.471281127405657e-02 -1.466065061786047e-02 -3.124708194379776e+00 -3.124537811085285e+00 -3.124384014556046e+00 -3.124222267669731e+00 -4.744511287000935e-02 -8.758979128231720e-02 -1.276963500427005e-01 -1.677851051145546e-01 -2.078655226792379e-01 -2.479420504691338e-01 -2.880167743432087e-01 -3.280906669512237e-01 -3.681641788398970e-01 -4.082375173424393e-01 -4.483107772738584e-01 -4.883840017449017e-01 -5.284572102641657e-01 -5.685304116297406e-01 -6.086036097995071e-01 -6.486768065485927e-01 -6.887500026692037e-01 -7.288231985124168e-01 -7.688963942327679e-01 -8.089695898981440e-01 -8.490427855386017e-01 -8.891159811677033e-01 -9.291891767917194e-01 -9.692623724135866e-01 -1.009335568034663e+00 -1.049408763655538e+00 -1.089481959276429e+00 -1.129555154897395e+00 -1.169628350518421e+00 -1.209701546139483e+00 -1.249774741760556e+00 -1.289847937381626e+00 -1.329921133002681e+00 -1.369994328623712e+00 -1.410067524244707e+00 -1.450140719865638e+00 -1.490213915486448e+00 -1.530287111107026e+00 -1.570360306727138e+00 -1.610433502346324e+00 -1.650506697963692e+00 -1.690579893577499e+00 -1.730653089184390e+00 -1.770726284777956e+00 -1.810799480346050e+00 -1.850872675865803e+00 -1.890945871294467e+00 -1.931019066552603e+00 -1.971092261493431e+00 -2.011165455847089e+00 -2.051238649119560e+00 -2.091311840409830e+00 -2.131385028079593e+00 -2.171458209157401e+00 -2.211531378264961e+00 -2.251604525684463e+00 -2.291677633884148e+00 -2.331750671281280e+00 -2.371823581065022e+00 -2.411896261204837e+00 -2.451968528768810e+00 -2.492040056383003e+00 -2.532110259358453e+00 -2.572178095722347e+00 -2.612241713006886e+00 -2.652297826477563e+00 -2.692340628851403e+00 -2.732359886974556e+00 -2.772337636053846e+00 -2.812242471609732e+00 -2.852019760486190e+00 -2.891574988851307e+00 -2.930745712884265e+00 -2.969254883305819e+00 -3.006634362950665e+00 -3.042102094312574e+00 -3.074370135443507e+00 -3.101356204772051e+00 -3.119776073755602e+00 -3.274159288473790e-02 -7.272183397572181e-02 -1.127516447050283e-01 -1.528045721474877e-01 -1.928683390302704e-01 -2.329371743817317e-01 -2.730083659875222e-01 -3.130806458547150e-01 -3.531534251916524e-01 -3.932264324563681e-01 -4.332995432057525e-01 -4.733727007282689e-01 -5.134458793058204e-01 -5.535190673263282e-01 -5.935922595677394e-01 -6.336654536904069e-01 -6.737386486496121e-01 -7.138118439801263e-01 -7.538850394751598e-01 -7.939582350429122e-01 -8.340314306426851e-01 -8.741046262564943e-01 -9.141778218764407e-01 -9.542510174990880e-01 -9.943242131229497e-01 -1.034397408747386e+00 -1.074470604372112e+00 -1.114543799996997e+00 -1.154616995621973e+00 -1.194690191246997e+00 -1.234763386872043e+00 -1.274836582497096e+00 -1.314909778122147e+00 -1.354982973747190e+00 -1.395056169372211e+00 -1.435129364997189e+00 -1.475202560622084e+00 -1.515275756246822e+00 -1.555348951871238e+00 -1.595422147495005e+00 -1.635495343117474e+00 -1.675568538737374e+00 -1.715641734352218e+00 -1.755714929957187e+00 -1.795788125543031e+00 -1.835861321092120e+00 -1.875934516571117e+00 -1.916007711917446e+00 -1.956080907014468e+00 -1.996154101646188e+00 -2.036227295414982e+00 -2.076300487592715e+00 -2.116373676851993e+00 -2.156446860781952e+00 -2.196520035016780e+00 -2.236593191668343e+00 -2.276666316508902e+00 -2.316739383911061e+00 -2.356812347770085e+00 -2.396885125245710e+00 -2.436957567706075e+00 -2.477029408930087e+00 -2.517100173020290e+00 -2.557169011148460e+00 -2.597234412969392e+00 -2.637293698052355e+00 -2.677342122756347e+00 -2.717371318198640e+00 -2.757366571670807e+00 -2.797302122176041e+00 -2.837133072866465e+00 -2.876781593005699e+00 -2.916113590103247e+00 -2.954899709321840e+00 -2.992751046137264e+00 -3.029015093713082e+00 -3.062611380950115e+00 -3.091780583819082e+00 -3.113720898427471e+00 -4.019206985760997e-02 -8.033122697454131e-02 -1.204362702965698e-01 -1.605247661712462e-01 -2.006053635003217e-01 -2.406822385600118e-01 -2.807573775555471e-01 -3.208317137482325e-01 -3.609056813787413e-01 -4.009794808630348e-01 -4.410532040505504e-01 -4.811268927721351e-01 -5.212005659780993e-01 -5.612742322199821e-01 -6.013478953466908e-01 -6.414215570862547e-01 -6.814952182113676e-01 -7.215688790653157e-01 -7.616425397994639e-01 -8.017162004802453e-01 -8.417898611369329e-01 -8.818635217826357e-01 -9.219371824233752e-01 -9.620108430619760e-01 -1.002084503699758e+00 -1.042158164337312e+00 -1.082231824974866e+00 -1.122305485612486e+00 -1.162379146250169e+00 -1.202452806887890e+00 -1.242526467525627e+00 -1.282600128163363e+00 -1.322673788801087e+00 -1.362747449438791e+00 -1.402821110076463e+00 -1.442894770714080e+00 -1.482968431351593e+00 -1.523042091988905e+00 -1.563115752625816e+00 -1.603189413261927e+00 -1.643263073896456e+00 -1.683336734527878e+00 -1.723410395153240e+00 -1.763484055766876e+00 -1.803557716358005e+00 -1.843631376906259e+00 -1.883705037373417e+00 -1.923778697688252e+00 -1.963852357718798e+00 -2.003926017221894e+00 -2.043999675751647e+00 -2.084073332493750e+00 -2.124146985966249e+00 -2.164220633479744e+00 -2.204294270164787e+00 -2.244367887221199e+00 -2.284441468770319e+00 -2.324514986202841e+00 -2.364588388046016e+00 -2.404661581832647e+00 -2.444734401727590e+00 -2.484806550857410e+00 -2.524877498829593e+00 -2.564946300105490e+00 -2.605011273038382e+00 -2.645069434547473e+00 -2.685115508135940e+00 -2.725140190827442e+00 -2.765127140532197e+00 -2.805047769181291e+00 -2.844852303289805e+00 -2.884454556516125e+00 -2.923706236688256e+00 -2.962354101022965e+00 -2.999969561843397e+00 -3.035835231718162e+00 -3.068766745514169e+00 -3.096843074215422e+00 -3.117020909407607e+00 -4.010322879630823e-02 -8.020040822650652e-02 -1.202864153269936e-01 -1.603661515900221e-01 -2.004427067963416e-01 -2.405177210727552e-01 -2.805920071872608e-01 -3.206659543632309e-01 -3.607397453917008e-01 -4.008134650479335e-01 -4.408871522882328e-01 -4.809608248778669e-01 -5.210344908681259e-01 -5.611081538928406e-01 -6.011818155889389e-01 -6.412554766928560e-01 -6.813291375347176e-01 -7.214027982613168e-01 -7.614764589371807e-01 -8.015501195904214e-01 -8.416237802333356e-01 -8.816974408714425e-01 -9.217711015073345e-01 -9.618447621422793e-01 -1.001918422776898e+00 -1.041992083411474e+00 -1.082065744046114e+00 -1.122139404680835e+00 -1.162213065315621e+00 -1.202286725950446e+00 -1.242360386585288e+00 -1.282434047220130e+00 -1.322507707854963e+00 -1.362581368489778e+00 -1.402655029124562e+00 -1.442728689759295e+00 -1.482802350393931e+00 -1.522876011028376e+00 -1.562949671662437e+00 -1.603023332295733e+00 -1.643096992927508e+00 -1.683170653556279e+00 -1.723244314179171e+00 -1.763317974790642e+00 -1.803391635380103e+00 -1.843465295927475e+00 -1.883538956394954e+00 -1.923612616711864e+00 -1.963686276746932e+00 -2.003759936257765e+00 -2.043833594799181e+00 -2.083907251557288e+00 -2.123980905049927e+00 -2.164054552586569e+00 -2.204128189295598e+00 -2.244201806373988e+00 -2.284275387940625e+00 -2.324348905385881e+00 -2.364422307240385e+00 -2.404495501043713e+00 -2.444568320966532e+00 -2.484640470131307e+00 -2.524711418122408e+00 -2.564780219361514e+00 -2.604845192173948e+00 -2.644903353516812e+00 -2.684949427038536e+00 -2.724974109965565e+00 -2.764961060273042e+00 -2.804881689576140e+00 -2.844686223703786e+00 -2.884288475779087e+00 -2.923540154006115e+00 -2.962188017026566e+00 -2.999803478605465e+00 -3.035669151241873e+00 -3.068600668041427e+00 -3.096676997728669e+00 -3.116854831567731e+00 -4.003303444340924e-02 -8.008834848873764e-02 -1.201526319874084e-01 -1.602217382349682e-01 -2.002932452353575e-01 -2.403659036204910e-01 -2.804391027637785e-01 -3.205125525265475e-01 -3.605861173725677e-01 -4.006597347069936e-01 -4.407333758552360e-01 -4.808070277578854e-01 -5.208806844945721e-01 -5.609543433939010e-01 -6.010280032571510e-01 -6.411016635494726e-01 -6.811753240330628e-01 -7.212489846020721e-01 -7.613226452091206e-01 -8.013963058328905e-01 -8.414699664638307e-01 -8.815436270977591e-01 -9.216172877329285e-01 -9.616909483686572e-01 -1.001764609004693e+00 -1.041838269640935e+00 -1.081911930277332e+00 -1.121985590913839e+00 -1.162059251550420e+00 -1.202132912187043e+00 -1.242206572823683e+00 -1.282280233460327e+00 -1.322353894096965e+00 -1.362427554733587e+00 -1.402501215370182e+00 -1.442574876006727e+00 -1.482648536643178e+00 -1.522722197279442e+00 -1.562795857915334e+00 -1.602869518550477e+00 -1.642943179184128e+00 -1.683016839814829e+00 -1.723090500439739e+00 -1.763164161053381e+00 -1.803237821645256e+00 -1.843311482195426e+00 -1.883385142666273e+00 -1.923458802987360e+00 -1.963532463027678e+00 -2.003606122545054e+00 -2.043679781094351e+00 -2.083753437861349e+00 -2.123827091362914e+00 -2.163900738906655e+00 -2.203974375618148e+00 -2.244047992691026e+00 -2.284121574241443e+00 -2.324195091659596e+00 -2.364268493480637e+00 -2.404341687254071e+00 -2.444414507162694e+00 -2.484486656334286e+00 -2.524557604338991e+00 -2.564626405557966e+00 -2.604691378265379e+00 -2.644749539404929e+00 -2.684795612710050e+00 -2.724820295597183e+00 -2.764807246215540e+00 -2.804727876118350e+00 -2.844532410721811e+00 -2.884134662605160e+00 -2.923386339768589e+00 -2.962034201272935e+00 -2.999649661742309e+00 -3.035515334438747e+00 -3.068446852658937e+00 -3.096523184756174e+00 -3.116701020237578e+00 -3.994364653305781e-02 -7.995871255847177e-02 -1.200036542851218e-01 -1.600636042244641e-01 -2.001308269409806e-01 -2.402014993637476e-01 -2.802737849939790e-01 -3.203468172750746e-01 -3.604201923875982e-01 -4.004937239062047e-01 -4.405673264006181e-01 -4.806409609557363e-01 -5.207146099334629e-01 -5.607882653746979e-01 -6.008619237028451e-01 -6.409355833169744e-01 -6.810092435028864e-01 -7.210829039426847e-01 -7.611565644950097e-01 -8.012302250970301e-01 -8.413038857208646e-01 -8.813775463542083e-01 -9.214512069916890e-01 -9.615248676309959e-01 -1.001598528271145e+00 -1.041672188911713e+00 -1.081745849552513e+00 -1.121819510193447e+00 -1.161893170834460e+00 -1.201966831475517e+00 -1.242040492116592e+00 -1.282114152757673e+00 -1.322187813398750e+00 -1.362261474039815e+00 -1.402335134680852e+00 -1.442408795321843e+00 -1.482482455962741e+00 -1.522556116603456e+00 -1.562629777243802e+00 -1.602703437883406e+00 -1.642777098521531e+00 -1.682850759156730e+00 -1.722924419786179e+00 -1.762998080404424e+00 -1.803071741001005e+00 -1.843145401556032e+00 -1.883219062031954e+00 -1.923292722358395e+00 -1.963366382404376e+00 -2.003440041927668e+00 -2.043513700482873e+00 -2.083587357255147e+00 -2.123661010760170e+00 -2.163734658303620e+00 -2.203808295008368e+00 -2.243881912064932e+00 -2.283955493586947e+00 -2.324029010964476e+00 -2.364102412737114e+00 -2.404175606464740e+00 -2.444248426344643e+00 -2.484320575515747e+00 -2.524391523542971e+00 -2.564460324773727e+00 -2.604525297423400e+00 -2.644583458386496e+00 -2.684629531418514e+00 -2.724654214072725e+00 -2.764641164703995e+00 -2.804561794983514e+00 -2.844366330192718e+00 -2.883968582510597e+00 -2.923220259468551e+00 -2.961868119918048e+00 -2.999483578861229e+00 -3.035349250589638e+00 -3.068280769444211e+00 -3.096357103896664e+00 -3.116534941680831e+00 
</DataArray>
</PointData>
<CellData Scalars="pressure_p0," Vectors="velocity_p0," Tensors="">
<DataArray type="Float64" Name="pressure_p0" format="ascii">