<?xml version="1.0"?>
<VTKFile type="UnstructuredGrid" version="0.1" byte_order="LittleEndian">
<UnstructuredGrid>
<Piece NumberOfPoints="486" NumberOfCells="800">
<Points>
<DataArray type="Float64" NumberOfComponents="3" format="ascii">
0.000000000000000e+00 0.000000000000000e+00 0.000000000000000e+00 0.000000000000000e+00 1.000000000000000e+00 0.000000000000000e+00 1.600000000000000e+01 0.000000000000000e+00 0.000000000000000e+00 1.600000000000000e+01 1.000000000000000e+00 0.000000000000000e+00 0.000000000000000e+00 1.999999999995579e-01 0.000000000000000e+00 0.000000000000000e+00 3.999999999989749e-01 0.000000000000000e+00 0.000000000000000e+00 5.999999999989468e-01 0.000000000000000e+00 0.000000000000000e+00 7.999999999994734e-01 0.000000000000000e+00 1.600000000000000e+01 1.999999999995579e-01 0.000000000000000e+00 1.600000000000000e+01 3.999999999989749e-01 0.000000000000000e+00 1.600000000000000e+01 5.999999999989468e-01 0.000000000000000e+00 1.600000000000000e+01 7.999999999994734e-01 0.000000000000000e+00 2.000000000000000e-01 0.000000000000000e+00 0.000000000000000e+00 4.000000000000000e-01 0.000000000000000e+00 0.000000000000000e+00 6.000000000000000e-01 0.000000000000000e+00 0.000000000000000e+00 8.000000000000000e-01 0.000000000000000e+00 0.000000000000000e+00 1.000000000000000e+00 0.000000000000000e+00 0.000000000000000e+00 1.200000000000000e+00 0.000000000000000e+00 0.000000000000000e+00 1.400000000000000e+00 0.000000000000000e+00 0.000000000000000e+00 1.600000000000000e+00 0.000000000000000e+00 0.000000000000000e+00 1.800000000000000e+00 0.000000000000000e+00 0.000000000000000e+00 2.000000000000000e+00 0.000000000000000e+00 0.000000000000000e+00 2.200000000000000e+00 0.000000000000000e+00 0.000000000000000e+00 2.400000000000000e+00 0.000000000000000e+00 0.000000000000000e+00 2.600000000000000e+00 0.000000000000000e+00 0.000000000000000e+00 2.800000000000000e+00 0.000000000000000e+00 0.000000000000000e+00 3.000000000000000e+00 0.000000000000000e+00 0.000000000000000e+00 3.200000000000000e+00 0.000000000000000e+00 0.000000000000000e+00 3.400000000000000e+00 0.000000000000000e+00 0.000000000000000e+00 3.600000000000000e+00 0.000000000000000e+00 0.000000000000000e+00 3.800000000000000e+00 0.000000000000000e+00 0.000000000000000e+00 4.000000000000000e+00 0.000000000000000e+00 0.000000000000000e+00 4.200000000000000e+00 0.000000000000000e+00 0.000000000000000e+00 4.400000000000000e+00 0.000000000000000e+00 0.000000000000000e+00 4.600000000000000e+00 0.000000000000000e+00 0.000000000000000e+00 4.800000000000000e+00 0.000000000000000e+00 0.000000000000000e+00 5.000000000000000e+00 0.000000000000000e+00 0.000000000000000e+00 5.200000000000000e+00 0.000000000000000e+00 0.000000000000000e+00 5.400000000000000e+00 0.000000000000000e+00 0.000000000000000e+00 5.600000000000000e+00 0.000000000000000e+00 0.000000000000000e+00 5.800000000000000e+00 0.000000000000000e+00 0.000000000000000e+00 6.000000000000000e+00 0.000000000000000e+00 0.000000000000000e+00 6.200000000000000e+00 0.000000000000000e+00 0.000000000000000e+00 6.400000000000000e+00 0.000000000000000e+00 0.000000000000000e+00 6.600000000000000e+00 0.000000000000000e+00 0.000000000000000e+00 6.800000000000000e+00 0.000000000000000e+00 0.000000000000000e+00 7.000000000000000e+00 0.000000000000000e+00 0.000000000000000e+00 7.200000000000000e+00 0.000000000000000e+00 0.000000000000000e+00 7.400000000000000e+00 0.000000000000000e+00 0.000000000000000e+00 7.600000000000000e+00 0.000000000000000e+00 0.000000000000000e+00 7.800000000000000e+00 0.000000000000000e+00 0.000000000000000e+00 8.000000000000000e+00 0.000000000000000e+00 0.000000000000000e+00 8.199999999999999e+00 0.000000000000000e+00 0.000000000000000e+00 8.400000000000000e+00 0.000000000000000e+00 0.000000000000000e+00 8.600000000000000e+00 0.000000000000000e+00 0.000000000000000e+00 8.800000000000001e+00 0.000000000000000e+00 0.000000000000000e+00 9.000000000000000e+00 0.000000000000000e+00 0.000000000000000e+00 9.199999999999999e+00 0.000000000000000e+00 0.000000000000000e+00 9.400000000000000e+00 0.000000000000000e+00 0.000000000000000e+00 9.600000000000000e+00 0.000000000000000e+00 0.000000000000000e+00 9.800000000000001e+00 0.000000000000000e+00 0.000000000000000e+00 1.000000000000000e+01 0.000000000000000e+00 0.000000000000000e+00 1.020000000000000e+01 0.000000000000000e+00 0.000000000000000e+00 1.040000000000000e+01 0.000000000000000e+00 0.000000000000000e+00 1.060000000000000e+01 0.000000000000000e+00 0.000000000000000e+00 1.080000000000000e+01 0.000000000000000e+00 0.000000000000000e+00 1.100000000000000e+01 0.000000000000000e+00 0.000000000000000e+00 1.120000000000000e+01 0.000000000000000e+00 0.000000000000000e+00 1.140000000000000e+01 0.000000000000000e+00 0.000000000000000e+00 1.160000000000000e+01 0.000000000000000e+00 0.000000000000000e+00 1.180000000000000e+01 0.000000000000000e+00 0.000000000000000e+00 1.200000000000000e+01 0.000000000000000e+00 0.000000000000000e+00 1.220000000000000e+01 0.000000000000000e+00 0.000000000000000e+00 1.240000000000000e+01 0.000000000000000e+00 0.000000000000000e+00 1.260000000000000e+01 0.000000000000000e+00 0.000000000000000e+00 1.280000000000000e+01 0.000000000000000e+00 0.000000000000000e+00 1.300000000000000e+01 0.000000000000000e+00 0.000000000000000e+00 1.320000000000000e+01 0.000000000000000e+00 0.000000000000000e+00 1.340000000000000e+01 0.000000000000000e+00 0.000000000000000e+00 1.360000000000000e+01 0.000000000000000e+00 0.000000000000000e+00 1.380000000000000e+01 0.000000000000000e+00 0.000000000000000e+00 1.400000000000000e+01 0.000000000000000e+00 0.000000000000000e+00 1.420000000000000e+01 0.000000000000000e+00 0.000000000000000e+00 1.440000000000000e+01 0.000000000000000e+00 0.000000000000000e+00 1.460000000000000e+01 0.000000000000000e+00 0.000000000000000e+00 1.480000000000000e+01 0.000000000000000e+00 0.000000000000000e+00 1.500000000000000e+01 0.000000000000000e+00 0.000000000000000e+00 1.520000000000000e+01 0.000000000000000e+00 0.000000000000000e+00 1.540000000000000e+01 0.000000000000000e+00 0.000000000000000e+00 1.560000000000000e+01 0.000000000000000e+00 0.000000000000000e+00 1.580000000000000e+01 0.000000000000000e+00 0.000000000000000e+00 2.000000000000000e-01 1.000000000000000e+00 0.000000000000000e+00 4.000000000000000e-01 1.000000000000000e+00 0.000000000000000e+00 6.000000000000000e-01 1.000000000000000e+00 0.000000000000000e+00 8.000000000000000e-01 1.000000000000000e+00 0.000000000000000e+00 1.000000000000000e+00 1.000000000000000e+00 0.000000000000000e+00 1.200000000000000e+00 1.000000000000000e+00 0.000000000000000e+00 1.400000000000000e+00 1.000000000000000e+00 0.000000000000000e+00 1.600000000000000e+00 1.000000000000000e+00 0.000000000000000e+00 1.800000000000000e+00 1.000000000000000e+00 0.000000000000000e+00 2.000000000000000e+00 1.000000000000000e+00 0.000000000000000e+00 2.200000000000000e+00 1.000000000000000e+00 0.000000000000000e+00 2.400000000000000e+00 1.000000000000000e+00 0.000000000000000e+00 2.600000000000000e+00 1.000000000000000e+00 0.000000000000000e+00 2.800000000000000e+00 1.000000000000000e+00 0.000000000000000e+00 3.000000000000000e+00 1.000000000000000e+00 0.000000000000000e+00 3.200000000000000e+00 1.000000000000000e+00 0.000000000000000e+00 3.400000000000000e+00 1.000000000000000e+00 0.000000000000000e+00 3.600000000000000e+00 1.000000000000000e+00 0.000000000000000e+00 3.800000000000000e+00 1.000000000000000e+00 0.000000000000000e+00 4.000000000000000e+00 1.000000000000000e+00 0.000000000000000e+00 4.200000000000000e+00 1.000000000000000e+00 0.000000000000000e+00 4.400000000000000e+00 1.000000000000000e+00 0.000000000000000e+00 4.600000000000000e+00 1.000000000000000e+00 0.000000000000000e+00 4.800000000000000e+00 1.000000000000000e+00 0.000000000000000e+00 5.000000000000000e+00 1.000000000000000e+00 0.000000000000000e+00 5.200000000000000e+00 1.000000000000000e+00 0.000000000000000e+00 5.400000000000000e+00 1.000000000000000e+00 0.000000000000000e+00 5.600000000000000e+00 1.000000000000000e+00 0.000000000000000e+00 5.800000000000000e+00 1.000000000000000e+00 0.000000000000000e+00 6.000000000000000e+00 1.000000000000000e+00 0.000000000000000e+00 6.200000000000000e+00 1.000000000000000e+00 0.000000000000000e+00 6.400000000000000e+00 1.000000000000000e+00 0.000000000000000e+00 6.600000000000000e+00 1.000000000000000e+00 0.000000000000000e+00 6.800000000000000e+00 1.000000000000000e+00 0.000000000000000e+00 7.000000000000000e+00 1.000000000000000e+00 0.000000000000000e+00 7.200000000000000e+00 1.000000000000000e+00 0.000000000000000e+00 7.400000000000000e+00 1.000000000000000e+00 0.000000000000000e+00 7.600000000000000e+00 1.000000000000000e+00 0.000000000000000e+00 7.800000000000000e+00 1.000000000000000e+00 0.000000000000000e+00 8.000000000000000e+00 1.000000000000000e+00 0.000000000000000e+00 8.199999999999999e+00 1.000000000000000e+00 0.000000000000000e+00 8.400000000000000e+00 1.000000000000000e+00 0.000000000000000e+00 8.600000000000000e+00 1.000000000000000e+00 0.000000000000000e+00 8.800000000000001e+00 1.000000000000000e+00 0.000000000000000e+00 9.000000000000000e+00 1.000000000000000e+00 0.000000000000000e+00 9.199999999999999e+00 1.000000000000000e+00 0.000000000000000e+00 9.400000000000000e+00 1.000000000000000e+00 0.000000000000000e+00 9.600000000000000e+00 1.000000000000000e+00 0.000000000000000e+00 9.800000000000001e+00 1.000000000000000e+00 0.000000000000000e+00 1.000000000000000e+01 1.000000000000000e+00 0.000000000000000e+00 1.020000000000000e+01 1.000000000000000e+00 0.000000000000000e+00 1.040000000000000e+01 1.000000000000000e+00 0.000000000000000e+00 1.060000000000000e+01 1.000000000000000e+00 0.000000000000000e+00 1.080000000000000e+01 1.000000000000000e+00 0.000000000000000e+00 1.100000000000000e+01 1.000000000000000e+00 0.000000000000000e+00 1.120000000000000e+01 1.000000000000000e+00 0.000000000000000e+00 1.140000000000000e+01 1.000000000000000e+00 0.00000000000000
[...]
<PointData Scalars="pressure_p1," Vectors="" Tensors="">
<DataArray type="Float64" Name="pressure_p1" format="ascii">
-1.487796978842313e-01 -1.000928496341821e-01 -2.694671192472995e+01 -2.694240173283303e+01 -1.324285907680242e-01 -1.323840152087018e-01 -1.323450908656034e-01 -1.322874334061491e-01 -2.694436950625035e+01 -2.694414731119108e+01 -2.694392512243914e+01 -2.694370293488042e+01 -4.245115054451216e-01 -7.846813351856392e-01 -1.144806095444952e+00 -1.504907114963147e+00 -1.864995395479379e+00 -2.225076785254557e+00 -2.585154434508264e+00 -2.945230050219401e+00 -3.305304559991095e+00 -3.665378468410502e+00 -4.025452049826748e+00 -4.385525453285558e+00 -4.745598759790606e+00 -5.105672013445600e+00 -5.465745238298598e+00 -5.825818447443453e+00 -6.185891647965167e+00 -6.545964843645788e+00 -6.906038036444065e+00 -7.266111227291083e+00 -7.626184416498887e+00 -7.986257603945741e+00 -8.346330789124810e+00 -8.706403971096112e+00 -9.066477148351728e+00 -9.426550318582382e+00 -9.786623478314963e+00 -1.014669662236966e+01 -1.050676974305939e+01 -1.086684282901890e+01 -1.122691586350078e+01 -1.158698882190712e+01 -1.194706166822756e+01 -1.230713434992020e+01 -1.266720679058389e+01 -1.302727887951201e+01 -1.338735045686334e+01 -1.374742129270269e+01 -1.410749105750916e+01 -1.446755928087049e+01 -1.482762529390563e+01 -1.518768814939942e+01 -1.554774651158281e+01 -1.590779850481783e+01 -1.626784150698676e+01 -1.662787186895493e+01 -1.698788453585616e+01 -1.734787253889795e+01 -1.770782631763793e+01 -1.806773282197058e+01 -1.842757433012353e+01 -1.878732690356811e+01 -1.914695838174278e+01 -1.950642579883248e+01 -1.986567208167460e+01 -2.022462186254818e+01 -2.058317621383656e+01 -2.094120608440965e+01 -2.129854419159032e+01 -2.165497509978780e+01 -2.201022319986699e+01 -2.236393829511695e+01 -2.271567850370009e+01 -2.306489020731135e+01 -2.341088481500897e+01 -2.375281217301882e+01 -2.408963053828606e+01 -2.442007314690720e+01 -2.474261154738962e+01 -2.505541602869101e+01 -2.535631364620813e+01 -2.564274452547386e+01 -2.591171729561125e+01 -2.615976466827398e+01 -2.638290032302400e+01 -2.657657835752293e+01 -2.673565657012152e+01 -2.685436475720569e+01 -2.692627908453481e+01 -2.956854829477349e-01 -6.556382064835297e-01 -1.015647447606979e+00 -1.375686206558771e+00 -1.735740745588795e+00 -2.095803806893690e+00 -2.455871490684312e+00 -2.815941686173681e+00 -3.176013247445097e+00 -3.536085551664848e+00 -3.896158260125874e+00 -4.256231188555001e+00 -4.616304236659345e+00 -4.976377349841772e+00 -5.336450498380144e+00 -5.696523666088631e+00 -6.056596844135510e+00 -6.416670027669997e+00 -6.776743213979098e+00 -7.136816401474076e+00 -7.496889589121049e+00 -7.856962776102821e+00 -8.217035961591641e+00 -8.577109144561314e+00 -8.937182323589985e+00 -9.297255496613158e+00 -9.657328660583449e+00 -1.001740181098362e+01 -1.037747494112000e+01 -1.073754804109431e+01 -1.109762109630958e+01 -1.145769408530448e+01 -1.181776697662533e+01 -1.217783972432481e+01 -1.253791226150952e+01 -1.289798449112848e+01 -1.325805627287682e+01 -1.361812740465674e+01 -1.397819759644946e+01 -1.433826643365986e+01 -1.469833332593402e+01 -1.505839743603864e+01 -1.541845758153074e+01 -1.577851209951019e+01 -1.613855866158858e+01 -1.649859402214648e+01 -1.685861367778132e+01 -1.721861140933623e+01 -1.757857866978821e+01 -1.793850377129373e+01 -1.829837081257274e+01 -1.865815827331504e+01 -1.901783718523154e+01 -1.937736876965879e+01 -1.973670140932560e+01 -2.009576679728242e+01 -2.045447507964512e+01 -2.081270878163717e+01 -2.117031527979095e+01 -2.152709755894816e+01 -2.188280297327922e+01 -2.223710971884580e+01 -2.258961072461418e+01 -2.293979468285631e+01 -2.328702397200861e+01 -2.363050927830442e+01 -2.396928079929857e+01 -2.430215601483646e+01 -2.462770414075007e+01 -2.494420753699617e+01 -2.524962051767105e+01 -2.554152618843667e+01 -2.581709210072373e+01 -2.607302566409197e+01 -2.630553041408566e+01 -2.651026437380137e+01 -2.668230180900279e+01 -2.681609961359261e+01 -2.690546943539451e+01 -3.602163758832093e-01 -7.203769660060608e-01 -1.080497895708408e+00 -1.440597267196694e+00 -1.800684913957493e+00 -2.160766182549258e+00 -2.520843980674880e+00 -2.880919890111548e+00 -3.240994771815180e+00 -3.601069094534972e+00 -3.961143113310763e+00 -4.321216966736397e+00 -4.681290730102021e+00 -5.041364444365009e+00 -5.401438131847956e+00 -5.761511804713124e+00 -6.121585469551767e+00 -6.481659129887727e+00 -6.841732787546575e+00 -7.201806443394509e+00 -7.561880097719910e+00 -7.921953750407078e+00 -8.282027400982019e+00 -8.642101048567378e+00 -9.002174691755968e+00 -9.362248328392177e+00 -9.722321955232440e+00 -1.008239556743690e+01 -1.044246915781939e+01 -1.080254271574979e+01 -1.116261622555593e+01 -1.152268966420696e+01 -1.188276299796843e+01 -1.224283617759195e+01 -1.260290913142462e+01 -1.296298175557956e+01 -1.332305389997225e+01 -1.368312534856994e+01 -1.404319579157999e+01 -1.440326478646691e+01 -1.476333170356895e+01 -1.512339565060070e+01 -1.548345536837201e+01 -1.584350908749869e+01 -1.620355433257111e+01 -1.656358765600051e+01 -1.692360427836812e+01 -1.728359760531985e+01 -1.764355858262049e+01 -1.800347484063499e+01 -1.836332956697566e+01 -1.872310003110843e+01 -1.908275566717686e+01 -1.944225560111717e+01 -1.980154548540075e+01 -2.016055347977852e+01 -2.051918518984352e+01 -2.087731734807603e+01 -2.123478999574004e+01 -2.159139690051441e+01 -2.194687392654020e+01 -2.230088506361851e+01 -2.265300582395953e+01 -2.300270373173140e+01 -2.334931566622718e+01 -2.369202187700214e+01 -2.402981657151103e+01 -2.436147508429233e+01 -2.468551777147151e+01 -2.500017093185633e+01 -2.530332522816592e+01 -2.559249225763488e+01 -2.586476009125628e+01 -2.611674876350771e+01 -2.634456684713591e+01 -2.654377036456733e+01 -2.670932531762114e+01 -2.683557503748216e+01 -2.691621345388804e+01 -3.601110104033409e-01 -7.202165782678726e-01 -1.080308920252240e+00 -1.440393044405720e+00 -1.800472464907570e+00 -2.160549273420991e+00 -2.520624648469736e+00 -2.880699240428394e+00 -3.240773405530450e+00 -3.600847338360246e+00 -3.960921144943526e+00 -4.320994882877685e+00 -4.681068583402612e+00 -5.041142263489660e+00 -5.401215932388695e+00 -5.761289595140624e+00 -6.121363254465002e+00 -6.481436911785457e+00 -6.841510567789270e+00 -7.201584222724726e+00 -7.561657876543534e+00 -7.921731528945807e+00 -8.281805179356541e+00 -8.641878826843021e+00 -9.001952469967867e+00 -9.362026106559119e+00 -9.722099733364454e+00 -1.008217334553933e+01 -1.044224693589513e+01 -1.080232049380042e+01 -1.116239400358237e+01 -1.152246744220976e+01 -1.188254077594798e+01 -1.224261395554852e+01 -1.260268690935848e+01 -1.296275953349100e+01 -1.332283167786162e+01 -1.368290312643768e+01 -1.404297356942673e+01 -1.440304256429353e+01 -1.476310948137677e+01 -1.512317342839165e+01 -1.548323314614901e+01 -1.584328686526620e+01 -1.620333211033583e+01 -1.656336543377235e+01 -1.692338205616142e+01 -1.728337538315467e+01 -1.764333636052365e+01 -1.800325261864042e+01 -1.836310734512317e+01 -1.872287780943998e+01 -1.908253344572972e+01 -1.944203337991442e+01 -1.980132326444130e+01 -2.016033125903170e+01 -2.051896296925514e+01 -2.087709512759130e+01 -2.123456777534040e+01 -2.159117468024766e+01 -2.194665170650445e+01 -2.230066284385862e+01 -2.265278360428286e+01 -2.300248151156368e+01 -2.334909344475797e+01 -2.369179965384839e+01 -2.402959434773726e+01 -2.436125286288288e+01 -2.468529555589426e+01 -2.499994872237266e+01 -2.530310301840976e+01 -2.559227003628663e+01 -2.586453785089705e+01 -2.611652651057055e+01 -2.634434460187071e+01 -2.654354814655158e+01 -2.670910312958378e+01 -2.683535286065401e+01 -2.691599126625559e+01 -3.600217105001287e-01 -7.200694161940611e-01 -1.080128162583763e+00 -1.440193525970261e+00 -1.800262628917684e+00 -2.160333798487641e+00 -2.520406099637908e+00 -2.880479017870879e+00 -3.240552272108921e+00 -3.600625709313097e+00 -3.960699246196652e+00 -4.320772837362829e+00 -4.680846458033891e+00 -5.040920094696468e+00 -5.400993739996615e+00 -5.761067389930062e+00 -6.121141042293555e+00 -6.481214695835860e+00 -6.841288349792594e+00 -7.201362003624026e+00 -7.561435656853220e+00 -7.921509308946482e+00 -8.281582959200962e+00 -8.641656606614022e+00 -9.001730249710135e+00 -9.361803886296636e+00 -9.721877513110050e+00 -1.008195112529987e+01 -1.044202471567429e+01 -1.080209827360023e+01 -1.116217178340393e+01 -1.152224522205371e+01 -1.188231855581468e+01 -1.224239173543823e+01 -1.260246468927138e+01 -1.296253731342724e+01 -1.332260945782136e+01 -1.368268090642111e+01 -1.404275134943414e+01 -1.440282034432535e+01 -1.476288726143364e+01 -1.512295120847462e+01 -1.548301092625968e+01 -1.584306464540707e+01 -1.620310989051066e+01 -1.656314321398675e+01 -1.692315983642331e+01 -1.728315316347472e+01 -1.764311414091537e+01 -1.800303039911923e+01 -1.836288512570404e+01 -1.872265559013276e+01 -1.908231122653178e+01 -1.944181116080117e+01 -1.980110104535687e+01 -2.016010903988498e+01 -2.051874074992830e+01 -2.087687290796778e+01 -2.123434555535217e+01 -2.159095245992505e+01 -2.194642948598853e+01 -2.230044062332297e+01 -2.265256138373864e+01 -2.300225929062132e+01 -2.334887122256976e+01 -2.369157742953018e+01 -2.402937212133527e+01 -2.436103063630478e+01 -2.468507333257826e+01 -2.499972650485276e+01 -2.530288080496248e+01 -2.559204781995647e+01 -2.586431562320206e+01 -2.611630426780000e+01 -2.634412234917886e+01 -2.654332589642952e+01 -2.670888089566725e+01 -2.683513065183775e+01 -2.691576907449488e+01 -3.599170383262711e-01 -7.199112131684289e-01 -1.079940787673214e+00 -1.439990268107819e+00 -1.800050726624622e+00 -2.160117192069837e+00 -2.520186933527102e+00 -2.880258459063693e+00 -3.240330955626436e+00 -3.600403980636258e+00 -3.960477293257143e+00 -4.320550762402918e+00 -4.680624316697636e+00 -5.040697917275465e+00 -5.400771542977722e+00 -5.760845182280317e+00 -6.120918828886214e+00 -6.480992479318732e+00 -6.841066131605307e+00 -7.201139784550437e+00 -7.561213437320739e+00 -7.921287089188241e+00 -8.281360739343940e+00 -8.641434386727125e+00 -9.001508029830553e+00 -9.361581666444335e+00 -9.721655293295697e+00 -1.008172890552917e+01 -1.044180249595031e+01 -1.080187605392459e+01 -1.116194956377754e+01 -1.152202300247706e+01 -1.188209633628808e+01 -1.224216951596183e+01 -1.260224246984527e+01 -1.296231509405148e+01 -1.332238723849597e+01 -1.368245868714615e+01 -1.404252913020966e+01 -1.440259812515147e+01 -1.476266504231055e+01 -1.512272898940271e+01 -1.548278870723962e+01 -1.584284242643993e+01 -1.620288767159809e+01 -1.656292099513119e+01 -1.692293761762810e+01 -1.728293094474411e+01 -1.764289192225403e+01 -1.800280818053103e+01 -1.836266290718956e+01 -1.872243337168505e+01 -1.908208900813002e+01 -1.944158894240278e+01 -1.980087882688997e+01 -2.015988682124535e+01 -2.051851853098714e+01 -2.087665068859736e+01 -2.123412333547148e+01 -2.159073023955495e+01 -2.194620726528393e+01 -2.230021840252972e+01 -2.265233916302946e+01 -2.300203706983299e+01 -2.334864900100149e+01 -2.369135520609140e+01 -2.402914989525911e+01 -2.436080840819615e+01 -2.468485110492010e+01 -2.499950428098580e+01 -2.530265858660911e+01 -2.559182560487801e+01 -2.586409340497189e+01 -2.611608203868606e+01 -2.634390010575241e+01 -2.654310364521983e+01 -2.670865865259470e+01 -2.683490843301806e+01 -2.691554687883474e+01 
</DataArray>
</PointData>
<CellData Scalars="pressure_p0," Vectors="velocity_p0," Tensors="">
<DataArray type="Float64" Name="pressure_p0" format="ascii">