<?xml version="1.0"?>
<VTKFile type="UnstructuredGrid" version="0.1" byte_order="LittleEndian">
<UnstructuredGrid>
<Piece NumberOfPoints="714" NumberOfCells="1306">
<Points>
<DataArray type="Float64" NumberOfComponents="3" format="ascii">
0.000000000000000e+00 0.000000000000000e+00 0.000000000000000e+00 5.000000000000000e+00 0.000000000000000e+00 0.000000000000000e+00 5.000000000000000e+00 1.000000000000000e+00 0.000000000000000e+00 0.000000000000000e+00 1.000000000000000e+00 0.000000000000000e+00 9.999999999992801e-02 0.000000000000000e+00 0.000000000000000e+00 1.999999999998339e-01 0.000000000000000e+00 0.000000000000000e+00 2.999999999997341e-01 0.000000000000000e+00 0.000000000000000e+00 3.999999999996643e-01 0.000000000000000e+00 0.000000000000000e+00 4.999999999995944e-01 0.000000000000000e+00 0.000000000000000e+00 5.999999999995166e-01 0.000000000000000e+00 0.000000000000000e+00 6.999999999992880e-01 0.000000000000000e+00 0.000000000000000e+00 7.999999999989961e-01 0.000000000000000e+00 0.000000000000000e+00 8.999999999987042e-01 0.000000000000000e+00 0.000000000000000e+00 9.999999999984124e-01 0.000000000000000e+00 0.000000000000000e+00 1.099999999998120e+00 0.000000000000000e+00 0.000000000000000e+00 1.199999999997829e+00 0.000000000000000e+00 0.000000000000000e+00 1.299999999997537e+00 0.000000000000000e+00 0.000000000000000e+00 1.399999999997245e+00 0.000000000000000e+00 0.000000000000000e+00 1.499999999996953e+00 0.000000000000000e+00 0.000000000000000e+00 1.599999999996661e+00 0.000000000000000e+00 0.000000000000000e+00 1.699999999996369e+00 0.000000000000000e+00 0.000000000000000e+00 1.799999999996077e+00 0.000000000000000e+00 0.000000000000000e+00 1.899999999995785e+00 0.000000000000000e+00 0.000000000000000e+00 1.999999999995511e+00 0.000000000000000e+00 0.000000000000000e+00 2.099999999995593e+00 0.000000000000000e+00 0.000000000000000e+00 2.199999999995745e+00 0.000000000000000e+00 0.000000000000000e+00 2.299999999995897e+00 0.000000000000000e+00 0.000000000000000e+00 2.399999999996049e+00 0.000000000000000e+00 0.000000000000000e+00 2.499999999996201e+00 0.000000000000000e+00 0.000000000000000e+00 2.599999999996353e+00 0.000000000000000e+00 0.000000000000000e+00 2.699999999996505e+00 0.000000000000000e+00 0.000000000000000e+00 2.799999999996657e+00 0.000000000000000e+00 0.000000000000000e+00 2.899999999996809e+00 0.000000000000000e+00 0.000000000000000e+00 2.999999999996961e+00 0.000000000000000e+00 0.000000000000000e+00 3.099999999997114e+00 0.000000000000000e+00 0.000000000000000e+00 3.199999999997265e+00 0.000000000000000e+00 0.000000000000000e+00 3.299999999997417e+00 0.000000000000000e+00 0.000000000000000e+00 3.399999999997569e+00 0.000000000000000e+00 0.000000000000000e+00 3.499999999997721e+00 0.000000000000000e+00 0.000000000000000e+00 3.599999999997873e+00 0.000000000000000e+00 0.000000000000000e+00 3.699999999998025e+00 0.000000000000000e+00 0.000000000000000e+00 3.799999999998176e+00 0.000000000000000e+00 0.000000000000000e+00 3.899999999998329e+00 0.000000000000000e+00 0.000000000000000e+00 3.999999999998481e+00 0.000000000000000e+00 0.000000000000000e+00 4.099999999998633e+00 0.000000000000000e+00 0.000000000000000e+00 4.199999999998784e+00 0.000000000000000e+00 0.000000000000000e+00 4.299999999998937e+00 0.000000000000000e+00 0.000000000000000e+00 4.399999999999088e+00 0.000000000000000e+00 0.000000000000000e+00 4.499999999999240e+00 0.000000000000000e+00 0.000000000000000e+00 4.599999999999393e+00 0.000000000000000e+00 0.000000000000000e+00 4.699999999999545e+00 0.000000000000000e+00 0.000000000000000e+00 4.799999999999696e+00 0.000000000000000e+00 0.000000000000000e+00 4.899999999999848e+00 0.000000000000000e+00 0.000000000000000e+00 5.000000000000000e+00 9.999999999981467e-02 0.000000000000000e+00 5.000000000000000e+00 1.999999999995579e-01 0.000000000000000e+00 5.000000000000000e+00 2.999999999992664e-01 0.000000000000000e+00 5.000000000000000e+00 3.999999999989749e-01 0.000000000000000e+00 5.000000000000000e+00 4.999999999986943e-01 0.000000000000000e+00 5.000000000000000e+00 5.999999999989468e-01 0.000000000000000e+00 5.000000000000000e+00 6.999999999992100e-01 0.000000000000000e+00 5.000000000000000e+00 7.999999999994734e-01 0.000000000000000e+00 5.000000000000000e+00 8.999999999997368e-01 0.000000000000000e+00 4.899999999999999e+00 1.000000000000000e+00 0.000000000000000e+00 4.800000000000000e+00 1.000000000000000e+00 0.000000000000000e+00 4.699999999999999e+00 1.000000000000000e+00 0.000000000000000e+00 4.600000000000000e+00 1.000000000000000e+00 0.000000000000000e+00 4.499999999999999e+00 1.000000000000000e+00 0.000000000000000e+00 4.399999999999999e+00 1.000000000000000e+00 0.000000000000000e+00 4.299999999999999e+00 1.000000000000000e+00 0.000000000000000e+00 4.199999999999998e+00 1.000000000000000e+00 0.000000000000000e+00 4.099999999999999e+00 1.000000000000000e+00 0.000000000000000e+00 3.999999999999999e+00 1.000000000000000e+00 0.000000000000000e+00 3.899999999999999e+00 1.000000000000000e+00 0.000000000000000e+00 3.799999999999999e+00 1.000000000000000e+00 0.000000000000000e+00 3.699999999999998e+00 1.000000000000000e+00 0.000000000000000e+00 3.599999999999999e+00 1.000000000000000e+00 0.000000000000000e+00 3.499999999999999e+00 1.000000000000000e+00 0.000000000000000e+00 3.399999999999999e+00 1.000000000000000e+00 0.000000000000000e+00 3.299999999999999e+00 1.000000000000000e+00 0.000000000000000e+00 3.199999999999998e+00 1.000000000000000e+00 0.000000000000000e+00 3.099999999999999e+00 1.000000000000000e+00 0.000000000000000e+00 2.999999999999999e+00 1.000000000000000e+00 0.000000000000000e+00 2.899999999999999e+00 1.000000000000000e+00 0.000000000000000e+00 2.799999999999999e+00 1.000000000000000e+00 0.000000000000000e+00 2.699999999999999e+00 1.000000000000000e+00 0.000000000000000e+00 2.599999999999999e+00 1.000000000000000e+00 0.000000000000000e+00 2.500000000000000e+00 1.000000000000000e+00 0.000000000000000e+00 2.399999999999999e+00 1.000000000000000e+00 0.000000000000000e+00 2.299999999999999e+00 1.000000000000000e+00 0.000000000000000e+00 2.199999999999999e+00 1.000000000000000e+00 0.000000000000000e+00 2.100000000000000e+00 1.000000000000000e+00 0.000000000000000e+00 2.000000000000000e+00 1.000000000000000e+00 0.000000000000000e+00 1.899999999999999e+00 1.000000000000000e+00 0.000000000000000e+00 1.799999999999999e+00 1.000000000000000e+00 0.000000000000000e+00 1.699999999999999e+00 1.000000000000000e+00 0.000000000000000e+00 1.599999999999999e+00 1.000000000000000e+00 0.000000000000000e+00 1.500000000000000e+00 1.000000000000000e+00 0.000000000000000e+00 1.399999999999999e+00 1.000000000000000e+00 0.000000000000000e+00 1.299999999999999e+00 1.000000000000000e+00 0.000000000000000e+00 1.199999999999999e+00 1.000000000000000e+00 0.000000000000000e+00 1.100000000000000e+00 1.000000000000000e+00 0.000000000000000e+00 9.999999999999991e-01 1.000000000000000e+00 0.000000000000000e+00 8.999999999999995e-01 1.000000000000000e+00 0.000000000000000e+00 7.999999999999998e-01 1.000000000000000e+00 0.000000000000000e+00 7.000000000000002e-01 1.000000000000000e+00 0.000000000000000e+00 5.999999999999996e-01 1.000000000000000e+00 0.000000000000000e+00 4.999999999999991e-01 1.000000000000000e+00 0.000000000000000e+00 3.999999999999995e-01 1.000000000000000e+00 0.000000000000000e+00 3.000000000000007e-01 1.000000000000000e+00 0.000000000000000e+00 1.999999999999993e-01 1.000000000000000e+00 0.000000000000000e+00 9.999999999999964e-02 1.000000000000000e+00 0.000000000000000e+00 0.000000000000000e+00 8.999999999995836e-01 0.000000000000000e+00 0.000000000000000e+00 7.999999999999998e-01 0.000000000000000e+00 0.000000000000000e+00 7.000000000006934e-01 0.000000000000000e+00 0.000000000000000e+00 6.000000000013869e-01 0.000000000000000e+00 0.000000000000000e+00 5.000000000020587e-01 0.000000000000000e+00 0.000000000000000e+00 4.000000000016644e-01 0.000000000000000e+00 0.000000000000000e+00 3.000000000012483e-01 0.000000000000000e+00 0.000000000000000e+00 2.000000000008322e-01 0.000000000000000e+00 0.000000000000000e+00 1.000000000004160e-01 0.000000000000000e+00 7.477570327540725e-01 4.905967956478702e-01 0.000000000000000e+00 1.346210646643281e+00 4.806066422083806e-01 0.000000000000000e+00 1.949496869330408e+00 5.032480558805372e-01 0.000000000000000e+00 4.449999999999997e+00 5.000000000000384e-01 0.000000000000000e+00 3.859142349610828e+00 5.103468031113156e-01 0.000000000000000e+00 3.246530027037640e+00 5.183101712757180e-01 0.000000000000000e+00 2.657531292711257e+00 5.037429884868682e-01 0.000000000000000e+00 3.824015840967434e-01 6.064457502813875e-01 0.000000000000000e+00 2.306343155343502e+00 6.315316747431162e-01 0.000000000000000e+00 1.049999999998266e+00 3.374999999994497e-01 0.000000000000000e+00 1.641930697057102e+00 3.436055112169133e-01 0.000000000000000e+00 4.150000000000006e+00 6.625000000000185e-01 0.000000000000000e+00 3.552784161359181e+00 6.642488388863971e-01 0.000000000000000e+00 2.940292465243163e+00 6.575992780735344e-01 0.000000000000000e+00 1.641237689750194e+00 6.703960699373966e-01 0.000000000000000e+00 1.050000000000000e+00 6.706367924525535e-01 0.000000000000000e+00 2.960517759676693e+00 3.261740577967960e-01 0.000000000000000e+00 3.551899302943298e+00 3.210887133285832e-01 0.000000000000000e+00 4.150779393876139e+00 3.209867287821391e-01 0.000000000000000e+00 2.213980362532827e+00 3.194901812685164e-01 0.000000000000000e+00 4.927283029162088e-01 3.252862896001115e-01 0.000000000000000e+00 4.696684455724628e+00 3.145438084075651e-01 0.000000000000000e+00 4.690990908683984e+00 6.962960281446974e-01 0.000000000000000e+00 2.487221901830106e+00 2.763334294511438e-01 0.000000000000000e+00 6.215262983536076e-01 7.328515730233995e-01 0.000000000000000e+00 2.065768881873406e+00 7.342557316219342e-01 0.000000000000000e+00 2.543072460766750e+00 7.257064952909391e-01 0.000000000000000e+00 8.105176211436336e-01 2.535517621144286e-01 0.0000000000000
[...]
<CellData Scalars="A_conc,As-lin_conc,Bs-lang_conc,Cs-freund_conc," Vectors="" Tensors="">
<DataArray type="Float64" Name="A_conc" format="ascii">
1.859157079182527e-07 8.831690464073254e-02 7.681587367919541e-30 2.928989750952686e-07 3.531774652348992e-02 1.209918526963333e-12 6.158986112234247e-12 2.037993827805288e-03 7.455394819743569e-02 3.175790733850971e-07 4.069733379726135e-28 2.062020708585250e-08 8.372428490584780e-09 1.396194557711426e-26 3.769008796312687e-07 2.017634048331085e-07 6.151783583391256e-07 6.762070439384360e-07 3.882488874253970e-15 4.484977810817718e-07 5.204820876828375e-11 7.502899448354456e-09 1.662929225336397e-08 2.086386692782804e-08 1.188145229731244e-07 1.082917689888799e-08 1.112846892064528e-07 2.184063784566666e-02 1.933422218263920e-07 3.415089007589166e-07 2.951772974614890e-09 2.231302654105943e-07 6.817109433998093e-10 0.000000000000000e+00 2.417957289167334e-14 5.994344266962209e-02 6.812494821397136e-09 7.113620988468927e-11 1.032941086053431e-08 4.064069607132766e-02 1.398049270291514e-24 2.203659361748573e-08 0.000000000000000e+00 9.404852331423864e-15 6.837084843137613e-12 5.360453097497048e-13 7.935340213359538e-07 1.310055638656022e-06 8.986375853930282e-16 8.499462902033155e-14 7.322369001427512e-02 5.616591886600106e-08 3.787818025728851e-08 5.220549796270404e-02 6.929713965050290e-02 9.940207115123795e-02 1.446850041303651e-10 1.316308220565222e-03 1.547085962789499e-02 4.114494465137402e-07 1.765322923220835e-20 1.607108358216158e-03 3.066242690872191e-09 1.160650350058909e-12 1.840523299658639e-12 1.771630486372643e-11 4.878906513615049e-07 9.871611247738019e-11 8.309292013559674e-02 1.110732089289842e-02 5.437632836654265e-12 0.000000000000000e+00 8.475380821061597e-09 7.411084201741578e-07 4.133811948604426e-06 7.993554862554953e-15 2.548242556358485e-08 4.125419850263994e-13 3.319249527645189e-05 4.608965606581826e-13 1.304816900485023e-07 1.546972703389062e-14 1.304908661150773e-09 3.614045914301117e-23 3.543758275018546e-08 3.157893267198278e-08 5.848883504956820e-14 1.258225313904795e-05 5.473879625959648e-08 7.523330496508349e-11 1.590610883053957e-17 7.528431992743168e-08 5.877520598895998e-03 1.051411793222096e-08 1.057220576024117e-13 4.140831411613952e-07 9.360738978100941e-09 2.444613531347088e-03 1.076297208368412e-31 1.578930378370982e-02 3.335541209298665e-14 6.080895228462846e-08 6.974005298648707e-08 1.022429354120086e-08 1.814474467896637e-08 8.612094815499641e-06 3.970211923853836e-07 2.465638514501933e-02 1.402524131375699e-08 2.254913620423540e-05 9.369472041630251e-13 3.721535110922446e-08 3.044850204180505e-08 1.326158610927548e-09 1.434190968923212e-07 3.350064945564687e-03 3.832650021465600e-07 1.143043633745353e-10 1.085731995276211e-12 2.158383592083601e-02 2.125593591282527e-12 4.594476275078622e-08 4.652861867082023e-13 7.203274187427023e-08 1.745407046589401e-02 4.515491298463184e-11 3.721075641175928e-28 1.884186907646489e-08 5.249665235702743e-03 1.971201472794542e-04 1.623452064713616e-14 7.679896540323638e-11 2.831095986327470e-05 4.159641855907277e-04 1.491609238332961e-10 1.160784104035973e-12 4.321514575028349e-07 9.465208984098300e-02 7.356350788047099e-07 5.395638564498488e-11 3.015767251404451e-10 1.598511943111476e-02 1.552318847138978e-07 6.854528435594756e-13 8.315643669297767e-20 6.972567917318817e-21 3.680867743202395e-06 7.932427236779485e-10 4.730481841941250e-13 1.048871975321527e-05 6.382548633487422e-10 1.050599555080581e-13 1.099735782357445e-10 1.525191225898349e-07 8.369602460645951e-13 5.508277814859176e-21 1.794346356696949e-09 5.705362154299111e-03 8.528942940675091e-09 3.199996964885034e-21 7.807761716196114e-07 1.379388208003736e-04 4.025547265900890e-13 2.834588292381616e-33 1.390246582002403e-13 7.205867182035586e-08 5.237137174127502e-08 1.067976039318638e-11 5.940294813249570e-12 3.346169320621960e-21 1.056488370510585e-07 5.573273585213501e-09 2.827901076670093e-20 1.170129911428660e-21 1.982284885576794e-11 1.335105822676929e-09 1.193774673429396e-03 5.797329264458778e-33 2.686554914787437e-12 3.033709971082305e-12 5.916924786660877e-09 2.180169942800190e-03 4.577467502719234e-02 2.963977662465204e-11 2.002896482395221e-12 3.791659024504124e-09 2.953343954234018e-08 4.056861833797077e-11 8.761648915460369e-31 3.983739692264813e-11 1.016253079630543e-08 8.327865544087812e-09 5.742879351445680e-07 1.587861218040243e-07 5.839372127518372e-08 8.189395588084597e-11 1.513970037302732e-07 7.177136259413919e-08 0.000000000000000e+00 0.000000000000000e+00 4.521534880170914e-08 2.828125634863768e-13 1.162654973256494e-01 1.585049236613895e-10 7.572888739666749e-10 8.891905880704784e-04 4.203376071253477e-13 1.304128456233184e-09 5.163384848018284e-07 5.717548192549896e-02 2.813456010649519e-11 3.733811311432971e-32 3.213824801209182e-11 1.958051645867096e-07 5.926022685995591e-07 3.418516988819720e-12 6.177516449364585e-08 7.115400360467220e-13 2.347630775416292e-07 2.844245832859056e-15 4.132065186009035e-16 2.937763363180271e-02 5.538696073531009e-11 3.636238352722181e-10 1.666409293108035e-09 1.076301956073245e-01 9.465626282624056e-08 1.964103853105632e-08 7.326361575405361e-25 2.016092082127119e-10 3.141071920591874e-10 4.811566933823536e-08 1.011048023518620e-07 3.968638207496912e-08 8.026076858830241e-10 2.241638779883626e-07 2.472469102819493e-06 1.278989493204481e-11 6.749541537371119e-08 1.769021090143955e-23 4.676273569072941e-06 2.662609381939130e-09 6.386153542103608e-13 7.773198236191989e-14 9.779866468391047e-19 1.757915702637444e-08 3.263427742927235e-03 2.365283413607546e-22 8.192243423915326e-07 8.700870837491009e-24 6.115556674887680e-13 3.723389691909080e-12 2.356461271515743e-19 1.403967666864379e-08 2.937847427150515e-03 3.159161148651333e-03 2.063420501484007e-07 0.000000000000000e+00 6.350962199981906e-07 4.208200537088915e-25 4.786741901761983e-11 9.434350368381431e-10 2.052152280406728e-07 6.357330157055188e-08 1.738629425110725e-09 6.874196277415168e-07 1.082894298870106e-07 1.916695982423817e-07 7.770918243169546e-10 1.109289005349700e-23 9.129284817009418e-14 1.129251401930469e-10 1.339485113516801e-05 1.111039255384473e-13 3.523540381198954e-08 5.637410096005299e-07 7.432556555099457e-08 3.001195613917254e-07 1.061904174738548e-08 1.316488905032671e-08 9.765147457969186e-12 8.064835578847933e-05 2.053577723848665e-12 6.496617759062571e-07 2.331761371785099e-02 2.992638780942103e-09 9.395460708715999e-09 7.143334710182032e-10 8.805093938124799e-11 1.644977439697721e-07 3.282735549601798e-10 3.816377600672496e-14 1.408493329131041e-10 1.822485950246738e-10 5.638357580905714e-16 6.298276919658320e-13 3.601069060058258e-10 4.397021057296410e-07 1.422105698099436e-23 6.380083380632188e-12 3.946878726161214e-18 2.167135776228613e-11 7.218191528586140e-08 5.238284509292556e-03 1.747715077639152e-08 4.165319739120257e-07 3.918835525788405e-07 1.809224189241036e-02 1.465968299748975e-07 1.175183172436542e-17 4.598849278546264e-07 1.137249519927522e-16 2.072898272695546e-22 6.131503750901194e-11 2.003002921509129e-21 4.335439294891813e-08 1.153273813920790e-13 1.416372374657755e-13 7.477369265096873e-02 1.249623487532663e-03 7.151835088117131e-04 3.509831005178178e-10 5.062775792242359e-10 3.092361880066199e-08 6.308164749721640e-12 1.005277776051057e-08 2.252515473322929e-09 1.213998331773434e-08 1.829267457125535e-18 3.062454881610721e-07 9.579466836244591e-02 9.149402349466963e-02 9.232317207599933e-02 9.533346806063278e-02 1.314090641676084e-02 5.136368142169090e-07 1.672080484599469e-07 1.294133716544353e-11 2.848465478887870e-10 3.772710379989401e-11 4.339466853180248e-13 9.595160323047563e-08 3.428402808863820e-29 4.893697056210211e-02 1.928224782470799e-26 2.620994248159371e-07 1.503530642851348e-10 4.190248674925232e-25 3.815998781582686e-08 8.685952317400665e-10 1.104592507304766e-01 6.427953329068972e-31 9.656451356933300e-09 1.384607106379340e-14 8.811331661076382e-07 2.387112944273709e-03 7.753226334722942e-12 2.288653886784097e-11 1.861247580629320e-07 9.070670290644694e-11 6.296523622250658e-07 3.411200216570061e-13 7.049159107426868e-07 3.124591798187113e-04 2.556819547353633e-07 4.261382790297913e-04 4.499408550706953e-10 4.164587806683944e-08 4.494561274983084e-10 8.097835840681075e-02 1.168667107520670e-01 1.168667150102118e-01 3.222008475405858e-02 3.142023347340504e-02 3.882187783646219e-19 2.686449842131937e-11 4.542919967747730e-03 1.564945598513578e-11 1.030207181732929e-03 4.232659925881820e-12 7.980700318483855e-02 6.280433932761582e-07 1.063480169738196e-07 5.581824737473858e-07 1.240984878636264e-16 7.125978914515821e-11 2.852066184327619e-11 0.000000000000000e+00 6.849027123182552e-14 2.976554272844359e-02 7.806788997808849e-02 2.442367820913144e-12 1.002218069553497e-08 1.350331372083188e-10 1.282496420020606e-09 5.888203691540993e-07 2.617632250148133e-07 6.646944052159078e-05 2.329714817564365e-05 1.552632810291832e-09 5.583199411077572e-20 6.812577623842686e-02 1.240984999205787e-10 1.453954641790585e-07 1.789075711928937e-07 1.390783831557267e-07 2.136529425483951e-09 8.881416049367613e-13 5.303750917822831e-02 3.707386350067487e-05 3.087927286125227e-22 1.164317052285204e-01 7.158895638766112e-22 2.548115884607619e-08 5.893532489714718e-04 7.203969491197933e-02 4.588622596421137e-09 1.411332968249501e-08 1.088706393845116e-09 5.426861110489825e-14 1.721081041391730e-09 1.610809033201837e-13 1.821799040026536e-05 1.718965059864229e-02 2.818162909079609e-10 2.326658901898451e-08 9.277485686735527e-11 2.933785236161639e-11 1.465601384844683e-15 8.455519148394698e-07 1.355296545739878e-02 2.270045888173017e-07 4.927105087450031e-11 1.636862922601221e-16 3.118630561096340e-07 9.860366829118899e-03 1.958045398087706e-07 1.754067009167658e-12 3.990578111335892e-08 5.591886745693926e-10 7.381927513403977e-20 3.670214762991934e-09 7.259703682772380e-08 1.757962542635428e-04 1.504787265459852e-11 8.762985789849256e-04 7.530462226036774e-10 1.031580043878533e-33 6.927033568721052e-07 1.035831984728241e-01 1.533277087026763e-31 2.230113150534356e-09 5.368415553261466e-12 9.690585627537349e-02 7.326172482151519e-05 2.421842450252288e-12 7.309812383365873e-23 2.997927534292100e-08 0.000000000000000e+00 1.650535034653525e-12 4.660712464831528e-02 7.361993457707387e-02 6.693262928361480e-07 0.000000000000000e+00 6.421970683465760e-09 2.595554807752959e-07 9.793750221629652e-02 9.224536812981474e-02 2.093113602636529e-08 1.079922503102624e-03 6.120408285468834e-25 4.254374194841803e-25 3.598897554238374e-21 6.999051834890209e-02 6.033421868716636e-02 6.730301957443934e-02 1.675471753672988e-08 3.868020382158419e-08 1.391652723682137e-10 0.000000000000000e+00 1.322493978980050e-02 4.428728053335281e-09 3.256638585678164e-02 1.781061302705112e-09 2.421536145051124e-12 1.647693887059428e-13 4.184399411373783e-03 1.788138006747842e-08 4.246220407730148e-09 1.233833875037783e-07 5.160839459848001e-05 9.166149516827436e-02 3.924998163057445e-02 4.579077810464274e-04 1.858947689590697e-03 4.239912274596646e-09 5.620045426647707e-29 2.338553004059872e-02 1.907761186621125e-17 4.033858289194658e-02 1.121667771600061e-11 1.307429851763379e-07 1.916074863197545e-07 2.721814945660216e-05 2.471064138618302e-13 7.675251900670551e-07 1.768839397859233e-10 1.678877495570019e-08 3.181126882629444e-12 0.000000000000000e+00 2.471184523049280e-02 7.094179333300660e-07 2.405441834408801e-34 4.235012893705487e-07 1.153302665206934e-09 7.079595719982085e-08 2.432473539085525e-04 1.120598666515445e-02 4.209715135673196e-02 4.450534253877472e-02 2.643660294718476e-07 7.235653836606099e-07 1.748387134953620e-10 4.882019845799964e-13 5.496435506382895e-02 2.869110601621542e-02 1.641548247105884e-08 1.800149449201105e-03 4.723547350723498e-20 6.030035731368520e-02 6.501046068322927e-19 5.128215881227919e-08 3.457537662134316e-02 4.828412199230186e-03 1.486334848133634e-26 4.431016548366174e-13 7.602820750519964e-24 2.055431926245024e-07 2.116237771387796e-07 2.451468497822288e-02 1.787224783739921e-13 5.374493591848070e-03 1.695325086527929e-13 7.009136030971497e-08 5.346942966290740e-18 7.469078307228273e-13 5.049377032976742e-13 3.866849365618697e-02 5.546208481011850e-25 4.122600111333013e-07 8.679290874477778e-07 2.407556287069409e-08 1.071688515861887e-09 4.784160675042523e-05 1.115589903342659e-12 4.781096831475470e-07 1.698924882763559e-02 6.385140694638673e-02 3.091218772969082e-07 2.366988659401505e-07 1.980243749532135e-11 3.962791408864518e-08 5.768911999460877e-09 4.076811976685046e-16 1.057550437819076e-06 4.501753959592532e-09 2.758839080940298e-04 1.013627528457647e-06 8.358231598531154e-02 6.603076923056694e-07 5.712845866307356e-09 4.702223273773549e-02 4.247828310489474e-02 1.654326425153550e-11 1.879920139737767e-02 2.257271557171589e-02 1.909214543347924e-10 3.465524557845653e-22 4.477902727298743e-08 1.264042253742170e-07 1.142220171584596e-26 8.099688224099696e-02 7.404627915549342e-02 3.639029782271941e-08 1.087359261408925e-09 1.983967153222735e-09 0.000000000000000e+00 2.430763350281735e-27 4.176692188041035e-10 8.102947846068945e-03 2.493662971096001e-10 2.019407842121169e-10 5.804733604336965e-05 1.472034693752630e-10 1.134816316105179e-04 9.720654372385581e-02 9.025048770247249e-02 1.563679907580327e-08 1.465293325106497e-13 6.506222712839769e-07 3.348765623661150e-12 1.964594673038252e-10 1.169154026155973e-05 9.810829296124245e-07 6.462662039530195e-14 7.961703501060971e-02 1.501606370287760e-12 1.476176686684744e-09 4.744408169211644e-12 6.046556054731267e-28 2.504317112634152e-09 8.007908028398756e-07 2.014179338496660e-12 5.986177652943084e-09 2.299423373146750e-02 5.498816993209730e-09 4.117281715188813e-10 0.000000000000000e+00 4.278719561122495e-18 2.681335831468050e-11 6.711834572593120e-04 2.463974643830827e-26 9.350588782899168e-11 4.902786518797451e-07 7.919061549090056e-03 7.097248694839058e-12 1.855018660983238e-35 4.665148503674137e-10 7.159200945153577e-07 2.221282133592022e-07 1.388378541787664e-03 8.955056374873458e-04 3.180855957330811e-11 0.000000000000000e+00 1.914121176752082e-05 7.379476075511295e-08 1.853734172325655e-11 2.357889417828267e-09 4.782856280466606e-09 2.954588123228224e-15 2.640283591439389e-06 6.577111004889865e-10 1.029602105889304e-09 6.267583534413315e-10 6.693605271178493e-06 2.784312254525197e-12 8.019420398191974e-12 1.599151466378490e-26 4.950421341546684e-11 6.429873841877085e-10 1.064976352859479e-07 3.825184479285714e-02 1.112282230046009e-06 5.134663435351228e-09 3.201808674694128e-05 4.754880440523208e-13 1.308077410937597e-07 9.518461988910798e-03 7.104074263727602e-03 1.428841370176423e-08 3.325449067793912e-09 2.103999377014718e-03 2.368529353850193e-07 1.755623259701020e-09 1.535692866134064e-10 1.038363724340747e-11 0.000000000000000e+00 1.077154594951638e-23 0.000000000000000e+00 1.897494009249624e-09 1.072828385864269e-07 3.013055297210696e-03 1.989242942703914e-03 2.715798902304692e-20 8.384856837487027e-11 1.282943611928347e-10 1.121771189307414e-11 8.122909071216667e-08 4.773020546734103e-17 4.923485875916511e-12 7.824287686125356e-12 4.545569864190493e-13 1.559606637362738e-07 7.836165001466866e-07 1.829530018672203e-23 5.495390550168577e-02 5.157380646038823e-07 1.115317576279596e-01 1.105604842251171e-01 1.430321909014261e-12 6.931860225039599e-07 1.121528197127796e-09 2.669130630209679e-10 1.839444977354843e-19 4.717656949327786e-09 4.354366265451954e-09 2.560500637610757e-14 2.332992840778676e-09 7.694529997640923e-06 4.161954912082282e-28 1.149848543940685e-02 8.038283261986504e-11 1.040108531581807e-01 1.110636040139393e-01 1.112606923891172e-01 1.042169635444523e-01 1.016555493338471e-01 1.026610198762566e-01 2.669590951542362e-08 4.901026196926594e-06 1.009384497893992e-18 7.730643186459185e-19 4.251462672319864e-10 1.756212133892691e-12 2.782531441649539e-07 3.379626280104797e-10 4.672781700106497e-02 1.976099716752548e-12 1.445889232959405e-08 8.968068182728745e-08 1.034463791198154e-07 2.808209207120497e-06 3.323352669527632e-11 1.000374476545568e-06 1.033106486394840e-07 2.682680082870780e-08 2.123737584465235e-26 4.180906509925159e-12 1.140722573567189e-07 1.686205869911528e-11 1.831867774358253e-12 3.936388303829040e-16 2.140685366260210e-04 6.065298873917433e-10 3.034706143531106e-11 3.189183366627712e-07 9.576842904933285e-10 1.636587256221081e-12 8.293965790578157e-09 7.358821355117867e-07 3.575384465374881e-07 1.432439972185893e-08 7.293136991283050e-09 3.705109006742315e-16 4.908530398565716e-17 1.671943116573949e-11 1.869182784006148e-04 4.060202780351289e-09 2.508474419789785e-07 1.375619493182917e-18 1.187901685832488e-01 1.187901701289618e-01 7.162219877845749e-11 1.230087732125754e-02 1.145101002622579e-15 1.904808460807931e-07 6.505398096200155e-08 1.735468534882269e-05 2.460894611963695e-09 8.509067344252280e-14 8.168157281778109e-07 1.857734892289642e-10 1.106120300866227e-01 1.106120347691043e-01 1.971874671961997e-06 4.656821607301277e-02 3.904372069065833e-02 2.122738832750394e-02 1.725737690885914e-07 6.905026616062288e-12 6.122444051429105e-02 5.374507871975829e-02 3.916158315475888e-09 1.377539479808539e-12 1.781554714900942e-07 1.503194950735910e-12 2.935574443627698e-13 4.407652529143771e-02 1.366529627233180e-17 1.028773056371073e-01 1.030106128169111e-01 2.437597709557970e-09 8.457676022063261e-09 3.771916445074492e-04 7.814852174403176e-09 8.176560580869076e-11 2.193240402697936e-10 1.205504133901352e-07 2.932318184273327e-03 7.175866497741611e-03 8.533678621163132e-07 7.725227443912865e-07 1.595337813745959e-11 1.803995053409184e-11 2.119274575825875e-22 5.103445346714200e-10 1.235074570345699e-02 8.449255299235033e-12 1.646546698796640e-12 1.435613969164355e-04 6.556907325173012e-05 5.743069170907465e-17 6.068702166463187e-07 8.552763872215412e-11 1.236141514088789e-08 4.818978392958451e-07 4.894408525428318e-09 3.824942362417784e-19 2.239623988754591e-08 3.616923872620571e-03 6.313570652744483e-04 2.996060191596198e-10 5.627191565187922e-18 1.914191841022690e-11 2.244914077046381e-09 6.779993366786424e-07 5.946945795185889e-07 6.725656183387530e-13 4.069117056660757e-07 1.425569642633014e-07 1.781819819082998e-03 5.207566003696578e-18 6.795829688979697e-02 1.438719920798649e-08 7.234277894798099e-03 1.058780742590015e-14 3.393949229801179e-09 1.905718271098377e-06 3.472503544643729e-12 5.628936467891122e-03 2.595805326120048e-22 1.389042151603798e-23 3.226171867753981e-07 6.683258919875172e-07 4.104931534863257e-10 8.702889133056989e-22 7.798267388383699e-02 8.329632403677351e-02 2.585967577722762e-07 1.269598293519351e-07 1.041500975942284e-17 6.936640508696416e-02 4.286195911612244e-12 2.251316658196457e-07 3.002449607881368e-07 5.133176294577206e-02 5.904345703912701e-02 2.044979599417496e-09 1.660540951169802e-11 1.146299150778225e-14 2.581418489720959e-06 2.681199669390578e-08 2.142393141900299e-08 8.921872794930545e-09 2.258974960286448e-11 1.109341164471551e-12 1.358729783587481e-08 0.000000000000000e+00 6.073330271419327e-02 1.331222809410645e-14 0.000000000000000e+00 6.561302295729552e-07 8.326417808730496e-02 1.033364097437616e-01 1.108234845527613e-01 8.331560172835383e-06 1.363234472322095e-12 2.976995641244324e-31 1.250457704363000e-29 7.712615897498033e-12 1.427797221961594e-03 2.362521923050187e-09 2.751528726227014e-07 1.116536139008529e-06 1.554465443937081e-15 1.607569517506603e-16 4.017866091435211e-07 2.879913632895226e-08 2.113554604225324e-07 4.248380716095852e-12 1.950666332370711e-14 3.147928451793788e-11 0.000000000000000e+00 1.138710213106767e-08 1.762781113598816e-11 1.951976412146500e-04 1.399830042933308e-12 3.276462475209233e-12 2.599071988603649e-09 3.703932158809744e-03 0.000000000000000e+00 9.140519764403406e-06 7.159399323305628e-25 1.371656445245107e-13 1.930176307724312e-13 1.399397439675989e-07 7.793942390191130e-02 0.000000000000000e+00 0.000000000000000e+00 1.212906820196362e-06 4.174022844315746e-02 7.588561842247828e-02 2.6698678