<?xml version="1.0"?>
<VTKFile type="UnstructuredGrid" version="0.1" byte_order="LittleEndian">
<UnstructuredGrid>
<Piece NumberOfPoints="714" NumberOfCells="1306">
<Points>
<DataArray type="Float64" NumberOfComponents="3" format="ascii">
0 0 0 0 0.10000000000041601 0 0.082799035591426873 0.082799035591510806 0 0.099999999999928008 0 0 0.19999999999983389 0 0 0.20669143849501961 0.085546078947938975 0 0.29145143692666958 0.13500804559578439 0 0.29999999999973409 0 0 0.24783073444672249 0.24783073444648379 0 0.21725788110387281 0.17316968768743621 0 0.17318221359491059 0.27409688392309489 0 0.089078158003765312 0.2493007687782936 0 0.140351188660986 0.16130415108589741 0 0 0.20000000000083221 0 0.066361468125430589 0.15903440181097661 0 0 0.30000000000124832 0 0.0632094674441709 0.3449112819864934 0 0 0.40000000000166441 0 0.083393126324559225 0.42307471369029392 0 0.13897501191807771 0.34545639364066222 0 0.070553891733833127 0.57745844360881338 0 0 0.60000000000138687 0 0 0.50000000000205869 0 0.12353277228144981 0.51086097771927308 0 0.16324260003398389 0.62262730759772122 0 0.1946526892501724 0.54636184660733622 0 0.27220668248394869 0.50912429725145214 0 0.27661118526457179 0.58730386222759956 0 0.16486701364709541 0.41592657376307979 0 0.21928696632013719 0.4676461135047027 0 0.29987747321592639 0.43430880093746571 0 0.2371857680100064 0.35865548441110112 0 0.34318159319555042 0.3314386771104964 0 0.38593969585746768 0.44843324941957241 0 0.42544665781957403 0.3726599289372452 0 0.38240158409674341 0.60644575028138747 0 0.34793494568226019 0.52426775179830853 0 0.45232393232070839 0.53082724112931345 0 0.46433624429412901 0.61260020600107856 0 0.55763912874459476 0.49619993861770217 0 0.56379254693201075 0.58472273515948836 0 0.49272830291620878 0.32528628960011152 0 0.47711113382803011 0.43513410852522788 0 0.56509579243166053 0.39588847936247551 0 0.58612580217118482 0.27813894450229909 0 0.49255105193724569 0.22337579986912359 0 0.5565830077206213 0.19095699352548859 0 0.59999999999951659 0 0 0.57505385014294308 0.072457888465917331 0 0.49999999999959438 0 0 0.50264032148191051 0.12292784096123539 0 0.43504744109702559 0.077628892606360606 0 0.39999999999966429 0 0 0.35933948296838258 0.073809900849860513 0 0.33604819894646598 0.23280286076243209 0 0.41589935411558732 0.26752529264016389 0 0.40428440976105728 0.1643886070295453 0 0 1 0 0.099999999999999645 1 0 0.14716362552681639 0.93861610753355362 0 0.19999999999999929 1 0 0.30000000000000071 1 0 0.29792158491427922 0.79537096033156995 0 0.2235202862591317 0.88873896332704583 0 0.1332109546178302 0.87498377138822103 0 0.075231054453351903 0.92314074346405706 0 0 0.89999999999958358 0 0 0.79999999999999982 0 0.074918724681641777 0.83311952320732263 0 0.1533088418661793 0.80370257472597129 0 0.089684836063650353 0.74720097194875412 0 0 0.7000000000006934 0 0.079752623936563252 0.65630726580969023 0 0.16551550920047911 0.70947866912672319 0 0.22047232289835689 0.77501739045979867 0 0.25446499951716589 0.69023946426646743 0 0.32437633398017029 0.65970549827478953 0 0.33985912385126898 0.73174041004507751 0 0.42824324229177341 0.6924957961634054 0 0.5174764925733939 0.65338828204098198 0 0.59670004617370476 0.65981579440137683 0 0.62152629835360762 0.73285157302339954 0 0.52912171753951986 0.73993242892488531 0 0.51076728641122882 0.81691863363193817 0 0.62017612851329729 0.81451802170669263 0 0.56701461556202259 0.86335846433862784 0 0.45907587517201498 0.90165918271477563 0 0.43819239467549531 0.79296936871720936 0 0.36912581253574028 0.83088590731704637 0 0.37337282601342481 0.92616598444216514 0 0.31535921456193688 0.88154045330654418 0 0.39999999999999952 1 0 0.49999999999999911 1 0 0.59999999999999964 1 0 0.5499999999999996 0.93976792513729512 0 0.70000000000000018 1 0 0.79999999999999982 1 0 0.89999999999999947 1 0 0.8793859710393791 0.93083561064221121 0 0.93540888248908083 0.88281232945237675 0 0.91372311269140116 0.80486176357476358 0 0.82192606283926717 0.87651855948129354 0 0.73937541854631073 0.9288754054780668 0 0.64588148000090029 0.91512139508160772 0 0.76404828705430583 0.78174230667165401 0 0.71722872346306721 0.85096302760907838 0 0.69085763855200755 0.76120667115691065 0 0.6754414170471299 0.67700559910555169 0 0.74547688787239819 0.70026419381674654 0 0.81910554849723838 0.69100245438023977 0 0.84477163403336131 0.77519844632340484 0 0.90192269692920224 0.70295054578552552 0 0.9749171938312049 0.68304286407835557 0 0.98491966670915287 0.745702719141624 0 1.0785590511537511 0.75365885686631617 0 1.05 0.67063679245255348 0 1.1595355377629719 0.69612720023346242 0 1.2316049928421089 0.71268197388690568 0 1.130022579458912 0.80264790230838934 0 1.2104878010462079 0.79638517641579154 0 1.246238897717278 0.90016207822659 0 1.1492841477515361 0.89495863909300122 0 1.035017143854235 0.92577305964649748 0 1.039491394416145 0.83402983011495258 0 0.99999999999999911 1 0 0.94997493298435887 0.94717135651053852 0 1.1000000000000001 1 0 1.1999999999999991 1 0 0.8520969719592798 0.19112077159544111 0 0.81051762114363357 0.25355176211442859 0 0.91043121937362004 0.26518856856736223 0 0.87151744524583186 0.1145610820769897 0 0.89999999999870417 0 0 0.8072276847200428 0.07509171132446453 0 0.79999999999899607 0 0 0.75434135135171976 0.12888799631625769 0 0.73796379772146625 0.059893436010741673 0 0.69999999999928797 0 0 0.66267222434682926 0.078497159578092612 0 0.64669101990832323 0.1799054750174742 0 0.75284581776561577 0.20455093921856349 0 0.7545004114404561 0.31098089234202853 0 0.68811979868824935 0.26566684131589419 0 0.65823561246403328 0.35502292901158627 0 0.64897033023755402 0.45530630145656431 0 0.71094001953927277 0.41472992215547572 0 0.65500944633069913 0.60601350811213128 0 0.66278242936710119 0.53985356489900171 0 0.74775703275407246 0.49059679564787018 0 0.74991769371388628 0.60451627361984739 0 0.85383906663538056 0.62014574817393608 0 0.82099888937423493 0.54529350322201742 0 0.89730215834238125 0.56352362508531118 0 0.79315209058920677 0.38802315963964318 0 0.83603391221093415 0.31708941802047369 0 0.84897848255088726 0.46000674997733482 0 0.9184189969982266 0.43608586792060411 0 0.89716106756302072 0.36571612550017968 0 0.97284972811175952 0.32057650487681749 0 0.97803218086495292 0.39957666910545891 0 1.049999999998295 0.45311778235774403 0 1.0499999999982661 0.33749999999944968 0 0.95554667482020261 0.61387123313571723 0 0.95438428234324713 0.50021891445525024 0 1.0610070115193291 0.56187728740506249 0 1.160572984923127 0.60155304747043781 0 1.1544259370261769 0.49580194535795907 0 1.11366617971111 0.39530889117858181 0 1.1787318575418491 0.43180077319900678 0 1.2482752740169289 0.44264463249545388 0 1.193211192060164 0.36417169501775798 0 1.2189485028845071 0.28846717556219142 0 1.225209211892335 0.20648826945283069 0 1.14543293599463 0.16096823716187 0 1.1317936052402791 0.27327200211975772 0 1.0273907165533489 0.25089655084417212 0 1.0673059847957449 0.1861726764986896 0 0.96758455917765662 0.17206502793490561 0 0.99999999999841238 0 0 0.95940036225003311 0.0802667348803804 0 1.0527907183502181 0.1005001786211816 0 1.1494214575391031 0.075340014825429069 0 1.09999999999812 0 0 1.199999999997829 0 0 1.2999999999975369 0 0 1.254652873386052 0.105753482544517 0 1.3681535985071449 0.13698083382674339 0 1.399999999997245 0 0 1.349999999997392 0.060567969661089648 0 1.291408388555241 0.26372433042992383 0 1.316869459340541 0.18778020585802921 0 1.3878996413210389 0.26723502210068018 0 1.473286192129879 0.27883707652097373 0 1.4156792278190771 0.19574754335211339 0 1.4905184776249101 0.20629734327603311 0 1.545236949037224 0.29434567071731399 0 1.456639397274391 0.1016053838939758 0 1.53341268746562 0.14194251306413061 0 1.542152768646126 0.073248247890105089 0 1.4999999999969531 0 0 1.599999999996661 0 0 1.6999999999963691 0 0 1.6799832100487111 0.082202015566833181 0 1.609545399082946 0.1308291592921435 0 1.567491488875842 0.20218805454405439 0 1.6351951680630969 0.23707571199064051 0 1.714493154391862 0.28897291620938281 0 1.7304700827703301 0.17386188770806579 0 1.799219293849516 0.26438879273789773 0 1.8480644103363271 0.19193194889233381 0 1.8299024103288899 0.1151394713368583 0 1.799999999996077 0 0 1.75369588639865 0.074917217572982864 0 1.7537858687071439 0.50406839622489796 0 1.742806034420483 0.6006074591026016 0 1.8544400981153091 0.62488101477716596 0 1.8316048184152021 0.54157006606434721 0 1.850967139686138 0.45738417241574703 0 1.8620515405159661 0.32644761881501039 0 1.787749129254824 0.36176402170097799 0 1.7808296409871709 0.43587276890434401 0 1.71976181471802 0.39635806210359681 0 1.645895854313963 0.45222881216869149 0 1.6419306970571019 0.3436055112169133 0 1.645263810758179 0.55814977621663464 0 1.5386621965636409 0.60828218080060537 0 1.550364457075788 0.50467902559054656 0 1.4795754400412069 0.53983964974648579 0 1.445918816848357 0.6075709531782556 0 1.551956040519719 0.40384519109247291 0 1.4491802319415681 0.4666714614197911 0 1.4507225717793131 0.3561247496431208 0 1.347125314110625 0.32447518420453242 0 1.385017785528226 0.40713366384701549 0 1.3198129865007471 0.39133224900025881 0 1.2615469736996101 0.34090999671933891 0 1.3860523322451299 0.56073196187600105 0 1.3462106466432811 0.48060664220838062 0 1.2709684905841181 0.55537862536316829 0 1.2546738886072291 0.63615646469940468 0 1.3545060270195819 0.65002758689694418 0 1.4000454837723419 0.73943313674757749 0 1.3035852436207409 0.73866974635260263 0 1.2914654457895349 0.81843301378315825 0 1.3255948392482531 0.88328132587465524 0 1.3864786876100039 0.92208751032957958 0 1.386174597084219 0.82350876346868962 0 1.482119963281066 0.782586299849238 0 1.463012078585596 0.89209645917012148 0 1.546104640467868 0.9195568013001878 0 1.535346256113697 0.70153336654872078 0 1.4534042830965781 0.68426123045930609 0 1.2999999999999989 1 0 1.399999999999999 1 0 1.5 1 0 1.599999999999999 1 0 1.6999999999999991 1 0 1.7999999999999989 1 0 1.6597641702579149 0.778
[...]
<CellData Scalars="A_conc,As-lin_conc,Bs-lang_conc,Cs-freund_conc," Vectors="" Tensors="">
<DataArray type="Float64" Name="A_conc" format="ascii">
1.0093419755030962e-05 1.409835860924911e-05 6.3746627363788716e-06 9.3180129649002118e-06 1.3074627248920388e-05 1.8139602972778885e-05 1.9877316612248165e-05 3.1238923739655149e-05 3.0634871155281456e-05 4.3482415755041852e-05 6.9822520636740964e-05 4.6496907158181076e-05 8.0203151596660332e-05 5.2596368535498304e-05 7.0237258379081394e-05 2.3905672654256868e-05 3.4823447227353134e-05 3.3750045835696018e-05 1.4086670701390138e-05 1.6276452007046814e-05 1.1147102992567447e-05 7.5529360907031504e-06 6.3119105554404359e-06 4.4056717071343496e-06 5.4704901659153946e-06 4.0752904558912857e-06 4.4139197444841325e-06 1.2612933386407719e-05 1.3299592044404773e-05 8.3755362054623559e-06 9.4611226506464561e-06 6.4757207610829143e-06 4.7609697303506614e-06 7.415403256953639e-06 7.2115545164104826e-06 1.3500465840300312e-05 9.6222159431915293e-06 2.0086235224234463e-05 2.8053748496736058e-05 3.8698476718544178e-05 2.5809372672370966e-05 6.8581890090641559e-05 8.264646326283076e-05 5.9601651581592671e-05 4.7055083314506853e-05 1.9391038790581764e-05 2.1864429708992004e-05 3.2729774720855906e-05 1.9999894690627082e-05 4.5077648870373314e-05 6.7099986707375313e-05 4.8232937280112893e-05 0.00014776229054806855 0.00010278905852189129 0.00021763924082989584 0.00032040658227462242 0.00023356608291746751 0.00016631320132842289 0.00010055442625671866 9.5794383649896667e-05 0.00011333847673352121 0.00025824378660277056 0.00017147499462257228 0.00015310370499495838 0.00023831065772264768 0.0003330678867723245 0.00048548216075138028 0.00036911251397970076 0.00050164779479755506 0.0010471554102858324 0.0007453628872004487 0.00088481913792056778 0.00041369059688085651 0.00055605106022895757 0.0010729387518655245 0.00076896765011662824 0.00058193029922581831 0.00080333865521596613 0.00042879566149485525 0.00050931927458422021 0.00064171353523172572 0.00085313262894511825 0.0008335970861474538 0.0010695656835752194 0.0007524742540075415 0.00053657626002032654 0.00041151819553338802 0.00065136036692899492 0.00027406868819996851 0.00019869226411437451 0.00028059045269674787 0.00020635487758940187 0.00013878150056312078 0.00010208703764049258 0.00013207847096945608 0.00010543415401603905 0.00017336443602602604 0.0001196799031167013 0.00031350385684970222 0.00035349372234725598 0.00024021609354475719 1.053648454668257e-05 1.4207389030010317e-05 1.9074072935507044e-05 2.625423780798187e-05 3.7236111777740601e-05 4.9515618668290632e-05 7.382590394006808e-05 3.9906436830055703e-05 5.8651172310649179e-05 2.8707989285057375e-05 1.9697730090998499e-05 2.3395088196531704e-05 1.7726494475500231e-05 1.2454976953212367e-05 9.3119393362621577e-06 6.5124461065898939e-06 7.3891372184093628e-06 1.4014687785315558e-05 1.0914635625011523e-05 1.1279888353171359e-05 1.6593933129001963e-05 4.7861467287463045e-06 7.336538691301613e-06 4.4897369786287039e-06 1.7177093323012412e-05 4.1884270676140628e-05 2.6162406944957137e-05 3.4440562120736862e-05 2.372800573150933e-05 5.0873233088701117e-05 7.0880209075507177e-05 8.1068727417952537e-05 6.7577434757817699e-05 0.00015943450197867138 0.00011505583662549302 0.00027333607218356609 0.00018638000092406458 0.00023026802686573972 0.00038730092225553858 0.00032619399664099387 0.00055873667909947511 0.00066330438557453051 0.00084261264375277381 0.00076263288583611341 0.00031631481619892599 0.00041333880151959973 0.0005632959942990538 0.0006648970886375255 0.00069973474294752667 0.00097406841646152903 0.00048299588049537215 0.00041982080992245322 0.00015984877137620649 0.00023001978768206322 0.00014349510134880621 0.0001084634761480076 8.7482158462686332e-05 0.0001084477863983792 0.00012390932037665135 0.00015550990839166741 0.00022995442141339299 0.00030840525019610579 0.00045111842134148717 0.00068069773740904048 0.00097121329101083865 0.0018173474628883051 0.0013022187223800015 0.0025258866715514063 0.0053335488300534943 0.0070149497934759893 0.0051304478380999243 0.0070610205727516633 0.0044660493490074607 0.0054264477919893283 0.003515039450662125 0.0042961595795307818 0.0034344202952026389 0.0023487065037591506 0.0017509749198313051 0.0012394382360577786 0.0015430056580311691 0.0020629582507354343 0.0026655141884987881 0.0028736766070443041 0.0018039491773454205 0.0022935282572602279 0.0014382220543062145 0.0011734073961751439 0.0015904737482699603 0.0010670758294472765 0.0012262041817483952 0.0021660080362034323 0.0027358089866047967 0.0035101839129481 0.0048753288887880839 0.0045826703701269218 0.0035684368318239686 0.0071241387369339378 0.0059169579091290598 0.0060654007082635254 0.0078949356693246604 0.0095793840936049431 0.010163198261529633 0.0083270779365390846 0.011969678746624987 0.011905902724744524 0.019286568312895231 0.024189934082760781 0.028669609258292136 0.028508238822783843 0.025121809830948347 0.014854676069024252 0.021121106835039604 0.018303271652578078 0.021052498483977049 0.017057348311705575 0.029748974048625122 0.025895999759028177 0.024703314892769258 0.013210797289035415 0.014988649237847079 0.0091220149643342855 0.0073292075638549678 0.0084714901295215167 0.010331453834010901 0.0088035041463142023 0.011304634300864258 0.013575833323896787 0.017046638291574302 0.021134752424258291 0.031378010083044278 0.0028684055684600222 0.0038777255229734365 0.0040989223278472186 0.0032093951715722775 0.0050515582628315493 0.0065150213089359811 0.0053246683097285478 0.0073984412616212832 0.0068569974232482126 0.0055726165489868732 0.004197189039170878 0.0034099131415621349 0.0038625281555134004 0.0038098312946679112 0.002353007991057093 0.003031410851078567 0.0025120583792704915 0.0014287758539576092 0.0019842324527921257 0.0011725565057593076 0.0015947538307783267 0.0016658710829564817 0.0020571134179891101 0.0029270857162557438 0.0023580921964387849 0.0011538814769095499 0.0015615444883818155 0.0011140874591948583 0.0014708727794471355 0.001894950956921222 0.0024849592418078482 0.0022812676195386669 0.0017537807293883235 0.0015178295796008045 0.001097718533078198 0.0014704463933730729 0.0020903246203868272 0.002758599649952826 0.0033723455548671229 0.0044952112864056941 0.004680897336631875 0.0035704537782686114 0.0057114597291100183 0.0076679777361205563 0.0057585861514382495 0.0039160270639640275 0.003020032298620605 0.0043052884775255538 0.0031239150505645891 0.0056328480464975048 0.0066078153538657782 0.0066677042154705719 0.0054886598515936063 0.0066689664972663706 0.0079213870565965228 0.0097592443443933821 0.0082788400948021618 0.009507054973749483 0.014469481837331192 0.01214031033059711 0.0089640096600410619 0.014393133510361212 0.011344560322354029 0.015173896609233293 0.012005761052178194 0.018688088521529291 0.027599925337495904 0.022927471227174 0.02988793178093483 0.019573943187370674 0.016630910061559832 0.020581150453943958 0.016994293558936779 0.021996337579250347 0.023487925080556742 0.025598421504154593 0.028979588110006643 0.027716211306385928 0.02987042363967958 0.025117313798426646 0.023333562742118182 0.027031662597217093 0.02173673911014298 0.018465029164226106 0.010766322704612067 0.012913927186145778 0.015141113431915307 0.011765925083582362 0.0085675047286858722 0.0082288755916717655 0.011451904416894244 0.008940215507518879 0.0093806908393728322 0.011875726220695867 0.014933706365929651 0.013965375764137741 0.022060850147692899 0.017484033656545422 0.017807709384573496 0.021825684215709254 0.026927755374938696 0.031899906552222898 0.038075347458209653 0.039367145613149315 0.03824004487984381 0.046794220510159926 0.053816911557394383 0.04620681540758298 0.036118888903708693 0.032163812400284902 0.032242965078156355 0.034952569733054925 0.047547204969438012 0.047285654396593733 0.0405860742492807 0.042535397679521116 0.056438313269919896 0.055178856158468327 0.061651957725272107 0.060800176926211424 0.074236250308510998 0.073514684345954456 0.064128444739653803 0.068554101043538346 0.060684208912031301 0.054726663076444929 0.071512162154226872 0.067003118209042367 0.079043250094998366 0.077724098165820668 0.069318604818241564 0.093286769474204667 0.087147789935534681 0.1000184211731743 0.10997683489872802 0.10150886510770485 0.080837771619363744 0.087485258154601828 0.089354875401500972 0.081342294548153282 0.098546251810099114 0.093256165745748312 0.10594927908315907 0.12343398906070049 0.11465802999337776 0.12090954640766653 0.13800482998192581 0.13580971153518714 0.12660608384631397 0.13882799626906694 0.13458696456512018 0.12792409559135356 0.11780817557517942 0.1112142131732262 0.11847537310689429 0.12004079212488313 0.12802732526488714 0.12890564751311295 0.12776884601096178 0.13344923539898837 0.12922693402981777 0.11392794535046076 0.1158618016136439 0.12056248782765089 0.12118713732231974 0.10663083429476752 0.098888797733404671 0.10632949885189694 0.08062791729555821 0.079903221025350371 0.08981864488484817 0.088138360529326581 0.097434657777247691 0.10970893213532446 0.10014255239369313 0.079383377483135412 0.089872333576292221 0.073180229899073287 0.064975533494682922 0.064236623956240704 0.056153775369785684 0.057903600800493421 0.071535164845887289 0.070554058610753728 0.056558542585830089 0.06204604329502985 0.047121408767758714 0.049944737128732632 0.042838637526904963 0.047646018245932079 0.042356412015637231 0.0364998477585778 0.032832821150075131 0.037424167251361697 0.041744612514960838 0.050275195012422634 0.048789965090345694 0.040747632237019583 0.033533632895786848 0.035912306854180141 0.033158203124714992 0.036949464085031886 0.051611889229554647 0.04440938690021478 0.044612142311176689 0.033029678143026424 0.038389077037748208 0.037538428735549682 0.034429662172155373 0.046484293221347513 0.042722254125181894 0.039375317443127257 0.057764154976265913 0.051875610848445962 0.051157128558120865 0.069975444568662865 0.073244687410966375 0.065311731366621578 0.07387049543752372 0.066392168387470682 0.073835678456120185 0.070783253116977793 0.062598046067418908 0.054680695664536975 0.060372309206352309 0.048491276911309146 0.061280090580190467 0.056321592936697987 0.077896074974446256 0.094548186189439429 0.11238075318027241 0.10237854540496825 0.11907676600948681 0.12920349567984246 0.13796337846929713 0.10067320265383106 0.11024429053938531 0.078360736902138739 0.093208971198794011 0.085116692047514875 0.089322108610091322 0.08250362269984772 0.081514170193229429 0.087347634727627618 0.099614319137306187 0.10670709933603775 0.097129542388420767 0.11584083777571813 0.12405345455793602 0.10691271872088472 0.11425522524848043 0.12144361156835748 0.13170736015105922 0.1380459911241031 0.14087392583230096 0.13083327826986263 0.12276902474845489 0.11312990612558158 0.12200293860858595 0.13443729908866858 0.15186366956700767 0.14443902310586906 0.16864500752553163 0.16114818582201562 0.16692790720744691 0.17338908016613594 0.14863156343419726 0.15708390318802795 0.14711935128529571 0.15325433058203713 0.16376081937898629 0.16675424031971608 0.15932242380489861 0.17474786193867675 0.17114432932953944 0.19075303391957982 0.19570816055432419 0.1853597810523642 0.19505846413044745 0.19369603277016725 0.19656186946514978 0.18034377153585132 0.17838288117055373 0.17818425905522614 0.18584304535784918 0.18782214011633136 0.15676598145084467 0.14807266926931342 0.16675438837747905 0.17399259124727109 0.18382238867604178 0.19865875360441587 0.20823591450826148 0.2170524651893071 0.23778544408968461 0.24696916912504835 0.25305476883913997 0.23184926887099799 0.22617050856599447 0.22121441160190597 0.20372421146585376 0.20440268099988446 0.21077830106296661 0.21548288423776063 0.21519733264459751 0.20383317560287745 0.2305544663007556 0.22644079836218842 0.22337802065893111 0.22309753297069287 0.24131790151815544 0.2526269166245485 0.24968958448096951 0.25967509309047826 0.24947348021302196 0.25771242059116362 0.24116659713349364 0.23693981159700689 0.24321081843125636 0.24957724260218678 0.25795047054770226 0.25105171832967277 0.25807335323260727 0.25801978900483852 0.24809894770502364 0.2398281835836038 0.23470731981595572 0.24066789576570824 0.22422769884794183 0.22106025205836383 0.23285103305680507 0.21363912349854136 0.20538936728407928 0.21042202526836673 0.21688268262154964 0.20496561682908895 0.21287472840931204 0.2184116207003711 0.2255664793192956 0.22205997535860394 0.2301227658447457 0.2339294408760012 0.24100464971152138 0.24830576653062003 0.25468849252564896 0.25800668739960803 0.25626981635936436 0.25071281928277483 0.25418007706195184 0.24690314325958257 0.23939568560513924 0.23028956268329123 0.24456722160676447 0.23700881241912294 0.2533644530428244 0.2624029367180859 0.25436177689336831 0.26191477476933245 0.24646363933392967 0.24436736754060823 0.23680614830791011 0.24425694858321809 0.23504645306492505 0.22613555115970327 0.22693113504818974 0.21877894406998405 0.2086418586175548 0.20510305523116168 0.21674366320961222 0.22377462371436305 0.21312864732115772 0.20500767334827324 0.20592066114656327 0.21542517162038052 0.19754545395208636 0.19123382632189928 0.18804376505677489 0.17411634843922011 0.17963581992027702 0.1954924925338129 0.20026896852789422 0.18168200083101407 0.18641149639722751 0.17660833891440697 0.16646636278436661 0.17130908001161232 0.14849829958253913 0.13808326892015621 0.148928994666986 0.15897426333082001 0.1612716455298106 0.16584140486187909 0.16999179526224276 0.16008136271834553 0.14530984137715156 0.14995574844275278 0.15587945260528674 0.14673418140884001 0.14068134786623554 0.14729355845731887 0.15441401890558221 0.1619408306651125 0.17162022768237906 0.16148220699518331 0.14708022578467145 0.14969310780228728 0.13767382582680776 0.13868069446030257 0.14752981236175389 0.16792222133501097 0.15934969821851325 0.16792234162225247 0.17693642969269485 0.18443775716366867 0.1770695586195645 0.18665565035713141 0.20175203417899218 0.19379860005996724 0.19741828251557353 0.19333860347048451 0.18416102075833002 0.17773768619058156 0.18876987500764186 0.6122507846583447 0.60714765278109106 0.61923904243404615 0.631422045483087 0.63558056716637135 0.62447606661260324 0.63930879275564612 0.64620504738395845 0.63839471642093759 0.63784806861177978 0.64476223442566261 0.63789117124618289 0.63123692750077087 0.63152850058960641 0.62729078892239798 0.64530391853025115 0.63843470973873528 0.64314614382101565 0.63236324877378602 0.61952367313861667 0.61815174863618605 0.62512777438787492 0.62262844168857123 0.60585125675273066 0.61082120450020816 0.60810208502142249 0.6139215305005008 0.62206738490296376 0.61513597027500388 0.61729669529116749 0.61074393340496469 0.60412402424938394 0.60364797371066248 0.58948968764891974 0.59838478292923236 0.59588946457034409 0.58494525378412598 0.60262901119458068 0.59515542541214983 0.59945121255984235 0.591783183643943 0.5851612531056688 0.58130762867681018 0.58877610577290052 0.5689736183859796 0.57653423474585841 0.56861462235375571 0.57117148818627894 0.5629839868858969 0.56380582024781056 0.57954267618933919 0.57154212155435702 0.57798894858602401 0.56356673538766433 0.56152309627233354 0.56281552175939142 0.56532423849911206 0.57248599955370472 0.5777878141680628 0.60011626885597202 0.59479966217231484 0.58976399678927816 0.58266858878916372 0.60792115541300118 0.61322262767072355 0.61497056145095641 0.62255510079921506 0.62020753438391563 0.63150605131548543 0.6317645279947145 0.6248196384888115 0.63930879330428769 0.64620504803213663 0.63866120273874527 0.63854847644835522 0.62643507540640775 0.63141754060909228 0.63039896875613022 0.64476223763539275 0.6378911800873257 0.64314614937699299 0.63826956139201729 0.62551079149876154 0.62194019117953436 0.61538177144797002 0.60682785507272929 0.60890322513668627 0.61430531846881919 0.61070908657739231 0.60902117886918128 0.61544336868917504 0.62090508602651351 0.61511486930092896 0.62113162915016751 0.61986066713473609 0.63200668561532436 0.63253516042993829 0.64513931036606686 0.6377638440721094 0.64264167493825053 0.62668459482716365 0.62852233677583325 0.63539720350494822 0.64278110758161355 0.63806879829954255 0.63180068124042377 0.6245619475569012 0.61930716641276873 0.61324588082703069 0.60750714987321475 0.61210020167428714 0.59685331346804005 0.601829405652335 0.59581735282037129 0.59078144251838227 0.58477958151370213 0.58481714177046817 0.59177500076039025 0.57444635458125259 0.58070926639469023 0.5700685574141422 0.56371874230520158 0.56033047243873102 0.57833816944869709 0.57366707661743233 0.57856452778678713 0.5726137377951771 0.56817215156606515 0.56102268179230619 0.56478596415429039 0.55856591175158865 0.57151366952560489 0.58412628886519258 0.59078228551830569 0.59019165504280369 0.60249277655998279 0.59621745372488011 0.59695215526135093 0.60416275993537238 0.6019529775370126 0.59618313660656808 0.60233965916446852 0.58300831850945822 0.59076517627284286 0.58090778166621493 0.57488327239719916 0.56339583808351579 0.56927245241765378 0.56312880373788043 0.56953744483916058 0.57499489944184412 0.57973117089933357 0.57255711005424703 0.56114690492980468 0.56483476675800992 0.56190517555527819 0.56942690238053562 0.57657271266317855 0.58976835526393723 0.58267292242964452 0.58677658338898753 0.5936135460109202 0.59910968318038726 0.59654776391464326 0.60359206333402393 0.51918705050263159 0.52385877765830413 0.52996236931851382 0.5363556324787353 0.52904592793223859 0.54280626725578307 0.55470135824492983 0.55005832585895076 0.54272094102909396 0.53725736211762898 0.54867913241539068 0.54091581935788868 0.55753437581152621 0.55521978246224191 0.55626783156220982 0.55137433583651085 0.54555828326423872 0.5356848845606027 0.5309115539670527 0.53581058563362471 0.52559268447533058 0.51381103003627548 0.51933957678858667 0.51758348137366439 0.52456631413241683 0.51364983908645967 0.52244486820873914 0.51460078196013381 0.52948895931604667 0.53756930419991955 0.54617927830192337 0.55183683038430098 0.54926303360089279 0.55600748636000652 0.5444329301899018 0.53705190668467317 0.54434142335133684 0.54932828069657691 0.55568098348372208 0.55146574134525772 0.5551432762343711 0.54636948051675649 0.54140334506925691 0.5298271636630546 0.53498106518114885 0.52894248188363235 0.52159964408140258 0.51750639224241768 0.52516295817668457 0.50836046249237377 0.50388125042358212 0.51362811682925946 0.50058658141117074 0.50743426380548062 0.49343653714401481 0.4942321339033437 0.49892244701486571 0.48240925917921218 0.48778047479915443 0.48306916042894366 0.4707812411047016 0.46717153640492437 0.47575354155412014 0.47266901493801938 0.48683370778662316 0.47904539908852689 0.48123556106414928 0.47390398462931232 0.4663122611917257 0.46769073195245003 0.48529078717309182 0.48820969253414059 0.49376576695634156 0.50794905302479998 0.49934557036122285 0.50580299159245445 0.50015503821175722 0.50618685039973332 0.51078330056454513 0.50825364093191006 0.49863724934339726 0.49429219587125223 0.49577645492706346 0.50046290678860073 0.48067598833338032 0.4683979787707504 0.474910636228075 0.46749631848449075 0.47212524420095092 0.4862215763434834 0.48578194214105053 0.47900752944436564 0.48579510803123438 0.48224049555300963 0.47558960105576709 0.4722828348287938 0.47889083534832655 0.48642745007751892 0.49269303017072008 0.50016426436965933 0.49115191854143359 0.49241802300769705 0.51262325470327119 0.50352528233008798 0.50734498773386694 0.50544011410348133 0.5118025101297824 0.52601429034945879 0.51984198023441375 0.54140662906899495 0.5581341769326984 0.54820122829352957 0.54866442629238588 0.55480231444975381 0.55685317977324955 0.54353655034949022 0.54237418000794602 0.55144800493846491 0.55673666656103793 0.54989403749788968 0.55625412545565422 0.53724271836282933 0.53581057643489383 0.54089419300752384 0.54652979617611819 0.53533672803492949 0.53156367713645625 0.52194891749678263 0.52434863140038623 0.51942871246686795 0.53468536672665234 0.53333686959893256 0.52793755799245845 0.52978311568248049 0.51643