<?xml version="1.0"?>
<VTKFile type="UnstructuredGrid" version="0.1" byte_order="LittleEndian">
<UnstructuredGrid>
<Piece NumberOfPoints="714" NumberOfCells="1306">
<Points>
<DataArray type="Float64" NumberOfComponents="3" format="ascii">
0 0 0 0 0.10000000000041601 0 0.082799035591426873 0.082799035591510806 0 0.099999999999928008 0 0 0.19999999999983389 0 0 0.20669143849501961 0.085546078947938975 0 0.29145143692666958 0.13500804559578439 0 0.29999999999973409 0 0 0.24783073444672249 0.24783073444648379 0 0.21725788110387281 0.17316968768743621 0 0.17318221359491059 0.27409688392309489 0 0.089078158003765312 0.2493007687782936 0 0.140351188660986 0.16130415108589741 0 0 0.20000000000083221 0 0.066361468125430589 0.15903440181097661 0 0 0.30000000000124832 0 0.0632094674441709 0.3449112819864934 0 0 0.40000000000166441 0 0.083393126324559225 0.42307471369029392 0 0.13897501191807771 0.34545639364066222 0 0.070553891733833127 0.57745844360881338 0 0 0.60000000000138687 0 0 0.50000000000205869 0 0.12353277228144981 0.51086097771927308 0 0.16324260003398389 0.62262730759772122 0 0.1946526892501724 0.54636184660733622 0 0.27220668248394869 0.50912429725145214 0 0.27661118526457179 0.58730386222759956 0 0.16486701364709541 0.41592657376307979 0 0.21928696632013719 0.4676461135047027 0 0.29987747321592639 0.43430880093746571 0 0.2371857680100064 0.35865548441110112 0 0.34318159319555042 0.3314386771104964 0 0.38593969585746768 0.44843324941957241 0 0.42544665781957403 0.3726599289372452 0 0.38240158409674341 0.60644575028138747 0 0.34793494568226019 0.52426775179830853 0 0.45232393232070839 0.53082724112931345 0 0.46433624429412901 0.61260020600107856 0 0.55763912874459476 0.49619993861770217 0 0.56379254693201075 0.58472273515948836 0 0.49272830291620878 0.32528628960011152 0 0.47711113382803011 0.43513410852522788 0 0.56509579243166053 0.39588847936247551 0 0.58612580217118482 0.27813894450229909 0 0.49255105193724569 0.22337579986912359 0 0.5565830077206213 0.19095699352548859 0 0.59999999999951659 0 0 0.57505385014294308 0.072457888465917331 0 0.49999999999959438 0 0 0.50264032148191051 0.12292784096123539 0 0.43504744109702559 0.077628892606360606 0 0.39999999999966429 0 0 0.35933948296838258 0.073809900849860513 0 0.33604819894646598 0.23280286076243209 0 0.41589935411558732 0.26752529264016389 0 0.40428440976105728 0.1643886070295453 0 0 1 0 0.099999999999999645 1 0 0.14716362552681639 0.93861610753355362 0 0.19999999999999929 1 0 0.30000000000000071 1 0 0.29792158491427922 0.79537096033156995 0 0.2235202862591317 0.88873896332704583 0 0.1332109546178302 0.87498377138822103 0 0.075231054453351903 0.92314074346405706 0 0 0.89999999999958358 0 0 0.79999999999999982 0 0.074918724681641777 0.83311952320732263 0 0.1533088418661793 0.80370257472597129 0 0.089684836063650353 0.74720097194875412 0 0 0.7000000000006934 0 0.079752623936563252 0.65630726580969023 0 0.16551550920047911 0.70947866912672319 0 0.22047232289835689 0.77501739045979867 0 0.25446499951716589 0.69023946426646743 0 0.32437633398017029 0.65970549827478953 0 0.33985912385126898 0.73174041004507751 0 0.42824324229177341 0.6924957961634054 0 0.5174764925733939 0.65338828204098198 0 0.59670004617370476 0.65981579440137683 0 0.62152629835360762 0.73285157302339954 0 0.52912171753951986 0.73993242892488531 0 0.51076728641122882 0.81691863363193817 0 0.62017612851329729 0.81451802170669263 0 0.56701461556202259 0.86335846433862784 0 0.45907587517201498 0.90165918271477563 0 0.43819239467549531 0.79296936871720936 0 0.36912581253574028 0.83088590731704637 0 0.37337282601342481 0.92616598444216514 0 0.31535921456193688 0.88154045330654418 0 0.39999999999999952 1 0 0.49999999999999911 1 0 0.59999999999999964 1 0 0.5499999999999996 0.93976792513729512 0 0.70000000000000018 1 0 0.79999999999999982 1 0 0.89999999999999947 1 0 0.8793859710393791 0.93083561064221121 0 0.93540888248908083 0.88281232945237675 0 0.91372311269140116 0.80486176357476358 0 0.82192606283926717 0.87651855948129354 0 0.73937541854631073 0.9288754054780668 0 0.64588148000090029 0.91512139508160772 0 0.76404828705430583 0.78174230667165401 0 0.71722872346306721 0.85096302760907838 0 0.69085763855200755 0.76120667115691065 0 0.6754414170471299 0.67700559910555169 0 0.74547688787239819 0.70026419381674654 0 0.81910554849723838 0.69100245438023977 0 0.84477163403336131 0.77519844632340484 0 0.90192269692920224 0.70295054578552552 0 0.9749171938312049 0.68304286407835557 0 0.98491966670915287 0.745702719141624 0 1.0785590511537511 0.75365885686631617 0 1.05 0.67063679245255348 0 1.1595355377629719 0.69612720023346242 0 1.2316049928421089 0.71268197388690568 0 1.130022579458912 0.80264790230838934 0 1.2104878010462079 0.79638517641579154 0 1.246238897717278 0.90016207822659 0 1.1492841477515361 0.89495863909300122 0 1.035017143854235 0.92577305964649748 0 1.039491394416145 0.83402983011495258 0 0.99999999999999911 1 0 0.94997493298435887 0.94717135651053852 0 1.1000000000000001 1 0 1.1999999999999991 1 0 0.8520969719592798 0.19112077159544111 0 0.81051762114363357 0.25355176211442859 0 0.91043121937362004 0.26518856856736223 0 0.87151744524583186 0.1145610820769897 0 0.89999999999870417 0 0 0.8072276847200428 0.07509171132446453 0 0.79999999999899607 0 0 0.75434135135171976 0.12888799631625769 0 0.73796379772146625 0.059893436010741673 0 0.69999999999928797 0 0 0.66267222434682926 0.078497159578092612 0 0.64669101990832323 0.1799054750174742 0 0.75284581776561577 0.20455093921856349 0 0.7545004114404561 0.31098089234202853 0 0.68811979868824935 0.26566684131589419 0 0.65823561246403328 0.35502292901158627 0 0.64897033023755402 0.45530630145656431 0 0.71094001953927277 0.41472992215547572 0 0.65500944633069913 0.60601350811213128 0 0.66278242936710119 0.53985356489900171 0 0.74775703275407246 0.49059679564787018 0 0.74991769371388628 0.60451627361984739 0 0.85383906663538056 0.62014574817393608 0 0.82099888937423493 0.54529350322201742 0 0.89730215834238125 0.56352362508531118 0 0.79315209058920677 0.38802315963964318 0 0.83603391221093415 0.31708941802047369 0 0.84897848255088726 0.46000674997733482 0 0.9184189969982266 0.43608586792060411 0 0.89716106756302072 0.36571612550017968 0 0.97284972811175952 0.32057650487681749 0 0.97803218086495292 0.39957666910545891 0 1.049999999998295 0.45311778235774403 0 1.0499999999982661 0.33749999999944968 0 0.95554667482020261 0.61387123313571723 0 0.95438428234324713 0.50021891445525024 0 1.0610070115193291 0.56187728740506249 0 1.160572984923127 0.60155304747043781 0 1.1544259370261769 0.49580194535795907 0 1.11366617971111 0.39530889117858181 0 1.1787318575418491 0.43180077319900678 0 1.2482752740169289 0.44264463249545388 0 1.193211192060164 0.36417169501775798 0 1.2189485028845071 0.28846717556219142 0 1.225209211892335 0.20648826945283069 0 1.14543293599463 0.16096823716187 0 1.1317936052402791 0.27327200211975772 0 1.0273907165533489 0.25089655084417212 0 1.0673059847957449 0.1861726764986896 0 0.96758455917765662 0.17206502793490561 0 0.99999999999841238 0 0 0.95940036225003311 0.0802667348803804 0 1.0527907183502181 0.1005001786211816 0 1.1494214575391031 0.075340014825429069 0 1.09999999999812 0 0 1.199999999997829 0 0 1.2999999999975369 0 0 1.254652873386052 0.105753482544517 0 1.3681535985071449 0.13698083382674339 0 1.399999999997245 0 0 1.349999999997392 0.060567969661089648 0 1.291408388555241 0.26372433042992383 0 1.316869459340541 0.18778020585802921 0 1.3878996413210389 0.26723502210068018 0 1.473286192129879 0.27883707652097373 0 1.4156792278190771 0.19574754335211339 0 1.4905184776249101 0.20629734327603311 0 1.545236949037224 0.29434567071731399 0 1.456639397274391 0.1016053838939758 0 1.53341268746562 0.14194251306413061 0 1.542152768646126 0.073248247890105089 0 1.4999999999969531 0 0 1.599999999996661 0 0 1.6999999999963691 0 0 1.6799832100487111 0.082202015566833181 0 1.609545399082946 0.1308291592921435 0 1.567491488875842 0.20218805454405439 0 1.6351951680630969 0.23707571199064051 0 1.714493154391862 0.28897291620938281 0 1.7304700827703301 0.17386188770806579 0 1.799219293849516 0.26438879273789773 0 1.8480644103363271 0.19193194889233381 0 1.8299024103288899 0.1151394713368583 0 1.799999999996077 0 0 1.75369588639865 0.074917217572982864 0 1.7537858687071439 0.50406839622489796 0 1.742806034420483 0.6006074591026016 0 1.8544400981153091 0.62488101477716596 0 1.8316048184152021 0.54157006606434721 0 1.850967139686138 0.45738417241574703 0 1.8620515405159661 0.32644761881501039 0 1.787749129254824 0.36176402170097799 0 1.7808296409871709 0.43587276890434401 0 1.71976181471802 0.39635806210359681 0 1.645895854313963 0.45222881216869149 0 1.6419306970571019 0.3436055112169133 0 1.645263810758179 0.55814977621663464 0 1.5386621965636409 0.60828218080060537 0 1.550364457075788 0.50467902559054656 0 1.4795754400412069 0.53983964974648579 0 1.445918816848357 0.6075709531782556 0 1.551956040519719 0.40384519109247291 0 1.4491802319415681 0.4666714614197911 0 1.4507225717793131 0.3561247496431208 0 1.347125314110625 0.32447518420453242 0 1.385017785528226 0.40713366384701549 0 1.3198129865007471 0.39133224900025881 0 1.2615469736996101 0.34090999671933891 0 1.3860523322451299 0.56073196187600105 0 1.3462106466432811 0.48060664220838062 0 1.2709684905841181 0.55537862536316829 0 1.2546738886072291 0.63615646469940468 0 1.3545060270195819 0.65002758689694418 0 1.4000454837723419 0.73943313674757749 0 1.3035852436207409 0.73866974635260263 0 1.2914654457895349 0.81843301378315825 0 1.3255948392482531 0.88328132587465524 0 1.3864786876100039 0.92208751032957958 0 1.386174597084219 0.82350876346868962 0 1.482119963281066 0.782586299849238 0 1.463012078585596 0.89209645917012148 0 1.546104640467868 0.9195568013001878 0 1.535346256113697 0.70153336654872078 0 1.4534042830965781 0.68426123045930609 0 1.2999999999999989 1 0 1.399999999999999 1 0 1.5 1 0 1.599999999999999 1 0 1.6999999999999991 1 0 1.7999999999999989 1 0 1.6597641702579149 0.778
[...]
<CellData Scalars="A_conc,As-lin_conc,Bs-lang_conc,Cs-freund_conc," Vectors="" Tensors="">
<DataArray type="Float64" Name="A_conc" format="ascii">
1.4901367383204252e-06 1.7215614983974656e-06 4.6346071124997677e-07 6.9762899100708429e-07 7.2408698655721998e-07 7.4828240340365451e-07 1.7158397074035495e-06 1.8016479376228392e-06 7.5544828844896181e-07 7.7966402569960514e-07 1.3144973488295442e-06 1.6444473685605069e-06 9.8013207451861398e-09 1.4450248486010824e-07 1.4840825341812834e-07 1.681646135827292e-07 1.0552889349415561e-07 6.7716116805850764e-09 4.4988376761538179e-08 1.6216195070729353e-07 1.7008656223885692e-07 1.6360651095745718e-07 4.1554381726054932e-08 9.6987514834821093e-08 1.1756940284789928e-09 1.8637518459212553e-08 2.5865139121077385e-10 9.9832478672712421e-10 7.8078660904589427e-12 1.2349602603839584e-09 4.3269930655865341e-08 2.3835212890834142e-09 5.5190098162352481e-10 4.2774688342909642e-12 7.5597420973229495e-11 1.3279168835458894e-10 2.5388623477281555e-09 1.8049525639934186e-10 3.2258746944381277e-10 4.3821428157934106e-11 2.9902797533613903e-11 1.401625598288868e-10 2.9379323727521579e-11 2.1996189335914175e-11 1.003536633744555e-10 1.150936857157703e-09 6.4581428259115434e-09 6.5326044514794755e-12 1.1736213323301419e-11 8.8176610663360517e-12 8.0289269086997586e-12 7.0281456604363197e-09 1.618288164036448e-11 1.1789795404247337e-11 2.7553100189075132e-11 2.7086193021430579e-11 1.1684894029363955e-11 8.6108482465553921e-12 2.2714000730771485e-10 1.0794204820168271e-09 3.8567347932274351e-11 8.2814211883018125e-11 5.9169211062536901e-11 3.2302053164294745e-10 4.8720420894086065e-10 6.2969255137630458e-10 2.0203999054359073e-09 1.0971432920148096e-10 2.4031936849563292e-10 2.9483988262501499e-10 3.2167420428722726e-10 3.0384373347701169e-09 3.3297213860184735e-11 9.2322656474682124e-11 4.523160549907763e-11 1.1693862602117247e-10 1.5972173224270134e-11 2.2021820336979735e-11 8.3306151662330947e-12 5.8444595860044358e-08 1.0466626075464567e-11 1.6789727850680877e-11 9.0630755959540387e-08 1.1198351509642414e-06 1.7293423994757967e-06 1.0286114508380339e-06 1.0041270861402094e-06 8.839467825246557e-08 5.3416676084925739e-07 5.6202916008452243e-07 1.6209023600080499e-06 1.5781113747737021e-06 2.1000607490127777e-06 1.3599979606141096e-06 5.4052752893876245e-07 1.7595479852093979e-07 3.0060807116358446e-08 1.02225030517246e-08 5.704503796427062e-12 5.6240407444817043e-08 3.1076070868246208e-08 1.7352125897733622e-06 2.0701491467796723e-06 2.0442956541327722e-06 2.2617529446526212e-06 1.9071948174784803e-06 1.9584067397439301e-06 1.6733834961138279e-06 3.4422755190892365e-07 4.2763227576370022e-07 3.3332481308592113e-07 3.2093514384553658e-07 1.5085532591887183e-06 1.4650182146748819e-06 9.0413119395023218e-07 8.7353357184188044e-07 6.1713997250909363e-07 1.6733619807255138e-07 3.1011985547797649e-07 1.7454545935817913e-07 4.8818372111441392e-08 1.1412011891692174e-07 1.0507352268855293e-07 4.6572514994599024e-08 2.0706352057887456e-08 6.2619813037173347e-09 8.907979586959151e-10 6.7616681569630332e-09 3.020142299496781e-08 1.1846217247345738e-07 3.2167836518497641e-08 3.4044278164151253e-08 2.9019182754347927e-09 1.2911997241632079e-09 1.9500294426283971e-09 3.6966248562710534e-09 9.5072479257192488e-09 7.4022885730475564e-09 2.5843666840018621e-09 6.6880966747296408e-09 3.5040038461644287e-09 8.5565018231825838e-09 2.5090275946600835e-09 2.3459439953223452e-08 1.0989867321346911e-08 1.6640842684792874e-07 1.701635641363585e-08 2.0429124943835701e-08 9.7184511017319725e-08 4.1880104844748619e-07 1.094399809981425e-07 3.9634468778578529e-07 2.1931931862028445e-07 5.7437607591757966e-07 1.5768537717256562e-07 6.0682144126350204e-08 5.7750621222888098e-08 3.422079525226418e-07 1.7351054166965428e-06 5.5983521448610593e-07 2.5159321996301276e-06 1.8673639774739139e-06 1.9199638795470175e-06 1.3597400241706627e-06 2.0387876257615734e-06 1.1353922309971794e-06 6.3188236575419657e-07 1.1773375303771471e-06 7.5418227065752285e-07 4.6854631614820745e-07 1.8561144638327416e-07 1.3627000570973423e-07 1.6200796887238887e-07 7.820459169681089e-08 1.0325319867712994e-07 6.9875883633327602e-08 3.0589454835508021e-07 2.8831969545093629e-07 1.9564178974386013e-07 1.7977419039977981e-07 1.1775126158701432e-07 4.0855581711471036e-08 4.7696509432699607e-08 6.096158168556335e-08 3.1246429049769123e-08 1.9588936423484594e-08 2.7849417663798867e-08 1.7301077901110318e-08 2.8480544581754949e-08 5.7626898871059058e-09 1.2358133358116133e-08 4.9159660354581035e-09 6.9249922032268282e-09 7.892625261793121e-09 6.5592763347184534e-09 8.977882004478943e-09 3.649792929171965e-08 3.4771619954761479e-08 4.9815620539979201e-08 4.5855752331452877e-08 1.0040852004069126e-08 1.1469656444698765e-08 7.7747775213216212e-09 3.1185399724142723e-08 2.8482906101137829e-08 3.3533105297004496e-08 8.2589161772174744e-08 7.1276969958597166e-09 8.0213295247498233e-09 1.3609116476907866e-08 6.768603745229634e-08 5.5570175642139516e-08 3.692813512854413e-08 5.9256605854313946e-08 5.5739969239659841e-08 1.9232160892657498e-07 1.7666508291458248e-07 2.2103488661995501e-07 3.2568577064903053e-07 2.0498310438088293e-07 1.8929473214006172e-07 9.5888006332999409e-08 7.3554887648023946e-08 1.1819951803042554e-07 1.7472711626386283e-07 1.7102190845256152e-07 2.1154652211745877e-07 2.3453132944247754e-07 2.5218443955504437e-07 2.7614875034046454e-07 3.0061473750066066e-07 3.5746075827442255e-07 1.9912909779238053e-10 2.0918805081376827e-10 8.8191718808002887e-11 5.9210737874891034e-11 3.1520107750024634e-10 4.6454470681822627e-10 5.5199833114782421e-10 9.9296407149487252e-10 5.2369989646295759e-08 5.0810027875608446e-08 3.421789765740517e-07 3.344596261224995e-07 3.3954434635496648e-10 3.5835568917842816e-08 9.6408091239583624e-08 9.9245883960848539e-08 8.323112535278738e-07 1.1521645031922496e-06 6.4330171966591066e-07 1.0333524824005553e-07 4.6202050344218555e-08 4.9715133587669056e-11 1.1822873594078784e-10 9.5401085420803762e-11 6.7180633372883396e-11 2.7496432188388204e-11 3.5445235887867332e-11 2.2540622440748792e-11 5.7840515167998079e-11 1.1463879545042704e-10 1.3819368768153815e-10 4.7532852170087503e-11 3.632530856635086e-11 6.6133425612398942e-10 5.3248107146658483e-10 3.7026620996820036e-10 6.9446951421926578e-10 8.2303777989536674e-10 1.2802793704989449e-09 1.511866942083485e-09 6.7122500674175415e-10 5.741017839234691e-10 7.5009102495654795e-10 1.3664085882529556e-09 2.0157905542222577e-09 5.0308440130472022e-11 3.4237880648115113e-11 3.3374936563444662e-11 1.6159802608889591e-10 4.9621464729274518e-11 5.6695546671024219e-11 6.6370763894901263e-11 9.6978737490608471e-11 1.3306634221984409e-10 1.027544679096242e-10 1.4403737727472455e-10 7.76170480869988e-11 9.4611753790877071e-11 1.9705245352541561e-10 1.4901806040542152e-10 1.4844604171116403e-09 1.3663661441598588e-10 1.0394463764406076e-10 4.0874983491929642e-09 3.617282830255065e-09 2.1650926211244043e-10 1.567491203151323e-10 2.7026043283174799e-10 5.9036369991654312e-10 4.8591314584835631e-10 3.7958600072532702e-10 1.6220467318157511e-10 1.1950729402419522e-10 2.709956236840426e-10 1.4864476613635006e-10 3.4184708858193328e-10 4.1253043840235857e-10 7.4546282619086608e-10 2.3108680385534169e-09 1.8164799374153706e-09 7.3612215422797406e-10 5.4359604507010286e-09 2.5884503259857517e-09 2.0634643021088072e-09 3.69324289914359e-10 4.8730893110954764e-10 1.5594048201995616e-09 1.178100013956351e-09 6.9824668994263108e-10 2.4511756146140156e-10 2.528247663524625e-09 7.6834970190064396e-08 1.409935757185649e-09 1.8011689735755294e-09 2.494159478372416e-09 3.3460369414702765e-09 6.5413918929601997e-09 4.5578631892253046e-09 3.7291997388109609e-09 4.9198015736767952e-09 8.5017791319216787e-09 1.057616312348997e-08 1.3216020560916251e-08 1.2010483704996664e-08 9.482012825521226e-09 1.4878115452524933e-08 2.1737579844621319e-08 1.8084862893553971e-08 1.2905306142969683e-09 1.0937979832463148e-09 6.8561894287412857e-09 3.4971981339133175e-09 1.1132144154219192e-08 5.2244739808424291e-09 4.2730677165039668e-09 1.7840071733211725e-09 2.4356247780151153e-09 5.7238653790829505e-09 6.5973118539317404e-09 1.5052489626046358e-08 6.9702461291354216e-09 1.2621395624849134e-08 2.3851365832729799e-09 6.300908334771687e-09 2.5073091046729281e-08 1.3241072827137714e-08 2.8332939748680726e-08 1.6923604814259449e-08 3.1823668256417421e-08 3.4267894434231843e-08 2.9304786690692607e-08 4.2328645257432216e-08 3.9116755442657741e-08 5.2055514435634488e-08 5.8093852898849873e-08 3.6280635292026267e-08 1.4573094851800033e-08 1.6054438821238379e-08 4.2535497755067015e-09 7.8229758346447664e-09 4.8537507731532526e-09 1.7365701097048276e-08 8.7280727360573013e-09 1.2663997646148166e-08 9.7169202916040238e-09 3.4607580966959054e-09 5.8792176590685001e-09 9.9601438992253742e-09 3.124440694983307e-08 7.8820113311190971e-08 7.5910706610975932e-08 7.1393141895420569e-08 6.4761301142234474e-08 4.0435042701351299e-08 4.3639709323891558e-08 8.0846963578790352e-10 1.2678429691880733e-09 4.4211382520319709e-10 1.1421491378491936e-09 1.245083722895832e-09 3.8449124521949735e-09 2.4349361414750405e-09 6.8229793377115518e-10 5.7493913568701946e-10 1.0320890341457026e-09 5.8248544470636039e-10 1.2133343098049595e-09 2.190060583830785e-09 2.1545188282889108e-09 6.0919492167870281e-10 1.0482274319851354e-09 4.2017746817260333e-10 5.0745074345331996e-10 6.6187187203406615e-10 1.0952320989445701e-09 5.24799971064554e-10 8.8860638112852758e-10 4.5275467495224563e-10 3.6796307468043453e-10 3.9937989202647364e-10 3.1478020047112029e-10 3.019540104812404e-10 1.8309865031596507e-09 5.0308364603277531e-10 7.8269634450886828e-10 8.9196094559829235e-10 1.0501926178109223e-09 2.0637977032153047e-09 9.1598962919368105e-10 5.55731965660501e-10 5.3635954760803258e-10 4.3224824764374867e-10 4.9696764618629554e-10 7.5361910311284303e-10 8.3698655295569113e-10 1.0649543117781007e-09 2.5142937356230151e-10 1.8916935268300478e-10 2.1201591175669289e-10 7.1277051942503549e-10 1.4682967869445595e-08 1.5553164186180634e-08 2.1264917053038191e-08 1.9507945198159954e-08 1.1252775213143592e-07 9.8231422171625244e-08 1.0505472821670043e-07 3.8415107833975349e-07 2.7027641566341953e-07 2.902534225537171e-07 4.0479906293041615e-07 2.5845711557130272e-07 2.2868902243728983e-07 1.2165498294917369e-07 3.0250325636221312e-07 5.7524324548040646e-07 3.4135108876458562e-07 2.425374007633833e-07 1.3082815658733756e-07 3.7744163491676599e-08 4.8088225299002295e-08 2.9879867732030824e-09 2.5780737473580177e-09 2.2230392908656534e-09 3.5629768672504238e-08 4.9069310754583079e-07 5.4214878586663192e-07 5.2282249067088932e-07 6.8836400964466305e-07 7.5580984030197735e-07 1.0092358871439781e-06 9.6117034444682873e-07 1.0415205035404096e-06 1.0906439419149006e-06 1.1336595527763413e-06 1.2113374099996221e-08 1.7303917497117683e-09 3.3727992494343631e-09 1.1035853707050108e-08 9.9326762262354407e-09 2.1390969675412674e-07 1.393468975040978e-07 3.6008852623023583e-07 7.2689418809313505e-07 4.8378539987203504e-07 1.3164199128615013e-07 2.2488804724979556e-07 1.5825003964737856e-07 1.2593174656604628e-07 5.0299615410586198e-07 4.4401554174103588e-07 4.6073178686968906e-07 1.3300726531228154e-07 1.3906518361051526e-07 2.1916431967996327e-08 1.8255147313538683e-08 1.989846560389745e-08 1.7872196319685113e-08 2.1380391167274696e-09 3.0215430254660452e-09 4.0378142431594958e-09 3.5713310933618783e-09 2.7080943613296522e-09 4.6812708200281149e-09 1.0561079021825248e-08 1.1600929873371797e-08 2.3897858250862053e-08 2.7461360711001632e-08 1.6772451137882135e-07 3.766584482241261e-07 3.997589710431765e-07 6.7941119605419996e-08 6.3345711824717508e-08 1.0719356019671982e-07 3.8884677383996153e-07 6.1331012210909879e-07 1.7114695581095071e-07 1.1716637460205156e-07 3.2079325395261751e-08 4.070646248588601e-09 7.4417240699274049e-09 5.6757348086481176e-09 3.3740323379312228e-09 2.5015694558260982e-08 2.7660787187057426e-08 6.4216149192045274e-09 1.6454171277685506e-06 1.1147575648333016e-06 1.2365529577801814e-06 1.2750522185468974e-06 5.9124832818326026e-07 8.1066333591197487e-07 4.8505126311714153e-07 5.1406517048615567e-07 4.4036250157824141e-07 4.9090939064319775e-07 7.2203437390116459e-07 4.9262792113312841e-08 2.0640793830393709e-08 1.6194263686016471e-08 8.5324930052715872e-09 3.635968694568546e-08 1.2014075517260717e-08 1.0064115919246904e-07 4.4396580290371956e-08 1.826870363455203e-07 1.2953241846175332e-07 3.6899407622939583e-07 1.1266963360408127e-07 4.2969486907218068e-08 1.7294423058565521e-07 3.7219660280754381e-07 1.8541064550795055e-07 3.7598028175009264e-07 1.2327074266881879e-07 2.6194632335971863e-07 7.994650377904797e-08 2.5086573985832614e-08 4.9559143362244271e-08 1.0474493037173656e-07 2.4159214325865551e-07 8.7125796956381589e-08 1.8968975398947472e-07 2.4420260887635041e-07 9.2906902310647019e-08 4.103206419869546e-08 1.6499199646728636e-08 3.2710615566748144e-08 6.0553348446139991e-09 5.9102586479363666e-09 1.8561924592325488e-08 2.6267168448102523e-09 1.2176297785753281e-09 4.8476329306752662e-09 6.4268049892153665e-09 1.8117992415339397e-09 2.836675121412104e-09 4.0772947199335692e-09 8.5753669320008073e-09 6.1400586805985354e-09 1.206122164259402e-08 2.0779278038019457e-08 4.4930655637784872e-08 1.066298001470036e-07 2.1589308317669882e-07 2.1039169870160762e-07 1.8868514563457776e-07 9.7567041433955605e-08 2.2766364480671415e-07 8.9624569696144121e-08 4.7714352830348151e-08 2.3529199255455438e-08 4.9113156161121735e-08 2.2798997948088438e-08 5.1017139494082183e-07 8.3402383462410132e-07 3.5681988573788846e-07 4.5007124390129935e-07 2.3431016076066506e-07 1.5159573910584239e-07 1.0623914516755842e-07 3.1160670483442765e-07 2.4875402681138778e-07 2.176406045810406e-07 9.2907179660409063e-08 8.2039343274463528e-08 7.3817413367344261e-08 1.6372143536341682e-07 1.9815322867948255e-07 1.671569295136815e-08 3.5519948449884179e-08 3.2312467688340284e-08 1.0435227870767838e-08 8.1897301021817377e-09 9.2454431735730188e-09 4.5536603560093736e-08 1.5899007237966126e-08 4.8612211050884402e-09 1.4615938704743471e-08 1.5271536166319354e-07 4.9227222354093514e-08 4.6594147886923862e-08 1.4310588800869186e-07 1.3325276943120032e-07 9.9017622470822151e-08 4.2649542661204494e-08 8.5642990039589114e-08 3.4968372201271346e-08 8.5946377628179207e-08 9.3309015609008848e-08 9.0988665480388e-09 4.4015188508237064e-09 1.3259659899051288e-08 3.1511817289341772e-08 1.1804660142043671e-08 2.8668615379187646e-08 8.5737679569540371e-09 6.5062770190140048e-09 1.3855107602073651e-09 2.9104566796698974e-09 3.1902655984097749e-09 9.4116485745413373e-10 1.1051315318639885e-09 6.9802061433269612e-10 6.7121655698712931e-10 5.62340351349006e-10 5.2782256406415794e-10 1.5311741900920704e-09 7.6087351926061008e-10 1.4292901866511621e-09 9.4929584822195329e-10 6.1162540250936496e-10 7.4088006016137e-10 1.1786030229117213e-09 1.6873525236040406e-09 3.5789013670275755e-09 3.7829684788369328e-09 1.5023929992696303e-09 9.3764984191906737e-10 3.3408864942936922e-09 2.8932663168999285e-09 1.2296765685329398e-09 6.6994165178565792e-10 0.23259648107676459 0.22681951021959817 0.24049203103750849 0.25420520510029909 0.25887070373654053 0.24639295570520992 0.26304805675702048 0.27076397660204526 0.26202255069119024 0.26141080900894809 0.26915057529321218 0.26145919456648986 0.25399314446977628 0.25432093494516267 0.24956091943271494 0.26975651224955888 0.26206855868541012 0.267341579827717 0.25525908522733387 0.24080860336220822 0.23925911948957809 0.24712313407220957 0.24430540908578735 0.22534494754681292 0.2309740870512299 0.2278967634341475 0.23448306128373503 0.2436809703668919 0.23585717566729764 0.23829274963580199 0.23089206518788241 0.22338861155283243 0.22284961189664199 0.20672866718774441 0.21687075619592627 0.21402476692381633 0.20153941165871589 0.22168990442404482 0.21318951012876464 0.21807766390450445 0.20934524096306298 0.20178152922647818 0.19737009635529346 0.2059140615770641 0.18320237374281217 0.19189747694144696 0.1827859599633419 0.1857289738738368 0.17629126129165085 0.17724349295871872 0.19535375175041328 0.18616012761943901 0.19356380662136616 0.17696274700679201 0.17459793493164327 0.17609795743043119 0.17900250349102467 0.1872545978712627 0.19334375805539833 0.21883753020469165 0.2127902005990735 0.20704961293173094 0.19893669187878213 0.2276917514189013 0.2336921796054299 0.23566822555940828 0.24422877136018217 0.24158115174370473 0.25429455743450807 0.25458492472027583 0.24677475526631282 0.26304805737158821 0.27076397732656993 0.26232295569649883 0.26219544430789593 0.24859569498338258 0.25419605191688549 0.25305062216565632 0.26915057888388427 0.26145920448559018 0.26734158605072605 0.26188338790104776 0.24755488256067634 0.24352942246296844 0.23612806214536142 0.22644529049939877 0.22880203916104971 0.23491757728202023 0.23085252144006119 0.22893595184777535 0.23620492106175561 0.24236430554507979 0.23582945849191947 0.24262401377942713 0.24118936145651998 0.25485817477220735 0.25545240625112103 0.26957238427719132 0.26131598507846809 0.26677642490973541 0.24887707826572969 0.25093879371762917 0.25865992216843714 0.26693266194145338 0.26165801381201115 0.25462666603176537 0.24648530692825613 0.24055723422289657 0.23371134042564448 0.22721553122327426 0.23242085143354552 0.21512064866455477 0.2207743952569888 0.21393887798528805 0.20820060172658056 0.20134462961230246 0.20138844645020193 0.20933620502725395 0.18950060399153962 0.19668744171397518 0.18446643886003894 0.17714436009498688 0.17322712542519672 0.19396553603101999 0.18860347103859526 0.19422814380123402 0.18739221097149147 0.18228101094227528 0.17402644981081711 0.17837160770643218 0.17118162655818861 0.18612574755253555 0.200598879406615 0.20820492103395269 0.20752983256579874 0.22153184245532495 0.21439805897728945 0.21523557668822707 0.22343312654841346 0.22091781314789577 0.21435623123526468 0.22135474577354802 0.19931573740021447 0.20818403867194671 0.19690704197516223 0.18999494155230248 0.17676366065843863 0.18354126691343872 0.17645610103546766 0.18384856751356618 0.19012507152004721 0.19556448177089225 0.18732579533491595 0.17416374761610243 0.17842543245487916 0.17504253129287817 0.1837220596810146 0.19194064725729276 0.20704745196929669 0.19893431752943419 0.20363065317110746 0.21143450435848185 0.21769021274159703 0.21477599016562512 0.22278411763299993 0.12513732213488754 0.13064673657418757 0.13782743630259586 0.145324545524462 0.13674870881533496 0.15286294045041629 0.16669995744186678 0.16131087207845091 0.15276434686919776 0.14638184285518427 0.15970596072489757 0.15065730514456321 0.1699862377486307 0.16730276487012502 0.16851721347938489 0.16284108489732529 0.1560754461360519 0.14453440650406882 0.1389414828626685 0.14468890707435811 0.13268499532592853 0.11877439128704328 0.12531177750964298 0.12323832721507368 0.13147967288498105 0.11857908525465488 0.12897681913730816 0.1197104212862239 0.13726955647776565 0.14674243669551745 0.15679906438732452 0.16337807518802189 0.16039120360125533 0.16822230988156101 0.15477018995216302 0.14614699320549934 0.15466148096106089 0.16046944113567471 0.1678453717834224 0.16295085966096884 0.16721631421868757 0.15702506470583844 0.15123637361059117 0.13768100250206564 0.14372525192871352 0.13663574322907229 0.12798715419093312 0.12315802750996807 0.13219756865319834 0.11232306599974773 0.10700024895915082 0.11857084454757955 0.10307310357852913 0.11122254150316775 0.094559852866806654 0.095503938689671941 0.10109594888882467 0.081419627054690538 0.087817004383257416 0.082209827717711084 0.067719860193412335 0.0636569456937678 0.07356350709889356 0.070016956136177325 0.086711542131490751 0.077517949988634455 0.08007622940942212 0.071489578634052545 0.062725418571647054 0.064320731332914702 0.084899630114049621 0.088352903211216874 0.094957808001479529 0.11182348344374207 0.10159567707092423 0.1092703764922541 0.10255844989516649 0.10973128504484622 0.11518524102