<?xml version="1.0"?>
<VTKFile type="UnstructuredGrid" version="0.1" byte_order="LittleEndian">
<UnstructuredGrid>
<Piece NumberOfPoints="714" NumberOfCells="1306">
<Points>
<DataArray type="Float64" NumberOfComponents="3" format="ascii">
0 0 0 0 0.10000000000041601 0 0.082799035591426873 0.082799035591510806 0 0.099999999999928008 0 0 0.19999999999983389 0 0 0.20669143849501961 0.085546078947938975 0 0.29145143692666958 0.13500804559578439 0 0.29999999999973409 0 0 0.24783073444672249 0.24783073444648379 0 0.21725788110387281 0.17316968768743621 0 0.17318221359491059 0.27409688392309489 0 0.089078158003765312 0.2493007687782936 0 0.140351188660986 0.16130415108589741 0 0 0.20000000000083221 0 0.066361468125430589 0.15903440181097661 0 0 0.30000000000124832 0 0.0632094674441709 0.3449112819864934 0 0 0.40000000000166441 0 0.083393126324559225 0.42307471369029392 0 0.13897501191807771 0.34545639364066222 0 0.070553891733833127 0.57745844360881338 0 0 0.60000000000138687 0 0 0.50000000000205869 0 0.12353277228144981 0.51086097771927308 0 0.16324260003398389 0.62262730759772122 0 0.1946526892501724 0.54636184660733622 0 0.27220668248394869 0.50912429725145214 0 0.27661118526457179 0.58730386222759956 0 0.16486701364709541 0.41592657376307979 0 0.21928696632013719 0.4676461135047027 0 0.29987747321592639 0.43430880093746571 0 0.2371857680100064 0.35865548441110112 0 0.34318159319555042 0.3314386771104964 0 0.38593969585746768 0.44843324941957241 0 0.42544665781957403 0.3726599289372452 0 0.38240158409674341 0.60644575028138747 0 0.34793494568226019 0.52426775179830853 0 0.45232393232070839 0.53082724112931345 0 0.46433624429412901 0.61260020600107856 0 0.55763912874459476 0.49619993861770217 0 0.56379254693201075 0.58472273515948836 0 0.49272830291620878 0.32528628960011152 0 0.47711113382803011 0.43513410852522788 0 0.56509579243166053 0.39588847936247551 0 0.58612580217118482 0.27813894450229909 0 0.49255105193724569 0.22337579986912359 0 0.5565830077206213 0.19095699352548859 0 0.59999999999951659 0 0 0.57505385014294308 0.072457888465917331 0 0.49999999999959438 0 0 0.50264032148191051 0.12292784096123539 0 0.43504744109702559 0.077628892606360606 0 0.39999999999966429 0 0 0.35933948296838258 0.073809900849860513 0 0.33604819894646598 0.23280286076243209 0 0.41589935411558732 0.26752529264016389 0 0.40428440976105728 0.1643886070295453 0 0 1 0 0.099999999999999645 1 0 0.14716362552681639 0.93861610753355362 0 0.19999999999999929 1 0 0.30000000000000071 1 0 0.29792158491427922 0.79537096033156995 0 0.2235202862591317 0.88873896332704583 0 0.1332109546178302 0.87498377138822103 0 0.075231054453351903 0.92314074346405706 0 0 0.89999999999958358 0 0 0.79999999999999982 0 0.074918724681641777 0.83311952320732263 0 0.1533088418661793 0.80370257472597129 0 0.089684836063650353 0.74720097194875412 0 0 0.7000000000006934 0 0.079752623936563252 0.65630726580969023 0 0.16551550920047911 0.70947866912672319 0 0.22047232289835689 0.77501739045979867 0 0.25446499951716589 0.69023946426646743 0 0.32437633398017029 0.65970549827478953 0 0.33985912385126898 0.73174041004507751 0 0.42824324229177341 0.6924957961634054 0 0.5174764925733939 0.65338828204098198 0 0.59670004617370476 0.65981579440137683 0 0.62152629835360762 0.73285157302339954 0 0.52912171753951986 0.73993242892488531 0 0.51076728641122882 0.81691863363193817 0 0.62017612851329729 0.81451802170669263 0 0.56701461556202259 0.86335846433862784 0 0.45907587517201498 0.90165918271477563 0 0.43819239467549531 0.79296936871720936 0 0.36912581253574028 0.83088590731704637 0 0.37337282601342481 0.92616598444216514 0 0.31535921456193688 0.88154045330654418 0 0.39999999999999952 1 0 0.49999999999999911 1 0 0.59999999999999964 1 0 0.5499999999999996 0.93976792513729512 0 0.70000000000000018 1 0 0.79999999999999982 1 0 0.89999999999999947 1 0 0.8793859710393791 0.93083561064221121 0 0.93540888248908083 0.88281232945237675 0 0.91372311269140116 0.80486176357476358 0 0.82192606283926717 0.87651855948129354 0 0.73937541854631073 0.9288754054780668 0 0.64588148000090029 0.91512139508160772 0 0.76404828705430583 0.78174230667165401 0 0.71722872346306721 0.85096302760907838 0 0.69085763855200755 0.76120667115691065 0 0.6754414170471299 0.67700559910555169 0 0.74547688787239819 0.70026419381674654 0 0.81910554849723838 0.69100245438023977 0 0.84477163403336131 0.77519844632340484 0 0.90192269692920224 0.70295054578552552 0 0.9749171938312049 0.68304286407835557 0 0.98491966670915287 0.745702719141624 0 1.0785590511537511 0.75365885686631617 0 1.05 0.67063679245255348 0 1.1595355377629719 0.69612720023346242 0 1.2316049928421089 0.71268197388690568 0 1.130022579458912 0.80264790230838934 0 1.2104878010462079 0.79638517641579154 0 1.246238897717278 0.90016207822659 0 1.1492841477515361 0.89495863909300122 0 1.035017143854235 0.92577305964649748 0 1.039491394416145 0.83402983011495258 0 0.99999999999999911 1 0 0.94997493298435887 0.94717135651053852 0 1.1000000000000001 1 0 1.1999999999999991 1 0 0.8520969719592798 0.19112077159544111 0 0.81051762114363357 0.25355176211442859 0 0.91043121937362004 0.26518856856736223 0 0.87151744524583186 0.1145610820769897 0 0.89999999999870417 0 0 0.8072276847200428 0.07509171132446453 0 0.79999999999899607 0 0 0.75434135135171976 0.12888799631625769 0 0.73796379772146625 0.059893436010741673 0 0.69999999999928797 0 0 0.66267222434682926 0.078497159578092612 0 0.64669101990832323 0.1799054750174742 0 0.75284581776561577 0.20455093921856349 0 0.7545004114404561 0.31098089234202853 0 0.68811979868824935 0.26566684131589419 0 0.65823561246403328 0.35502292901158627 0 0.64897033023755402 0.45530630145656431 0 0.71094001953927277 0.41472992215547572 0 0.65500944633069913 0.60601350811213128 0 0.66278242936710119 0.53985356489900171 0 0.74775703275407246 0.49059679564787018 0 0.74991769371388628 0.60451627361984739 0 0.85383906663538056 0.62014574817393608 0 0.82099888937423493 0.54529350322201742 0 0.89730215834238125 0.56352362508531118 0 0.79315209058920677 0.38802315963964318 0 0.83603391221093415 0.31708941802047369 0 0.84897848255088726 0.46000674997733482 0 0.9184189969982266 0.43608586792060411 0 0.89716106756302072 0.36571612550017968 0 0.97284972811175952 0.32057650487681749 0 0.97803218086495292 0.39957666910545891 0 1.049999999998295 0.45311778235774403 0 1.0499999999982661 0.33749999999944968 0 0.95554667482020261 0.61387123313571723 0 0.95438428234324713 0.50021891445525024 0 1.0610070115193291 0.56187728740506249 0 1.160572984923127 0.60155304747043781 0 1.1544259370261769 0.49580194535795907 0 1.11366617971111 0.39530889117858181 0 1.1787318575418491 0.43180077319900678 0 1.2482752740169289 0.44264463249545388 0 1.193211192060164 0.36417169501775798 0 1.2189485028845071 0.28846717556219142 0 1.225209211892335 0.20648826945283069 0 1.14543293599463 0.16096823716187 0 1.1317936052402791 0.27327200211975772 0 1.0273907165533489 0.25089655084417212 0 1.0673059847957449 0.1861726764986896 0 0.96758455917765662 0.17206502793490561 0 0.99999999999841238 0 0 0.95940036225003311 0.0802667348803804 0 1.0527907183502181 0.1005001786211816 0 1.1494214575391031 0.075340014825429069 0 1.09999999999812 0 0 1.199999999997829 0 0 1.2999999999975369 0 0 1.254652873386052 0.105753482544517 0 1.3681535985071449 0.13698083382674339 0 1.399999999997245 0 0 1.349999999997392 0.060567969661089648 0 1.291408388555241 0.26372433042992383 0 1.316869459340541 0.18778020585802921 0 1.3878996413210389 0.26723502210068018 0 1.473286192129879 0.27883707652097373 0 1.4156792278190771 0.19574754335211339 0 1.4905184776249101 0.20629734327603311 0 1.545236949037224 0.29434567071731399 0 1.456639397274391 0.1016053838939758 0 1.53341268746562 0.14194251306413061 0 1.542152768646126 0.073248247890105089 0 1.4999999999969531 0 0 1.599999999996661 0 0 1.6999999999963691 0 0 1.6799832100487111 0.082202015566833181 0 1.609545399082946 0.1308291592921435 0 1.567491488875842 0.20218805454405439 0 1.6351951680630969 0.23707571199064051 0 1.714493154391862 0.28897291620938281 0 1.7304700827703301 0.17386188770806579 0 1.799219293849516 0.26438879273789773 0 1.8480644103363271 0.19193194889233381 0 1.8299024103288899 0.1151394713368583 0 1.799999999996077 0 0 1.75369588639865 0.074917217572982864 0 1.7537858687071439 0.50406839622489796 0 1.742806034420483 0.6006074591026016 0 1.8544400981153091 0.62488101477716596 0 1.8316048184152021 0.54157006606434721 0 1.850967139686138 0.45738417241574703 0 1.8620515405159661 0.32644761881501039 0 1.787749129254824 0.36176402170097799 0 1.7808296409871709 0.43587276890434401 0 1.71976181471802 0.39635806210359681 0 1.645895854313963 0.45222881216869149 0 1.6419306970571019 0.3436055112169133 0 1.645263810758179 0.55814977621663464 0 1.5386621965636409 0.60828218080060537 0 1.550364457075788 0.50467902559054656 0 1.4795754400412069 0.53983964974648579 0 1.445918816848357 0.6075709531782556 0 1.551956040519719 0.40384519109247291 0 1.4491802319415681 0.4666714614197911 0 1.4507225717793131 0.3561247496431208 0 1.347125314110625 0.32447518420453242 0 1.385017785528226 0.40713366384701549 0 1.3198129865007471 0.39133224900025881 0 1.2615469736996101 0.34090999671933891 0 1.3860523322451299 0.56073196187600105 0 1.3462106466432811 0.48060664220838062 0 1.2709684905841181 0.55537862536316829 0 1.2546738886072291 0.63615646469940468 0 1.3545060270195819 0.65002758689694418 0 1.4000454837723419 0.73943313674757749 0 1.3035852436207409 0.73866974635260263 0 1.2914654457895349 0.81843301378315825 0 1.3255948392482531 0.88328132587465524 0 1.3864786876100039 0.92208751032957958 0 1.386174597084219 0.82350876346868962 0 1.482119963281066 0.782586299849238 0 1.463012078585596 0.89209645917012148 0 1.546104640467868 0.9195568013001878 0 1.535346256113697 0.70153336654872078 0 1.4534042830965781 0.68426123045930609 0 1.2999999999999989 1 0 1.399999999999999 1 0 1.5 1 0 1.599999999999999 1 0 1.6999999999999991 1 0 1.7999999999999989 1 0 1.6597641702579149 0.778
[...]
<CellData Scalars="A_conc,As-lin_conc,Bs-lang_conc,Cs-freund_conc," Vectors="" Tensors="">
<DataArray type="Float64" Name="A_conc" format="ascii">
3.2509479485963476e-06 3.6659796952580307e-06 1.0809613597970233e-06 1.5856788280412784e-06 1.6138292876407175e-06 1.6396828512020981e-06 3.5978140662974141e-06 3.6869574889902933e-06 1.6139978795226813e-06 1.6402178345460668e-06 2.6967885467521813e-06 3.345888567727864e-06 3.440559369963593e-08 3.3388143063121242e-07 3.3914408289115128e-07 3.8557441498780866e-07 2.4911298596230986e-07 2.4831703305643264e-08 1.1248673291241325e-07 3.7820182815556993e-07 4.0182573758224286e-07 3.9413361742981696e-07 1.0737574409096207e-07 2.4292939208728085e-07 6.9070459368951728e-09 5.0875479093111785e-08 4.7279435036723242e-09 7.2538964323978158e-09 5.3777528248666556e-09 7.4271643023031599e-09 1.0989998467638655e-07 4.8864072180563902e-08 2.48208582570254e-08 4.6842842985756004e-09 1.9551461635196279e-08 2.4032313367506831e-08 5.1282992451180392e-08 2.5416262537452048e-08 3.5319998800792116e-08 8.1805402582551918e-09 7.5756863105741248e-09 1.3195216691232472e-08 5.8443910744125399e-09 5.4005233785079693e-09 1.2369927036257792e-08 8.0700919555655499e-09 2.3519058154104799e-08 5.4354455766263584e-09 5.8823644811726973e-09 5.8909340263534136e-09 6.9375313937707437e-09 2.5963320325545419e-08 8.621089068027653e-09 7.7962581462681246e-09 8.4490972119323149e-09 9.9503246755578244e-09 1.2358316243816959e-08 1.1176450373494882e-08 1.5992251415259662e-08 5.470068643367995e-08 6.3290349357145465e-09 7.7903953512911992e-09 6.8133738740016087e-09 1.7291106581649514e-08 1.9905794119760711e-08 2.1564856246639476e-08 4.7704505332506423e-08 9.0362510170286441e-09 1.2360767403775592e-08 2.1585972707643395e-08 1.6525753229666825e-08 5.8175066211031818e-08 1.1128214853471409e-08 1.0485969737445785e-08 1.8911560663788178e-08 1.3817085430637438e-08 1.4940542207711693e-08 1.8888208190965451e-08 1.8769570425450866e-08 1.5842697558290945e-07 2.8486741423597301e-08 3.3748256089769969e-08 2.369666270573652e-07 2.2169467862189724e-06 3.3614609388524195e-06 2.0420171879855388e-06 2.0131759051590878e-06 2.28395578228653e-07 1.1027366075446553e-06 1.1690586292288354e-06 3.1767165698581213e-06 3.1305286726859541e-06 4.1380399557744983e-06 2.7453390529035055e-06 1.1439545044487224e-06 3.944900080733357e-07 8.7159157094378112e-08 3.6226120014805409e-08 1.671297839907308e-08 1.5169387197453723e-07 9.0252571815974261e-08 4.0288163153469374e-06 4.6782597757329597e-06 4.5792345189336389e-06 4.9605114575813913e-06 4.2618823234163033e-06 4.3265004979330758e-06 3.7643232932496636e-06 1.0009211341661174e-06 1.1943685685274934e-06 9.8001679886018492e-07 9.5594217637759599e-07 3.4746505275418044e-06 3.4178493966308656e-06 2.229260670403038e-06 2.1857702767187926e-06 1.6187310946316784e-06 5.7650691222576106e-07 9.3474102615407051e-07 5.9362291197757292e-07 2.2975770544535399e-07 4.3997504317861301e-07 3.9463021039226853e-07 2.2116365484746858e-07 1.1921363174771368e-07 9.4753572400509138e-08 6.7172900455586699e-08 9.9581321508250404e-08 2.3712927686144397e-07 4.5221619216367732e-07 2.4678948495456514e-07 2.551500726492065e-07 1.2183198887656529e-07 7.1758981236418792e-08 7.3087936654200449e-08 1.273777412103946e-07 1.9569811416120556e-07 1.860122077288999e-07 7.7099747624858353e-08 1.342548796197641e-07 8.5786917070769685e-08 1.4250754064006579e-07 5.2091453606317634e-08 2.9214862750007939e-07 1.5873879065235961e-07 7.1037683885181482e-07 2.7094504939493664e-07 2.8303408945228936e-07 6.0485890821865556e-07 1.2677079648972169e-06 6.3713068299734501e-07 1.2272684421089888e-06 8.5864003791883412e-07 1.5316483157343205e-06 6.8993841879598309e-07 3.6568409250866938e-07 3.5598234772931059e-07 1.0127798738967815e-06 3.8439663544112579e-06 1.5075981642181164e-06 5.3462324900252073e-06 4.1084317659117965e-06 4.1748136530561961e-06 3.114005799054162e-06 4.4012418393938976e-06 2.715919646764706e-06 1.7843214092296885e-06 2.7809485751434006e-06 2.0561667663459327e-06 1.9839989758020239e-06 1.9381740330357364e-06 1.2451048061256256e-06 1.826508932902142e-06 8.1603461302977849e-07 1.1477090016629288e-06 6.5567096716146529e-07 1.4378271812501363e-06 1.2818008481828023e-06 9.3502127817393106e-07 8.701135797965328e-07 6.6132843634484072e-07 4.0308478269935441e-07 4.4332932898742314e-07 5.4971404834931642e-07 3.4943701733991937e-07 2.2170160448429027e-07 2.9783230741176343e-07 2.0113355885292609e-07 3.1214949386696714e-07 1.0122626365749862e-07 1.5915325848642895e-07 8.4663232508115745e-08 1.3553459532861259e-07 1.8356920294793351e-07 2.5590686497829031e-07 4.8237004906626965e-07 5.6739120682682076e-07 4.2996217363164614e-07 1.2423910692979807e-06 8.7605089537954268e-07 7.7347151488165901e-07 1.391894856528097e-06 2.2371519777391431e-06 2.5007689767703392e-06 1.5701526906877314e-06 3.7601787773880804e-06 3.8214472791851161e-06 1.2930542630196127e-05 2.3351076846996127e-05 3.6605660996717606e-05 3.6177431886048845e-05 2.5125978689017971e-05 6.4131898677722955e-06 1.5709313852280504e-05 1.0614241026118572e-05 1.6190986701266132e-05 9.6058275248319963e-06 4.0937210891531253e-05 2.9523235378382524e-05 2.4833314651887693e-05 5.5976319629257487e-06 6.5753400266744209e-06 2.165003678938579e-06 1.7423064814589429e-06 2.4382210888404312e-06 3.3858797670720283e-06 2.7641934196177361e-06 4.3006168242150989e-06 6.3232136539488168e-06 1.0498684868659682e-05 1.7606055268101484e-05 4.9230933673428273e-05 1.8663474592867957e-07 2.8282760812558206e-07 2.5178236357801109e-07 1.4814924781540559e-07 4.9414123969135385e-07 8.7467151962446539e-07 6.1390046749013822e-07 1.2658080405118571e-06 1.2560728658773445e-06 8.2531208211440372e-07 1.0503792770692054e-06 9.0835595010594438e-07 3.2610696079936075e-07 4.202654730218177e-07 3.4476890701809764e-07 4.2164225669231585e-07 1.730743909189514e-06 2.2668251158204799e-06 1.3446616125927283e-06 2.7485725961925776e-07 1.8429661950174872e-07 6.5285459885634584e-08 1.1412265984416287e-07 1.4344035845817327e-07 9.5772564334268609e-08 4.2931937155529986e-08 4.4670111714675885e-08 2.944196709223662e-08 3.0096194935555278e-08 4.6878386517513164e-08 8.1307395176960593e-08 6.8907782736474118e-08 4.1959018469653575e-08 4.2030203957202931e-08 2.6882397164326502e-08 3.5222089090501753e-08 7.0690805852699401e-08 1.2225331666420153e-07 1.9769309911129977e-07 3.6813954360716613e-07 3.7641149979378825e-07 2.0456866600246668e-07 6.0869849498174891e-07 1.2787433505040609e-06 6.6179728672904471e-07 2.1735901290582484e-07 1.2324275709267205e-07 2.6420725650122265e-07 1.3483584385610294e-07 4.9479196896073684e-07 7.6576510835063553e-07 7.5198540660369569e-07 4.6219883781391159e-07 7.4700198476523339e-07 1.1169283730139049e-06 1.8927036790660601e-06 1.3359524508892138e-06 1.9293876095916241e-06 5.2635307924259987e-06 3.3010121759687364e-06 1.9110490899005494e-06 6.0387969298092772e-06 3.3289435171866969e-06 7.0660587629685061e-06 3.928741060909735e-06 1.2232744625508357e-05 3.3911856500637044e-05 2.0993692644850452e-05 4.2665760510046877e-05 1.1638257127720311e-05 7.4416757801554797e-06 1.4077542852964928e-05 8.4379385553104294e-06 1.5902375482211205e-05 2.122624203339762e-05 2.4424768866818013e-05 3.5143278444758724e-05 3.0734336066973716e-05 3.8520975122139662e-05 2.3699221136316681e-05 1.8996031615466856e-05 3.2299225094775796e-05 1.6817564130800567e-05 1.0766590503547161e-05 2.4765684697610676e-06 3.9850891452140656e-06 6.399483407672002e-06 3.4596443929527176e-06 1.6446159663793376e-06 1.2918842304311676e-06 3.8857101083257711e-06 2.307084580998708e-06 2.2061881986713303e-06 3.8203910567209873e-06 6.7571847991903748e-06 6.3784119378101516e-06 2.0429413420877292e-05 1.1189405351308807e-05 1.1113120872853371e-05 1.8903555967506304e-05 3.4658970770481402e-05 5.5371333164314647e-05 9.0835622660780433e-05 9.6819713133085267e-05 8.716739103807467e-05 0.00015958114423965348 0.00025252062931786616 0.00016007451604157334 6.7243616009482769e-05 4.73822373414416e-05 5.2737732887999766e-05 6.112219311755667e-05 0.00015958574485748874 0.00015022760955375988 9.5032466244037215e-05 0.00010883577737475407 0.00025926357352897326 0.00024005832378635604 0.00034487850217718261 0.00034631703741619488 0.00064659963428471685 0.00064870037938849294 0.0003908071877898714 0.00048887258877613636 0.00036881263365352201 0.00024591997466634838 0.00061530354976408299 0.00047888676945028559 0.00086459393583225889 0.00082842365893996987 0.0005627017188215705 0.0015668535609197 0.0012209312666867163 0.0020329733532021155 0.0028708600307781906 0.0021227707168243069 0.00090361855836234477 0.0012008387501172104 0.0012233637002864828 0.00089148271707560774 0.0017455635322469918 0.0015231497995380344 0.0023481249049253959 0.0042785150598340198 0.0031785887332681745 0.0038142075692032896 0.0065069462157332182 0.0061463576733926766 0.0049140974044294475 0.0071011734364224317 0.0062950576677460648 0.0051247248399022994 0.0037419723612004221 0.0029698355014812702 0.0037980817074085259 0.0038186032926020744 0.004917553839958057 0.0051014342035390365 0.004793391276948996 0.0057540604568374048 0.0049880631394404653 0.0030034192126713577 0.0032534973847957154 0.0038698530373422772 0.0038567076899308625 0.0023665947770934413 0.0017543245457186292 0.002290332569708676 0.00084760199104786792 0.00084169520164361147 0.0012350588007907311 0.0012140615757456998 0.0017378330423040453 0.0027143361299475696 0.0019121335424490279 0.00084770138356147888 0.0013004360555044455 0.00063645451077959218 0.00042971080755898635 0.00041011950745092218 0.00026714159808117007 0.00029543900549800747 0.0005653274758200096 0.00055530412180539168 0.00026608410798197886 0.00036219606883994596 0.00015167688972024442 0.00017582004776667512 0.00011199757902035059 0.00015913057468821401 0.00011006716769137039 7.0834426503284763e-05 5.0864161362609106e-05 7.4540012543507589e-05 0.00011094071351922724 0.00019017244118349082 0.0001730685310183191 0.00010252648589536679 5.7975680030703487e-05 7.1328919580088297e-05 5.5678960833557633e-05 7.7252997630713376e-05 0.000205588788590823 0.00013057005235879459 0.00013286984335239278 5.5142124407846697e-05 8.5260439374534172e-05 8.0876888442505372e-05 6.225580139923947e-05 0.00014958597508185989 0.00011873623740568654 9.2347261282611136e-05 0.00029668177212877062 0.00020929765411346096 0.00020291170872679119 0.0005619129627631431 0.00064403234882713114 0.00044001311099449756 0.00065733723888692643 0.00045781499399106677 0.00065515070476990895 0.00057134093889910618 0.00038240316084458772 0.00024965830631088897 0.00033290951523372715 0.00017707147588605208 0.00036793197662387926 0.00027833342362268946 0.00081219408409579264 0.0015994660530623298 0.0030605392936949392 0.0021719365785597424 0.0038430277407784938 0.0052608193787817585 0.0068365915163836957 0.0019403306762293202 0.0027125186100650737 0.00080885230186140543 0.0014541957032712556 0.0010475674826327538 0.0012792699619360937 0.00095829091611023074 0.00092728585598261153 0.0011993439146451362 0.0019089809461872867 0.0024572079072190012 0.001736715520368801 0.0033755877462172471 0.004410330377265112 0.0024959668403193311 0.0032238201853014782 0.0041014901149914029 0.0056120796635342005 0.0068164000172614885 0.0071147562609368857 0.0052683295080535285 0.0040743147407838777 0.0029643702034410427 0.0039731577626508294 0.0057640872276765506 0.0095790461915912627 0.0077337186040153175 0.014958200285188425 0.012301004650457073 0.014357210093781311 0.016923173745088827 0.0089103888231873429 0.011241700593316811 0.0088771551608085673 0.01051935491697242 0.013762556034045222 0.01478174964711438 0.012202146173184008 0.018019393542292508 0.01656148867493637 0.025798306572477475 0.028593408485517301 0.022906387456213935 0.028090917431653699 0.026843488782181183 0.028596925387718956 0.019904050579318221 0.018920856413405164 0.019290871679260205 0.023015633303577664 0.023660842792748955 0.01146277710355704 0.0090728476427076286 0.014760053236927181 0.017649536101156361 0.022111095624959158 0.030502733095747421 0.03677210265098152 0.043235256295789996 0.060645163914460794 0.069307402471435506 0.075389517400376124 0.05520504740264176 0.05021144795772943 0.046056859830917604 0.033173536482051819 0.033936815488795583 0.038158634485845236 0.041856385558559556 0.041546559206928374 0.033718227615127813 0.054212794549777725 0.050765098161429489 0.048109358808213994 0.04777915340513933 0.063887381109982683 0.074827106162940804 0.071928613304311051 0.081967080410484061 0.071669362449987631 0.079952794243229985 0.063676467864741571 0.059589719317379879 0.065507267163437716 0.071744895152423063 0.080171005121102437 0.073091618621844517 0.08022431536780264 0.080289255126447398 0.070390032100307656 0.062491694358566344 0.057553222693018609 0.063111796858051766 0.048539548484326706 0.046209538656585912 0.05610476892746033 0.040391654478873773 0.034518481166741333 0.037721586355871903 0.042601022187673941 0.033982686121511049 0.039595535094045897 0.043909352508838165 0.049749700887682734 0.046670848114616935 0.053486323863995183 0.056978961653230534 0.06351210343251 0.070605479088683726 0.076977139168973141 0.080230350432533154 0.078443866418364358 0.072838767645461475 0.076417097384786678 0.069147227947405535 0.061972933551982211 0.053727402709215263 0.066786481275292367 0.059649131426707733 0.075745783548736539 0.084933869051122782 0.076650540091799058 0.084333890583190491 0.068839832749519395 0.066799947553827316 0.059695191661308628 0.066792126054761092 0.058270891999386974 0.050540286324339836 0.051067873986968694 0.044408672200350163 0.036933836829179299 0.034740056479915481 0.043033393599846245 0.048145328262644053 0.039944892686633121 0.034185276384785884 0.034665681422018119 0.041451447215020115 0.029245258292485223 0.025804456740553528 0.023890000481862891 0.017326600348429345 0.019710192287144011 0.02870194384073203 0.031166117501336205 0.020908015458248129 0.023674058505508251 0.01901233632282217 0.014823954148881539 0.016417443316165306 0.0092979822356973954 0.0068689118646088239 0.0093949557334346793 0.012233186313313845 0.012506011540759702 0.014097679758356896 0.015647197923023892 0.012386147058133052 0.0081197001502114462 0.0094828829113640604 0.010780814010227817 0.0083922421848946233 0.0071661113949672804 0.0085989734744749309 0.010506278094718489 0.012770719711649833 0.016277455912954143 0.012652863181886013 0.0087115796905031604 0.0093079454963891084 0.0066509625629572675 0.0067507232706341194 0.0087541033364322875 0.014862589831369132 0.011953953321118501 0.014980495998397682 0.018644955374260867 0.022184434161858717 0.018573421199237963 0.022937362839107529 0.031798168825228325 0.027210316639349873 0.029263180688986975 0.026814641659076273 0.021910872134638819 0.018929389327700247 0.024310202740030318 0.46069085030917256 0.45536394470187908 0.4679811703082904 0.48067584917050582 0.48500453855565584 0.47343992614350083 0.48888375966313335 0.49605606415270004 0.48793227249149096 0.48736374314937114 0.4945557830324453 0.48740862770491628 0.48048187116139651 0.4807855766253557 0.47637280921439618 0.49511908912955582 0.48797423098597215 0.49287476541163927 0.4816549663798389 0.46827664414570502 0.46684558008262861 0.47411803109905409 0.47151240886413986 0.4540086977341643 0.45919744983444361 0.45635931890444736 0.46243351968473356 0.47092984528057025 0.46370099426380584 0.46595348934989655 0.45911837169850828 0.45220542680444403 0.45170841887102159 0.43690276356792956 0.44620855300730683 0.44359775721283046 0.43214632248492302 0.45064300636032284 0.44283029445485905 0.44732163196036118 0.43930259988463022 0.43237111694590741 0.42833466166662643 0.43615597172114329 0.41540196101904542 0.42333244384806079 0.41502440599244456 0.41770703591067593 0.40911300913132442 0.40997700236035167 0.42648708656058121 0.41809718808994867 0.42485646145012551 0.4097246400299891 0.40757705493636032 0.40893645680780466 0.4115732371852886 0.41908972765443286 0.42464864887172404 0.44801789769049566 0.44245990771651988 0.4371920651405386 0.42976258182781535 0.45617039031630519 0.46170403345430006 0.46352787552409369 0.4714377187307941 0.46899003380322257 0.48076186250743191 0.48103101216350663 0.4737964770096102 0.48888376023387603 0.4960560648265519 0.48821009579542923 0.48809243875309388 0.47548054980391374 0.48066995729621065 0.47960892045103459 0.49455578637074327 0.48740863690887692 0.49287477119190759 0.48780237902451662 0.47451730474094556 0.47079486595983422 0.46395546784495945 0.45502662841791269 0.4571951053755357 0.46283412598583867 0.45908194643586658 0.45731835114354191 0.46402183666857066 0.46971630914772772 0.46367786399027355 0.46995373983554101 0.46862823133284959 0.48128353714415428 0.48183403752266235 0.49494792509002705 0.48727596841302001 0.49234988074163472 0.47574065709740299 0.47765361766304615 0.48481217731839032 0.49249496567705431 0.48759336986837498 0.4810689905121166 0.47352815174866963 0.46804883932430519 0.46172622853968248 0.45573605036540787 0.46053218972673038 0.44460521869230746 0.44980539807953634 0.44352126231017758 0.43825389364066225 0.43197133740206611 0.43201091191342866 0.43929411053236367 0.42114361959694702 0.42770849343253259 0.41655176809356176 0.40988592536411866 0.40632626160054769 0.42522283495294194 0.42032594581874999 0.42546087445034003 0.41922111886484142 0.4145613344125646 0.40705321391155036 0.41100536656861086 0.40447096386717485 0.41806686331158893 0.43128765067571606 0.43825573287938735 0.43763731381645332 0.45049971878199102 0.44394069844958328 0.44470925397473937 0.45224605722159328 0.44993542105184486 0.44390402258258005 0.45033883027998545 0.43011569124073251 0.43823744087565847 0.42791432587764555 0.42159963168716597 0.40954468303391106 0.41571404783430843 0.40926445718196386 0.41599272795851849 0.42171719953528408 0.42668308716025133 0.41916137479923798 0.40718199346256356 0.41105592995136575 0.4079792077617449 0.41587694126449332 0.42337252542890685 0.43719460128947452 0.42976505595182585 0.43406309355771389 0.44121809789264771 0.44696494001016662 0.44428664049630151 0.45164943349385578 0.36295951323802583 0.36789705049946231 0.37434306105146864 0.38108836638314597 0.37337504006344396 0.38788720460134013 0.40040713622813762 0.3955234366315411 0.38779757341569793 0.38203971917294682 0.39407158776493206 0.38589568529909113 0.40338646711145293 0.40095266532423779 0.40205450781579843 0.39690838496370884 0.3907867878691535 0.3803796969427603 0.37534474691174935 0.38051428120453556 0.36972774614386372 0.35727074377489898 0.36311908956945271 0.36126232048679402 0.368644382714163 0.35709844053472439 0.36640190426161101 0.35810689689755348 0.37384284700808623 0.38236741553301123 0.39144077936175264 0.39739490500115821 0.39468785593115774 0.40178265224976051 0.38960337974871395 0.3818246368611356 0.38950646932656574 0.39475716133484767 0.4014397882361328 0.39700551533082457 0.40087284260194778 0.39164224539720754 0.38641202844851774 0.37420377871767574 0.37964157811141946 0.37326824070953041 0.36551074555962032 0.36118419125123397 0.3692790157496641 0.35150374644013199 0.34675745296624017 0.35708147151330455 0.34325946836129961 0.35052240103766169 0.33566899969385122 0.33651991924524016 0.34149835164330217 0.32394962980296843 0.32966187870873725 0.32465085619126982 0.31155852742629847 0.30769989651619245 0.31685893004401078 0.31356536668778784 0.32864982280771488 0.32035859315930115 0.32269334335450994 0.3148803189198297 0.3067801293855954 0.30825130928918276 0.32700574588327341 0.33011182106773174 0.33601582341684189 0.35106338054269159 0.34193905483998166 0.34878630313393166 0.34279825760389288 0.34919628598481844 0.35406485980982882 0.35138642530860814 0.34119190645780506 0.33657825251280116 0.33815241277984598 0.34312731268010943 0.32209496044505903 0.30900740689985695 0.31595309987598841 0.30804678519589973 0.31298462666430238 0.32799944044018792 0.32753365138532142 0.32032038156687159 0.32754669205609405 0.32376567722943617 0.31668152274861072 0.31315417357144393 0.32019645974357264 0.3282190462841