<?xml version="1.0"?>
<VTKFile type="UnstructuredGrid" version="0.1" byte_order="LittleEndian">
<UnstructuredGrid>
<Piece NumberOfPoints="714" NumberOfCells="1306">
<Points>
<DataArray type="Float64" NumberOfComponents="3" format="ascii">
0 0 0 0 0.10000000000041601 0 0.082799035591426873 0.082799035591510806 0 0.099999999999928008 0 0 0.19999999999983389 0 0 0.20669143849501961 0.085546078947938975 0 0.29145143692666958 0.13500804559578439 0 0.29999999999973409 0 0 0.24783073444672249 0.24783073444648379 0 0.21725788110387281 0.17316968768743621 0 0.17318221359491059 0.27409688392309489 0 0.089078158003765312 0.2493007687782936 0 0.140351188660986 0.16130415108589741 0 0 0.20000000000083221 0 0.066361468125430589 0.15903440181097661 0 0 0.30000000000124832 0 0.0632094674441709 0.3449112819864934 0 0 0.40000000000166441 0 0.083393126324559225 0.42307471369029392 0 0.13897501191807771 0.34545639364066222 0 0.070553891733833127 0.57745844360881338 0 0 0.60000000000138687 0 0 0.50000000000205869 0 0.12353277228144981 0.51086097771927308 0 0.16324260003398389 0.62262730759772122 0 0.1946526892501724 0.54636184660733622 0 0.27220668248394869 0.50912429725145214 0 0.27661118526457179 0.58730386222759956 0 0.16486701364709541 0.41592657376307979 0 0.21928696632013719 0.4676461135047027 0 0.29987747321592639 0.43430880093746571 0 0.2371857680100064 0.35865548441110112 0 0.34318159319555042 0.3314386771104964 0 0.38593969585746768 0.44843324941957241 0 0.42544665781957403 0.3726599289372452 0 0.38240158409674341 0.60644575028138747 0 0.34793494568226019 0.52426775179830853 0 0.45232393232070839 0.53082724112931345 0 0.46433624429412901 0.61260020600107856 0 0.55763912874459476 0.49619993861770217 0 0.56379254693201075 0.58472273515948836 0 0.49272830291620878 0.32528628960011152 0 0.47711113382803011 0.43513410852522788 0 0.56509579243166053 0.39588847936247551 0 0.58612580217118482 0.27813894450229909 0 0.49255105193724569 0.22337579986912359 0 0.5565830077206213 0.19095699352548859 0 0.59999999999951659 0 0 0.57505385014294308 0.072457888465917331 0 0.49999999999959438 0 0 0.50264032148191051 0.12292784096123539 0 0.43504744109702559 0.077628892606360606 0 0.39999999999966429 0 0 0.35933948296838258 0.073809900849860513 0 0.33604819894646598 0.23280286076243209 0 0.41589935411558732 0.26752529264016389 0 0.40428440976105728 0.1643886070295453 0 0 1 0 0.099999999999999645 1 0 0.14716362552681639 0.93861610753355362 0 0.19999999999999929 1 0 0.30000000000000071 1 0 0.29792158491427922 0.79537096033156995 0 0.2235202862591317 0.88873896332704583 0 0.1332109546178302 0.87498377138822103 0 0.075231054453351903 0.92314074346405706 0 0 0.89999999999958358 0 0 0.79999999999999982 0 0.074918724681641777 0.83311952320732263 0 0.1533088418661793 0.80370257472597129 0 0.089684836063650353 0.74720097194875412 0 0 0.7000000000006934 0 0.079752623936563252 0.65630726580969023 0 0.16551550920047911 0.70947866912672319 0 0.22047232289835689 0.77501739045979867 0 0.25446499951716589 0.69023946426646743 0 0.32437633398017029 0.65970549827478953 0 0.33985912385126898 0.73174041004507751 0 0.42824324229177341 0.6924957961634054 0 0.5174764925733939 0.65338828204098198 0 0.59670004617370476 0.65981579440137683 0 0.62152629835360762 0.73285157302339954 0 0.52912171753951986 0.73993242892488531 0 0.51076728641122882 0.81691863363193817 0 0.62017612851329729 0.81451802170669263 0 0.56701461556202259 0.86335846433862784 0 0.45907587517201498 0.90165918271477563 0 0.43819239467549531 0.79296936871720936 0 0.36912581253574028 0.83088590731704637 0 0.37337282601342481 0.92616598444216514 0 0.31535921456193688 0.88154045330654418 0 0.39999999999999952 1 0 0.49999999999999911 1 0 0.59999999999999964 1 0 0.5499999999999996 0.93976792513729512 0 0.70000000000000018 1 0 0.79999999999999982 1 0 0.89999999999999947 1 0 0.8793859710393791 0.93083561064221121 0 0.93540888248908083 0.88281232945237675 0 0.91372311269140116 0.80486176357476358 0 0.82192606283926717 0.87651855948129354 0 0.73937541854631073 0.9288754054780668 0 0.64588148000090029 0.91512139508160772 0 0.76404828705430583 0.78174230667165401 0 0.71722872346306721 0.85096302760907838 0 0.69085763855200755 0.76120667115691065 0 0.6754414170471299 0.67700559910555169 0 0.74547688787239819 0.70026419381674654 0 0.81910554849723838 0.69100245438023977 0 0.84477163403336131 0.77519844632340484 0 0.90192269692920224 0.70295054578552552 0 0.9749171938312049 0.68304286407835557 0 0.98491966670915287 0.745702719141624 0 1.0785590511537511 0.75365885686631617 0 1.05 0.67063679245255348 0 1.1595355377629719 0.69612720023346242 0 1.2316049928421089 0.71268197388690568 0 1.130022579458912 0.80264790230838934 0 1.2104878010462079 0.79638517641579154 0 1.246238897717278 0.90016207822659 0 1.1492841477515361 0.89495863909300122 0 1.035017143854235 0.92577305964649748 0 1.039491394416145 0.83402983011495258 0 0.99999999999999911 1 0 0.94997493298435887 0.94717135651053852 0 1.1000000000000001 1 0 1.1999999999999991 1 0 0.8520969719592798 0.19112077159544111 0 0.81051762114363357 0.25355176211442859 0 0.91043121937362004 0.26518856856736223 0 0.87151744524583186 0.1145610820769897 0 0.89999999999870417 0 0 0.8072276847200428 0.07509171132446453 0 0.79999999999899607 0 0 0.75434135135171976 0.12888799631625769 0 0.73796379772146625 0.059893436010741673 0 0.69999999999928797 0 0 0.66267222434682926 0.078497159578092612 0 0.64669101990832323 0.1799054750174742 0 0.75284581776561577 0.20455093921856349 0 0.7545004114404561 0.31098089234202853 0 0.68811979868824935 0.26566684131589419 0 0.65823561246403328 0.35502292901158627 0 0.64897033023755402 0.45530630145656431 0 0.71094001953927277 0.41472992215547572 0 0.65500944633069913 0.60601350811213128 0 0.66278242936710119 0.53985356489900171 0 0.74775703275407246 0.49059679564787018 0 0.74991769371388628 0.60451627361984739 0 0.85383906663538056 0.62014574817393608 0 0.82099888937423493 0.54529350322201742 0 0.89730215834238125 0.56352362508531118 0 0.79315209058920677 0.38802315963964318 0 0.83603391221093415 0.31708941802047369 0 0.84897848255088726 0.46000674997733482 0 0.9184189969982266 0.43608586792060411 0 0.89716106756302072 0.36571612550017968 0 0.97284972811175952 0.32057650487681749 0 0.97803218086495292 0.39957666910545891 0 1.049999999998295 0.45311778235774403 0 1.0499999999982661 0.33749999999944968 0 0.95554667482020261 0.61387123313571723 0 0.95438428234324713 0.50021891445525024 0 1.0610070115193291 0.56187728740506249 0 1.160572984923127 0.60155304747043781 0 1.1544259370261769 0.49580194535795907 0 1.11366617971111 0.39530889117858181 0 1.1787318575418491 0.43180077319900678 0 1.2482752740169289 0.44264463249545388 0 1.193211192060164 0.36417169501775798 0 1.2189485028845071 0.28846717556219142 0 1.225209211892335 0.20648826945283069 0 1.14543293599463 0.16096823716187 0 1.1317936052402791 0.27327200211975772 0 1.0273907165533489 0.25089655084417212 0 1.0673059847957449 0.1861726764986896 0 0.96758455917765662 0.17206502793490561 0 0.99999999999841238 0 0 0.95940036225003311 0.0802667348803804 0 1.0527907183502181 0.1005001786211816 0 1.1494214575391031 0.075340014825429069 0 1.09999999999812 0 0 1.199999999997829 0 0 1.2999999999975369 0 0 1.254652873386052 0.105753482544517 0 1.3681535985071449 0.13698083382674339 0 1.399999999997245 0 0 1.349999999997392 0.060567969661089648 0 1.291408388555241 0.26372433042992383 0 1.316869459340541 0.18778020585802921 0 1.3878996413210389 0.26723502210068018 0 1.473286192129879 0.27883707652097373 0 1.4156792278190771 0.19574754335211339 0 1.4905184776249101 0.20629734327603311 0 1.545236949037224 0.29434567071731399 0 1.456639397274391 0.1016053838939758 0 1.53341268746562 0.14194251306413061 0 1.542152768646126 0.073248247890105089 0 1.4999999999969531 0 0 1.599999999996661 0 0 1.6999999999963691 0 0 1.6799832100487111 0.082202015566833181 0 1.609545399082946 0.1308291592921435 0 1.567491488875842 0.20218805454405439 0 1.6351951680630969 0.23707571199064051 0 1.714493154391862 0.28897291620938281 0 1.7304700827703301 0.17386188770806579 0 1.799219293849516 0.26438879273789773 0 1.8480644103363271 0.19193194889233381 0 1.8299024103288899 0.1151394713368583 0 1.799999999996077 0 0 1.75369588639865 0.074917217572982864 0 1.7537858687071439 0.50406839622489796 0 1.742806034420483 0.6006074591026016 0 1.8544400981153091 0.62488101477716596 0 1.8316048184152021 0.54157006606434721 0 1.850967139686138 0.45738417241574703 0 1.8620515405159661 0.32644761881501039 0 1.787749129254824 0.36176402170097799 0 1.7808296409871709 0.43587276890434401 0 1.71976181471802 0.39635806210359681 0 1.645895854313963 0.45222881216869149 0 1.6419306970571019 0.3436055112169133 0 1.645263810758179 0.55814977621663464 0 1.5386621965636409 0.60828218080060537 0 1.550364457075788 0.50467902559054656 0 1.4795754400412069 0.53983964974648579 0 1.445918816848357 0.6075709531782556 0 1.551956040519719 0.40384519109247291 0 1.4491802319415681 0.4666714614197911 0 1.4507225717793131 0.3561247496431208 0 1.347125314110625 0.32447518420453242 0 1.385017785528226 0.40713366384701549 0 1.3198129865007471 0.39133224900025881 0 1.2615469736996101 0.34090999671933891 0 1.3860523322451299 0.56073196187600105 0 1.3462106466432811 0.48060664220838062 0 1.2709684905841181 0.55537862536316829 0 1.2546738886072291 0.63615646469940468 0 1.3545060270195819 0.65002758689694418 0 1.4000454837723419 0.73943313674757749 0 1.3035852436207409 0.73866974635260263 0 1.2914654457895349 0.81843301378315825 0 1.3255948392482531 0.88328132587465524 0 1.3864786876100039 0.92208751032957958 0 1.386174597084219 0.82350876346868962 0 1.482119963281066 0.782586299849238 0 1.463012078585596 0.89209645917012148 0 1.546104640467868 0.9195568013001878 0 1.535346256113697 0.70153336654872078 0 1.4534042830965781 0.68426123045930609 0 1.2999999999999989 1 0 1.399999999999999 1 0 1.5 1 0 1.599999999999999 1 0 1.6999999999999991 1 0 1.7999999999999989 1 0 1.6597641702579149 0.778
[...]
<CellData Scalars="A_conc,As-lin_conc,Bs-lang_conc,Cs-freund_conc," Vectors="" Tensors="">
<DataArray type="Float64" Name="A_conc" format="ascii">
1.8785255073071252e-06 2.1502251472503851e-06 5.9844132421967645e-07 8.9217080089225282e-07 9.186316340187953e-07 9.4283049273019128e-07 2.1300657283897151e-06 2.2158826399763622e-06 9.4203906824288341e-07 9.662641712051407e-07 1.6155897462922345e-06 2.0171619446194364e-06 1.2577816222758564e-08 1.8274002860118836e-07 1.8665680202065005e-07 2.1357730263583237e-07 1.3435080187958326e-07 8.8592190993602954e-09 5.8238012106794978e-08 2.0757018241689815e-07 2.19241950216209e-07 2.1275969931159078e-07 5.4798303294505778e-08 1.279328422476557e-07 1.638335408570661e-09 2.4837037033151984e-08 4.0633691470422686e-10 1.3864996542831373e-09 1.1352524880431934e-10 1.704519675196238e-09 5.6516333604240904e-08 4.8071660832635302e-09 1.4575838720211487e-09 7.7650978094320052e-11 7.7457313456546698e-10 1.2366825686826448e-09 5.3602991988237566e-09 1.5328316707804744e-09 2.4832580040322707e-09 3.9853194440609574e-10 3.177173345081449e-10 9.7857794294964301e-10 2.0944846186518537e-10 1.762569482154054e-10 8.0575498058321143e-10 1.578927698779619e-09 8.5386759800301135e-09 6.955584592031257e-11 1.4523703565607058e-10 8.3784990957219485e-11 7.131402443987695e-11 9.1236355515749601e-09 1.1663068894804509e-10 9.3056957257970524e-11 1.706311184044864e-10 1.6854512540513244e-10 1.127100413357647e-10 8.5703810135394384e-11 1.3907256896231769e-09 6.0599476566015672e-09 2.4641799768465875e-10 4.0717101065508895e-10 3.3176927145634002e-10 1.7066270787108297e-09 2.2268409096737085e-09 2.5763790575911153e-09 7.1710549384441631e-09 4.8347521997156161e-10 9.2793693675461251e-10 9.3698032749810789e-10 1.1060832428412876e-09 9.0285320518244609e-09 1.9924552175359605e-10 3.7842511167146209e-10 2.3924412081791246e-10 4.4485101114854454e-10 1.760210578411111e-10 2.3648720514759046e-10 1.7329239781267335e-10 7.2415990983673161e-08 3.1452722008155589e-10 4.2634750324884482e-10 1.1146508526544276e-07 1.3478976302339331e-06 2.0787422683380925e-06 1.242842954836039e-06 1.2182165523626563e-06 1.0905006370762386e-07 6.5245315165174695e-07 6.8944581162253647e-07 1.9575001409016776e-06 1.9146270796070159e-06 2.5453206336294918e-06 1.6611204472903273e-06 6.6788106351694147e-07 2.1967786514153847e-07 3.7923303237867533e-08 1.3017549540544059e-08 1.254286139199417e-10 7.0082008086729842e-08 3.898133002338735e-08 2.1920106730420167e-06 2.5944268762430372e-06 2.5523419658695549e-06 2.8061544334317713e-06 2.3765283962482172e-06 2.432078359334572e-06 2.0878926066808743e-06 4.5225430396090184e-07 5.5849613244360818e-07 4.3823735314324414e-07 4.2251428303832836e-07 1.8935393903421542e-06 1.8465109543352962e-06 1.1517808135235624e-06 1.1184431230498091e-06 7.9793813785568716e-07 2.2509461485209203e-07 4.0899405496858207e-07 2.3438098236312739e-07 6.8926405926949716e-08 1.5692937742219124e-07 1.4289863414780633e-07 6.539903711173261e-08 2.9640191706663915e-08 1.2662159096099918e-08 5.8886701062278938e-09 1.4211183549686439e-08 5.1850250797466715e-08 1.6339630329455907e-07 5.6214496756427926e-08 6.0241038097308649e-08 1.4394754008177984e-08 7.4517660577089761e-09 9.4186130896356326e-09 1.672943767516809e-08 3.3403379827864509e-08 2.8720111325879145e-08 1.1037139533434246e-08 2.3285500355307766e-08 1.3428474489429269e-08 2.6757737988860795e-08 8.1018295025077756e-09 6.3418007790511515e-08 3.1534928584205911e-08 2.5426786258768452e-07 5.2358788357752628e-08 5.8350857998851475e-08 1.790207615234336e-07 5.7402302813562334e-07 1.964504782758794e-07 5.4574443147540184e-07 3.2682288132615372e-07 7.473608856056955e-07 2.4113948874542631e-07 1.0253584440405743e-07 9.7148083087476309e-08 4.5448176660403029e-07 2.1562049392944659e-06 7.2917530042948331e-07 3.0967385032091819e-06 2.3206075532945824e-06 2.3785750501825474e-06 1.7100729122973144e-06 2.5244353207634034e-06 1.4486087922201285e-06 8.461563015974418e-07 1.4951996436001683e-06 9.9200714685513892e-07 6.5719339490125788e-07 3.2055522427580964e-07 2.478516106333294e-07 2.8073650831130165e-07 1.4769030448174402e-07 1.8779974842594202e-07 1.3759410120663046e-07 4.5842729643366657e-07 4.3829083640297455e-07 3.145063314511027e-07 2.9511053678343913e-07 2.075505783672141e-07 9.5136215447703723e-08 1.0424727097715238e-07 1.2651792529510722e-07 6.534637583567395e-08 4.5354109894701694e-08 6.0979572546484697e-08 4.2205518065218863e-08 7.089962778017034e-08 1.4683704459130046e-08 3.2473314012163899e-08 1.3398621831544974e-08 1.6364014432809105e-08 1.7695043908619592e-08 1.4153133927150982e-08 1.8284834883628954e-08 7.0007580937268597e-08 6.9775927819247675e-08 8.9194636173055345e-08 8.4421155191957801e-08 1.9668148883478322e-08 2.1512804136849934e-08 1.4466501472080538e-08 5.4704963106277949e-08 5.1360414698632031e-08 5.7609135059382174e-08 1.3725043703441086e-07 1.2839297476951726e-08 1.4143152944771879e-08 2.3218454245881957e-08 1.0531982785134048e-07 8.7844027028858936e-08 6.1810089069611855e-08 9.4748239544699945e-08 9.0449386295618008e-08 2.9565556801755016e-07 2.7751354491927209e-07 3.287809385605776e-07 4.8418985728287757e-07 3.102878923860352e-07 3.041208918189267e-07 1.5513627269633215e-07 1.2653263368436536e-07 2.0540618910607733e-07 2.9542183506387996e-07 2.8304163596120502e-07 3.5428258576592846e-07 3.8056286850168754e-07 4.0069241780179573e-07 4.2798061996270109e-07 4.5578220371865851e-07 5.2201707631226584e-07 2.4400055868702899e-09 2.2195182583641448e-09 1.0073991730955318e-09 7.9183996216492311e-10 2.8441232006519772e-09 3.5881452163992432e-09 4.6734614700016736e-09 6.9558361022276737e-09 6.9098962358471699e-08 6.6500841825797977e-08 4.1169576573969212e-07 4.0322283753038196e-07 3.4666585343598014e-09 4.7050566290955e-08 1.1897337754853942e-07 1.2248947504503233e-07 9.957076494849602e-07 1.3806488678091133e-06 7.7279369342872237e-07 1.2659988526135627e-07 5.7675383575062664e-08 8.8303674761786385e-10 1.7594639888814926e-09 1.2151331086669272e-09 9.8345433325189556e-10 5.8505773966350376e-10 4.9735180190438763e-10 3.5638885057617125e-10 3.0156144767909073e-10 4.1647116423724216e-10 4.902383279547777e-10 3.9143231547682251e-10 3.0840389271558339e-10 1.8693562760534545e-09 1.6382148990611192e-09 1.0848118449254945e-09 1.8293330752328014e-09 2.0434686192412845e-09 3.0019582597080283e-09 3.3567335562197714e-09 1.5854831511984136e-09 1.4075599582851854e-09 1.7312976406076777e-09 2.8802169130822006e-09 4.2805767398937946e-09 5.99967894008654e-10 4.8139872028452748e-10 3.5603573143855316e-10 5.6440243205121364e-10 4.640125581582556e-10 4.3862511742236205e-10 5.808763959673707e-10 9.7292333795351316e-10 1.1709017607354231e-09 8.7027738714146157e-10 1.0598503177566264e-09 5.4215511174565348e-10 6.1601282844644109e-10 1.1448138800377585e-09 9.7487212458440277e-10 3.0737100590283721e-09 6.0716562069233902e-10 4.9257634061815269e-10 7.6577128696746134e-09 6.9506184843341667e-09 7.8071964253157119e-10 6.8733687096004023e-10 9.2909734274002354e-10 1.6917416718346814e-09 2.2372145096645038e-09 1.9427966188453458e-09 8.1173167967201036e-10 6.7762125179303523e-10 1.2405845457803714e-09 7.0304189748228769e-10 1.4196890988007469e-09 1.5838994521535735e-09 2.7844262894771498e-09 7.7342995352923237e-09 6.7318136168130618e-09 3.0209887323825658e-09 1.802881190013397e-08 9.8653550883933673e-09 8.669370926164615e-09 2.3413407197124021e-09 2.7461447345133559e-09 7.379759784544558e-09 6.5013816615085736e-09 4.5796787627196023e-09 1.8352200911134016e-09 1.3214307652830658e-08 9.9872719300969226e-08 8.5507513689138099e-09 9.5660994173814698e-09 1.1562109116458149e-08 1.553892815551617e-08 2.3458121762152811e-08 1.8601028653223323e-08 1.5419317244287547e-08 1.809644779934201e-08 2.7303436499330945e-08 3.098017066022634e-08 3.5303896097974643e-08 3.190613858353838e-08 2.6007080455032821e-08 3.6249696967795632e-08 4.9047997690607534e-08 4.3874509769786944e-08 4.1123549117547374e-09 3.7342918780037762e-09 2.0621353588116727e-08 1.0687310206246714e-08 2.7367689990701985e-08 1.3547815757423115e-08 1.2017413744176427e-08 5.1917629037701875e-09 6.1074653268887937e-09 1.3767621292377036e-08 1.5042912975065735e-08 3.290415256645248e-08 1.4722025160689792e-08 2.5997806362649821e-08 5.649014866005578e-09 1.3773349760073636e-08 5.3564003352087535e-08 3.0401607112378647e-08 5.649444431521574e-08 3.5427859453094748e-08 6.0965033546048529e-08 6.6045493850892991e-08 5.9134326100811992e-08 7.6190683812021593e-08 7.2173544536266507e-08 9.0976875423481564e-08 9.8487045230000142e-08 6.4176742982051372e-08 2.8876545406089808e-08 3.0848746071914737e-08 8.8334536173548724e-09 1.5918381623648743e-08 9.7445812194997848e-09 3.2586328060868837e-08 1.6704948983792782e-08 2.328779021314785e-08 1.8207673126714794e-08 7.1893419642234977e-09 1.2783379871752597e-08 1.9455753729015896e-08 5.3926036846016681e-08 1.2832014487165717e-07 1.234891480074557e-07 1.1649888456538546e-07 1.0760693913212702e-07 6.9508238139738446e-08 7.3765319721299421e-08 2.7065938134622621e-09 4.3118714924746826e-09 2.43549791599957e-09 3.3005893874527557e-09 4.1686282175922206e-09 8.2218305193213787e-09 5.1842184950161388e-09 1.9377192181108664e-09 1.9570436374639008e-09 2.7206800222031263e-09 1.601621443360843e-09 2.8005651971443315e-09 4.7032279792813788e-09 4.7983984184753153e-09 1.6214714340551189e-09 2.4821089672837729e-09 1.2886559321570826e-09 1.5215584761283203e-09 2.1104481449178446e-09 3.2509116361952312e-09 1.6755056580001823e-09 2.7316604867324802e-09 1.489757639078854e-09 1.2660256608887939e-09 1.2517437682715436e-09 1.0588315549882993e-09 1.0875407586631388e-09 4.2739414999322476e-09 1.3955978711542506e-09 2.1102850783318412e-09 2.3081342501785665e-09 3.0203965633505517e-09 5.5078933507617783e-09 2.7777492677803966e-09 1.6374917933373532e-09 1.677752158914823e-09 1.4651221819148543e-09 1.7679494254557648e-09 2.4683654664054384e-09 2.2524989253350308e-09 2.756012793659766e-09 8.9742154382124999e-10 7.3235288767793539e-10 8.3408738341195446e-10 1.9748007786392168e-09 2.4725955371247329e-08 2.5941303435648114e-08 3.437619915130137e-08 3.1962893913426323e-08 1.668242356227874e-07 1.4974330998061894e-07 1.5791602269265277e-07 5.5198335411472504e-07 3.9555854623619185e-07 4.1489055111273502e-07 5.7504911215564428e-07 3.7509279295534561e-07 3.2574482491962905e-07 1.7787504214338123e-07 4.2873885717118985e-07 7.7994593985224573e-07 4.7110769922054981e-07 3.4164356026043212e-07 1.8926267807715331e-07 5.8718691590583031e-08 7.3669986465501739e-08 6.7433031240447229e-09 5.9552758052876971e-09 5.2662465206805028e-09 5.5925582277665771e-08 6.8692137683039148e-07 7.4361435120298619e-07 7.2236695366044359e-07 9.2183913142159686e-07 9.9528596258045657e-07 1.3032411879558052e-06 1.2512160713423728e-06 1.3383540838237086e-06 1.3922380652561528e-06 1.4406488578368399e-06 2.3579367537564619e-08 4.9180386533301618e-09 7.4698455326569702e-09 2.177759534829939e-08 1.9927623798687947e-08 3.0057722555730205e-07 1.9949261430576174e-07 4.9223400142975372e-07 9.6380117469446835e-07 6.4486485096368689e-07 1.9267804872728005e-07 3.1351257237525128e-07 2.2862562627922316e-07 1.8800518792952457e-07 6.6634575815680004e-07 5.8919331101838198e-07 6.0834861111980223e-07 1.9787930333031724e-07 2.07191830691825e-07 4.3210692603682655e-08 3.555110220520615e-08 3.7097443185758518e-08 3.3658620672585137e-08 6.037512769799488e-09 8.7377272363344553e-09 1.608060715634915e-08 1.1653800974073264e-08 4.0381880002615597e-08 2.6726972290340563e-08 5.3102609099313866e-08 8.3681939590152271e-08 4.9510027148555679e-08 6.2866753171386205e-08 2.5090985453071745e-07 5.3075534315315072e-07 5.8239069354432004e-07 1.6112879095752968e-07 1.2925197272935734e-07 2.7668111066618021e-07 6.1086825451389222e-07 1.2526295702784981e-06 8.8731685949383368e-07 4.4372880928594867e-07 6.0545316333223057e-07 3.4764260145168082e-07 4.7831158766880095e-07 1.1820512173067494e-07 8.8324766195731133e-08 1.7077572370757487e-07 3.0005690649053992e-07 2.2810508196076114e-07 2.0659360964921491e-06 1.4185594226195515e-06 1.6046171148912355e-06 1.6970947278509304e-06 1.01739417481604e-06 1.9654895864401469e-06 2.6210536979747001e-06 4.6207345959402734e-06 1.8022087716083947e-05 3.388161294194403e-05 5.5853660002462969e-05 1.0059497247074402e-05 5.9912930024666808e-06 3.8537886989145497e-06 9.0308164558727345e-07 1.2446792702088141e-06 1.7392489801340544e-06 3.1357981320060788e-06 2.7925850765998406e-06 1.5304349939530844e-06 1.0152830811793054e-05 8.4652237672787418e-06 5.790522855720124e-06 5.1993998246265595e-06 2.1281494031389533e-05 4.6164955465616897e-05 3.7663200383698087e-05 7.2971254985050669e-05 3.5427513879922852e-05 6.3146925529041192e-05 1.9784644727615644e-05 1.2752204739091972e-05 2.1049092775260057e-05 3.5073964173061386e-05 6.2998292312211609e-05 3.4157494563746935e-05 5.7414943683593823e-05 6.4581001852105272e-05 3.3184403217879705e-05 1.8601165998851706e-05 1.0405019683303565e-05 1.7002883055020881e-05 4.8064906040237701e-06 4.5934660301143231e-06 1.0788459085026514e-05 2.4340203392238942e-06 1.228850779545178e-06 1.4609718171387891e-06 2.5909201154019839e-06 9.8056368396934118e-07 1.9278488887771094e-06 3.3007017874739914e-06 5.9631918832855655e-06 3.8529180315526287e-06 7.3703859472190391e-06 1.1252328079528425e-05 1.9506328304476574e-05 3.5231351278259426e-05 5.6432120280980601e-05 6.0711402689702894e-05 5.4313576443367689e-05 3.56058719609026e-05 5.1805630993757708e-05 2.887403916656796e-05 1.6386564748508817e-05 8.0503259652358613e-06 2.2025430156920646e-05 1.2280569845923765e-05 5.671163593670284e-05 0.00010234768080700874 5.5502265403616752e-05 8.8522575231648532e-05 3.1781997981021796e-05 2.6572233361155638e-05 1.5023600881937565e-05 2.9424347797816847e-05 1.5481341044111144e-05 8.1526286876105389e-06 7.4439430439185856e-06 3.9584363626744894e-06 1.8720048817530943e-06 1.8485284249101383e-06 4.1544239616767916e-06 4.6700450649100024e-06 2.2019212988273149e-06 1.1321532165810058e-06 1.0750356037705742e-06 2.2715130000895919e-06 5.2775306734723624e-07 4.3426546174211255e-07 2.5712215515235153e-07 7.8072086189155937e-08 1.3138347683260402e-07 9.6963386529875437e-07 8.5991521781797183e-07 2.3425891085568359e-07 5.5856326534540922e-07 3.4926861508297631e-07 2.0676672780418182e-07 1.3338167979830451e-07 1.4310778807445858e-07 6.0843411094468016e-08 1.4375804420264576e-07 1.6956243664543912e-07 3.5219280139807006e-08 3.9668815122598861e-08 6.7411140274385602e-08 7.4264413517967078e-08 2.477178450495736e-08 5.638873323438976e-08 2.5751783888108299e-08 1.6275727839189004e-08 6.0779200166282287e-09 1.115493181570379e-08 1.7583079939205324e-08 2.4987648449642621e-08 5.7528349711565353e-08 2.4496040533297015e-08 8.4392584593937087e-09 9.6491740870922123e-09 4.2228464502893319e-09 6.4408454691572639e-09 8.6992018417838363e-09 4.3320317030130569e-08 2.0978062332453167e-08 4.6555812797663953e-08 1.0375481995141546e-07 2.0539326117055663e-07 9.5536817415240235e-08 1.816144811731144e-07 7.0345969680163117e-07 4.5382237091188385e-07 5.7129671747287011e-07 3.8586794807384573e-07 1.7610772820425342e-07 1.0510136284982776e-07 2.6966915736051159e-07 0.2833810551341015 0.27771895705653038 0.29112235975581546 0.30457682683508014 0.30915706573880247 0.29691083892276204 0.31325898011440906 0.32083757570870308 0.31225223417951248 0.31165140459040952 0.31925274906945561 0.31169890201341749 0.304369427053859 0.30469111360006434 0.30001912670109437 0.31984791772529614 0.31229717838465088 0.31747611888082794 0.30561181399798565 0.29143361471968093 0.28991434850020148 0.29762787878915986 0.29486409656670509 0.27627501279452504 0.28179163508351768 0.27877536642499817 0.28523098080673176 0.29425015838892782 0.28657785466667673 0.2889669019546835 0.28171027494414036 0.27435775998408984 0.27382949596569339 0.25804608397756501 0.26797331669166563 0.26518777200306143 0.25296821584687035 0.27269400266377103 0.26436989055380694 0.26915626162890272 0.26060693863962253 0.2532059178989759 0.24889119535209203 0.25724891929922294 0.23504293713907942 0.24354007407932551 0.23463663827466583 0.23751220106988438 0.22829338405627367 0.22922261682308986 0.24691826359871646 0.23793265389557108 0.2451696573103494 0.22894934822889151 0.22664112344809864 0.22810440674457447 0.2309392070697221 0.23900055412818511 0.2449525578491264 0.26989978899842293 0.2639778608145717 0.25835875539937753 0.25042187145565009 0.27857446457026158 0.28445577326482585 0.28639299847845023 0.29478786094297604 0.29219106293313502 0.3046654231441599 0.30495043227048174 0.29728635973987527 0.31325898071778269 0.32083757642028404 0.31254688626197119 0.31242188992626319 0.29907246870384346 0.30456857522383146 0.30344456394115571 0.31925275259702557 0.3116989117523995 0.31747612499304179 0.31211541383475161 0.29805134438639896 0.29410294939970572 0.28684469935475354 0.27735441104470171 0.27966293834740241 0.28565680801935056 0.28167152931623479 0.27979410840882768 0.28691877017515682 0.29295985020561005 0.28655136416287152 0.2932137671457174 0.29180698906435354 0.30521839755427732 0.30580153763586193 0.31966709403915966 0.31155836207420379 0.31692113168067759 0.29934847049162083 0.3013724877759914 0.30895102923124174 0.31707451352470661 0.31189418631200894 0.30499119521772683 0.29700220153868356 0.29118836263576342 0.28447582719744208 0.27810909221544827 0.28320983537738686 0.26626098071779136 0.27179856005919412 0.26510434184348064 0.25948698944827103 0.25277862261513434 0.25282133544948882 0.26059803277972865 0.24119693209999415 0.24822311940543318 0.2362773175609913 0.2291255294851457 0.22530130469702478 0.24556225362991663 0.2403203926099349 0.24581840704184946 0.23913672014814 0.23414247705764457 0.22608185294053254 0.23032492525933998 0.22330543898246141 0.23789933964875715 0.25204883560510044 0.25949062033735681 0.25883012524409793 0.27253975448210011 0.26555324255513857 0.26637307150772482 0.27440128186819901 0.27193847568692442 0.26551279547818085 0.27236682086157971 0.25079441364304517 0.25947042835708767 0.2484392744617378 0.24168155237863881 0.22875528556898034 0.23537497454252149 0.22845481728855049 0.23567481647156641 0.24180840186911357 0.24712534647717402 0.23907205851045499 0.22621703991577086 0.23037795361648405 0.2270745802885481 0.23555106748388235 0.24358247596132895 0.25835793116091188 0.25042088315609007 0.25501453020688902 0.26265152496187633 0.26877667125957755 0.26592292760121916 0.2737657170921064 0.17844925319060825 0.18380859030336588 0.19079630695775776 0.19809583002783829 0.18974667269530404 0.20544019866277263 0.2189327432708181 0.21367560882948988 0.2053439232906715 0.19912529142693969 0.21211072111552631 0.20329064658082166 0.22213896924352161 0.2195206144340322 0.2207056515927574 0.21516782799220782 0.20857059557227223 0.19732709538169929 0.19188074656263776 0.19747634257749375 0.18579222874423346 0.17226136569052325 0.17861935097525086 0.17660244129838984 0.18461899090781411 0.17207056419439914 0.18218429439829315 0.17317165507773338 0.19025346128012666 0.19947724226051788 0.20927601649809507 0.21569165113063249 0.21277781838656437 0.2204166802880676 0.20729719665493943 0.1988955645585358 0.20719161050862273 0.21285368128887211 0.22004855853828845 0.21527423143001528 0.21943584222402418 0.20949546948996073 0.20385312551505474 0.19065181927862807 0.19653650173017548 0.18963543625222512 0.18122101739963956 0.17652389768776736 0.18531550005860747 0.16598940196909612 0.16081427084696531 0.17206358119323836 0.15698710463024704 0.1649195162309221 0.1486836841246722 0.14962630575823715 0.15507094109036365 0.13583901728734615 0.14210710862057999 0.13660750363419499 0.12220057092896713 0.11794179945771954 0.12803738626967279 0.12440449289053881 0.14098772524690539 0.13187754014216327 0.13444752327442788 0.1258510422901952 0.11692725749678078 0.11854955960261526 0.13917889494414265 0.14258954440008004 0.14905831114827067 0.16550095845752977 0.15553709724072667 0.16301231445239567 0.15647668718370997 0.16346545384332087 0.16877037674962811 0.16585366889445499 