<?xml version="1.0"?>
<VTKFile type="UnstructuredGrid" version="0.1" byte_order="LittleEndian">
<UnstructuredGrid>
<Piece NumberOfPoints="2400" NumberOfCells="800">
<Points>
<DataArray type="Float64" NumberOfComponents="3" format="ascii">
1.000000000000000e+00 0.000000000000000e+00 0.000000000000000e+00 1.000000000000000e+00 4.999999999989965e-02 0.000000000000000e+00 9.500000000000000e-01 4.999999999989965e-02 0.000000000000000e+00 1.000000000000000e+00 0.000000000000000e+00 0.000000000000000e+00 9.500000000000000e-01 4.999999999989965e-02 0.000000000000000e+00 9.500000000000000e-01 0.000000000000000e+00 0.000000000000000e+00 9.500000000000000e-01 0.000000000000000e+00 0.000000000000000e+00 9.500000000000000e-01 4.999999999989965e-02 0.000000000000000e+00 9.000000000000000e-01 4.999999999989965e-02 0.000000000000000e+00 9.500000000000000e-01 0.000000000000000e+00 0.000000000000000e+00 9.000000000000000e-01 4.999999999989965e-02 0.000000000000000e+00 9.000000000000000e-01 0.000000000000000e+00 0.000000000000000e+00 9.000000000000000e-01 0.000000000000000e+00 0.000000000000000e+00 9.000000000000000e-01 4.999999999989965e-02 0.000000000000000e+00 8.500000000000000e-01 4.999999999989965e-02 0.000000000000000e+00 9.000000000000000e-01 0.000000000000000e+00 0.000000000000000e+00 8.500000000000000e-01 4.999999999989965e-02 0.000000000000000e+00 8.500000000000000e-01 0.000000000000000e+00 0.000000000000000e+00 8.500000000000000e-01 0.000000000000000e+00 0.000000000000000e+00 8.500000000000000e-01 4.999999999989965e-02 0.000000000000000e+00 8.000000000000000e-01 4.999999999989965e-02 0.000000000000000e+00 8.500000000000000e-01 0.000000000000000e+00 0.000000000000000e+00 8.000000000000000e-01 4.999999999989965e-02 0.000000000000000e+00 8.000000000000000e-01 0.000000000000000e+00 0.000000000000000e+00 8.000000000000000e-01 0.000000000000000e+00 0.000000000000000e+00 8.000000000000000e-01 4.999999999989965e-02 0.000000000000000e+00 7.500000000000000e-01 4.999999999989965e-02 0.000000000000000e+00 8.000000000000000e-01 0.000000000000000e+00 0.000000000000000e+00 7.500000000000000e-01 4.999999999989965e-02 0.000000000000000e+00 7.500000000000000e-01 0.000000000000000e+00 0.000000000000000e+00 7.500000000000000e-01 0.000000000000000e+00 0.000000000000000e+00 7.500000000000000e-01 4.999999999989965e-02 0.000000000000000e+00 7.000000000000000e-01 4.999999999989965e-02 0.000000000000000e+00 7.500000000000000e-01 0.000000000000000e+00 0.000000000000000e+00 7.000000000000000e-01 4.999999999989965e-02 0.000000000000000e+00 7.000000000000000e-01 0.000000000000000e+00 0.000000000000000e+00 7.000000000000000e-01 0.000000000000000e+00 0.000000000000000e+00 7.000000000000000e-01 4.999999999989965e-02 0.000000000000000e+00 6.500000000000000e-01 4.999999999989965e-02 0.000000000000000e+00 7.000000000000000e-01 0.000000000000000e+00 0.000000000000000e+00 6.500000000000000e-01 4.999999999989965e-02 0.000000000000000e+00 6.500000000000000e-01 0.000000000000000e+00 0.000000000000000e+00 6.500000000000000e-01 0.000000000000000e+00 0.000000000000000e+00 6.500000000000000e-01 4.999999999989965e-02 0.000000000000000e+00 6.000000000000000e-01 4.999999999989965e-02 0.000000000000000e+00 6.500000000000000e-01 0.000000000000000e+00 0.000000000000000e+00 6.000000000000000e-01 4.999999999989965e-02 0.000000000000000e+00 6.000000000000000e-01 0.000000000000000e+00 0.000000000000000e+00 6.000000000000000e-01 0.000000000000000e+00 0.000000000000000e+00 6.000000000000000e-01 4.999999999989965e-02 0.000000000000000e+00 5.500000000000000e-01 4.999999999989965e-02 0.000000000000000e+00 6.000000000000000e-01 0.000000000000000e+00 0.000000000000000e+00 5.500000000000000e-01 4.999999999989965e-02 0.000000000000000e+00 5.500000000000000e-01 0.000000000000000e+00 0.000000000000000e+00 5.500000000000000e-01 0.000000000000000e+00 0.000000000000000e+00 5.500000000000000e-01 4.999999999989965e-02 0.000000000000000e+00 5.000000000000000e-01 4.999999999989965e-02 0.000000000000000e+00 5.500000000000000e-01 0.000000000000000e+00 0.000000000000000e+00 5.000000000000000e-01 4.999999999989965e-02 0.000000000000000e+00 5.000000000000000e-01 0.000000000000000e+00 0.000000000000000e+00 5.000000000000000e-01 0.000000000000000e+00 0.000000000000000e+00 5.000000000000000e-01 4.999999999989965e-02 0.000000000000000e+00 4.500000000000000e-01 4.999999999989965e-02 0.000000000000000e+00 5.000000000000000e-01 0.000000000000000e+00 0.000000000000000e+00 4.500000000000000e-01 4.999999999989965e-02 0.000000000000000e+00 4.500000000000000e-01 0.000000000000000e+00 0.000000000000000e+00 4.500000000000000e-01 0.000000000000000e+00 0.000000000000000e+00 4.500000000000000e-01 4.999999999989965e-02 0.000000000000000e+00 4.000000000000000e-01 4.999999999989965e-02 0.000000000000000e+00 4.500000000000000e-01 0.000000000000000e+00 0.000000000000000e+00 4.000000000000000e-01 4.999999999989965e-02 0.000000000000000e+00 4.000000000000000e-01 0.000000000000000e+00 0.000000000000000e+00 4.000000000000000e-01 0.000000000000000e+00 0.000000000000000e+00 4.000000000000000e-01 4.999999999989965e-02 0.000000000000000e+00 3.500000000000000e-01 4.999999999989965e-02 0.000000000000000e+00 4.000000000000000e-01 0.000000000000000e+00 0.000000000000000e+00 3.500000000000000e-01 4.999999999989965e-02 0.000000000000000e+00 3.500000000000000e-01 0.000000000000000e+00 0.000000000000000e+00 3.500000000000000e-01 0.000000000000000e+00 0.000000000000000e+00 3.500000000000000e-01 4.999999999989965e-02 0.000000000000000e+00 3.000000000000000e-01 4.999999999989965e-02 0.000000000000000e+00 3.500000000000000e-01 0.000000000000000e+00 0.000000000000000e+00 3.000000000000000e-01 4.999999999989965e-02 0.000000000000000e+00 3.000000000000000e-01 0.000000000000000e+00 0.000000000000000e+00 3.000000000000000e-01 0.000000000000000e+00 0.000000000000000e+00 3.000000000000000e-01 4.999999999989965e-02 0.000000000000000e+00 2.500000000000000e-01 4.999999999989965e-02 0.000000000000000e+00 3.000000000000000e-01 0.000000000000000e+00 0.000000000000000e+00 2.500000000000000e-01 4.999999999989965e-02 0.000000000000000e+00 2.500000000000000e-01 0.000000000000000e+00 0.000000000000000e+00 2.500000000000000e-01 0.000000000000000e+00 0.000000000000000e+00 2.500000000000000e-01 4.999999999989965e-02 0.000000000000000e+00 2.000000000000000e-01 4.999999999989965e-02 0.000000000000000e+00 2.500000000000000e-01 0.000000000000000e+00 0.000000000000000e+00 2.000000000000000e-01 4.999999999989965e-02 0.000000000000000e+00 2.000000000000000e-01 0.000000000000000e+00 0.000000000000000e+00 2.000000000000000e-01 0.000000000000000e+00 0.000000000000000e+00 2.000000000000000e-01 4.999999999989965e-02 0.000000000000000e+00 1.500000000000000e-01 4.999999999989965e-02 0.000000000000000e+00 2.000000000000000e-01 0.000000000000000e+00 0.000000000000000e+00 1.500000000000000e-01 4.999999999989965e-02 0.000000000000000e+00 1.500000000000000e-01 0.000000000000000e+00 0.000000000000000e+00 1.500000000000000e-01 0.000000000000000e+00 0.000000000000000e+00 1.500000000000000e-01 4.999999999989965e-02 0.000000000000000e+00 9.999999999999998e-02 4.999999999989965e-02 0.000000000000000e+00 1.500000000000000e-01 0.000000000000000e+00 0.000000000000000e+00 9.999999999999998e-02 4.999999999989965e-02 0.000000000000000e+00 9.999999999999998e-02 0.000000000000000e+00 0.000000000000000e+00 9.999999999999998e-02 0.000000000000000e+00 0.000000000000000e+00 9.999999999999998e-02 4.999999999989965e-02 0.000000000000000e+00 5.000000000000004e-02 4.999999999989965e-02 0.000000000000000e+00 9.999999999999998e-02 0.000000000000000e+00 0.000000000000000e+00 5.000000000000004e-02 4.999999999989965e-02 0.000000000000000e+00 5.000000000000004e-02 0.000000000000000e+00 0.000000000000000e+00 5.000000000000004e-02 0.000000000000000e+00 0.000000000000000e+00 5.000000000000004e-02 4.999999999989965e-02 0.000000000000000e+00 0.000000000000000e+00 4.999999999989965e-02 0.000000000000000e+00 5.000000000000004e-02 0.000000000000000e+00 0.000000000000000e+00 0.000000000000000e+00 4.999999999989965e-02 0.000000000000000e+00 0.000000000000000e+00 0.000000000000000e+00 0.000000000000000e+00 1.000000000000000e+00 4.999999999989965e-02 0.000000000000000e+00 1.000000000000000e+00 9.999999999981467e-02 0.000000000000000e+00 9.500000000000000e-01 9.999999999981467e-02 0.000000000000000e+00 1.000000000000000e+00 4.999999999989965e-02 0.000000000000000e+00 9.500000000000000e-01 9.999999999981467e-02 0.000000000000000e+00 9.500000000000000e-01 4.999999999989965e-02 0.000000000000000e+00 9.500000000000000e-01 4.999999999989965e-02 0.000000000000000e+00 9.500000000000000e-01 9.999999999981467e-02 0.000000000000000e+00 9.000000000000000e-01 9.999999999981467e-02 0.000000000000000e+00 9.500000000000000e-01 4.999999999989965e-02 0.000000000000000e+00 9.000000000000000e-01 9.999999999981467e-02 0.000000000000000e+00 9.000000000000000e-01 4.999999999989965e-02 0.000000000000000e+00 9.000000000000000e-01 4.999999999989965e-02 0.000000000000000e+00 9.000000000000000e-01 9.999999999981467e-02 0.000000000000000e+00 8.500000000000000e-01 9.999999999981467e-02 0.000000000000000e+00 9.000000000000000e-01 4.999999999989965e-02 0.000000000000000e+00 8.500000000000000e-01 9.999999999981467e-02 0.000000000000000e+00 8.500000000000000e-01 4.999999999989965e-02 0.000000000000000e+00 8.500000000000000e-01 4.999999999989965e-02 0.000000000000000e+00 8.500000000000000e-01 9.999999999981467e-02 0.000000000000000e+00 8.000000000000000e-01 9.999999999981467e-02 0.000000000000000e+00 8.500000000000000e-01 4.999999999989965e-02 0.000000000000000e+00 8.000000000000000e-01 9.999999999981467e-02 0.000000000000000e+00 8.000000000000000e-01 4.999999999989965e-02 0.000000000000000e+00 8.000000000000000e-01 4.999999999989965e-02 0.000000000000000e+00 8.000000000000000e-01 9.999999999981467e-02 0.000000000000000e+00 7.500000000000000e-01 9.999999999981467e-02 0.000000000000000e+00 8.000000000000000e-01 4.999999999989965e-02 0.0000000000000
[...]
<PointData Scalars="tracer_conc," Vectors="" Tensors="">
<DataArray type="Float64" Name="tracer_conc" format="ascii">
7.917465114538291e-01 8.557358247893102e-01 8.119767764729323e-01 8.183399451618700e-01 7.869107468074518e-01 7.525412973908442e-01 7.354290224481218e-01 7.958762770339817e-01 7.055739468856799e-01 7.553504042924962e-01 6.857752313051325e-01 6.530521154505681e-01 6.369945910122368e-01 6.979383391799435e-01 5.916726576097330e-01 6.546144517647803e-01 5.734327461222002e-01 5.406521301742783e-01 5.257351083522193e-01 5.854456014805286e-01 4.775157273250596e-01 5.417250309515002e-01 4.610345306941696e-01 4.300846335511487e-01 4.167991446830730e-01 4.717235177398857e-01 3.717370953093582e-01 4.307577050166056e-01 3.577232582066128e-01 3.305250547796363e-01 3.195862356143411e-01 3.661072927356798e-01 2.809889074907517e-01 3.303449215053168e-01 2.706857023889278e-01 2.487269053262348e-01 2.411522334908457e-01 2.756147249057945e-01 2.122449896942148e-01 2.463405516779285e-01 2.079332414931479e-01 1.922540599839740e-01 1.899379185509108e-01 2.074144562063468e-01 1.765802686398613e-01 1.844676737417912e-01 1.830058470430764e-01 1.744396802176421e-01 1.816020168435875e-01 1.730196981819736e-01 1.958352986840473e-01 1.538982523236063e-01 2.232659841789422e-01 2.225927982762782e-01 2.493127905444322e-01 1.962837814219076e-01 3.130882938206667e-01 1.715582463517075e-01 3.823167549062642e-01 3.911008983034713e-01 4.796962535253674e-01 3.119464048627785e-01 5.889126482547269e-01 4.456981498026277e-01 6.162666461027004e-01 7.834895697105280e-01 8.658506154207429e-01 5.625769781539763e-01 9.307930315949794e-01 9.051481151657218e-01 8.959368662912304e-01 1.239543002690348e+00 1.260251028713191e+00 9.017813287502151e-01 1.231678275186111e+00 1.296480481425882e+00 1.199465149200950e+00 1.565688725253529e+00 1.561209915471291e+00 1.227842421087859e+00 1.477166830273372e+00 1.577667537368019e+00 1.461543074171491e+00 1.769026182884592e+00 1.758885114350057e+00 1.490783880882040e+00 1.659479586791638e+00 1.759134121599324e+00 1.657561013753423e+00 1.883638826099857e+00 1.875572880124886e+00 1.679460101371309e+00 1.784941148194398e+00 1.867484831449015e+00 1.790251995059690e+00 1.943450171450960e+00 1.939083972877467e+00 1.803954147999890e+00 1.866222059806342e+00 1.928595076888537e+00 1.873852432842918e+00 1.972911826620839e+00 1.971607275345520e+00 1.881235189658159e+00 1.916348573673681e+00 1.961755454916319e+00 1.923714759471961e+00 1.986754288628761e+00 1.987634442458557e+00 1.926896212282867e+00 1.945379315017396e+00 1.979280190501189e+00 1.951561951769754e+00 1.992805633976672e+00 1.996154040129161e+00 1.952078563342991e+00 1.958574897557896e+00 1.989968460242886e+00 1.963234223476642e+00 1.993029980573501e+00 8.636113449204779e-01 9.172867253852943e-01 8.625756639410249e-01 8.682127042148553e-01 8.589560022555721e-01 8.007187541895554e-01 7.963783475620794e-01 8.586373675489217e-01 7.704519597370078e-01 8.005602809904944e-01 7.678063019520679e-01 7.041530985457446e-01 6.990289018425805e-01 7.690843751825623e-01 6.636467812152261e-01 7.020557949624603e-01 6.619951264778954e-01 5.921825657835436e-01 5.878155621309789e-01 6.627914243356214e-01 5.516212333420711e-01 5.900862861414293e-01 5.508492677445888e-01 4.783915521049364e-01 4.753178699409263e-01 5.503962402257528e-01 4.425703002599523e-01 4.770988992961141e-01 4.425140689950107e-01 3.722831273996499e-01 3.707425641976635e-01 4.405292748202603e-01 3.433492664647869e-01 3.718851563295208e-01 3.441427274729169e-01 2.810866160727012e-01 2.815347490281456e-01 3.402476357654256e-01 2.606748821880325e-01 2.811208651199373e-01 2.631093980807233e-01 2.121688440048978e-01 2.158883173799233e-01 2.562556795924331e-01 2.035567914318333e-01 2.115436238800364e-01 2.096148509074266e-01 1.768500183044228e-01 1.869521349123068e-01 1.974903570322304e-01 1.875411368491343e-01 1.740379561301972e-01 2.005434018159982e-01 1.962186355616891e-01 2.189190400312569e-01 1.796137740333568e-01 2.392202859837557e-01 1.931977859760055e-01 2.595442799973811e-01 3.064243095181833e-01 3.503240280338094e-01 2.260656876380693e-01 3.892132758845629e-01 3.333297896923920e-01 3.960953499400863e-01 5.491393320383600e-01 5.936717909926873e-01 3.643023046835998e-01 6.208278168191013e-01 6.011944425969790e-01 6.057186965687030e-01 8.820662978298786e-01 9.032482740447858e-01 5.929073463614527e-01 8.849387342762985e-01 9.207994450431041e-01 8.645321224832225e-01 1.209511509614017e+00 1.210757520008029e+00 8.707430253491705e-01 1.146572447850368e+00 1.224562925666921e+00 1.131166020054452e+00 1.478592874462066e+00 1.469518795766605e+00 1.148347996239027e+00 1.377402548124511e+00 1.474716823425701e+00 1.370263790566893e+00 1.674009095502065e+00 1.662609225829239e+00 1.390109158065705e+00 1.562589671154304e+00 1.660147965426860e+00 1.562479865457232e+00 1.803276386162254e+00 1.793968584291251e+00 1.579734754486282e+00 1.700022511613161e+00 1.786954082468585e+00 1.704128368847385e+00 1.882936316514482e+00 1.877240461625489e+00 1.716770354509922e+00 1.795395621861353e+00 1.868602674933757e+00 1.801107634868301e+00 1.929287788013682e+00 1.927392063947478e+00 1.809137147910390e+00 1.856250978327610e+00 1.918918246842615e+00 1.861685158710969e+00 1.954123936404766e+00 1.957178831421336e+00 1.866021212477278e+00 1.885546465228869e+00 1.951868371459475e+00 1.888636062497252e+00 1.960310101193086e+00 9.183019927243159e-01 9.540221591743143e-01 9.045765336016651e-01 9.206211785523054e-01 9.027175836668304e-01 8.595232409875471e-01 8.557681653075692e-01 9.046956373193293e-01 8.274109940146566e-01 8.578874945513577e-01 8.260212506273803e-01 7.714838126734210e-01 7.672282982412595e-01 8.281700410886823e-01 7.320821070717252e-01 7.682647924000851e-01 7.318388924706068e-01 6.661740849464812e-01 6.626701586980516e-01 7.330777194891764e-01 6.270271698797940e-01 6.628166799478704e-01 6.278343443440341e-01 5.543574402135850e-01 5.521107623364379e-01 6.276239089635968e-01 5.196085093253021e-01 5.516819573671504e-01 5.212149507541853e-01 4.447814524723185e-01 4.439854476664042e-01 5.193748419729177e-01 4.163923373022284e-01 4.431598127727587e-01 4.186158337324974e-01 3.446408096740974e-01 3.455103443044568e-01 4.150103676623329e-01 3.236028671018048e-01 3.441294546399643e-01 3.265069345675671e-01 2.607860683206555e-01 2.639566239696532e-01 3.206793868093375e-01 2.483625220940631e-01 2.612602822284423e-01 2.524293250879777e-01 2.020253812838244e-01 2.091155008527264e-01 2.432040860648072e-01 2.011054174521311e-01 2.036649292724251e-01 2.070508346170929e-01 1.828160214731552e-01 1.968174547991194e-01 1.925129606694249e-01 1.983639523838563e-01 1.880657507048173e-01 2.052080901132537e-01 2.264354186403894e-01 2.503483315974943e-01 1.841139492447686e-01 2.605414484641941e-01 2.444721224264097e-01 2.616127125099900e-01 3.595560197727993e-01 3.879000842927927e-01 2.385408283225054e-01 3.951600222437467e-01 3.919107473530524e-01 3.857771135061734e-01 5.813949936427770e-01 6.028537731504594e-01 3.691963178747812e-01 5.900972121494468e-01 6.157788057956883e-01 5.733655021738905e-01 8.541862299973785e-01 8.646990337600163e-01 5.685041370979311e-01 8.211929024462385e-01 8.797664561380542e-01 8.040270475778827e-01 1.132288921752479e+00 1.132495028794177e+00 8.105759016331168e-01 1.059955732870763e+00 1.143962493127150e+00 1.046909446332845e+00 1.378252195302344e+00 1.371965400509524e+00 1.061052408101472e+00 1.280588451486120e+00 1.377447157261417e+00 1.273245833589832e+00 1.573040676623190e+00 1.564499444932092e+00 1.290149887253023e+00 1.466254470841133e+00 1.564441232621571e+00 1.463918119902560e+00 1.714199739154540e+00 1.706599427932453e+00 1.479802029067135e+00 1.610018941325054e+00 1.702964840272650e+00 1.610776935891802e+00 1.808979094002736e+00 1.804391655530617e+00 1.623683042533709e+00 1.710585202203105e+00 1.799444289042764e+00 1.711901070537219e+00 1.866520226418886e+00 1.868029901940594e+00 1.721737480463362e+00 1.762446823875761e+00 1.868266256792860e+00 1.759554373106823e+00 1.886041111959723e+00 9.520666830209822e-01 9.748029912285030e-01 9.353333238746920e-01 9.544178864846697e-01 9.332991800608024e-01 9.044221907433363e-01 9.004817046437401e-01 9.365701200992005e-01 8.727147876516074e-01 9.026151620324384e-01 8.709993560526897e-01 8.292119499769381e-01 8.248264554748197e-01 8.741856539001558e-01 7.906904759423320e-01 8.259620638897505e-01 7.900541432840876e-01 7.350966322562467e-01 7.312760809879821e-01 7.923889204214010e-01 6.957014690949030e-01 7.314687055381108e-01 6.961486876934374e-01 6.303592275390881e-01 6.276013136184510e-01 6.971418943334216e-01 5.939226473495520e-01 6.270746950722950e-01 5.952876563086020e-01 5.226219254747534e-01 5.211532164746538e-01 5.947330819785956e-01 4.913272979278693e-01 5.201292592960799e-01 4.934035210001676e-01 4.186457412176960e-01 4.186020552628091e-01 4.912256151521637e-01 3.936491579821349e-01 4.171994772034422e-01 3.962717437410721e-01 3.247086262418050e-01 3.263618817914136e-01 3.923048752833023e-01 3.067918526645608e-01 3.244932398996220e-01 3.098993982248680e-01 2.477170436136736e-01 2.517903430759934e-01 3.036110255960013e-01 2.380058087557478e-01 2.491614060349334e-01 2.415479689785116e-01 1.973372178361840e-01 2.052465039593988e-01 2.318873885314744e-01 1.977196146687547e-01 2.019055341320246e-01 2.009848229283698e-01 1.884447585714462e-01 2.018527442281722e-01 1.870104101107143e-01 2.000175513583353e-01 1.996920660175454e-01 2.004882020638917e-01 2.403288068782687e-01 2.584993952340620e-01 1.831789643734995e-01 2.576087014980303e-01 2.606160242403331e-01 2.526309655440712e-01 3.659334989085512e-01 3.844153450501980e-01 2.356395358068664e-01 3.754572842795595e-01 3.924218922856118e-01 3.645659794560789e-01 5.594410130710021e-01 5.734167047869274e-01 3.525747174205705e-01 5.475007527843666e-01 5.862696476837387e-01 5.325795085720740e-01 7.976093230398112e-01 8.048270292236646e-01 5.289664568380507e-01 7.558326970902690e-01 8.182259887313701e-01 7.412204886524454e-01 1.047876243203890e+00 1.048230658966322e+00 7.460967806296375e-01 9.772678160609761e-01 1.058901953615732e+00 9.655566181927542e-01 1.279667460031156e+00 1.275064355599934e+00 9.768576084165336e-01 1.188256986315536e+00 1.281498454225102e+00 1.180376446200140e+00 1.473087503182900e+00 1.466340723672249e+00 1.194900004416345e+00 1.370474184030156e+00 1.468965247635138e+00 1.365654217870149e+00 1.620168624562436e+00 1.614209438232146e+00 1.380686270637692e+00 1.510505931728872e+00 1.615096545696617e+00 1.506034223090486e+00 1.719663002806741e+00 1.719188249907929e+00 1.520836482996881e+00 1.588714244152228e+00 1.729030566295986e+00 1.576433820851166e+00 1.759927864547058e+00 9.720139623216244e-01 9.863867047500705e-01 9.568375965235890e-01 9.744078606055638e-01 9.547103764372690e-01 9.358647944228683e-01 9.321812911063817e-01 9.582335535651637e-01 9.074989104346349e-01 9.344670381721804e-01 9.055100475476557e-01 8.745097190245603e-01 8.702668335485793e-01 9.091159951224640e-01 8.389650869710233e-01 8.717662317134262e-01 8.378240761438793e-01 7.935912876970090e-01 7.896285889479163e-01 8.408458064553648e-01 7.555031136815136e-01 7.902610975367345e-01 7.553398644034042e-01 6.990702542494289e-01 6.958969037765225e-01 7.572680583686655e-01 6.619212158422701e-01 6.957535475016726e-01 6.626998669347578e-01 5.972424324841619e-01 5.951311478380076e-01 6.632765940276698e-01 5.634294721658205e-01 5.943679944284256e-01 5.650197498304776e-01 4.942022346642110e-01 4.932864266005280e-01 5.641588609688839e-01 4.652860447364698e-01 4.920719089468601e-01 4.675068058036743e-01 3.957200598548112e-01 3.961222485334154e-01 4.651540555293155e-01 3.726869267779714e-01 3.945850791047258e-01 3.753425827776390e-01 3.075697965512579e-01 3.095785475879136e-01 3.712940856158070e-01 2.911640934140612e-01 3.077909626752852e-01 2.940253048138003e-01 2.365567721345779e-01 2.408105771314213e-01 2.877567355671269e-01 2.276181110615160e-01 2.389355573119076e-01 2.302061687227946e-01 1.922008286150717e-01 1.996744773692087e-01 2.210451849791025e-01 1.914435874400620e-01 1.983601253692436e-01 1.925788177168775e-01 1.877769270664915e-01 1.990098295400715e-01 1.802858923865003e-01 1.937351806471425e-01 1.996185288016528e-01 1.918572366292274e-01 2.377071276088761e-01 2.515218692200439e-01 1.774479548023457e-01 2.446012851241564e-01 2.556019146667310e-01 2.385899359410557e-01 3.502802805021006e-01 3.640573193200167e-01 2.246410444560991e-01 3.491520579084901e-01 3.723476804385401e-01 3.389915613248955e-01 5.219436921768345e-01 5.325488152091485e-01 3.288249308987926e-01 5.035627875662704e-01 5.442624843397849e-01 4.906377706905986e-01 7.357237515880140e-01 7.415649782667413e-01 4.869279462342615e-01 6.938950377889246e-01 7.536866471649371e-01 6.811580461335256e-01 9.658602812209744e-01 9.665154954920168e-01 6.844176967613343e-01 9.002082626526525e-01 9.769190640091230e-01 8.892174976903053e-01 1.185597165786087e+00 1.182160068152979e+00 8.984306524704588e-01 1.099751628870978e+00 1.190144801210615e+00 1.090566933791365e+00 1.373955409282797e+00 1.368740361138105e+00 1.104005780424001e+00 1.269127346470179e+00 1.376003705614731e+00 1.258970613963816e+00 1.515556147894931e+00 1.513588665858991e+00 1.276485019684102e+00 1.372617024256979e+00 1.535426248165176e+00 1.349382739750975e+00 1.581495455146550e+00 9.836761440518340e-01 9.928149100222262e-01 9.716130244835650e-01 9.858883234531245e-01 9.696304822668445e-01 9.573496484468923e-01 9.541977759255803e-01 9.729019812704324e-01 9.338108937198087e-01 9.564847831532510e-01 9.317597864719910e-01 9.089885518021953e-01 9.051559755938579e-01 9.353528507617854e-01 8.779500296913592e-01 9.069337727882919e-01 8.764578012234652e-01 8.414640567392871e-01 8.376570688380437e-01 8.797426345579016e-01 8.062264173527128e-01 8.387267418248032e-01 8.055350899479276e-01 7.585682162282816e-01 7.552851463656312e-01 8.079913617050541e-01 7.220759768167637e-01 7.555982196164425e-01 7.222783446070004e-01 6.651676815336078e-01 6.627041228000481e-01 7.236219501416877e-01 6.298993008687843e-01 6.623176279245140e-01 6.309618301648128e-01 5.665442255751518e-01 5.650509934784171e-01 6.310844216992758e-01 5.344681356741005e-01 5.640982145663328e-01 5.362599773658472e-01 4.679729733375769e-01 4.675340061901393e-01 5.351295840156872e-01 4.405095241244443e-01 4.661832875858453e-01 4.428387926959464e-01 3.745807803429229e-01 3.753104365387426e-01 4.403891740638097e-01 3.526699759587611e-01 3.737331650724195e-01 3.552991281324602e-01 2.916710216791112e-01 2.938342691031195e-01 3.513040359461113e-01 2.759665290463443e-01 2.922176874571819e-01 2.785569327273325e-01 2.256505173119850e-01 2.297487589084801e-01 2.726387318000612e-01 2.166926792928981e-01 2.283735665164419e-01 2.185755632627069e-01 1.852045656590756e-01 1.918714542095470e-01 2.102841108137337e-01 1.828310367050035e-01 1.913464837756810e-01 1.830478207884254e-01 1.817221495307515e-01 1.910510845187840e-01 1.722682039463046e-01 1.837717076757450e-01 1.923843293427451e-01 1.813352599590664e-01 2.267184570691918e-01 2.378604580517188e-01 1.689101599832692e-01 2.285023219335559e-01 2.420591764702940e-01 2.227560213063824e-01 3.273108550221548e-01 3.384198916216525e-01 2.106258720665269e-01 3.220193727036294e-01 3.459768667242838e-01 3.130735443831409e-01 4.814502393827271e-01 4.902113132647484e-01 3.038374229503399e-01 4.619354969360600e-01 5.006476586230512e-01 4.507609184857846e-01 6.759596319721713e-01 6.810543540691716e-01 4.467780963698330e-01 6.367141683685914e-01 6.922688741685648e-01 6.252755765697928e-01 8.890350541870744e-01 8.898818100508070e-01 6.274870821414522e-01 8.276592886033958e-01 9.008887151291266e-01 8.163069757250897e-01 1.095298356531749e+00 1.092637129105274e+00 8.250400909311310e-01 1.008046542761337e+00 1.105100180636016e+00 9.937998787612258e-01 1.268102458824393e+00 1.265654130048853e+00 1.010841623872016e+00 1.129748610145956e+00 1.299409147730110e+00 1.096408909331815e+00 1.359666376083492e+00 9.905011819208763e-01 9.963989962256437e-01 9.817725815824396e-01 9.923824019305337e-01 9.800770722704570e-01 9.719732864197006e-01 9.694082644516691e-01 9.829335159046387e-01 9.536870740343436e-01 9.715573224947314e-01 9.517296589979880e-01 9.349408830374324e-01 9.316545385769868e-01 9.550778824287477e-01 9.091305045102318e-01 9.335831725411985e-01 9.074497828616984e-01 8.799329157888905e-01 8.765088503194360e-01 9.106830478506324e-01 8.484691473412482e-01 8.779205536169216e-01 8.473948301878582e-01 8.087893636729581e-01 8.056711796481122e-01 8.500273574705307e-01 7.739381429855552e-01 8.063938847700934e-01 7.736666831481059e-01 7.249843850990548e-01 7.224532485599293e-01 7.754310906830528e-01 6.891888522878437e-01 7.224494448473177e-01 6.897705950402305e-01 6.329408666066073e-01 6.311587046564691e-01 6.905465678686583e-01 5.984926457916668e-01 6.305035497505354e-01 5.998590992636735e-01 5.374119595831708e-01 5.364688584205414e-01 5.996008853982846e-01 5.061695450243824e-01 5.353077018805181e-01 5.081730846563990e-01 4.430742785184811e-01 4.430382038112392e-01 5.068487946175797e-01 4.163487336245191e-01 4.415482982013115e-01 4.187910186129556e-01 3.544618375882955e-01 3.554448390058636e-01 4.163091367832041e-01 3.330757440889660e-01 3.538086246370604e-01 3.357102321087724e-01 2.763452813901888e-01 2.785691708988906e-01 3.318977053932899e-01 2.608469110055315e-01 2.769529512824773e-01 2.632495342375387e-01 2.144777879623445e-01 2.183651495177718e-01 2.577837677371368e-01 2.051156432584683e-01 2.170640294487465e-01 2.066687898766740e-01 1.766905351482421e-01 1.826127444313516e-01 1.991764542005049e-01 1.728363524814797e-01 1.822010563395709e-01 1.728168122712898e-01 1.727746649364194e-01 1.807447073964871e-01 1.632626107534888e-01 1.723966252005452e-01 1.819995241191071e-01 1.700683797902482e-01 2.126678905334569e-01 2.220489608072846e-01 1.591017987360390e-01 2.118735367002230e-01 2.257530497300634e-01 2.067882584386221e-01 3.028912023121010e-01 3.122847444462083e-01 1.959407998713510e-01 2.961131486790087e-01 3.188983125369433e-01 2.883593237990922e-01 4.424228605476155e-01 4.499631501407923e-01 2.798134265222664e-01 4.234870534667939e-01 4.593804773375935e-01 4.136129199816571e-01 6.203504787731726e-01 6.248111202689753e-01 4.096874070989174e-01 5.832033195722532e-01 6.360991739372177e-01 5.719161995113216e-01 8.163430008216428e-01 8.169552274291513e-01 5.746129158117399e-01 7.529666866768240e-01 8.322315195711578e-01 7.370262781633530e-01 1.000421728294960e+00 9.984694277393927e-01 7.506163184233271e-01 8.805927659308033e-01 1.041277531323965e+00 8.403860617728292e-01 1.111178104957903e+00 9.945314911490257e-01 9.984379010035235e-01 9.888941681865444e-01 9.960207717952202e-01 9.875379033167678e-01 9.820364741993657e-01 9.800051156407974e-01 9.899794182123284e-01 9.688519847742117e-01 9.819400774125774e-01 9.670716496744958e-01 9.544973125685192e-01 9.518058949214215e-01 9.700573385737100e-01 9.339583844857264e-01 9.537832366794637e-01 9.322139440466266e-01 9.105669105694034e-01 9.076608924684402e-01 9.351858707145998e-01 8.831347664705845e-01 9.093078109008439e-01 8.818127330882813e-01 8.504307658953518e-01 8.476569315972877e-01 8.843735428084399e-01 8.177058891329585e-01 8.487110634740143e-01 8.170691988883987e-01 7.763494127701114e-01 7.739526045229638e-01 8.189909819388369e-01 7.406705761035730e-01 7.743018520462291e-01 7.408326472603907e-01 6.919375999200056e-01 6.900881839535433e-01 7.419851213007328e-01 6.557887194156012e-01 6.897464007835760e-01 6.567418330108405e-01 6.014072240065461e-01 6.002189051577583e-01 6.570525424534850e-01 5.669687758563999e-01 5.992841602334040e-01 5.686212120095183e-01 5.090245040592950e-01 5.085719056211082e-01 5.680512305946960e-01 4.779487812825453e-01 5.071935165626328e-01 4.801529333090580e-01 4.188549481904507e-01 4.192044184289014e-01 4.786593081373547e-01 3.922129234045745e-01 4.175561527430313e-01 3.947906842975535e-01 3.348307021978524e-01 3.360916086169690e-01 3.922726667049011e-01 3.132163913564802e-01 3.34271349418308