<?xml version="1.0"?>
<VTKFile type="UnstructuredGrid" version="0.1" byte_order="LittleEndian">
<UnstructuredGrid>
<Piece NumberOfPoints="236" NumberOfCells="719">
<Points>
<DataArray type="Float64" NumberOfComponents="3" format="ascii">
0 0 0 0 0 0.20000000000083221 0 0.14641016151432179 0.14641016151432179 0 0.20000000000083221 0 0.14641016151452901 0.14641016151487049 0 0.1464101615145241 0 0.14641016151486561 0.19999999999955789 0 0 0.31610726166346748 0.18804489794572149 0 0.3999999999989749 0 0 0.49391845158624981 0 0.1323760430705655 0.31578456131778371 0 0.1865278143482666 0.47688326899416439 0 0.31741132792405607 0.32146143392436449 0 0.38738071487621961 0.16370661204827031 0 0.4886650857430957 0 0 0.40000000000166441 0.16938214347656569 0 0.30011357660650623 0 0.18804489794560331 0.31610726166461361 0 0.31024977578556651 0.45812322962166352 0 0.39615100178029522 0.32925244736138171 0.312576188949791 0.31458070521983672 0.3125761889497819 0.45812322962036273 0.31024977578535839 0 0.32925244736090059 0.39615100178043078 0 0.17226134197279269 0.49836539647922029 0 0.16929708765618309 0.30074819035915368 0 0 0.30074819035869899 0.1692970876565193 0 0.49836539647891548 0.17226134197271731 0 0.40000000000166441 0 0 0.60000000000138687 0 0.1589680427220837 0.69449451837091269 0 0.22345881830598399 0.5062398304147856 0.22345881830602041 0 0.69449451837103049 0.15896804272139439 0 0.60020898676435996 0.32446581821286191 0.24769234054476261 0.52242103280823293 0.45098450226372488 0 0.68801781652248195 0.45664527743358641 0 0.81480288849496429 0.31067093462946233 0.22516916914780419 0.77057994845201627 0.48187244075707292 0 1 0.3999999999989749 0.17226134197293 1 0.49836539647645101 0.16929708765615539 1 0.30074819035677097 0 1 0.19999999999955789 0 1 0 0 0.79999999999999982 0 0 0.85358983848655678 0.14641016151332509 0.19259015428765269 0.77719169076434647 0.19259015428773721 0.14641016151479211 0.85358983848543113 0 0.20000000000083221 1 0 0.14641016151352521 1 0.1464101615131837 0.31635851157303152 1 0.18818969570840721 0.31067093463127438 0.81480288849489035 0 0.40000000000166441 1 0 0.45820186441796368 1 0.31030302876579191 0.32926555316115258 1 0.39615987727515128 0.35848654557803328 0.70013656506632282 0.30029870175293161 0.32446581821364329 0.60020898676454815 0 0.45664527743509797 0.68801781652245086 0 0.51961524226956368 0.5000000000025091 0 0.59944234541082553 0.66416205381394655 0 0.72722573386132172 0.60922248848163563 0 0.68456408135056701 0.68607101396845627 0.31096060989957619 0.51961524227008238 1 0.49999999999872219 0.61068558124908323 1 0.33127740899601937 0.51133491425992716 1 0.16370661204795281 0.60000000000138687 1 0 0.50803330197353713 0.83630110503668265 0 0.52894546611500048 0.79133000140429866 0.2082794184507949 0.7054234997318658 0.80860557108880304 0 0.69988642339594154 1 0.16938214347578889 0.85358983848665693 1 0.14641016151322461 0.79999999999999982 1 0 0.85358983848666903 0.85358983848666903 0 0.81582077266975173 0.77657922508894406 0.18483084990574741 1 0.85358983848655678 0.14641016151332509 1 0.79999999999999982 0 1 1 0 1 1 0.19999999999955789 0.82751535738810444 1 0.31407731390515509 1 1 0.3999999999989749 0.77374673111774417 0.78860835645735528 0.49829081152968557 1 0.8148028884949543 0.31067093462944562 1 0.68975022421527898 0.45812322962078778 0.7504488434426726 0.53051757989633308 0.49836643074154852 1 0.60020898676431722 0.32446581821274012 1 0.69449451837101916 0.15896804272136739 0.77713227489941183 0.50036915849493024 0.21774643624003751 0.84191918937744659 0.51186163305076127 0 0.85173693729186062 0.69992182039541118 0 1 0.60000000000138687 0 1 0.40000000000166441 0 1 0.49836539647890021 0.17226134197269399 1 0.30074819035868428 0.16929708765640439 0.80839867011859301 0.31807971531731721 0 1 0.20000000000083221 0 1 0.14641016151453831 0.14641016151419689 1 0 0.19999999999955789 1 0 0 0.79999999999947335 0 0 0.85358983848650494 0 0.1464101615132356 0.85358983848570813 0.1464101615143738 0 0.69380980079964416 0.1619694349440581 0 0.68592116352011878 0 0.1724872797865501 0.59999999999894682 0 0 0.5003997205654479 0.21136633249797621 0.2258422409314382 0.50966790549376417 0.16275515618023731 0 0.6104699881764214 0.32043363027358418 0 0.67320508075660079 0.46954769941202479 0 0.5004045312576143 0.47050700646456922 0.24963111222780321 0.50000000000001332 0.49999999999999561 0.49999999999999561 0.68777432594363841 0.31447353261427252 0.31366778418247038 0.50000000000250922 0 0.48038475773043671 0.66852282575985944 0 0.3853248791658106 0.83057691269884504 0 0.30018449338884379 0.83534964916824084 0 0.4902996892628636 1 0 0.3999999999989749 1 0.18804489794556911 0.3161072616634244 1 0.31024977578542368 0.45812322962028301 1 0.39615100178016449 0.32925244736082498 1 0.39076805646076263 0.7272421105028648 1 0.33579115324550912 0.59952339316293046 1 0.162755156180173 0.50966790549372887 1 0.1912596090855686 0.70565701451953711 1 0 0.59999999999894682 0.81469961246449951 0 0.68914937826112133 0.77973766487723961 0.22090161127815711 0.50014622462635805 0.68969697123394857 0 0.54179813558228873 0.6002015905170176 0 0.67551889168744117 0.50073570207385831 0.24848280280289631 0.52886631355986169 0.68742751001967084 0.31250796680084852 0.687427510020161 0.72724211050425436 0.39076805646176382 1 0.59952339316492498 0.33579115324593939 1 0.50966790549576724 0.1627551561802443 1 0.50084626324420545 0.22238844715913 0.78084811589659187 0.60000000000138687 0 1 0.69447607299129699 0 0.84099946107689361 0.70565701452089868 0.1912596090858541 1 0.85358983848646974 0.14641016151341191 1 0.81599560342209843 0.22280203704001911 0.81599560342233202 0.85358983848570524 0 0.85358983848556425 0.79999999999999982 0 1 1 0 1 1 0 0.79999999999947335 1 0.14641016151333891 0.85358983848640169 1 0.19999999999955789 1 0.85173693729199718 0.30007817960516198 1 1 0.30007817960499339 0.85173693729139244 1 0.48813836695007229 0.84191918937727617 0.78019141325921404 0.49972466465542442 0.78019141325930785 0.84191918937756771 0.48813836695034618 1 1 0.3999999999989749 1 1 0.59999999999894682 1 0.80839867011861499 0.68192028468377774 1 1 0.68192028468364885 0.80839867011854549 1 0.53045230059030524 0.6732050807565132 1 0.50000000000229983 0.51961524226898759 1 0.67939035495490308 0.61016512164639347 1 0.83791821520125753 0.69361520514217179 1 0.83630110503662825 0.50803330197135588 1 1 0.59999999999894682 0.86762395692956074 1 0.5060815484123421 0.81346205468287114 1 0.68420958956387889 1 1 0.79999999999947335 1 1 1 1 0.79999999999947335 1 1 0.85358983848587056 0.85358983848587056 0.77683220420328725 0.81278569633583353 0.81664766512111064 0.85358983848587056 0.85358983848587056 1 0.79999999999947335 1 1 0.85358983848569092 1 0.85358983848569092 0.69981550660938663 1 0.83057691269844081 0.69361520514218133 0.83791821520130205 1 0.50803330197137353 0.83630110503667787 1 0.59999999999894682 1 1 0.50970031073508926 1 0.83534964916803001 0.6123333432449789 1 0.67837347745467769 0.68240285647621723 1 0.52310058211166854 0.68649174659499257 0.68600703198516766 0.6864917465949647 0.67320508075671459 0.53045230059073867 1 0.61016512164652226 0.67939035495506384 1 0.51961524226934941 0.50000000000250611 1 0.45812322962090041 0.68975022421538157 1 0.32446581821293602 0.60020898676440626 1 0.49816183246753282 0.5307146639261795 0.75045686993209071 0.3115891413135391 0.68758981780459771 0.68521708032990558 0.49983993748706529 0.75039103705932653 0.52967335724801234 0.32448110831226962 1 0.6002015905153204 0.45820186441573879 1 0.68969697123405882 0.3999999999989749 1 1 0.49911199724958061 0.77872228561593948 0.77895350115271889 0.31067093462947892 0.81480288849497895 1 0.31085062173747541 1 0.81469961246428202 0.1464101615132356 1 0.85358983848650494 0.19999999999955789 1 1 0.14641016151332509 0.85358983848655678 1 0.18453958615733529 0.77655623474864555 0.81613222483915937 0 0.85358983848682146 0.85358983848668035 0 0.79999999999999982 1 0 1 1 0 1 0.79999999999947335 0.15900053892265181 1 0.69447607299016312 0 1 0.59999999999894682 0 0.83630110503664845 0.50803330197135654 0 0.80860557108920617 0.70542349973054763 0 0.66416205381430016 0.59944234540882957 0 0.50000000000237477 0.51961524226909872 0 0.60922248848335758 0.72722573386012812 0 0.5118616330515301 0.84191918937737908 0 0.69992182039579531 0.85173693729137989 0.2184393375098648 0.50004596894495223 0.77634962490704662 0.15896804272141651 0.69449451837104537 1 0 0.60000000000138687 1 0 0.40000000000166441 1 0 0.31807971531776508 0.80839867011913336 0.16929708765653109 0.30074819035870082 1 0.17226134197275911 0.49836539647894412 1 0.32925244736146098 0.39615100178034629 1 0.45812322962173568 0.31024977578554058 1 0.31426750628021272 0.31270343261798911 0.68761148188185484 0 0.46954769941369501 0.67320508075638175 0 0.32043363027398297 0.61046998817722586 0.22088738526309029 0.22111069116742441 0.50004796911802929 0 0.16275515618034081 0.50966790549591257 0 0.16196943494415611 0.69380980080116506 0.18818969570926641 0 0.68364148842842287 0 0 0.60000000000138687 0.31030302876556398 0 0.54179813558513157 0.39615987727709562 0 0.67073444684008199 0.30074819035913852 0 0.83070291234383831 0.49836539647917322 0 0.82773865802723501 0.40000000000166441 0 1 0.31610726166461628 0.1880448979455934 1 0.20000000000083221 0 1 0.14641016151479661 0 0.85358983848542624 0.14641016151432179 0.14641016151432179 1 0 0.20000000000083221 1 0 0.14641016151490169 0.85358983848532144 0 0 0.79999999999999982 0 0 1 
</DataArray>
</Points>
<Cells>
<DataArray type="UInt32" Name="connectivity" format="ascii">
[...]
<CellData Scalars="pressure_p0,piezo_head_p0," Vectors="velocity_p0," Tensors="">
<DataArray type="Float64" Name="pressure_p0" format="ascii">
0.013235483233245407 0.014154653734593311 0.013903545987486264 0.014140677841331904 0.014006354517812302 0.013247182159646608 0.014071695630848988 0.013264135078806236 0.013901035727091764 0.013747058037999796 0.013726386247075728 0.014054359400270198 0.01411080986750923 0.01412375386323721 0.014053197671138086 0.013206297496378201 0.013518620209048711 0.012574286396881695 0.012901607239280995 0.011970267691967509 0.010724029808952157 0.010885180148382715 0.01110299070114211 0.011743971451517001 0.010873443957494181 0.011394059092179155 0.012314888777173601 0.013094610313816802 0.012290626891622402 0.010859437688656031 0.011423582382891977 0.012877205329689561 0.011984476958451758 0.01148008247421518 0.011476146342268963 0.010917606713465196 0.013153749640918993 0.013426249014223922 0.013900959333210538 0.013915714623061473 0.013683852073576874 0.014293285424967307 0.014120477561739005 0.014228957914431659 0.014175040197742565 0.014122430617346363 0.014217181159597218 0.014051060090228924 0.013563853768099801 0.0140597230938833 0.013532502859053566 0.013851182304706562 0.013858249933895832 0.013905684796419099 0.014184409729203075 0.010790921276304769 0.012446481689658118 0.010827683977650814 0.011690958407708885 0.011688039857644814 0.012472587890047716 0.011508072809298546 0.012148845243104427 0.010939100796101137 0.01208583611185496 0.013023820617809184 0.011548089040177036 0.012210378872064911 0.01283639435555084 0.011235549102878665 0.010794228588659586 0.013726597494494923 0.013621072560468028 0.013833867713744461 0.013315854658381227 0.014141918539683239 0.014113469392813594 0.014002835208297549 0.014130733623924089 0.014145446552539531 0.014036470625916592 0.013993011199691858 0.013818100632639264 0.014042631359307261 0.013301758900707748 0.014115283648123185 0.014148526895322151 0.013141203855682078 0.013339583207207338 0.013825795275234655 0.014143078181879574 0.014120763003291775 0.014001319574499635 0.013539131013856622 0.013986401862977947 0.014007884507703752 0.013531007902205853 0.014163264419615009 0.013446191684224746 0.013441336739332085 0.014195902361259893 0.014194858008972574 0.014041028072500465 0.014164210396872347 0.014006708732808047 0.013325297227085101 0.013840855107484881 0.014104826837039029 0.014223734735670294 0.014224808179012276 0.014113582517167635 0.01389473753485396 0.013406230085953633 0.014190624137267394 0.014140048928647016 0.014067828322896511 0.013875072255624218 0.014136180356213399 0.014056102050202067 0.014127994090762493 0.014042366031315657 0.014058272107069628 0.013919382003515923 0.014125933593006453 0.013900234507863676 0.01404597595003735 0.01415473993672753 0.013481214140990129 0.013471998898282002 0.013470346930557417 0.013162558118964307 0.013165713845172554 0.013460993248641187 0.013901314177861751 0.012138245808936724 0.012146133346053127 0.012221170092752013 0.012558662505058894 0.011281885971415096 0.010821989212212361 0.011059549530989834 0.011722564512679615 0.010804335476768841 0.010577176399088126 0.012134277126211415 0.012926857872664866 0.011984199541396684 0.011332549814755885 0.012697765581623525 0.0107011000235423 0.011406019236687232 0.013133399049909466 0.013094203411902951 0.010869126805830133 0.012348002114551528 0.011534694477482111 0.011552197300144597 0.012317388828157461 0.012090007600842775 0.011989399972803004 0.012898709640592558 0.011376770369408876 0.01270327277129155 0.011335761958723873 0.010674898282926285 0.012973431430976231 0.010825517493264273 0.0065778210617597199 0.0076627756796493343 0.0097396344398856596 0.0088644908349400729 0.008790110423229202 0.0077128552708545526 0.0073463329533913465 0.0097853894680727475 0.0064024458823891319 0.0097261321593664577 0.0063011068865296855 0.0066369902571513945 0.0098189270695548739 0.009926659924843869 0.0099101705746404267 0.0082723887930578575 0.0069831405247400523 0.0069409850127762828 0.0098337891188545572 0.0082901320069681036 0.0072975818360347632 0.0076553166441299461 0.0076760383686991594 0.005830604583596492 0.0097244388370805474 0.0060488178698645595 0.008764532346817594 0.0088324108255168499 0.0097880879379363128 0.00607375516971689 0.0096828477157395714 0.0086369125939012407 0.0072178735630289053 0.0067543543536676895 0.0090489703488213277 0.0072394888849926804 0.0087596546855306379 0.0099810210079702526 0.0086636135549603404 0.0082028614090332644 0.0064758386741048043 0.0078920295393281482 0.0057584570218152803 0.0044806977836014837 0.0043325362392643953 0.0028407567602987374 0.0044188179875761981 0.0052003512500910318 0.0043174204059552006 0.0051139765696137001 0.0010568313596094189 0.0020264325541945725 0.0018801797716984316 0.001054512979518358 0.0026941720015057182 0.0027090983488603374 0.0016637921888293995 0.00083769557832635714 0.0008386121204228507 0.0027763611211843223 0.0018131932053473917 0.00098591020248449011 0.0009881100076209804 0.0049692307928542231 0.0032792725787516479 0.0040561392242475574 0.0029962808797480856 0.0047270579309217388 0.0017359227536887173 0.00075912830785494084 0.0020412204651312784 0.0012949543072084191 0.0026714228957378096 0.0031701280305192377 0.0030471663571687768 0.0044025474133515333 0.0017867427157133567 0.0043754121824323951 0.0028144534847235111 0.0040335477202972179 0.0014288081908157828 0.0014286917175103642 0.0021636909803383815 0.0031247574444311431 0.0023071605156303036 0.0012746941649216721 0.0045978420527955106 0.0054681919491727099 0.0010544272792586125 0.0053903482267394307 0.0029795185589776675 0.0044628581286211728 0.004989495730619329 0.00084791925662081893 0.001890629826267642 0.0017400419955651766 0.00090402362186689468 0.00090533067581006165 0.0036407500778211639 0.0019840312567595574 0.0010945770678375323 0.0040493651551707192 0.0049679958226419617 0.003220536128517487 0.0023484885721996151 0.0012759508250199609 0.0010959242041531112 0.0019192894888549836 0.00083853521096994904 0.0052066221074632286 0.0052870869229552555 0.0017746032029798036 0.0025880212962452105 0.0035162614729616157 0.0033905242447356508 0.0050396314440999384 0.0017932741122457384 0.00096666146514878381 0.0027859441360493799 0.00083822904315556475 0.00084010979702295882 0.0016668432999676496 0.0053548600916102466 0.0044707778283088629 0.0076280238927889394 0.0059011607625313852 0.0066163295351632486 0.010040147527356226 0.0080074318669038618 0.0088872647766884867 0.009445973436595265 0.0092856803149314431 0.0084309072813322158 0.0087876130975495081 0.0060880900904130937 0.0079879807457954866 0.0065182530127975528 0.0097800042038242579 0.0098017238285740861 0.0076556454650471995 0.0088550159862415372 0.0075980441461720345 0.0088125575893457583 0.0097290616779703073 0.0061684008654539751 0.0082609039464559345 0.0069214392047600316 0.0082630439082824036 0.0069315857608895038 0.0093528573911692888 0.0093183502640910437 0.0056773752593781215 0.0061552873218595474 0.0095117250038094965 0.0073259165993324908 0.0077602229014905252 0.0086115594356565642 0.0073273745683683188 0.0087140364353341347 0.0095603301761833376 0.008634326506193498 0.0056555821106403295 0.0039264308752499661 0.002716271765695024 0.0049200211538917866 0.0031269611359437026 0.0019014815202402495 0.00094548101992187792 0.00094388629420124812 0.00096977317696705337 0.001263563603714735 0.0021911103060684588 0.0043614014718385509 0.0017751622728760345 0.0043514218908005898 0.0017767306243729594 0.0030015995048462171 0.003011454761191976 0.0031534659610394128 0.0012776694842160322 0.0014273590689374872 0.0043634839639610937 0.0028107742745007076 0.0014290069906401216 0.0026649084337549301 0.004033573403504508 0.0043654935798790317 0.0026612590423983175 0.003007082420108379 0.0014286974509253522 0.0012613099402171981 0.0010539427029470799 0.0012659441943961016 0.0023043513338922251 0.0050273221039607149 0.0033264890242365275 0.0023022071683925826 0.001263949806694076 0.0010625222921539263 0.0010605196059898364 0.0019938698524371535 0.0049095993009002133 0.0032230509908805728 0.0081254391887787686 0.0066218829467131471 0.0056873283248957823 0.0081172748499491292 0.0072623505232021291 0.0089958219159366089 0.0059711591605674137 0.0089583564728534376 0.0093776463119826445 0.0082842159908743142 0.0083085038944062124 0.0069745226442319997 0.0094488708311339341 0.0069424455696130132 0.010017107023319923 0.0064633096583467282 0.0077347852422179342 0.0075565217296704231 0.0090236889249805993 0.0066272520829800882 0.0078181927401335463 0.0063768227753040353 0.0067129552131315667 0.0099651870419969393 0.0090240964355429564 0.0099993135937415378 0.0084685650871126183 0.00709625174739913 0.00699219317583279 0.0074672379339588068 0.0089201959421894243 0.0065897231670880461 0.0089895897190925989 0.0093758659058190107 0.0089793722855818561 0.010214643555503269 0.0080329534067491246 0.0065906857030737197 0.0059523770130623689 0.0051908740252770876 0.004355501290238659 0.0029240932004856684 0.0046095377728789027 0.0043956788073586245 0.0052831398406100521 0.0044881201568861039 0.0016701980391117281 0.0027946148253958835 0.00084008909036118124 0.00084047932201547601 0.001893142742766866 0.00084065112923403015 0.0010570719794257368 0.0018851376503096319 0.0027241396907673786 0.0018863471529073895 0.0010554047324215178 0.00270595547932268 0.00085196056393684017 0.0018978103535207962 0.0031252025970460551 0.0054904745900537519 0.0023003542437082499 0.0046255505024991326 0.0040270751842152019 0.00084998406241185978 0.0050403348752846066 0.0010563400248202936 0.0020993353459210326 0.0012630613178222963 0.0012656777938477998 0.0054422422442431603 0.0044943451142358667 0.002988964155500881 0.00090855590157888676 0.0017498122317339039 0.0052741491744771113 0.0035864984610598557 0.00090801704354104024 0.0042509650350092305 0.0019965788919365903 0.0010984190058486729 0.0050127198619038952 0.0032272502239112854 0.001263392976588929 0.0021585397128302221 0.0026628787816157236 0.0044082436760626105 0.0030519602768061703 0.0030395379775734355 0.0026989770149732479 0.0043735076988600987 0.0030146570957743646 0.0012599853550362345 0.001429234673680662 0.0014300094557887057 0.0012982800553508526 0.0042778090531314693 0.0052701413093716558 0.0030368781169266071 0.0012748886130602467 0.0035879720513303046 0.0012968120261319823 0.0020438519965016886 0.00076077972337617943 0.0007628058184761242 0.0018224606675713323 0.0048121379944015344 0.0030847799881893352 0.0010695283033433213 0.0019037020917568185 0.0021093120650195053 0.00084251028385391421 0.0008427570850470655 0.0028006876917850247 0.00084259070001517912 0.001674915462525997 0.00084259307948311322 0.0019325371105473133 0.002110153184203668 0.0012790375891894778 0.0048648406613690815 0.0031833554003642315 0.0040365476641704527 0.0048703745743914452 0.0049072722348944735 0.0029316816525046959 0.0047978432694686587 0.003153241349889591 0.0072361445376053803 0.0076804235135717516 0.0060743889563592886 0.0076244820792128682 0.0057171058534540575 0.0080726150108124881 0.0066340767045435997 0.0061574725138044779 0.0089495021728546106 0.0093612855635434433 0.010178093754651816 0.0089535516576148451 0.0085088187611740349 0.0088773256159640213 0.0089540554511810411 0.0076823128046717452 0.0099198138378149524 0.0099164421609925085 0.0076751846200804486 0.0061330599056038087 0.0076866221850960545 0.0061337113948337491 0.0061604509338275999 0.0098229473419575337 0.0088414692381158337 0.0094735600220697738 0.0083173825335364666 0.0069820543699242767 0.0083035824404069595 0.0069936392085106457 0.0094027426599928698 0.007764581510550355 0.0076967972512635378 0.0061609838976718198 0.007709599947538422 0.0089994814947728392 0.0061843632373570403 0.0062421284960159978 0.0099877766300268105 0.0099745270435586519 0.0099180723308703207 0.0089751436220907206 0.013266084563404038 0.011468790380459908 0.011792198497996785 0.012411696165492791 0.011131523264394044 0.012458538136228145 0.011031920860753556 0.012366470575046555 0.011747008341859827 0.013091477971243362 0.011743881060570914 0.010886615041911856 0.01252164588522843 0.012571531151625088 0.011854608700594446 0.010973514732060572 0.011661452662735586 0.012290270403896849 0.011085672936992972 0.013015690552324426 0.012343081676313601 0.011756001176002477 0.012248938673741043 0.013232413892335339 0.011332669326170403 0.01092542587477671 0.011090812303316398 0.012580364725696 0.012580964433776749 0.010894914275323499 0.012607118803199606 0.011293693218423651 0.011976609882940603 0.01161549313874433 0.011135586525977272 0.012849301612805697 0.01376260565695746 0.013475673995001079 0.0134710746324073 0.013788158571760953 0.013810149831869361 0.013802736928712252 0.01444117212898588 0.014311313206884866 0.014256324191687104 0.014230593413331334 0.014451481188280062 0.014383476366906118 0.014485675686738909 0.014391867564647153 0.014213767282090306 0.014456664228915474 0.014193363970092231 0.014400540025052123 0.014355140206005954 0.014421540280594891 0.013798212276399581 0.014317396228139698 0.013355038325687253 0.013504383669327095 0.014015394940609651 0.013415592589717217 0.013513965263112625 0.013992375851198063 0.014293281234249795 0.014224238256784968 0.014168331768243525 0.014257838363063132 0.013997372427328382 0.014080685606885458 0.014293978053648739 0.013654992541427689 0.014078897861085168 0.0142544057920633 0.014039693295901693 0.013619581424248486 0.014083311135258351 0.01426372907408823 0.014214051894677535 0.014333716593989118 0.014317249923775727 0.013848046680123112 0.014118401842566285 0.014421545157200892 0.014404310398106327 0.013619335254251666 0.014266828416628111 0.014394582671903402 0.013667068041668409 0.014166097282636451 0.013460978171474918 0.01437646370628666 0.014457296724108615 0.014504838040976863 0.01438347516630635 0.014497320160751169 0.014455687865020387 0.014368785252682379 0.014156371504749701 0.013903117848766945 0.014405978855995278 0.01431660099602438 0.014464446367307498 0.013617411976476406 0.014136640739355324 0.013100405016788245 0.013278323561439041 0.011101564527911537 0.012427433484150523 0.012324628708775039 0.011755383440264708 0.011712497410037642 0.01329151286374383 0.011018582415882045 0.011832195798997152 0.012524223893342852 0.010936731254717814 0.011735236957722845 0.010850222350371919 0.012553460895758539 0.013632685141497101 0.014050429014958597 0.013941865910606 0.013990123122256946 0.013632513367987768 0.01422387490980157 0.014021986135750265 0.014073605578783489 0.014241897206798474 0.01420041347856732 0.014321158601248746 0.014270110668817036 0.01393126052862546 0.013781192184264171 0.014162627460892157 0.014277323691369512 0.014364209627644526 0.014305221376737965 0.014203192608399388 0.013478733947038819 0.013975414424768788 0.01284636690630744 0.012391622352627651 0.011889767031772908 0.011964306110821499 0.01318372753443906 0.010209342116615039 0.012798389342241387 0.011287136252998684 0.010198497625679171 0.011259878094930469 0.010250556364158947 0.013194330003677712 0.012211962484784084 0.011639446065523482 0.011377146542504709 0.011313114027110452 0.012021217035423531 0.010904919551474742 0.011096508235586488 0.012892776322219362 0.014240745552781275 0.013504956732389557 0.013852390511351243 0.013555980620034708 0.013534201259815677 0.013464765889143276 0.014002409963944851 0.014029455904473725 0.014155297289193552 0.014411753486737313 0.014373381784998293 0.014305130164363227 0.014416049151923785 0.014479334365685454 0.014479030600059912 0.014240698567664082 0.014405501527410602 
</DataArray>
<DataArray type="Float64" Name="piezo_head_p0" format="ascii">