<?xml version="1.0"?>
<VTKFile type="UnstructuredGrid" version="0.1" byte_order="LittleEndian">
<UnstructuredGrid>
<Piece NumberOfPoints="236" NumberOfCells="719">
<Points>
<DataArray type="Float64" NumberOfComponents="3" format="ascii">
0 0 0 0 0 0.20000000000083221 0 0.14641016151432179 0.14641016151432179 0 0.20000000000083221 0 0.14641016151452901 0.14641016151487049 0 0.1464101615145241 0 0.14641016151486561 0.19999999999955789 0 0 0.31610726166346748 0.18804489794572149 0 0.3999999999989749 0 0 0.49391845158624981 0 0.1323760430705655 0.31578456131778371 0 0.1865278143482666 0.47688326899416439 0 0.31741132792405607 0.32146143392436449 0 0.38738071487621961 0.16370661204827031 0 0.4886650857430957 0 0 0.40000000000166441 0.16938214347656569 0 0.30011357660650623 0 0.18804489794560331 0.31610726166461361 0 0.31024977578556651 0.45812322962166352 0 0.39615100178029522 0.32925244736138171 0.312576188949791 0.31458070521983672 0.3125761889497819 0.45812322962036273 0.31024977578535839 0 0.32925244736090059 0.39615100178043078 0 0.17226134197279269 0.49836539647922029 0 0.16929708765618309 0.30074819035915368 0 0 0.30074819035869899 0.1692970876565193 0 0.49836539647891548 0.17226134197271731 0 0.40000000000166441 0 0 0.60000000000138687 0 0.1589680427220837 0.69449451837091269 0 0.22345881830598399 0.5062398304147856 0.22345881830602041 0 0.69449451837103049 0.15896804272139439 0 0.60020898676435996 0.32446581821286191 0.24769234054476261 0.52242103280823293 0.45098450226372488 0 0.68801781652248195 0.45664527743358641 0 0.81480288849496429 0.31067093462946233 0.22516916914780419 0.77057994845201627 0.48187244075707292 0 1 0.3999999999989749 0.17226134197293 1 0.49836539647645101 0.16929708765615539 1 0.30074819035677097 0 1 0.19999999999955789 0 1 0 0 0.79999999999999982 0 0 0.85358983848655678 0.14641016151332509 0.19259015428765269 0.77719169076434647 0.19259015428773721 0.14641016151479211 0.85358983848543113 0 0.20000000000083221 1 0 0.14641016151352521 1 0.1464101615131837 0.31635851157303152 1 0.18818969570840721 0.31067093463127438 0.81480288849489035 0 0.40000000000166441 1 0 0.45820186441796368 1 0.31030302876579191 0.32926555316115258 1 0.39615987727515128 0.35848654557803328 0.70013656506632282 0.30029870175293161 0.32446581821364329 0.60020898676454815 0 0.45664527743509797 0.68801781652245086 0 0.51961524226956368 0.5000000000025091 0 0.59944234541082553 0.66416205381394655 0 0.72722573386132172 0.60922248848163563 0 0.68456408135056701 0.68607101396845627 0.31096060989957619 0.51961524227008238 1 0.49999999999872219 0.61068558124908323 1 0.33127740899601937 0.51133491425992716 1 0.16370661204795281 0.60000000000138687 1 0 0.50803330197353713 0.83630110503668265 0 0.52894546611500048 0.79133000140429866 0.2082794184507949 0.7054234997318658 0.80860557108880304 0 0.69988642339594154 1 0.16938214347578889 0.85358983848665693 1 0.14641016151322461 0.79999999999999982 1 0 0.85358983848666903 0.85358983848666903 0 0.81582077266975173 0.77657922508894406 0.18483084990574741 1 0.85358983848655678 0.14641016151332509 1 0.79999999999999982 0 1 1 0 1 1 0.19999999999955789 0.82751535738810444 1 0.31407731390515509 1 1 0.3999999999989749 0.77374673111774417 0.78860835645735528 0.49829081152968557 1 0.8148028884949543 0.31067093462944562 1 0.68975022421527898 0.45812322962078778 0.7504488434426726 0.53051757989633308 0.49836643074154852 1 0.60020898676431722 0.32446581821274012 1 0.69449451837101916 0.15896804272136739 0.77713227489941183 0.50036915849493024 0.21774643624003751 0.84191918937744659 0.51186163305076127 0 0.85173693729186062 0.69992182039541118 0 1 0.60000000000138687 0 1 0.40000000000166441 0 1 0.49836539647890021 0.17226134197269399 1 0.30074819035868428 0.16929708765640439 0.80839867011859301 0.31807971531731721 0 1 0.20000000000083221 0 1 0.14641016151453831 0.14641016151419689 1 0 0.19999999999955789 1 0 0 0.79999999999947335 0 0 0.85358983848650494 0 0.1464101615132356 0.85358983848570813 0.1464101615143738 0 0.69380980079964416 0.1619694349440581 0 0.68592116352011878 0 0.1724872797865501 0.59999999999894682 0 0 0.5003997205654479 0.21136633249797621 0.2258422409314382 0.50966790549376417 0.16275515618023731 0 0.6104699881764214 0.32043363027358418 0 0.67320508075660079 0.46954769941202479 0 0.5004045312576143 0.47050700646456922 0.24963111222780321 0.50000000000001332 0.49999999999999561 0.49999999999999561 0.68777432594363841 0.31447353261427252 0.31366778418247038 0.50000000000250922 0 0.48038475773043671 0.66852282575985944 0 0.3853248791658106 0.83057691269884504 0 0.30018449338884379 0.83534964916824084 0 0.4902996892628636 1 0 0.3999999999989749 1 0.18804489794556911 0.3161072616634244 1 0.31024977578542368 0.45812322962028301 1 0.39615100178016449 0.32925244736082498 1 0.39076805646076263 0.7272421105028648 1 0.33579115324550912 0.59952339316293046 1 0.162755156180173 0.50966790549372887 1 0.1912596090855686 0.70565701451953711 1 0 0.59999999999894682 0.81469961246449951 0 0.68914937826112133 0.77973766487723961 0.22090161127815711 0.50014622462635805 0.68969697123394857 0 0.54179813558228873 0.6002015905170176 0 0.67551889168744117 0.50073570207385831 0.24848280280289631 0.52886631355986169 0.68742751001967084 0.31250796680084852 0.687427510020161 0.72724211050425436 0.39076805646176382 1 0.59952339316492498 0.33579115324593939 1 0.50966790549576724 0.1627551561802443 1 0.50084626324420545 0.22238844715913 0.78084811589659187 0.60000000000138687 0 1 0.69447607299129699 0 0.84099946107689361 0.70565701452089868 0.1912596090858541 1 0.85358983848646974 0.14641016151341191 1 0.81599560342209843 0.22280203704001911 0.81599560342233202 0.85358983848570524 0 0.85358983848556425 0.79999999999999982 0 1 1 0 1 1 0 0.79999999999947335 1 0.14641016151333891 0.85358983848640169 1 0.19999999999955789 1 0.85173693729199718 0.30007817960516198 1 1 0.30007817960499339 0.85173693729139244 1 0.48813836695007229 0.84191918937727617 0.78019141325921404 0.49972466465542442 0.78019141325930785 0.84191918937756771 0.48813836695034618 1 1 0.3999999999989749 1 1 0.59999999999894682 1 0.80839867011861499 0.68192028468377774 1 1 0.68192028468364885 0.80839867011854549 1 0.53045230059030524 0.6732050807565132 1 0.50000000000229983 0.51961524226898759 1 0.67939035495490308 0.61016512164639347 1 0.83791821520125753 0.69361520514217179 1 0.83630110503662825 0.50803330197135588 1 1 0.59999999999894682 0.86762395692956074 1 0.5060815484123421 0.81346205468287114 1 0.68420958956387889 1 1 0.79999999999947335 1 1 1 1 0.79999999999947335 1 1 0.85358983848587056 0.85358983848587056 0.77683220420328725 0.81278569633583353 0.81664766512111064 0.85358983848587056 0.85358983848587056 1 0.79999999999947335 1 1 0.85358983848569092 1 0.85358983848569092 0.69981550660938663 1 0.83057691269844081 0.69361520514218133 0.83791821520130205 1 0.50803330197137353 0.83630110503667787 1 0.59999999999894682 1 1 0.50970031073508926 1 0.83534964916803001 0.6123333432449789 1 0.67837347745467769 0.68240285647621723 1 0.52310058211166854 0.68649174659499257 0.68600703198516766 0.6864917465949647 0.67320508075671459 0.53045230059073867 1 0.61016512164652226 0.67939035495506384 1 0.51961524226934941 0.50000000000250611 1 0.45812322962090041 0.68975022421538157 1 0.32446581821293602 0.60020898676440626 1 0.49816183246753282 0.5307146639261795 0.75045686993209071 0.3115891413135391 0.68758981780459771 0.68521708032990558 0.49983993748706529 0.75039103705932653 0.52967335724801234 0.32448110831226962 1 0.6002015905153204 0.45820186441573879 1 0.68969697123405882 0.3999999999989749 1 1 0.49911199724958061 0.77872228561593948 0.77895350115271889 0.31067093462947892 0.81480288849497895 1 0.31085062173747541 1 0.81469961246428202 0.1464101615132356 1 0.85358983848650494 0.19999999999955789 1 1 0.14641016151332509 0.85358983848655678 1 0.18453958615733529 0.77655623474864555 0.81613222483915937 0 0.85358983848682146 0.85358983848668035 0 0.79999999999999982 1 0 1 1 0 1 0.79999999999947335 0.15900053892265181 1 0.69447607299016312 0 1 0.59999999999894682 0 0.83630110503664845 0.50803330197135654 0 0.80860557108920617 0.70542349973054763 0 0.66416205381430016 0.59944234540882957 0 0.50000000000237477 0.51961524226909872 0 0.60922248848335758 0.72722573386012812 0 0.5118616330515301 0.84191918937737908 0 0.69992182039579531 0.85173693729137989 0.2184393375098648 0.50004596894495223 0.77634962490704662 0.15896804272141651 0.69449451837104537 1 0 0.60000000000138687 1 0 0.40000000000166441 1 0 0.31807971531776508 0.80839867011913336 0.16929708765653109 0.30074819035870082 1 0.17226134197275911 0.49836539647894412 1 0.32925244736146098 0.39615100178034629 1 0.45812322962173568 0.31024977578554058 1 0.31426750628021272 0.31270343261798911 0.68761148188185484 0 0.46954769941369501 0.67320508075638175 0 0.32043363027398297 0.61046998817722586 0.22088738526309029 0.22111069116742441 0.50004796911802929 0 0.16275515618034081 0.50966790549591257 0 0.16196943494415611 0.69380980080116506 0.18818969570926641 0 0.68364148842842287 0 0 0.60000000000138687 0.31030302876556398 0 0.54179813558513157 0.39615987727709562 0 0.67073444684008199 0.30074819035913852 0 0.83070291234383831 0.49836539647917322 0 0.82773865802723501 0.40000000000166441 0 1 0.31610726166461628 0.1880448979455934 1 0.20000000000083221 0 1 0.14641016151479661 0 0.85358983848542624 0.14641016151432179 0.14641016151432179 1 0 0.20000000000083221 1 0 0.14641016151490169 0.85358983848532144 0 0 0.79999999999999982 0 0 1 
</DataArray>
</Points>
<Cells>
<DataArray type="UInt32" Name="connectivity" format="ascii">
[...]
<CellData Scalars="pressure_p0,piezo_head_p0," Vectors="velocity_p0," Tensors="">
<DataArray type="Float64" Name="pressure_p0" format="ascii">
0.026815720139368133 0.028657876411581493 0.028155348932286484 0.028627368206038881 0.02835136523013139 0.026831396701663089 0.028491114150927838 0.026869881703505204 0.02814570420132316 0.027837693650402402 0.027791538494881834 0.028450615886422177 0.028560218011346568 0.028595044812863905 0.028454371335089688 0.026758465000889738 0.027383746646975543 0.025490823977559959 0.026144742947019847 0.024273121129142976 0.021768918066754291 0.022095205155577499 0.022533820253250209 0.023822759036408639 0.022065005097593578 0.023116396657353638 0.024937078503677455 0.026512144433433426 0.024894646272674806 0.022025893142567431 0.023160490425004024 0.026084563598914298 0.024295184286779709 0.023281772387695378 0.023254864047162739 0.022138694793459979 0.02661860032199205 0.02717132781412971 0.028137273364604008 0.028152164123039988 0.027693373149557686 0.028893756672067533 0.028564789288693861 0.02877490792935981 0.028682142689916017 0.028558699639369835 0.028749122895042452 0.028436553212076769 0.027444505419321363 0.02844603995897494 0.027393539498969711 0.028024602543210545 0.028052587155203861 0.028132646595251401 0.028684588762737946 0.021884266171041212 0.025219722073856744 0.021965626275464945 0.023689130262794247 0.023691021419172571 0.025257425890972546 0.023345809663424068 0.024634424175124389 0.022198394621821715 0.024509693351659735 0.026389765472445641 0.023426799448676018 0.024754489400297959 0.02601594246703598 0.022799501811105558 0.021911430191912211 0.027798171554243828 0.027584171353718344 0.028014411857098527 0.026978115795055695 0.028632435933968695 0.028574584893060268 0.02835070017099842 0.028601016714564373 0.028639824708024321 0.028421319300913489 0.028325417679083302 0.027980751454893045 0.028433762597075328 0.02694852069624009 0.028578359411494073 0.028646151548492132 0.026628285968886372 0.027025871720034029 0.027998340020623971 0.028623780356192254 0.028581615795430074 0.028348020218229786 0.027407623520307969 0.028301613970010152 0.028345118000361078 0.027397448259004399 0.028662602304619714 0.027214188630767217 0.027211466217981966 0.028711649445500677 0.028705606260344137 0.028390127284769369 0.028650044266413086 0.028330678288811202 0.026977677980111615 0.028011543247480952 0.028523996367113353 0.028763053144765325 0.028766451116245682 0.028550775215255016 0.028110661437141433 0.027131293373884702 0.028713150245165922 0.028618383930731552 0.028477218160406482 0.028098897708068539 0.028618477775747813 0.028460277373581887 0.028605239198369287 0.028430795977817051 0.028465491662454059 0.028184605869797597 0.028600062361987928 0.028147909749615806 0.028430202032266046 0.02865075113746901 0.027308858060141251 0.027291562892932948 0.027288293066013533 0.026670365254441289 0.02667463724341677 0.027262071827097348 0.028144016951549059 0.024607596766674004 0.024626580424331256 0.024778102158421859 0.02545944524811369 0.022891636934338003 0.021967684421690996 0.022445111882655338 0.023779930818066751 0.021926141260977101 0.021471140212230743 0.024581302657060031 0.026179629151214863 0.024293711568167217 0.022987120484463181 0.025727216421655257 0.021709560392529127 0.023123452755085892 0.026600738849106173 0.026497330993667086 0.022039503667731667 0.025008584889006862 0.023382750312781569 0.023410877940937047 0.024960603680298284 0.024512587627924597 0.024315712980604316 0.026136675976770028 0.023081569672429303 0.02574758638872349 0.022999801604170783 0.021666775343937201 0.026291579381475756 0.021974299937308504 0.013387140420567522 0.015583178962700301 0.019784221816442894 0.018017800409236361 0.017863761838221841 0.015687215156579254 0.014943383959582557 0.019878059797445474 0.013032633261760572 0.019759123418663212 0.012828402434460491 0.01350908630422561 0.019937366001866526 0.020143110662983185 0.020115218881879619 0.016807061696608269 0.014193521334857295 0.014115337719037431 0.01996262214614199 0.016838524661987504 0.014841128911623168 0.015556808037544792 0.015595618885273853 0.011866802374585986 0.019741069754941342 0.012305632252811449 0.01780378678914642 0.017931885153844064 0.01986438438112444 0.01235450327195693 0.019664060750134108 0.017553451047634963 0.014680851750212786 0.013744005362459594 0.018388471409761409 0.014728474926300974 0.017805683525133342 0.020271516775339317 0.017612345133114927 0.016679085236050151 0.013180586697026781 0.016051268746767565 0.011721971513825265 0.0091269569061091932 0.008826510314711827 0.0057895968685883221 0.009002679767667561 0.010591681628752972 0.0087971495159457416 0.010415525618857965 0.0021555697928661425 0.0041306570674084428 0.0038339904159365029 0.0021508948532130757 0.0054919139036870655 0.0055231012079432883 0.0033925865117001271 0.0017085122188869929 0.0017106947872685214 0.0056592113598596143 0.0036964944774754323 0.0020102099381196824 0.0020145235540746783 0.010115006756272894 0.0066797137721620022 0.0082597896414113529 0.0061019872697710168 0.0096189476705052616 0.0035371504846782543 0.0015471233331579976 0.0041579565811602753 0.0026387705448626649 0.0054428530093552172 0.0064554704685369675 0.0062056088014205753 0.0089597330934014733 0.0036407461732627286 0.0089078397638151317 0.0057345155655452035 0.0082160607588919517 0.0029117231440850874 0.0029117998816376063 0.0044118289976451197 0.0063686184618674561 0.0047030007080278158 0.0025995091768912229 0.0093662084787796748 0.011133281396256273 0.0021502502568126938 0.010977385859140562 0.0060731888539250524 0.0090924791460687826 0.010163936486418265 0.0017295717031961242 0.0038553044991277968 0.0035482098019318743 0.0018439799266135259 0.0018468622383421662 0.0074191657274723264 0.0040458396162774551 0.0022326548927482362 0.008249523390448826 0.010119242449236756 0.0065645688737720823 0.0047882240300981859 0.0026022942055595327 0.0022356081035761811 0.0039138437346906349 0.001710584531581663 0.01060210073851201 0.010768662322230216 0.0036178213063594584 0.0052753339155115712 0.0071638992860136586 0.0069091957013720558 0.010264791581306743 0.0036561277072063485 0.0019710888517630721 0.0056802088673919152 0.0017098512495312098 0.0017140327608191547 0.0033994132761627455 0.010908076069031075 0.0091112113820561239 0.015513361297639604 0.012013657434919334 0.013467536273014405 0.020392006025352388 0.016285985532171306 0.018064602668463797 0.019187875751586245 0.018866977143564979 0.017140518346775904 0.017863628209739756 0.012393074458161579 0.016244051162790443 0.013267628576557633 0.019868164368235842 0.019909772984285732 0.015571169787006824 0.017995351345243653 0.015452463260556838 0.01791271020973325 0.019764565620606234 0.012558004536020422 0.016779295092386848 0.014068241886238472 0.016788432611832365 0.014096664086783358 0.018993886439199067 0.018917664238440639 0.011551427205283665 0.012525283535658894 0.019311029139193442 0.01488602165771803 0.015777493886490534 0.017493999770450255 0.014892488657240651 0.017706386031437881 0.019405517335840186 0.017531837486520537 0.011502707784914603 0.00799545211211386 0.0055350406595009363 0.01001309072482061 0.0063686590318311788 0.0038747754240427931 0.0019266184168202235 0.0019237600413710134 0.0019773005109565032 0.0025752434229869784 0.0044636019549230844 0.0088796571827313587 0.0036178289652387232 0.0088559094515765907 0.0036219983872171849 0.0061134690003960971 0.006136395169945295 0.0064217204451254952 0.002605632662080313 0.0029086124825829437 0.0088736237940757953 0.0057181577494076884 0.0029107229555970478 0.0054266473924608769 0.0082049253754652423 0.0088804092414112405 0.0054162725035971247 0.0061174273143011623 0.0029106696140341537 0.0025680195223886735 0.0021455744116888895 0.0025797019615148801 0.0046908759420557188 0.010220698692570087 0.0067673153615640975 0.0046861097257317949 0.0025747190688788038 0.0021632763212085459 0.0021594512343608156 0.0040598528701994438 0.0099867195818317839 0.0065606275411857536 0.016496514419902374 0.013454697241239075 0.011562431307431864 0.016471297252363945 0.014754037462703292 0.018249157230525448 0.012132260922698975 0.01818135229069244 0.019020164360327056 0.016820290350443568 0.01686590054677645 0.014164708002135274 0.019161310929466366 0.014105899160046519 0.020293678479291515 0.013127219866519643 0.015697072097429817 0.015336447911417476 0.01829752519931601 0.013457820785824243 0.015863765552918317 0.012951987883506964 0.013630834802711083 0.02018879928660814 0.01829421264095598 0.02025723304619495 0.017174865728122546 0.014408131843430448 0.01419445498483209 0.015154035371321886 0.018085390544434678 0.013383378244284719 0.018228903247670854 0.019003175618619816 0.018204932955820052 0.02068797673729976 0.01629677234831468 0.013381298527678743 0.012094435124579602 0.010547709973621169 0.0088539187510371428 0.0059483136376220517 0.0093707864984166247 0.0089353159137532633 0.010734977756389133 0.0091228867668937952 0.0033978050867953169 0.0056832205221889623 0.0017096087875567809 0.0017106409889209339 0.0038524718639033201 0.0017111999099884805 0.0021518403248336048 0.0038359067819483256 0.0055408457950249729 0.0038376835739759841 0.0021479130806441541 0.0055035599374300016 0.0017339140921080972 0.0038610668169040503 0.006355587774610259 0.011155209556299778 0.0046805058780975926 0.0094013314992008688 0.0081886062131396806 0.0017297134838389337 0.010243304109823324 0.0021503530048515443 0.0042710153075909054 0.0025711875116667293 0.002577123023439419 0.011056641064317821 0.0091355443595598738 0.0060790742884455108 0.001849120941843791 0.0035599272741282792 0.010716738399386291 0.0072932381747244594 0.0018479700026345931 0.0086430962547532162 0.0040618368609035413 0.0022350965423172551 0.010186071063408783 0.0065629284572521129 0.0025720462272436906 0.0043917528618444921 0.0054196452062151082 0.0089673483254973253 0.0062103268297541876 0.0061832843257990516 0.0054958404905024964 0.0088942536363852479 0.0061326316436987006 0.0025650890157317839 0.0029111568287995852 0.0029134464870979432 0.002645154788305952 0.0086997137234993572 0.010712477015196719 0.0061781406847611735 0.0025947823223663232 0.0072990218814491968 0.002641255579897995 0.0041620044751902278 0.001549628806317329 0.0015545247913657137 0.0037104214790557909 0.0097887865924573218 0.0062782345613457188 0.0021773757683939757 0.0038742591176810512 0.0042919211112887115 0.0017151216412345713 0.0017153607090315899 0.005696084875457072 0.0017151160869043739 0.0034078382405783201 0.0017150161712788351 0.0039317980200862029 0.0042931313583120037 0.00260328477128425 0.0098866600798882889 0.0064738526155314405 0.0082061879701545732 0.0098983641365134947 0.0099727183486287996 0.0059628136058810996 0.0097525995110318633 0.0064142522807732819 0.014687895070164835 0.015584678756347614 0.012341717958879863 0.015474883337087495 0.011613963429403171 0.01637789205491208 0.013470098999233064 0.012506655010736235 0.01814432754541755 0.018973244943401302 0.020615176297162023 0.018153206316709122 0.017257397479205058 0.018003450159320311 0.018164234799187964 0.015603074954968293 0.020109243201553047 0.020098203980660499 0.015586406135035249 0.012460754548744702 0.015601954615924073 0.012465511926243164 0.012522264164449624 0.019919688186174941 0.017943940191044123 0.019211052720910032 0.016883977701101956 0.014180163734565978 0.016859855707101443 0.014210069753588971 0.019071257903068514 0.015755173637713268 0.015620641428724293 0.012513870473112015 0.015645496824539966 0.018248943251711173 0.012561289947215337 0.012678036670192239 0.020234561395145519 0.020207079268599919 0.020093424913183867 0.018195245777980786 0.026806090149919064 0.02320529121932232 0.023856412337134234 0.025094600720646024 0.022535092674440003 0.025193683179849821 0.022329725485412795 0.025004783424870662 0.023766346624239702 0.026454194101137741 0.023785817234563821 0.022056552453764772 0.025345830767736638 0.025438177574757709 0.023993497220508454 0.022227262011376731 0.023611888676921169 0.024865690900770121 0.022452415954927175 0.026313938038572748 0.024983959355109862 0.023791227805656758 0.024802895414496502 0.026759186733795928 0.022963360152194277 0.022138106217386919 0.022455144278123947 0.025432648529496692 0.025440541054908838 0.022056497137301991 0.025489131993179086 0.022855507155424348 0.02422298708519675 0.0235002149050654 0.022537815381879524 0.025966564443633842 0.02779849895831913 0.027220112138628041 0.027208715188262442 0.027839339151128809 0.027883354349261757 0.027869797596350381 0.029149157684793283 0.028894533530899116 0.028771997722296522 0.028723989241845379 0.029163642205673131 0.029026300825878627 0.029228051348879149 0.029042638477531843 0.028686561837214349 0.029174453612392039 0.028655929808336731 0.029072666378511924 0.028978480009357061 0.029122120589556173 0.027882259136796199 0.028923936879839039 0.026995181560743989 0.027296113341804637 0.028315434018063898 0.02711244589944074 0.027328065396546839 0.028286433529114877 0.028893284806843899 0.028745178851384778 0.028630702584978761 0.028812793742024525 0.028286858446435092 0.028442365446983288 0.028865939156981841 0.027601700234407285 0.028438142274438319 0.028796358489047064 0.028361142719291729 0.027540109495099992 0.028462691634042556 0.028833154095127208 0.02873470199363835 0.028947813131003572 0.028897747565290868 0.02797331262902325 0.028501837366809606 0.029115872682364041 0.029076847439855526 0.027505491522265318 0.028803518391621125 0.029059415647716788 0.027599095352405775 0.028594528692802216 0.027187810723825909 0.029012430421584457 0.029173099069916698 0.029266458772687062 0.029025243916194342 0.029251270427871175 0.02917048624443554 0.02899641797236753 0.028579876433488225 0.028076666750378225 0.029082707058925614 0.028897156562673443 0.029186286790560949 0.027500172747871619 0.028536463941396618 0.026470340506326177 0.026822995953129088 0.022474869399916782 0.025131317339139203 0.02492108806309045 0.023782808574732753 0.023697215868245969 0.026853653516329019 0.022303582271536108 0.023948382942109867 0.025350483387146645 0.022153293184571817 0.023768592101533835 0.021983046687160928 0.025401941967827968 0.027559624277744499 0.028407963139412507 0.028182731599013532 0.028268401338617938 0.027564846280931591 0.02873479786336627 0.028335264509959612 0.028426361204345489 0.02876425611491093 0.028707223397502191 0.028919919002097116 0.028844832174169607 0.028141205107838057 0.027852270283760881 0.028619697132204028 0.028851039372145927 0.029008661157557403 0.028900707358464124 0.028704095380338218 0.02725959804034726 0.028252776293759548 0.025976134969243555 0.025082808152228572 0.02407219162028329 0.024208914920027226 0.026663346978757566 0.020692532530110965 0.025887807482969042 0.022857911857507365 0.020677075379555539 0.022813135346188937 0.020770301547092355 0.02665888807593593 0.024698186721389445 0.023549499441061678 0.023029545824505178 0.022893552519511192 0.024312896503787616 0.022074900930350621 0.022459838410565622 0.026053668348264825 0.02875493759985286 0.027277880759770265 0.027969597170477301 0.027382547758978863 0.027334891126066591 0.027207047906284861 0.02827008678695575 0.028325816107589781 0.028583355195787009 0.029082883806086833 0.029004933149156961 0.028882963893268075 0.029099525743167258 0.029215270224413149 0.029218905710786284 0.028740866885241662 0.029069817622809357 
</DataArray>
<DataArray type="Float64" Name="piezo_head_p0" format="ascii">