<?xml version="1.0"?>
<VTKFile type="UnstructuredGrid" version="0.1" byte_order="LittleEndian">
<UnstructuredGrid>
<Piece NumberOfPoints="236" NumberOfCells="719">
<Points>
<DataArray type="Float64" NumberOfComponents="3" format="ascii">
0 0 0 0 0 0.20000000000083221 0 0.14641016151432179 0.14641016151432179 0 0.20000000000083221 0 0.14641016151452901 0.14641016151487049 0 0.1464101615145241 0 0.14641016151486561 0.19999999999955789 0 0 0.31610726166346748 0.18804489794572149 0 0.3999999999989749 0 0 0.49391845158624981 0 0.1323760430705655 0.31578456131778371 0 0.1865278143482666 0.47688326899416439 0 0.31741132792405607 0.32146143392436449 0 0.38738071487621961 0.16370661204827031 0 0.4886650857430957 0 0 0.40000000000166441 0.16938214347656569 0 0.30011357660650623 0 0.18804489794560331 0.31610726166461361 0 0.31024977578556651 0.45812322962166352 0 0.39615100178029522 0.32925244736138171 0.312576188949791 0.31458070521983672 0.3125761889497819 0.45812322962036273 0.31024977578535839 0 0.32925244736090059 0.39615100178043078 0 0.17226134197279269 0.49836539647922029 0 0.16929708765618309 0.30074819035915368 0 0 0.30074819035869899 0.1692970876565193 0 0.49836539647891548 0.17226134197271731 0 0.40000000000166441 0 0 0.60000000000138687 0 0.1589680427220837 0.69449451837091269 0 0.22345881830598399 0.5062398304147856 0.22345881830602041 0 0.69449451837103049 0.15896804272139439 0 0.60020898676435996 0.32446581821286191 0.24769234054476261 0.52242103280823293 0.45098450226372488 0 0.68801781652248195 0.45664527743358641 0 0.81480288849496429 0.31067093462946233 0.22516916914780419 0.77057994845201627 0.48187244075707292 0 1 0.3999999999989749 0.17226134197293 1 0.49836539647645101 0.16929708765615539 1 0.30074819035677097 0 1 0.19999999999955789 0 1 0 0 0.79999999999999982 0 0 0.85358983848655678 0.14641016151332509 0.19259015428765269 0.77719169076434647 0.19259015428773721 0.14641016151479211 0.85358983848543113 0 0.20000000000083221 1 0 0.14641016151352521 1 0.1464101615131837 0.31635851157303152 1 0.18818969570840721 0.31067093463127438 0.81480288849489035 0 0.40000000000166441 1 0 0.45820186441796368 1 0.31030302876579191 0.32926555316115258 1 0.39615987727515128 0.35848654557803328 0.70013656506632282 0.30029870175293161 0.32446581821364329 0.60020898676454815 0 0.45664527743509797 0.68801781652245086 0 0.51961524226956368 0.5000000000025091 0 0.59944234541082553 0.66416205381394655 0 0.72722573386132172 0.60922248848163563 0 0.68456408135056701 0.68607101396845627 0.31096060989957619 0.51961524227008238 1 0.49999999999872219 0.61068558124908323 1 0.33127740899601937 0.51133491425992716 1 0.16370661204795281 0.60000000000138687 1 0 0.50803330197353713 0.83630110503668265 0 0.52894546611500048 0.79133000140429866 0.2082794184507949 0.7054234997318658 0.80860557108880304 0 0.69988642339594154 1 0.16938214347578889 0.85358983848665693 1 0.14641016151322461 0.79999999999999982 1 0 0.85358983848666903 0.85358983848666903 0 0.81582077266975173 0.77657922508894406 0.18483084990574741 1 0.85358983848655678 0.14641016151332509 1 0.79999999999999982 0 1 1 0 1 1 0.19999999999955789 0.82751535738810444 1 0.31407731390515509 1 1 0.3999999999989749 0.77374673111774417 0.78860835645735528 0.49829081152968557 1 0.8148028884949543 0.31067093462944562 1 0.68975022421527898 0.45812322962078778 0.7504488434426726 0.53051757989633308 0.49836643074154852 1 0.60020898676431722 0.32446581821274012 1 0.69449451837101916 0.15896804272136739 0.77713227489941183 0.50036915849493024 0.21774643624003751 0.84191918937744659 0.51186163305076127 0 0.85173693729186062 0.69992182039541118 0 1 0.60000000000138687 0 1 0.40000000000166441 0 1 0.49836539647890021 0.17226134197269399 1 0.30074819035868428 0.16929708765640439 0.80839867011859301 0.31807971531731721 0 1 0.20000000000083221 0 1 0.14641016151453831 0.14641016151419689 1 0 0.19999999999955789 1 0 0 0.79999999999947335 0 0 0.85358983848650494 0 0.1464101615132356 0.85358983848570813 0.1464101615143738 0 0.69380980079964416 0.1619694349440581 0 0.68592116352011878 0 0.1724872797865501 0.59999999999894682 0 0 0.5003997205654479 0.21136633249797621 0.2258422409314382 0.50966790549376417 0.16275515618023731 0 0.6104699881764214 0.32043363027358418 0 0.67320508075660079 0.46954769941202479 0 0.5004045312576143 0.47050700646456922 0.24963111222780321 0.50000000000001332 0.49999999999999561 0.49999999999999561 0.68777432594363841 0.31447353261427252 0.31366778418247038 0.50000000000250922 0 0.48038475773043671 0.66852282575985944 0 0.3853248791658106 0.83057691269884504 0 0.30018449338884379 0.83534964916824084 0 0.4902996892628636 1 0 0.3999999999989749 1 0.18804489794556911 0.3161072616634244 1 0.31024977578542368 0.45812322962028301 1 0.39615100178016449 0.32925244736082498 1 0.39076805646076263 0.7272421105028648 1 0.33579115324550912 0.59952339316293046 1 0.162755156180173 0.50966790549372887 1 0.1912596090855686 0.70565701451953711 1 0 0.59999999999894682 0.81469961246449951 0 0.68914937826112133 0.77973766487723961 0.22090161127815711 0.50014622462635805 0.68969697123394857 0 0.54179813558228873 0.6002015905170176 0 0.67551889168744117 0.50073570207385831 0.24848280280289631 0.52886631355986169 0.68742751001967084 0.31250796680084852 0.687427510020161 0.72724211050425436 0.39076805646176382 1 0.59952339316492498 0.33579115324593939 1 0.50966790549576724 0.1627551561802443 1 0.50084626324420545 0.22238844715913 0.78084811589659187 0.60000000000138687 0 1 0.69447607299129699 0 0.84099946107689361 0.70565701452089868 0.1912596090858541 1 0.85358983848646974 0.14641016151341191 1 0.81599560342209843 0.22280203704001911 0.81599560342233202 0.85358983848570524 0 0.85358983848556425 0.79999999999999982 0 1 1 0 1 1 0 0.79999999999947335 1 0.14641016151333891 0.85358983848640169 1 0.19999999999955789 1 0.85173693729199718 0.30007817960516198 1 1 0.30007817960499339 0.85173693729139244 1 0.48813836695007229 0.84191918937727617 0.78019141325921404 0.49972466465542442 0.78019141325930785 0.84191918937756771 0.48813836695034618 1 1 0.3999999999989749 1 1 0.59999999999894682 1 0.80839867011861499 0.68192028468377774 1 1 0.68192028468364885 0.80839867011854549 1 0.53045230059030524 0.6732050807565132 1 0.50000000000229983 0.51961524226898759 1 0.67939035495490308 0.61016512164639347 1 0.83791821520125753 0.69361520514217179 1 0.83630110503662825 0.50803330197135588 1 1 0.59999999999894682 0.86762395692956074 1 0.5060815484123421 0.81346205468287114 1 0.68420958956387889 1 1 0.79999999999947335 1 1 1 1 0.79999999999947335 1 1 0.85358983848587056 0.85358983848587056 0.77683220420328725 0.81278569633583353 0.81664766512111064 0.85358983848587056 0.85358983848587056 1 0.79999999999947335 1 1 0.85358983848569092 1 0.85358983848569092 0.69981550660938663 1 0.83057691269844081 0.69361520514218133 0.83791821520130205 1 0.50803330197137353 0.83630110503667787 1 0.59999999999894682 1 1 0.50970031073508926 1 0.83534964916803001 0.6123333432449789 1 0.67837347745467769 0.68240285647621723 1 0.52310058211166854 0.68649174659499257 0.68600703198516766 0.6864917465949647 0.67320508075671459 0.53045230059073867 1 0.61016512164652226 0.67939035495506384 1 0.51961524226934941 0.50000000000250611 1 0.45812322962090041 0.68975022421538157 1 0.32446581821293602 0.60020898676440626 1 0.49816183246753282 0.5307146639261795 0.75045686993209071 0.3115891413135391 0.68758981780459771 0.68521708032990558 0.49983993748706529 0.75039103705932653 0.52967335724801234 0.32448110831226962 1 0.6002015905153204 0.45820186441573879 1 0.68969697123405882 0.3999999999989749 1 1 0.49911199724958061 0.77872228561593948 0.77895350115271889 0.31067093462947892 0.81480288849497895 1 0.31085062173747541 1 0.81469961246428202 0.1464101615132356 1 0.85358983848650494 0.19999999999955789 1 1 0.14641016151332509 0.85358983848655678 1 0.18453958615733529 0.77655623474864555 0.81613222483915937 0 0.85358983848682146 0.85358983848668035 0 0.79999999999999982 1 0 1 1 0 1 0.79999999999947335 0.15900053892265181 1 0.69447607299016312 0 1 0.59999999999894682 0 0.83630110503664845 0.50803330197135654 0 0.80860557108920617 0.70542349973054763 0 0.66416205381430016 0.59944234540882957 0 0.50000000000237477 0.51961524226909872 0 0.60922248848335758 0.72722573386012812 0 0.5118616330515301 0.84191918937737908 0 0.69992182039579531 0.85173693729137989 0.2184393375098648 0.50004596894495223 0.77634962490704662 0.15896804272141651 0.69449451837104537 1 0 0.60000000000138687 1 0 0.40000000000166441 1 0 0.31807971531776508 0.80839867011913336 0.16929708765653109 0.30074819035870082 1 0.17226134197275911 0.49836539647894412 1 0.32925244736146098 0.39615100178034629 1 0.45812322962173568 0.31024977578554058 1 0.31426750628021272 0.31270343261798911 0.68761148188185484 0 0.46954769941369501 0.67320508075638175 0 0.32043363027398297 0.61046998817722586 0.22088738526309029 0.22111069116742441 0.50004796911802929 0 0.16275515618034081 0.50966790549591257 0 0.16196943494415611 0.69380980080116506 0.18818969570926641 0 0.68364148842842287 0 0 0.60000000000138687 0.31030302876556398 0 0.54179813558513157 0.39615987727709562 0 0.67073444684008199 0.30074819035913852 0 0.83070291234383831 0.49836539647917322 0 0.82773865802723501 0.40000000000166441 0 1 0.31610726166461628 0.1880448979455934 1 0.20000000000083221 0 1 0.14641016151479661 0 0.85358983848542624 0.14641016151432179 0.14641016151432179 1 0 0.20000000000083221 1 0 0.14641016151490169 0.85358983848532144 0 0 0.79999999999999982 0 0 1 
</DataArray>
</Points>
<Cells>
<DataArray type="UInt32" Name="connectivity" format="ascii">
[...]
<CellData Scalars="pressure_p0,piezo_head_p0," Vectors="velocity_p0," Tensors="">
<DataArray type="Float64" Name="pressure_p0" format="ascii">
0.0065346932983570485 0.0069893941599805396 0.0068651235923591382 0.0069826862112605855 0.006916804255712658 0.0065411072713318459 0.006948399866993164 0.0065491226984212324 0.0068642599584490495 0.0067880343434426685 0.0067781945315719795 0.0069402940831109327 0.0069685062334368299 0.0069741846873803111 0.006939224751956111 0.0065201575515937684 0.0066747278903229222 0.0062075031554481123 0.006369636656934719 0.0059091778108598478 0.0052927871178788614 0.0053723375438421402 0.0054799834609069471 0.0057969201594032811 0.0053670568250732079 0.0056241114283676983 0.0060818896709473871 0.0064667055479824776 0.006069386813134155 0.0053610315131810754 0.0056399784444310418 0.0063584840884139968 0.0059167407871404936 0.0056672954373750998 0.005666895268130908 0.0053901809251754047 0.006496934454768186 0.0066312277512632304 0.0068648920295974417 0.00687336770447757 0.0067581933050364796 0.0070613285794454599 0.0069744781432985788 0.0070287172450375843 0.0070008256242889578 0.0069762385617605314 0.0070230676384267204 0.00693927356885403 0.0066994910165359516 0.0069441894899017285 0.0066830393277373121 0.0068412996952987521 0.0068436928464303123 0.0068683586730947585 0.0070067668365633553 0.0053274312942691911 0.0061454902348009374 0.0053450657464620428 0.0057728928217481374 0.0057708439895615849 0.0061595710448120239 0.0056804981101073685 0.0059972690772192236 0.0053994257060885923 0.0059659925526684039 0.006430108924653336 0.0057002447405792144 0.0060280038226057358 0.006337229503569723 0.0055455876453313303 0.0053274166763501649 0.00677779952082894 0.006725799367698005 0.0068307668582932683 0.006574350867669416 0.006983092392798906 0.0069690917079189224 0.0069145425221791975 0.006978298056215239 0.006984815712337349 0.0069309176947432698 0.006910139151024273 0.0068231343543857818 0.0069339582504446134 0.0065674871624502541 0.0069699799673213596 0.0069863282324910524 0.0064879300142234447 0.0065860766956269204 0.0068267651150467814 0.0069845646271952493 0.0069733207705460799 0.0069137657060923544 0.0066862694864024824 0.0069077180165776292 0.0069183129018185489 0.0066817560304869086 0.0069946813736924138 0.0066408516592023157 0.006637886737464853 0.0070121339461691181 0.0070119333839781858 0.0069364078219001793 0.0069963126672044715 0.0069186933901036413 0.0065805964267859922 0.0068355907245674944 0.0069674940909712994 0.0070262548796726498 0.0070266851134810036 0.0069710925963568302 0.0068629578303423255 0.0066213299470418629 0.0070085614262599622 0.0069830132137414054 0.0069469996851938328 0.0068509970322448545 0.0069804631556203423 0.0069406648264256215 0.006976155938817708 0.0069340276190113974 0.006941667570355272 0.006873166610802962 0.0069752201870228181 0.0068635602521754024 0.0069364493508384233 0.0069900418692097604 0.0066562143688154744 0.0066515652938266166 0.0066507411815861801 0.0064985511113466125 0.0065002752307926192 0.0066467271510559783 0.0068645875749171513 0.0059924908668319418 0.0059961353052694778 0.0060331565098255945 0.0061997829694468544 0.0055685858180564984 0.0053411227586032872 0.0054586188877860497 0.0057863297366004662 0.0053328971253016931 0.0052203657831584819 0.00599201360393863 0.0063834246443390131 0.0059167009453367841 0.0055941945747551222 0.0062695277702452777 0.0052825747333574867 0.0056314413989367778 0.006485041159711334 0.0064676308207352352 0.0053663132696233767 0.006097860117628826 0.0056950121869436335 0.0057042320869332332 0.0060816316284629923 0.0059684779840886793 0.0059183228357101393 0.0063684032141441667 0.0056155910664869562 0.0062714955368410076 0.0055952645059248237 0.0052688002305762236 0.0064049404571864654 0.0053428997593915149 0.0032449450924411493 0.0037807770534117359 0.0048063646490034122 0.0043739501302114282 0.0043375288237517259 0.0038052932083900617 0.0036244505850543522 0.0048288613455015755 0.0031583186305725935 0.0047995411244784155 0.003108198016542918 0.0032740109817592537 0.0048461256297025797 0.0049002675979523862 0.0048916767456685141 0.0040826600238187188 0.0034462775742232802 0.003424851604616197 0.0048538583849391118 0.0040918008949001484 0.00360066407005154 0.0037780338231399278 0.0037885357965193769 0.0028764840654453313 0.0047998903984661414 0.0029845192061683326 0.0043255814855687903 0.0043598528605509274 0.0048317753605275227 0.0029970028889003209 0.0047787953234029665 0.0042619189144490668 0.0035611986698387303 0.0033321478245608711 0.0044652338077832334 0.0035715573372504979 0.0043221974633408404 0.0049255793345318009 0.0042747006148410932 0.0040472395300904023 0.0031945293783743355 0.0038936661228968776 0.002840760079936647 0.0022101134528041168 0.0021369145169515408 0.0014010695169460454 0.0021794298323376936 0.0025650273466501171 0.0021293591367813184 0.0025224496571021131 0.00052115672447360605 0.00099943364389708895 0.00092718185522294369 0.00051999724028776637 0.0013286873315486087 0.0013359982813709755 0.00082047810178549944 0.00041308546035256975 0.00041351621490583516 0.0013692111879863799 0.00089421950317856687 0.00048622425418351061 0.00048733235873023631 0.0024515348937052752 0.0016176102307092822 0.00200092534866991 0.0014781465720719949 0.002332402100704374 0.00085627781818806885 0.00037445194331290054 0.001006981186368843 0.00063878366456366774 0.0013177261835238211 0.0015639182205456001 0.0015032291078410412 0.0021722034172682839 0.00088131966220138486 0.0021585312208038847 0.0013882076890052387 0.0019895953432299369 0.00070480990001593844 0.00070472484358176618 0.0010670141298667669 0.0015410952935134606 0.0011378684683098935 0.0006286171701098233 0.0022677868650607977 0.0026973799552684097 0.00051999863874235093 0.0026587849551746902 0.0014694196858614161 0.0022011363273848677 0.0024609444786549148 0.00041811114038549813 0.00093233615185287552 0.00085807255666196151 0.00044578066022108083 0.00044641257592490226 0.0017956157366811121 0.00097838306371572257 0.00053974509557216162 0.0019972752762615078 0.0024503722429894664 0.0015882719472839336 0.0011581659613134306 0.00062922612462348556 0.0005403983609596672 0.00094646230885131227 0.00041348066605069174 0.0025683468847023908 0.0026078105530230457 0.00087520655866058471 0.0012763620442286833 0.0017343517423077087 0.0016722230694735879 0.0024857605893922811 0.00088437697180361228 0.00047671932387043179 0.0013738670068696713 0.00041333571770077845 0.0004142432675795023 0.00082195513003280427 0.0026411639325495942 0.0022049210988179758 0.0037635662550442039 0.0029109926999699434 0.003263783381380054 0.0049547061978303239 0.0039505872583479517 0.0043851626141624689 0.0046615788254238026 0.0045821366754022512 0.00415984872770629 0.0043359146238642326 0.00300323026655748 0.0039411727844299322 0.0032154466661948287 0.0048261385438747514 0.0048370276277677144 0.0037770505043820584 0.0043695710918942605 0.0037487922863890947 0.0043483004826648623 0.0048010135569370614 0.0030427367619593375 0.0040773649869285493 0.0034158209100100846 0.0040780347879141518 0.0034201943785575404 0.0046161099923604501 0.004599535234076706 0.002801194678283085 0.0030367747126436744 0.0046948567725020578 0.0036156904983691736 0.0038291534138270404 0.0042500733192447071 0.0036161232982095896 0.004300253314146546 0.0047192137289957057 0.0042620030270338356 0.0027908198038786476 0.0019369889583758756 0.0013397543815384444 0.0024274663945341723 0.0015425827733340498 0.00093792660959171375 0.00046640842787924264 0.000465582854696344 0.00047827716736326294 0.00062328046239732413 0.0010809083778357124 0.0021516056854609406 0.00087558355401244387 0.0021469738691542446 0.00087628060084691639 0.0014807301943599227 0.0014853425638089428 0.0015556947994367319 0.0006300945918622428 0.0007041036425388087 0.0021535014416317333 0.0013871616062994978 0.00070502681412279314 0.001314787419032867 0.0019906009976182405 0.0021542796566090855 0.0013132212628063681 0.0014840358709666754 0.00070482511028276725 0.00062239036856543773 0.00052007570160974258 0.00062450081055544487 0.0011370313960979745 0.0024812895338858819 0.001641634138813527 0.0011360272365737046 0.00062358085662806459 0.00052429449045301936 0.00052327475360231532 0.0009837676018572218 0.0024227809620067115 0.0015903058963797146 0.004011216845936764 0.0032685779252060779 0.002806915194931793 0.0040078693407118865 0.0035846151500720643 0.0044416879268612906 0.002947519410526235 0.0044225223955834227 0.0046302490739238353 0.0040894019633858939 0.004101691619195204 0.0034429848761139618 0.0046657336959219572 0.0034266208986374115 0.004947594388426799 0.0031908465162511024 0.0038190207374780554 0.0037309858824009544 0.00445608702559644 0.0032718798534569263 0.0038604090400007583 0.0031481686657079842 0.0033142893003895277 0.0049219756082040482 0.0044566220617060495 0.0049388764998977274 0.0041819448751049954 0.0035034198704960297 0.0034522390224634384 0.0036870277085990751 0.0044052327759454973 0.0032531636812796272 0.0044391967158254712 0.0046304744203816131 0.004434462473327321 0.0050454939925808429 0.0039666186365978108 0.0032539945985340635 0.0029382781638905221 0.0025624855978927312 0.0021499652477258444 0.0014431377777553208 0.0022752493017806174 0.0021697752580611684 0.0026080576984188583 0.0022154434268950828 0.0008243351162452486 0.0013793876942614443 0.00041461039088356146 0.00041478504746065301 0.00093427376978599157 0.00041485109835738679 0.00052164640917637308 0.00093034895693277012 0.0013445613117425317 0.00093100877051634895 0.00052085978635564112 0.0013355804611438998 0.00042046166053215627 0.00093666371261174599 0.0015425281104395915 0.0027103814191506751 0.0011352733549200235 0.0022833109959411214 0.0019876384351408876 0.0004194915725457328 0.0024881253682374066 0.00052128040554477837 0.0010361177333132754 0.00062329764209184744 0.00062455268687844475 0.0026866757567344194 0.0022185241157162325 0.0014752834146832131 0.00044839351294149717 0.00086362689209363685 0.002603553350392477 0.0017702287715924945 0.00044812745033609956 0.0020982007934952276 0.00098542234870265194 0.00054211283173683162 0.0024745473811707414 0.0015929242441007152 0.00062344936697071866 0.0010653289877648631 0.0013140194260875351 0.0021753810563585442 0.0015060522922445265 0.0015000937412368901 0.0013316055510173357 0.0021584437061964749 0.0014878021960844181 0.00062175167230844636 0.00070514186660114669 0.00070546842550663806 0.00064047505299493325 0.0021112419237331015 0.0026012176206270891 0.0014987437835574957 0.00062913503336295743 0.0017706933538028536 0.00063981563467610883 0.0010083998293269275 0.00037534742455701069 0.00037629127498068357 0.00089924711974153802 0.0023746657235787817 0.0015221662370089356 0.00052775900965737715 0.00093947182758476492 0.0010409917359696461 0.00041576324839712739 0.0004159136529866654 0.0013823663425048698 0.00041582051147951772 0.00082664687866472399 0.00041583080835798429 0.00095380435091828569 0.0010414544087878452 0.00063119688459492226 0.002401503122071832 0.0015712524937640648 0.0019924915018213083 0.0024041799259188514 0.002422453104478976 0.0014469897996499548 0.0023682428794203768 0.0015562417214462292 0.0035727720688245794 0.0037923860552965703 0.0029985381258074962 0.0037644593647472627 0.0028223964484269449 0.0039861594013806938 0.0032753812459371794 0.003039887711633626 0.0044197318753995364 0.0046233359548006163 0.0050273879581711764 0.0044217055885087059 0.0042017456546485539 0.0043836638804132192 0.0044210822053060133 0.0037920764231621565 0.0048985601831739228 0.00489726755409561 0.0037887512793225307 0.0030274619062136874 0.0037950362843793698 0.0030274800942554549 0.0030405020283042496 0.0048502279674988158 0.0043648460199958335 0.0046779418832175595 0.004106071242395655 0.0034466943500762385 0.0040989497005082011 0.0034518807471645933 0.0046426305927184429 0.003833931553375261 0.0038002372337529048 0.0030415637166308724 0.0038066409303892214 0.0044441135439145371 0.003053119083022519 0.0030816981336783339 0.0049331002335868852 0.0049266379904735168 0.0048987112745296629 0.004432437156593313 0.0065554400688839021 0.005665997160409662 0.005825842724600583 0.006132638983461185 0.0054986361555538835 0.0061554363196879682 0.0054497813371453636 0.006110232877471403 0.0058034377586259371 0.0064692064348749294 0.0057998506741930075 0.0053763990422980665 0.0061846534689808282 0.0062099414304223922 0.0058557630236760827 0.0054197526029843663 0.0057597583700394273 0.0060714775039328326 0.0054752063617943035 0.0064308325976586197 0.0060966159236929933 0.0058073554771612568 0.0060494087569164922 0.0065372078482923519 0.00559617309778037 0.0053953243213547206 0.0054783721173093328 0.0062160895577774659 0.006215896514172428 0.0053818416388022039 0.00622912803887757 0.0055792743332369809 0.0059173456349558545 0.0057385340354642791 0.0055010815035625577 0.0063495525802993872 0.0068012813286558223 0.0066595755489853277 0.0066574646289309413 0.0068146773061239204 0.0068255612225867953 0.0068217970900406764 0.0071376137386768863 0.0070729624913323684 0.0070466642164197903 0.0070336791060679974 0.0071431626204838863 0.0071095988151600835 0.0071603716088359465 0.0071137844193383259 0.0070256243026830863 0.0071456950354520637 0.0070147862880788709 0.0071171502234939864 0.0070949317080823675 0.0071269825586180013 0.0068179463524970958 0.0070746708467853596 0.0065986361831986791 0.0066723843509601767 0.0069255312047404698 0.0066289129359500699 0.0066761437800844543 0.0069128279574514756 0.0070613715964439744 0.0070279803864406057 0.0070005136785665951 0.0070445841687182776 0.0069160459185105654 0.006958133495415934 0.0070639310482205515 0.0067465875742424818 0.0069572988915389622 0.0070436156255806199 0.0069377806603058223 0.0067283427248649016 0.0069582733663616694 0.0070468299283782797 0.0070221687372956044 0.0070834166701117121 0.0070765340484908014 0.0068432637547948079 0.0069779831221340287 0.0071274514736161696 0.0071192627608960115 0.0067308299286705257 0.0070510951086740683 0.0071143005223852848 0.0067545936615876967 0.0070017870489910931 0.0066525158426027197 0.0071061158717579762 0.0071461893588612478 0.0071698453989299353 0.0071096662690060316 0.0071661284768314727 0.0071453441861352978 0.0071023497353575587 0.0069966148345985812 0.0068710159744579643 0.0071198956695991984 0.0070761585549011961 0.0071497977101358853 0.0067299830605877103 0.0069871405708291489 0.0064737484819226872 0.0065620458535703219 0.0054838159282594636 0.0061400405216778297 0.0060895179407461329 0.005807613011700517 0.0057863525988495921 0.0065682625083840268 0.0054431423440561826 0.0058446789508942989 0.0061859646272371107 0.0054015574155745006 0.0057955621572749836 0.0053584134742044901 0.0062009971640502905 0.0067353429405020981 0.0069411323389888362 0.0068880239268038438 0.006912746100394467 0.0067348253016716805 0.0070285363689157974 0.0069282835964768457 0.0069547547328003652 0.0070379597664327123 0.0070154301882854849 0.00707740336157754 0.0070500665073700676 0.006884331637893623 0.0068091967747227417 0.0069976524700422994 0.0070542759550537562 0.0070985094284704503 0.007068553031317891 0.0070174779344952982 0.006658535688510896 0.006904403302796569 0.0063469250356792571 0.0061205159765364229 0.0058725399931756099 0.0059104232902282387 0.0065129769832509487 0.0050416734449322898 0.0063225839759319547 0.0055748019152880449 0.0050358058404025349 0.0055605134666925687 0.0050624750126450719 0.0065201762627247386 0.0060335110172650853 0.005750277292978982 0.0056200383954969572 0.0055889435806396274 0.0059393694392478377 0.0053869141666874594 0.0054817168787284053 0.0063710514130119137 0.0070379171993472656 0.006674124515088059 0.0068463323399685586 0.0066991742713968412 0.0066887120848817599 0.0066535124940881492 0.0069205432553801592 0.0069338049900432549 0.006995666977340771 0.0071235749116983502 0.0071046673289382562 0.0070698345981121333 0.0071251220967820626 0.0071572201710564283 0.007156768641451235 0.0070389056239043655 0.0071205203220410691 
</DataArray>
<DataArray type="Float64" Name="piezo_head_p0" format="ascii">