<?xml version="1.0"?>
<VTKFile type="UnstructuredGrid" version="0.1" byte_order="LittleEndian">
<UnstructuredGrid>
<Piece NumberOfPoints="236" NumberOfCells="719">
<Points>
<DataArray type="Float64" NumberOfComponents="3" format="ascii">
0 0 0 0 0 0.20000000000083221 0 0.14641016151432179 0.14641016151432179 0 0.20000000000083221 0 0.14641016151452901 0.14641016151487049 0 0.1464101615145241 0 0.14641016151486561 0.19999999999955789 0 0 0.31610726166346748 0.18804489794572149 0 0.3999999999989749 0 0 0.49391845158624981 0 0.1323760430705655 0.31578456131778371 0 0.1865278143482666 0.47688326899416439 0 0.31741132792405607 0.32146143392436449 0 0.38738071487621961 0.16370661204827031 0 0.4886650857430957 0 0 0.40000000000166441 0.16938214347656569 0 0.30011357660650623 0 0.18804489794560331 0.31610726166461361 0 0.31024977578556651 0.45812322962166352 0 0.39615100178029522 0.32925244736138171 0.312576188949791 0.31458070521983672 0.3125761889497819 0.45812322962036273 0.31024977578535839 0 0.32925244736090059 0.39615100178043078 0 0.17226134197279269 0.49836539647922029 0 0.16929708765618309 0.30074819035915368 0 0 0.30074819035869899 0.1692970876565193 0 0.49836539647891548 0.17226134197271731 0 0.40000000000166441 0 0 0.60000000000138687 0 0.1589680427220837 0.69449451837091269 0 0.22345881830598399 0.5062398304147856 0.22345881830602041 0 0.69449451837103049 0.15896804272139439 0 0.60020898676435996 0.32446581821286191 0.24769234054476261 0.52242103280823293 0.45098450226372488 0 0.68801781652248195 0.45664527743358641 0 0.81480288849496429 0.31067093462946233 0.22516916914780419 0.77057994845201627 0.48187244075707292 0 1 0.3999999999989749 0.17226134197293 1 0.49836539647645101 0.16929708765615539 1 0.30074819035677097 0 1 0.19999999999955789 0 1 0 0 0.79999999999999982 0 0 0.85358983848655678 0.14641016151332509 0.19259015428765269 0.77719169076434647 0.19259015428773721 0.14641016151479211 0.85358983848543113 0 0.20000000000083221 1 0 0.14641016151352521 1 0.1464101615131837 0.31635851157303152 1 0.18818969570840721 0.31067093463127438 0.81480288849489035 0 0.40000000000166441 1 0 0.45820186441796368 1 0.31030302876579191 0.32926555316115258 1 0.39615987727515128 0.35848654557803328 0.70013656506632282 0.30029870175293161 0.32446581821364329 0.60020898676454815 0 0.45664527743509797 0.68801781652245086 0 0.51961524226956368 0.5000000000025091 0 0.59944234541082553 0.66416205381394655 0 0.72722573386132172 0.60922248848163563 0 0.68456408135056701 0.68607101396845627 0.31096060989957619 0.51961524227008238 1 0.49999999999872219 0.61068558124908323 1 0.33127740899601937 0.51133491425992716 1 0.16370661204795281 0.60000000000138687 1 0 0.50803330197353713 0.83630110503668265 0 0.52894546611500048 0.79133000140429866 0.2082794184507949 0.7054234997318658 0.80860557108880304 0 0.69988642339594154 1 0.16938214347578889 0.85358983848665693 1 0.14641016151322461 0.79999999999999982 1 0 0.85358983848666903 0.85358983848666903 0 0.81582077266975173 0.77657922508894406 0.18483084990574741 1 0.85358983848655678 0.14641016151332509 1 0.79999999999999982 0 1 1 0 1 1 0.19999999999955789 0.82751535738810444 1 0.31407731390515509 1 1 0.3999999999989749 0.77374673111774417 0.78860835645735528 0.49829081152968557 1 0.8148028884949543 0.31067093462944562 1 0.68975022421527898 0.45812322962078778 0.7504488434426726 0.53051757989633308 0.49836643074154852 1 0.60020898676431722 0.32446581821274012 1 0.69449451837101916 0.15896804272136739 0.77713227489941183 0.50036915849493024 0.21774643624003751 0.84191918937744659 0.51186163305076127 0 0.85173693729186062 0.69992182039541118 0 1 0.60000000000138687 0 1 0.40000000000166441 0 1 0.49836539647890021 0.17226134197269399 1 0.30074819035868428 0.16929708765640439 0.80839867011859301 0.31807971531731721 0 1 0.20000000000083221 0 1 0.14641016151453831 0.14641016151419689 1 0 0.19999999999955789 1 0 0 0.79999999999947335 0 0 0.85358983848650494 0 0.1464101615132356 0.85358983848570813 0.1464101615143738 0 0.69380980079964416 0.1619694349440581 0 0.68592116352011878 0 0.1724872797865501 0.59999999999894682 0 0 0.5003997205654479 0.21136633249797621 0.2258422409314382 0.50966790549376417 0.16275515618023731 0 0.6104699881764214 0.32043363027358418 0 0.67320508075660079 0.46954769941202479 0 0.5004045312576143 0.47050700646456922 0.24963111222780321 0.50000000000001332 0.49999999999999561 0.49999999999999561 0.68777432594363841 0.31447353261427252 0.31366778418247038 0.50000000000250922 0 0.48038475773043671 0.66852282575985944 0 0.3853248791658106 0.83057691269884504 0 0.30018449338884379 0.83534964916824084 0 0.4902996892628636 1 0 0.3999999999989749 1 0.18804489794556911 0.3161072616634244 1 0.31024977578542368 0.45812322962028301 1 0.39615100178016449 0.32925244736082498 1 0.39076805646076263 0.7272421105028648 1 0.33579115324550912 0.59952339316293046 1 0.162755156180173 0.50966790549372887 1 0.1912596090855686 0.70565701451953711 1 0 0.59999999999894682 0.81469961246449951 0 0.68914937826112133 0.77973766487723961 0.22090161127815711 0.50014622462635805 0.68969697123394857 0 0.54179813558228873 0.6002015905170176 0 0.67551889168744117 0.50073570207385831 0.24848280280289631 0.52886631355986169 0.68742751001967084 0.31250796680084852 0.687427510020161 0.72724211050425436 0.39076805646176382 1 0.59952339316492498 0.33579115324593939 1 0.50966790549576724 0.1627551561802443 1 0.50084626324420545 0.22238844715913 0.78084811589659187 0.60000000000138687 0 1 0.69447607299129699 0 0.84099946107689361 0.70565701452089868 0.1912596090858541 1 0.85358983848646974 0.14641016151341191 1 0.81599560342209843 0.22280203704001911 0.81599560342233202 0.85358983848570524 0 0.85358983848556425 0.79999999999999982 0 1 1 0 1 1 0 0.79999999999947335 1 0.14641016151333891 0.85358983848640169 1 0.19999999999955789 1 0.85173693729199718 0.30007817960516198 1 1 0.30007817960499339 0.85173693729139244 1 0.48813836695007229 0.84191918937727617 0.78019141325921404 0.49972466465542442 0.78019141325930785 0.84191918937756771 0.48813836695034618 1 1 0.3999999999989749 1 1 0.59999999999894682 1 0.80839867011861499 0.68192028468377774 1 1 0.68192028468364885 0.80839867011854549 1 0.53045230059030524 0.6732050807565132 1 0.50000000000229983 0.51961524226898759 1 0.67939035495490308 0.61016512164639347 1 0.83791821520125753 0.69361520514217179 1 0.83630110503662825 0.50803330197135588 1 1 0.59999999999894682 0.86762395692956074 1 0.5060815484123421 0.81346205468287114 1 0.68420958956387889 1 1 0.79999999999947335 1 1 1 1 0.79999999999947335 1 1 0.85358983848587056 0.85358983848587056 0.77683220420328725 0.81278569633583353 0.81664766512111064 0.85358983848587056 0.85358983848587056 1 0.79999999999947335 1 1 0.85358983848569092 1 0.85358983848569092 0.69981550660938663 1 0.83057691269844081 0.69361520514218133 0.83791821520130205 1 0.50803330197137353 0.83630110503667787 1 0.59999999999894682 1 1 0.50970031073508926 1 0.83534964916803001 0.6123333432449789 1 0.67837347745467769 0.68240285647621723 1 0.52310058211166854 0.68649174659499257 0.68600703198516766 0.6864917465949647 0.67320508075671459 0.53045230059073867 1 0.61016512164652226 0.67939035495506384 1 0.51961524226934941 0.50000000000250611 1 0.45812322962090041 0.68975022421538157 1 0.32446581821293602 0.60020898676440626 1 0.49816183246753282 0.5307146639261795 0.75045686993209071 0.3115891413135391 0.68758981780459771 0.68521708032990558 0.49983993748706529 0.75039103705932653 0.52967335724801234 0.32448110831226962 1 0.6002015905153204 0.45820186441573879 1 0.68969697123405882 0.3999999999989749 1 1 0.49911199724958061 0.77872228561593948 0.77895350115271889 0.31067093462947892 0.81480288849497895 1 0.31085062173747541 1 0.81469961246428202 0.1464101615132356 1 0.85358983848650494 0.19999999999955789 1 1 0.14641016151332509 0.85358983848655678 1 0.18453958615733529 0.77655623474864555 0.81613222483915937 0 0.85358983848682146 0.85358983848668035 0 0.79999999999999982 1 0 1 1 0 1 0.79999999999947335 0.15900053892265181 1 0.69447607299016312 0 1 0.59999999999894682 0 0.83630110503664845 0.50803330197135654 0 0.80860557108920617 0.70542349973054763 0 0.66416205381430016 0.59944234540882957 0 0.50000000000237477 0.51961524226909872 0 0.60922248848335758 0.72722573386012812 0 0.5118616330515301 0.84191918937737908 0 0.69992182039579531 0.85173693729137989 0.2184393375098648 0.50004596894495223 0.77634962490704662 0.15896804272141651 0.69449451837104537 1 0 0.60000000000138687 1 0 0.40000000000166441 1 0 0.31807971531776508 0.80839867011913336 0.16929708765653109 0.30074819035870082 1 0.17226134197275911 0.49836539647894412 1 0.32925244736146098 0.39615100178034629 1 0.45812322962173568 0.31024977578554058 1 0.31426750628021272 0.31270343261798911 0.68761148188185484 0 0.46954769941369501 0.67320508075638175 0 0.32043363027398297 0.61046998817722586 0.22088738526309029 0.22111069116742441 0.50004796911802929 0 0.16275515618034081 0.50966790549591257 0 0.16196943494415611 0.69380980080116506 0.18818969570926641 0 0.68364148842842287 0 0 0.60000000000138687 0.31030302876556398 0 0.54179813558513157 0.39615987727709562 0 0.67073444684008199 0.30074819035913852 0 0.83070291234383831 0.49836539647917322 0 0.82773865802723501 0.40000000000166441 0 1 0.31610726166461628 0.1880448979455934 1 0.20000000000083221 0 1 0.14641016151479661 0 0.85358983848542624 0.14641016151432179 0.14641016151432179 1 0 0.20000000000083221 1 0 0.14641016151490169 0.85358983848532144 0 0 0.79999999999999982 0 0 1 
</DataArray>
</Points>
<Cells>
<DataArray type="UInt32" Name="connectivity" format="ascii">
[...]
<CellData Scalars="pressure_p0,piezo_head_p0," Vectors="velocity_p0," Tensors="">
<DataArray type="Float64" Name="pressure_p0" format="ascii">
0.0032269918364335546 0.0034516090941876625 0.0033902135783986636 0.0034483274904138694 0.0034158716411187692 0.0032302571037553019 0.0034313654095443138 0.0032341586055644202 0.0033898459620110045 0.0033521820714146376 0.0033473814209870798 0.0034274343005356567 0.0034414152494271219 0.0034441079079257125 0.0034268295543631666 0.0032197962963841811 0.0032961644284397783 0.0030653389950451018 0.0031454683278324827 0.0029180334494533899 0.0026135205011078595 0.0026528003558794295 0.0027059665415109994 0.0028625255820223768 0.0026502720910831739 0.002777193441260874 0.0030037048128219793 0.0031936683316644934 0.0029974506200294193 0.0026474373682127857 0.0027852318368282161 0.0031401020590862104 0.0029218537262206833 0.0027986293246544617 0.0027986733709739523 0.0026619013778805462 0.0032087518792884226 0.0032750145078584425 0.0033902617812777932 0.0033946296242332802 0.0033376615253248245 0.0034876589255111649 0.0034445484489252212 0.0034714295427616788 0.0034574645274061721 0.0034455396606731916 0.0034686660089590709 0.0034270257709003759 0.0033087638176491903 0.0034295510411811976 0.0033004924261495119 0.0033787660141320081 0.0033797788981472419 0.003392147927902902 0.0034606003363486975 0.0026308802485594481 0.003034893257764593 0.0026395116224393919 0.0028509969189895847 0.0028498924671299351 0.0030420287355427044 0.0028050512099184639 0.0029615135795172894 0.0026662481296658713 0.0029460483772529534 0.0031753454497705875 0.0028147995788015468 0.0029767449050528564 0.0031294373569542761 0.0027383818985428844 0.0026306167226694864 0.0033471093557618284 0.003321452914853671 0.003373260003430141 0.0032465672732736412 0.0034484963903052518 0.0034415919631026639 0.0034146735709493833 0.0034462432160093665 0.0034493447797280239 0.0034227216129218184 0.0034125693772603747 0.0033695155774130956 0.0034242226699830965 0.0032431936239474646 0.003442029612531144 0.0034500903376084571 0.0032038719003192363 0.0032523581973274126 0.0033712819598501666 0.0034493635896145512 0.0034437778207826461 0.0034142858955963657 0.0033020820896788967 0.00341150395429704 0.0034167330980208136 0.0032997756845316189 0.0034543812452706045 0.0032797306344520315 0.0032781790159974629 0.0034632031109412278 0.0034631525877598934 0.0034259317235990454 0.0034553663591340798 0.0034170685161200734 0.0032498970722767591 0.0033758546077456804 0.0034412156305001426 0.0034702330878436118 0.003470430018451244 0.0034428810835748372 0.0033894834215172603 0.0032701273340430253 0.0034612910947449142 0.0034485891260525748 0.003430754675016412 0.0033832298522124948 0.0034472309249105192 0.0034275424811335753 0.0034450633270449327 0.0034242882107204426 0.0034280268905751646 0.0033942200661457866 0.0034446139230593837 0.0033894540295379473 0.0034255830370441241 0.0034520241417892602 0.0032870173838310751 0.0032847072691697459 0.0032842986947796229 0.0032091273460436347 0.003210004017977117 0.0032824115098091791 0.0033900380465527805 0.0029592265151822282 0.0029609868185993368 0.0029792590232559373 0.003061526971902517 0.0027497559249548401 0.0026373850307169736 0.0026954313160043636 0.0028572943282437714 0.0026334014712051709 0.0025777749381505535 0.0029592220084433984 0.0031524829555184841 0.0029218513609313504 0.0027624965419166632 0.0030961287085443665 0.0026086558447828674 0.0027810384358084809 0.0032025961826423386 0.0031942999580908587 0.0026501245518111873 0.0030115307875553513 0.0028124317784909412 0.0028170737353585941 0.0030033452940850329 0.00294733981312766 0.0029225035232792614 0.0031448916249919583 0.0027729910850780161 0.0030969832983718968 0.0027629429916970483 0.0026017223903782713 0.0031628737730188504 0.0026382675278411897 0.0016021807009734116 0.0018668145631567652 0.0023732799228703898 0.0021597055283929002 0.0021417694322375487 0.0018788883259092861 0.0017896029898052106 0.0023843747878186574 0.0015593978430721196 0.0023698877635567393 0.001534633211655355 0.0016165125885299119 0.002393011278136277 0.0024198917956214649 0.002415578772518241 0.002016034184520499 0.0017017975979039034 0.0016911179129535762 0.0023968919131256089 0.0020206095308965312 0.0017779012129703628 0.0018656100490351119 0.0018708400260615109 0.0014202916872672732 0.002370245959517864 0.0014736919494186755 0.0021359781836322767 0.0021530210507607287 0.0023860640695986062 0.0014798866874758336 0.0023597430883242673 0.0021044381748556882 0.0017583935473467504 0.0016452490790015467 0.0022048112863914575 0.0017634593426154234 0.0021341519372281071 0.0024321482403014917 0.002110686062370064 0.0019983664613536451 0.0015772692305689856 0.0019225146081233244 0.0014026343279364161 0.0010912154226957354 0.0010550549930483566 0.00069174573421966696 0.0010760388661773452 0.0012664299260507932 0.001051310032005137 0.0012454126283255366 0.00025730126091728066 0.00049344905764429968 0.00045775704092743471 0.00025672542678121998 0.00065599496890774735 0.00065959729544690234 0.00040507674940764828 0.00020394278351535587 0.0002041523453036659 0.00067599884572142272 0.00044149449779325742 0.0002400601424802016 0.00024061155595738674 0.0012104769612409486 0.00079869742944472643 0.00098796940358033105 0.0007298599272751549 0.0011517144012928818 0.00042278954254962065 0.00018488774698892884 0.00049721761802762928 0.00031540705429106651 0.00065062673517280877 0.00077220950457898964 0.00074223994782849755 0.0010725974408583618 0.00043514826605604151 0.0010658002545949445 0.00068541242920694596 0.00098234555861943253 0.00034800872629887707 0.00034796217663032289 0.00052679692174138759 0.00076087116786108504 0.00056179430514454419 0.00031035913433104234 0.0011196695846354056 0.0013318092965081741 0.00025673342684136898 0.0013127235236646928 0.00072547642114274141 0.0010867529165290439 0.0012150325875951529 0.00020642150835615874 0.00046030197872472701 0.0004236365260001767 0.00022008271800886802 0.0002203930249417147 0.00088653623901308097 0.00048303326022675638 0.00026647338553102608 0.00098611671415479345 0.0012098149720035747 0.00078415378496665569 0.0005718018566869959 0.00031065857194483476 0.0002667945692280107 0.00046727529754920767 0.00020413564956459543 0.0012681073989040642 0.0012875557454216423 0.0004321116374478496 0.00063016584718059718 0.0008563103683960592 0.00082561839319317796 0.0012272979109745983 0.00043663207525011479 0.00023536534711550525 0.0006782900500192598 0.00020406488025938486 0.00020451034411850155 0.00040580323116986986 0.0013040142544063537 0.0010886090723584985 0.0018583069318599595 0.0014372806677688675 0.0016114575459678132 0.0024465211450851892 0.0019506168198977914 0.0021652393819893666 0.0023018195229488991 0.0022625424124572626 0.002053976692444013 0.0021409142154394205 0.0014828219246809699 0.0019459962413910395 0.0015876003355383029 0.0023830217716485505 0.0023884226345910016 0.0018649412501099047 0.002157592884296307 0.0018510165883215267 0.0021470378221153281 0.0023706181121396237 0.0015023110462156803 0.002013479326934645 0.0016867570562925968 0.0020137493683804416 0.0016888165428512953 0.0022794509489803467 0.0022713341434786182 0.0013831663312125109 0.0014994485722211463 0.002318380769158297 0.0017854872980768819 0.0018907468233569031 0.002098695581504812 0.0017856554873043244 0.0021234082095468662 0.0023304684552903467 0.0021046966376254482 0.0013781051534606451 0.00095641051401707043 0.000661486544600799 0.0011986309523065405 0.00076167211378020338 0.00046310168307551097 0.00023029810557377082 0.00022988376911529059 0.00023613900738668898 0.00030775033616246627 0.00053371857527160344 0.0010623795800656531 0.00043231437762748879 0.0010601396767596814 0.00043264660270027897 0.00073112987549765307 0.00073336651428106765 0.00076814923184432475 0.00031109114371315622 0.00034766107025401542 0.0010634565181835507 0.00068502230448438668 0.00034813514215717249 0.00064922208720905332 0.00098300662320996543 0.0010638070302090986 0.00064848588096176564 0.00073285941972874274 0.0003480275748555534 0.00030734686721015873 0.00025682315364332223 0.00030836121291978786 0.00056147059025775359 0.0012253490053046455 0.00081067889949182998 0.00056098486880679381 0.00030791648665889063 0.00025890435096543804 0.0002583949707888136 0.0004857794748690224 0.0011963928962772372 0.00078528845179287056 0.0019809344098716936 0.0016141578012631541 0.0013861244691322212 0.0019793885037833999 0.0017701943731685018 0.0021936190222887147 0.0014556371650400663 0.0021840479361633996 0.0022867285147976438 0.0020195084624706123 0.0020256251868169916 0.0017003276819110035 0.002304308044299964 0.0016921606549700294 0.002443686915967489 0.0015758667111371327 0.0018861341267110438 0.0018426586099885979 0.0022008302073706042 0.0016158946917045741 0.001906607848138214 0.0015547968455391294 0.0016368566429093199 0.0024310420805592247 0.0022011478321898219 0.0024393959374914157 0.0020654505533456297 0.0017302314656193532 0.0017049854408365832 0.0018209707824850493 0.0021757599486467109 0.001606617059041273 0.0021924793093250341 0.0022870170058461835 0.0021901950211182042 0.0024920816543999771 0.0019590860533028756 0.0016070872447911243 0.0014510828364675639 0.0012655250232307387 0.0010617852353977286 0.00071267477324885378 0.0011236339622511988 0.0010715614205454131 0.0012880362635753074 0.0010941219893397781 0.00040709695040287778 0.00068121831236221566 0.00020475337973824596 0.00020483678487084314 0.00046137383445186367 0.00020486624549107411 0.0002576043129340041 0.00045944003694513438 0.00066401511314911888 0.00045977664098856909 0.00025722120510979679 0.00065957670929755519 0.00020764202636068909 0.00046256903154836453 0.0007617784561456492 0.0013385570175038061 0.00056063927128073565 0.001127640277125635 0.00098158236193438323 0.0002071631664133765 0.0012287993820385365 0.00025742248660295659 0.00051168179803966348 0.00030780262766384422 0.00030841745988582729 0.0013268711242938969 0.001095645254449793 0.00072857276657025208 0.00022143624893633979 0.0004265014691424376 0.0012857956723620425 0.00087422930316995271 0.00022130453253833799 0.0010361916512510671 0.00048664996628458465 0.00026772055536160918 0.0012220994695507535 0.00078667200913239686 0.00030787578609292989 0.00052610722500656573 0.00064888021261295188 0.0010742282485062275 0.00074371057135919603 0.00074079778025562147 0.00065752785994659688 0.0010658974756115082 0.00073472463092376285 0.00030703357078048327 0.00034819241723226386 0.00034834491933927934 0.00031625160395178293 0.0010425952566491083 0.0012845814944169955 0.00074012402216420189 0.00031068276997581266 0.00087441382307434966 0.00031593578635481854 0.00049793831773323118 0.0001853435996612861 0.00018580120145476404 0.00044405336681728073 0.0011726301939185657 0.0007516556234240647 0.00026061604659892993 0.00046393958048866768 0.00051408079116081176 0.00020531630053669496 0.0002053957052778726 0.00068268805212511551 0.00020534769032709549 0.00040823734984156467 0.00020535428353864014 0.00047103467606424273 0.00051431746232711889 0.00031170466370388791 0.0011860218634591442 0.00077596922322356002 0.00098401115002233041 0.0011873333054004558 0.0011963681174361283 0.00071459669465775998 0.0011695638608584206 0.00076853128519821078 0.0017645236526240646 0.001873015963189964 0.0014808459282412319 0.001859174091779091 0.0013938996626218145 0.0019687309182308487 0.001617645494675088 0.0015013230201674295 0.0021829243533155419 0.0022835040600145064 0.0024831344316431419 0.0021838974987095096 0.0020752173420961833 0.0021650437615263161 0.0021834450328175785 0.0018726598059995276 0.0024193165059928647 0.0024187399610554154 0.0018710497408051616 0.0014951198954760634 0.0018742567084150774 0.0014950784275407703 0.0015014825591781443 0.0023953718525312048 0.0021555697813267303 0.0023103394328725102 0.0020277876280192031 0.0017021585994957495 0.0020242222938878234 0.0017046339065373444 0.0022928424226846935 0.0018935307304335067 0.0018768552328257779 0.0015021372618900445 0.0018800302940828718 0.0021949153952935969 0.0015078469802334122 0.0015219724053139594 0.0024365283226127771 0.0024333525023573182 0.0024195534380597036 0.0021892023604778406 0.0032381005107851375 0.0027986534890146156 0.0028776017886803619 0.0030292135396419624 0.0027158921859512372 0.0030404205016589425 0.0026918204956433768 0.0030181435313246623 0.0028665253924161291 0.003195523333131852 0.002864436901045072 0.002655329453413683 0.0030545470732803743 0.0030671334404211619 0.002892233229374418 0.0026768110664197355 0.0028447366222571651 0.0029988357785534847 0.0027041998500926352 0.0031764343022258109 0.0030111012029003341 0.0028683788849425819 0.0029876803796363557 0.0032288560172690473 0.0027637711445464216 0.0026646380613522206 0.0027058630241032187 0.00307043970083676 0.0030702724083266149 0.0026582277006864108 0.0030768531237784242 0.0027557959671786971 0.0029228497688323311 0.0028344834996682842 0.0027171689899481589 0.0031364361749116249 0.0033595755802948491 0.0032896092155382949 0.00328859120058895 0.0033663032241734179 0.0033716804904985855 0.0033698065642116895 0.0035258100407852188 0.0034938136598217143 0.0034809550193384102 0.0034745035281327271 0.0035286162362752603 0.003512047801955171 0.0035371591371679825 0.0035141204061715824 0.0034705637701506835 0.0035298625612346294 0.0034651017828413381 0.0035156483967755509 0.0035047085114945772 0.0035204228104307343 0.0033676648763431003 0.0034944643200011398 0.0032593184565330611 0.0032957282297561979 0.0034208309239086845 0.0032743237870587302 0.0032974377198452033 0.0034143580906419455 0.003487688098048274 0.003471309322818352 0.0034577699541615526 0.0034795090828421129 0.0034160606552048815 0.0034369819857935657 0.0034892853628549383 0.0033323366926996051 0.003436577279286133 0.0034791395587637944 0.0034269164888299525 0.0033232138378098963 0.003436876670067637 0.0034805171188561287 0.0034683217149340077 0.0034988850174313513 0.0034956705462991502 0.0033802705067346259 0.0034469623767256407 0.0035207232603886147 0.0035167281516405935 0.0033248352180730227 0.0034830321890714109 0.0035142550430859658 0.0033365962735430899 0.0034587515181625588 0.0032861530420950462 0.0035103252465742934 0.0035301321852817548 0.0035418376051415176 0.0035120901864514821 0.0035400011995108285 0.0035297071689787294 0.0035084683487980719 0.0034561431930629342 0.0033940534438312727 0.0035170119918648615 0.0034954769780281805 0.0035319239890163829 0.003324432131919765 0.0034515052191772906 0.0031977855337208304 0.0032414437343759274 0.0027085697776111609 0.003032812809450793 0.0030079078694420403 0.0028685934860250791 0.0028580825419619801 0.0032444696684545138 0.002688535183951523 0.0028867572130312521 0.003055199811968127 0.0026678212478470496 0.0028623161875872853 0.0026464449121754862 0.0030627136961754952 0.0033267498118478974 0.0034282762403596368 0.0034021318230002175 0.0034144721154527394 0.0033264282999313074 0.003471693714989781 0.0034221140233534814 0.0034353300370493839 0.0034764248119908154 0.0034649938977479107 0.0034959434082574643 0.0034821271320260839 0.0034005413299296886 0.0033632915601659753 0.0034563498227552442 0.0034843034562304499 0.0035063405195365411 0.0034914273085938567 0.0034661066331302128 0.0032887108211627847 0.0034101902892296914 0.0031349605297825928 0.0030228913025450838 0.0029004292044684417 0.0029193000981152101 0.0032168627839904724 0.0024900072520124992 0.0031228438274830072 0.0027533953801288633 0.0024870299766091356 0.0027462100518799194 0.0025003504476398593 0.0032207131028292846 0.002980194340051417 0.0028402673882478562 0.0027758534336461268 0.002760581594858506 0.0029337222073900064 0.0026607521199506316 0.0027075974480261535 0.0031470542927384379 0.0034764820573747334 0.0032968054020563776 0.0033819220663751717 0.0033091495756440996 0.0033040296043459383 0.0032865140850188599 0.003418578779379595 0.0034251118872183676 0.0034556136151373019 0.0035189481800380574 0.0035096188073227316 0.0034922575980866075 0.0035196291586955543 0.0035355983961330236 0.003535332308019612 0.0034771168448146394 0.0035174446872016148 
</DataArray>
<DataArray type="Float64" Name="piezo_head_p0" format="ascii">