<?xml version="1.0"?>
<VTKFile type="UnstructuredGrid" version="0.1" byte_order="LittleEndian">
<UnstructuredGrid>
<Piece NumberOfPoints="300" NumberOfCells="677">
<Points>
<DataArray type="Float64" NumberOfComponents="3" format="ascii">
0.000000000000000e+00 3.750000000000000e+00 0.000000000000000e+00 1.750000000000000e+00 5.000000000000000e+00 0.000000000000000e+00 2.250000000000000e+00 4.750000000000000e+00 0.000000000000000e+00 2.750000000000000e+00 4.000000000000000e+00 0.000000000000000e+00 3.500000000000000e+00 5.000000000000000e+00 0.000000000000000e+00 3.250000000000000e+00 6.250000000000000e+00 0.000000000000000e+00 4.000000000000000e+00 5.750000000000000e+00 0.000000000000000e+00 5.000000000000000e+00 6.250000000000000e+00 0.000000000000000e+00 4.750000000000000e+00 7.250000000000000e+00 0.000000000000000e+00 4.250000000000000e+00 4.750000000000000e+00 0.000000000000000e+00 3.500000000000000e+00 4.000000000000000e+00 0.000000000000000e+00 4.250000000000000e+00 3.500000000000000e+00 0.000000000000000e+00 4.750000000000000e+00 2.750000000000000e+00 0.000000000000000e+00 4.250000000000000e+00 1.500000000000000e+00 0.000000000000000e+00 5.250000000000000e+00 5.000000000000000e+00 0.000000000000000e+00 4.750000000000000e+00 4.750000000000000e+00 0.000000000000000e+00 5.250000000000000e+00 4.000000000000000e+00 0.000000000000000e+00 5.000000000000000e+00 2.250000000000000e+00 0.000000000000000e+00 5.750000000000000e+00 7.500000000000000e-01 0.000000000000000e+00 5.750000000000000e+00 2.500000000000000e+00 0.000000000000000e+00 5.500000000000000e+00 2.750000000000000e+00 0.000000000000000e+00 6.000000000000000e+00 3.750000000000000e+00 0.000000000000000e+00 6.500000000000000e+00 5.250000000000000e+00 0.000000000000000e+00 7.250000000000000e+00 6.000000000000000e+00 0.000000000000000e+00 6.750000000000000e+00 4.000000000000000e+00 0.000000000000000e+00 7.000000000000000e+00 2.250000000000000e+00 0.000000000000000e+00 7.500000000000000e+00 2.000000000000000e+00 0.000000000000000e+00 7.500000000000000e+00 3.750000000000000e+00 0.000000000000000e+00 7.500000000000000e+00 4.750000000000000e+00 0.000000000000000e+00 7.750000000000000e+00 6.250000000000000e+00 0.000000000000000e+00 7.750000000000000e+00 5.500000000000000e+00 0.000000000000000e+00 8.250000000000000e+00 5.000000000000000e+00 0.000000000000000e+00 8.250000000000000e+00 3.750000000000000e+00 0.000000000000000e+00 8.000000000000000e+00 2.500000000000000e+00 0.000000000000000e+00 8.500000000000000e+00 7.500000000000000e-01 0.000000000000000e+00 9.000000000000000e+00 8.000000000000000e+00 0.000000000000000e+00 9.000000000000000e+00 5.500000000000000e+00 0.000000000000000e+00 9.750000000000000e+00 4.000000000000000e+00 0.000000000000000e+00 9.000000000000000e+00 2.750000000000000e+00 0.000000000000000e+00 9.750000000000000e+00 5.500000000000000e+00 0.000000000000000e+00 1.050000000000000e+01 4.750000000000000e+00 0.000000000000000e+00 1.125000000000000e+01 4.250000000000000e+00 0.000000000000000e+00 1.200000000000000e+01 3.750000000000000e+00 0.000000000000000e+00 1.275000000000000e+01 4.500000000000000e+00 0.000000000000000e+00 4.750000000000000e+00 4.000000000000000e+00 0.000000000000000e+00 2.000000000000000e+00 3.000000000000000e+00 0.000000000000000e+00 6.000000000000000e+00 6.400000000000000e+00 0.000000000000000e+00 1.000000000000000e+00 6.200000000000000e+00 0.000000000000000e+00 1.040000000000000e+01 2.300000000000000e+00 0.000000000000000e+00 1.150000000000000e+01 1.100000000000000e+00 0.000000000000000e+00 6.000000000000000e-01 7.500000000000000e-01 0.000000000000000e+00 1.190000000000000e+01 7.000000000000000e+00 0.000000000000000e+00 0.000000000000000e+00 7.500000000000000e-01 0.000000000000000e+00 0.000000000000000e+00 8.000000000000000e+00 0.000000000000000e+00 1.275000000000000e+01 7.500000000000000e-01 0.000000000000000e+00 1.275000000000000e+01 8.000000000000000e+00 0.000000000000000e+00 5.624999999964863e-01 3.999999999998438e+00 0.000000000000000e+00 1.124999999995812e+00 4.249999999998138e+00 0.000000000000000e+00 1.687499999998485e+00 4.499999999999327e+00 0.000000000000000e+00 2.875000000000000e+00 4.375000000000000e+00 0.000000000000000e+00 2.687500000002093e+00 5.000000000001196e+00 0.000000000000000e+00 3.125000000002093e+00 5.250000000001196e+00 0.000000000000000e+00 3.562500000002093e+00 5.500000000001196e+00 0.000000000000000e+00 4.500000000000000e+00 6.000000000000000e+00 0.000000000000000e+00 4.500000000005181e+00 6.750000000010362e+00 0.000000000000000e+00 4.250000000005181e+00 6.250000000010362e+00 0.000000000000000e+00 4.625000000000000e+00 5.375000000000000e+00 0.000000000000000e+00 4.750000000000000e+00 4.375000000000000e+00 0.000000000000000e+00 4.624999999997918e+00 1.874999999997918e+00 0.000000000000000e+00 5.250000000000000e+00 1.750000000000000e+00 0.000000000000000e+00 5.500000000000000e+00 1.250000000000000e+00 0.000000000000000e+00 4.125000000008327e+00 4.000000000000000e+00 0.000000000000000e+00 5.125000000000000e+00 3.375000000000000e+00 0.000000000000000e+00 5.749999999991033e+00 4.666666666672645e+00 0.000000000000000e+00 6.249999999991033e+00 4.333333333339311e+00 0.000000000000000e+00 5.916666666666667e+00 3.166666666666667e+00 0.000000000000000e+00 6.333333333333333e+00 3.583333333333333e+00 0.000000000000000e+00 5.750000000000000e+00 5.250000000000000e+00 0.000000000000000e+00 6.250000000000000e+00 5.500000000000000e+00 0.000000000000000e+00 6.750000000000000e+00 5.750000000000000e+00 0.000000000000000e+00 6.875000000000000e+00 5.625000000000000e+00 0.000000000000000e+00 7.600000000000000e+00 6.400000000000000e+00 0.000000000000000e+00 7.950000000000000e+00 6.800000000000000e+00 0.000000000000000e+00 8.300000000000001e+00 7.200000000000000e+00 0.000000000000000e+00 8.650000000000000e+00 7.600000000000000e+00 0.000000000000000e+00 7.249999999991033e+00 4.333333333327355e+00 0.000000000000000e+00 7.749999999991033e+00 4.666666666660689e+00 0.000000000000000e+00 8.750000000000000e+00 5.166666666666667e+00 0.000000000000000e+00 9.250000000000000e+00 5.333333333333333e+00 0.000000000000000e+00 8.750000000000000e+00 4.666666666666667e+00 0.000000000000000e+00 9.250000000000000e+00 4.333333333333333e+00 0.000000000000000e+00 8.750000000000000e+00 3.833333333333334e+00 0.000000000000000e+00 9.250000000000000e+00 3.916666666666667e+00 0.000000000000000e+00 1.025000000000000e+01 4.083333333333333e+00 0.000000000000000e+00 1.075000000000000e+01 4.166666666666667e+00 0.000000000000000e+00 1.175000000000000e+01 4.333333333333333e+00 0.000000000000000e+00 1.225000000000000e+01 4.416666666666667e+00 0.000000000000000e+00 8.437500000000000e+00 2.875000000000000e+00 0.000000000000000e+00 8.875000000000000e+00 3.250000000000000e+00 0.000000000000000e+00 9.312500000000000e+00 3.625000000000000e+00 0.000000000000000e+00 7.750000000000000e+00 3.125000000000000e+00 0.000000000000000e+00 7.500000000000000e+00 2.375000000000000e+00 0.000000000000000e+00 8.500000000000000e+00 2.625000000000000e+00 0.000000000000000e+00 8.166666666666545e+00 1.916666666667094e+00 0.000000000000000e+00 8.333333333333211e+00 1.333333333333761e+00 0.000000000000000e+00 2.166666666666796e+00 4.166666666667574e+00 0.000000000000000e+00 2.083333333333204e+00 3.583333333332427e+00 0.000000000000000e+00 2.499999999996517e+00 2.875000000000871e+00 0.000000000000000e+00 2.999999999994993e+00 2.750000000001252e+00 0.000000000000000e+00 3.499999999995429e+00 2.625000000001143e+00 0.000000000000000e+00 3.999999999996735e+00 2.500000000000816e+00 0.000000000000000e+00 4.499999999998258e+00 2.375000000000435e+00 0.000000000000000e+00 1.720000000001057e+00 2.550000000001699e+00 0.000000000000000e+00 1.440000000001740e+00 2.100000000002797e+00 0.000000000000000e+00 1.160000000001491e+00 1.650000000002397e+00 0.000000000000000e+00 8.800000000005590e-01 1.200000000000898e+00 0.000000000000000e+00 3.500000000003257e+00 5.824999999999512e+00 0.000000000000000e+00 3.000000000004434e+00 5.899999999999335e+00 0.000000000000000e+00 2.500000000003529e+00 5.974999999999471e+00 0.000000000000000e+00 2.000000000002081e+00 6.049999999999688e+00 0.000000000000000e+00 1.500000000000905e+00 6.124999999999864e+00 0.000000000000000e+00 9.699999999999999e+00 2.525000000000000e+00 0.000000000000000e+00 1.061250000000038e+01 2.787500000000867e+00 0.000000000000000e+00 1.082499999999898e+01 3.274999999997668e+00 0.000000000000000e+00 1.103749999999759e+01 3.762499999994468e+00 0.000000000000000e+00 1.076666666666475e+01 1.900000000002095e+00 0.000000000000000e+00 1.113333333333433e+01 1.499999999998911e+00 0.000000000000000e+00 1.177000000000000e+01 6.450000000000000e+00 0.000000000000000e+00 1.164000000000035e+01 5.900000000001491e+00 0.000000000000000e+00 1.151000000000059e+01 5.350000000002485e+00 0.000000000000000e+00 1.138000000000047e+01 4.800000000001989e+00 0.000000000000000e+00 5.500000000000000e+00 6.325000000000000e+00 0.000000000000000e+00 6.625000000000000e+00 6.200000000000000e+00 0.000000000000000e+00 6.375000000000000e+00 2.375000000000000e+00 0.000000000000000e+00 1.114999999998196e+00 7.500000000000000e-01 0.000000000000000e+00 1.629999999996392e+00 7.500000000000000e-01 0.000000000000000e+00 2.144999999994866e+00 7.500000000000000e-01 0.000000000000000e+00 2.659999999993617e+00 7.500000000000000e-01 0.000000000000000e+00 3.174999999992368e+00 7.500000000000000e-01 0.000000000000000e+00 3.689999999993339e+00 7.500000000000000e-01 0.000000000000000e+00 4.204999999994310e+00 7.500000000000000e-01 0.000000000000000e+00 4.719999999995837e+00 7.500000000000000e-01 0.000000000000000e+00 5.234999999997918e+00 7.500000000000000e-01 0.000000000000000e+00 6.300000000000000e+00 7.500000000000000e-01 0.000000000000000e+00 6.850000000000000e+00 7.500000000000000e-01 0.000000000000000e+00 7.400000000000000e+00 7.500000000000000e-01 0.000000000000000e+00 7.950000000000000e+00 7.500000000000000e-01 0.000000000000000e+00 9.131968328037775e+00 7.500000000000000e-01 0.00000000000000
[...]
<PointData Scalars="pressure_p1," Vectors="" Tensors="">
<DataArray type="Float64" Name="pressure_p1" format="ascii">
4.339885370293913e-01 3.632747644558730e+00 4.410463683211312e+00 5.239932226735385e+00 5.560433960695844e+00 5.034675325021560e+00 5.636734410503489e+00 6.063462617474858e+00 5.616343603228543e+00 6.287647721362696e+00 5.768389027920733e+00 6.197799013929670e+00 6.692880349231956e+00 6.248175068559689e+00 6.647784323785141e+00 6.621664627630691e+00 6.963769512094634e+00 6.896006531411146e+00 7.161551503134733e+00 7.726396002533090e+00 7.288357182076950e+00 7.237345286132891e+00 7.104213710507842e+00 6.969339595280702e+00 7.742063198330214e+00 8.567373429644332e+00 8.957839255445668e+00 8.804378146769231e+00 8.157308390203402e+00 7.624342790738957e+00 8.069994693347384e+00 8.813758046638126e+00 9.430296411680919e+00 9.387495941070950e+00 9.557570996721457e+00 7.844309754427169e+00 8.872091910373884e+00 1.004011089176603e+01 9.976614019080872e+00 9.443072660076311e+00 1.052685750249707e+01 1.126411462024084e+01 1.206332090339689e+01 1.262669211770386e+01 6.695873249747718e+00 4.249000435408668e+00 6.351417997764536e+00 2.384024605681756e+00 1.067805918082824e+01 1.137452776213100e+01 2.210802892763030e+00 1.166530997375487e+01 8.271384376176428e-01 7.611382727958573e-01 1.235083702265641e+01 1.229862137202879e+01 1.274692892016892e+00 2.441653270056883e+00 3.457540790942247e+00 5.180367908583515e+00 4.900933475009180e+00 5.059452648241631e+00 5.350191147510389e+00 5.952891747348654e+00 5.651062222716466e+00 5.585834535009838e+00 6.221888237145392e+00 6.719744455972290e+00 6.575371829587149e+00 6.986157621916581e+00 7.151107405455833e+00 6.311485919385361e+00 6.971338056648384e+00 7.016677946029012e+00 7.293897565825959e+00 7.546730721651150e+00 7.723008389752791e+00 6.705756354713826e+00 6.819481492584920e+00 6.768268309065632e+00 7.182520545670534e+00 6.961640555735441e+00 7.225658630639844e+00 7.391704947229330e+00 7.516232082314708e+00 8.108807264452928e+00 8.684969543549174e+00 9.109339382981277e+00 9.222609651459743e+00 9.330466171839719e+00 9.670181675312444e+00 9.677391193222338e+00 9.781032980075382e+00 1.039682664307719e+01 1.072245123469347e+01 1.199277191434250e+01 1.236660309858178e+01 9.638438071496395e+00 9.824302168880811e+00 9.981836352024560e+00 9.174072805800229e+00 8.910170695267999e+00 9.757395594933433e+00 9.417977941896252e+00 9.418721295679076e+00 4.379387179201770e+00 4.117121239634577e+00 4.850742777177491e+00 5.274479180373737e+00 5.683266479289907e+00 6.046933773139509e+00 6.410919580204409e+00 3.685683518868363e+00 3.203513261356291e+00 2.782084073133905e+00 2.395067321064984e+00 5.206635669271358e+00 4.819089328617125e+00 4.380160782622005e+00 3.888070252628840e+00 3.502568421945810e+00 1.025498151041711e+01 1.099278975139214e+01 1.104508973237725e+01 1.107671240341685e+01 1.089550648563666e+01 1.099046874060960e+01 1.147817666651405e+01 1.143207052175240e+01 1.137104951087181e+01 1.143879338455674e+01 6.272657554104102e+00 6.596869215720815e+00 8.117747332381102e+00 3.128329911366071e+00 3.677304117659245e+00 4.199611654268065e+00 4.698414996511977e+00 5.180121961138489e+00 5.632193168687505e+00 6.050418674428760e+00 6.441836065293829e+00 6.650059563949257e+00 7.982070818819593e+00 8.312382952902521e+00 8.611030194134047e+00 8.932000580688580e+00 1.001099685739569e+01 1.030047135391475e+01 1.072671105390273e+01 1.152292617126219e+01 1.261305322679350e+01 1.251979481368258e+01 1.253109189014365e+01 1.258709485388987e+01 1.255809865598519e+01 1.247524514185775e+01 1.252733002026928e+01 1.134725604893658e+01 1.039194428699599e+01 9.772038531686254e+00 9.134372429609925e+00 6.900246879991152e+00 6.780154652142142e+00 6.623325637747939e+00 6.424856295652222e+00 6.191126521701780e+00 5.883411196885603e+00 5.379647650523846e+00 4.845890917163107e+00 4.153494507239928e+00 3.053207967132479e+00 1.735734290227218e+00 7.486305506912423e-01 6.781489370041808e-01 5.101310541321017e-01 4.589001311281661e-01 4.184355257291226e-01 5.052923117141298e-01 5.177971841742962e-01 3.486097198833021e+00 3.915495684999990e+00 4.423129923422103e+00 5.099667264478179e+00 5.301735752989208e+00 6.549848621295327e+00 6.662381578586820e+00 4.837898965164883e+00 1.242748786961763e+01 3.018503211095603e+00 7.614524879627942e+00 1.005291929810620e+01 3.172821342346639e+00 6.734943701153960e+00 6.243985392843253e+00 4.603931387728191e+00 2.495325987608890e+00 1.264290815608941e+00 1.506374437569082e+00 1.914572405190011e+00 5.127245117904235e+00 6.038332731411924e+00 6.321890117268605e+00 6.118920254964974e+00 4.481145061863835e+00 6.638860631818623e+00 3.165411670030101e+00 3.853762321184472e+00 6.537656215458425e+00 3.898050590664055e+00 6.473483733017781e+00 6.002664575276660e+00 6.659827150706959e+00 6.850196214086059e+00 3.983778599182659e+00 4.531775740996963e+00 6.384589361406833e+00 6.525082425150187e+00 6.309226447540794e+00 6.857922824839173e+00 1.211579692784425e+00 2.177985269166573e+00 1.490042487757712e+00 3.255846945515046e+00 2.417199690857899e+00 3.174630993142752e+00 1.272157154619775e+00 9.911887863473785e-01 5.650070356894960e+00 5.293269609585093e+00 4.756159570817309e+00 4.208520004686575e+00 3.953144187209934e+00 6.045417518054250e+00 3.422786532559570e+00 4.619930632670393e+00 5.393751502980307e+00 5.163109466575819e+00 3.762351465470702e+00 5.666384111983773e+00 4.870955363717963e+00 4.436388866407820e+00 5.604603785628455e+00 4.200446956033239e+00 4.490913027512804e+00 5.195463329060636e+00 5.788054204121297e+00 4.921194724963505e+00 8.066749804537693e+00 8.450159610434312e+00 8.790921507961428e+00 7.666115314680482e+00 7.812335031987764e+00 8.297970188722251e+00 7.424866736552677e+00 8.166257536397962e+00 8.584563123390474e+00 8.306929891668293e+00 9.239805664324551e+00 9.466007870243727e+00 9.896678956894975e+00 1.008798206161630e+01 1.030964917354700e+01 1.008861052355496e+01 9.906274896547389e+00 1.056421173267609e+01 1.170235046372101e+01 1.171917429687412e+01 1.212229961993425e+01 1.144069533074344e+01 1.217957698434838e+01 1.169426503690882e+01 1.228759161625965e+01 1.044750120582436e+01 1.019789449739593e+01 1.057997596672752e+01 1.034925990155648e+01 1.220284204275973e+01 1.233482325191795e+01 7.601002607042537e+00 7.233986923957870e+00 9.508881316700453e+00 9.738295139363672e+00 1.004074764776009e+01 9.727145327057272e+00 1.048770192339949e+01 8.396602059288087e+00 8.585127519947255e+00 9.597761911344364e+00 1.016484253652195e+01 1.050738225496197e+01 1.006091093216371e+01 8.886952394996170e+00 9.187308123084609e+00 9.165789213195715e+00 8.193203721571916e+00 8.664821229238978e+00 1.064991976161502e+01 1.054636674324304e+01 9.789998036045246e+00 
</DataArray>
</PointData>
<CellData Scalars="pressure_p0,region_id," Vectors="velocity_p0," Tensors="">
<DataArray type="Float64" Name="pressure_p0" format="ascii">
7.244264771132276e-01 2.027416945921111e+00 3.098220846872149e+00 4.039496809789499e+00 4.428389292928995e+00 4.856794631993843e+00 5.524966565782417e+00 5.782140106246622e+00 4.654514424669438e+00 4.969838654765268e+00 5.251436957898701e+00 5.511141171657311e+00 5.646638811280686e+00 5.587117382651357e+00 5.759899137102471e+00 5.986455681076492e+00 5.616467239018826e+00 5.619438353814626e+00 5.629379455442062e+00 5.913800149057450e+00 6.427256771276840e+00 6.668391288989163e+00 5.846554919019021e+00 6.858780175604144e+00 6.913487771812432e+00 6.786077768637286e+00 6.833465086027182e+00 6.894312617772677e+00 6.935570122542921e+00 6.957550545633123e+00 6.862194660123850e+00 7.112141148150792e+00 7.511643568736885e+00 6.075166879034803e+00 6.556286171384223e+00 6.869001869123321e+00 7.208581817870769e+00 6.925385778231994e+00 7.406781688873540e+00 6.830279247497364e+00 7.134309144137511e+00 7.415301155441267e+00 7.401052334431137e+00 7.478157572352561e+00 7.532737894020451e+00 6.692874544574272e+00 6.736277344624884e+00 6.773765625584842e+00 6.809071730015581e+00 6.846526441915739e+00 6.869724845114774e+00 6.875551423079791e+00 6.967717101886153e+00 7.042189876387585e+00 7.094530903241991e+00 7.122212957299450e+00 6.840300810228221e+00 7.792873130014855e+00 8.249755085446170e+00 8.666842493474530e+00 8.846567177165083e+00 8.849827060754956e+00 8.859278711980853e+00 8.884518464849945e+00 8.916331562584286e+00 8.933758754591432e+00 9.068994262169509e+00 9.462853158887668e+00 9.834859263894685e+00 9.949788677152046e+00 9.968306346103248e+00 9.998680882346093e+00 1.023328896343897e+01 1.065801647934400e+01 1.106835750141940e+01 1.125427517476810e+01 1.128595576038275e+01 1.153022146994702e+01 1.203384427626962e+01 1.251465461316235e+01 9.515417256194377e+00 9.672283664202958e+00 9.818305071130702e+00 9.952656001115876e+00 9.376730806990524e+00 9.409651947291344e+00 8.873439164013661e+00 9.248429255677097e+00 9.423291410292601e+00 9.568755191012453e+00 9.828053732181081e+00 9.434062170487556e+00 9.433474328366815e+00 9.433529870480507e+00 7.106840315279885e+00 4.436437903189078e+00 4.356112663800336e+00 4.328665628086109e+00 4.605287393261407e+00 5.098597810686684e+00 5.541026028240772e+00 5.949300777458593e+00 6.331140043032381e+00 6.690815387721250e+00 4.078046519087723e+00 3.595930046305407e+00 3.165765805427693e+00 2.801683502014710e+00 2.561737284108418e+00 5.467466834074028e+00 5.113476825861065e+00 4.733268594977465e+00 4.336494296090629e+00 3.948007487628559e+00 3.654674189786355e+00 1.012114054051348e+01 1.044772200144974e+01 1.069671959212620e+01 1.086930398878830e+01 1.103377218225326e+01 1.119271755438340e+01 1.062722666750071e+01 1.065949356093245e+01 1.067736671476867e+01 1.133363858232118e+01 1.132662918463908e+01 1.131472929523098e+01 1.129950253997823e+01 1.128131273815529e+01 6.180476886313034e+00 6.351067242455590e+00 6.534416882359579e+00 6.730716279852662e+00 7.928891134360650e+00 8.436886199879954e+00 4.045724833739009e-01 3.817819698968916e+00 5.740342474843325e+00 7.035345268800925e-01 5.834125217151088e+00 5.824421164526952e+00 5.629801936548846e+00 6.953125192840556e+00 6.710842789273803e+00 4.534399508099624e+00 2.966305408176967e+00 4.236453868574978e-01 2.037788430460107e+00 2.306690133280634e+00 1.246606486232114e+00 1.194368543061356e+00 6.421373527905800e-01 3.150884587099226e+00 2.753767705434152e+00 1.632382123927627e+00 8.263022474451445e-01 2.313941093984154e+00 4.998876767111191e-01 9.146699115029753e-01 1.754766944977085e+00 1.361625257200680e+00 2.269351707235741e+00 2.734098821449880e+00 4.944252096446512e+00 4.864185982687171e+00 5.854974625422162e+00 6.311914040235971e+00 6.060191385889714e+00 6.123805714620074e+00 5.999044971835926e+00 4.607723677825205e+00 3.166051834570391e+00 2.512898959426124e+00 4.078345295653261e+00 4.265111986077380e+00 6.529573971007059e+00 6.427567563531741e+00 3.727865135641204e+00 3.384280884734139e+00 6.630552914092918e+00 6.202967276815071e+00 6.218570696192998e+00 4.859958650136992e+00 4.739281918392154e+00 4.210363337149880e+00 2.734584412250753e+00 5.306505911026066e+00 5.163149006455379e+00 6.704770250241022e+00 6.648323035115078e+00 5.359063346237607e+00 5.128740028423921e+00 3.641382099184015e+00 4.333162555554860e+00 4.079562987323091e+00 6.048565698563241e+00 6.349932452083161e+00 6.464965111966757e+00 6.560628556165418e+00 5.913393844246419e+00 5.928753453934791e+00 5.847739934844717e+00 6.685123283516408e+00 3.519161236865506e+00 3.384584449940736e+00 3.666858698236933e+00 6.342165602572920e+00 6.441586663558772e+00 6.158875512792797e+00 6.199882324936757e+00 6.121068482603174e+00 6.736877246481344e+00 6.746842665203770e+00 6.643105139824066e+00 6.592972875314194e+00 6.556136517730706e+00 6.814191578601910e+00 6.823810115712507e+00 6.844151252014642e+00 6.786293499559469e+00 6.894992270241303e+00 6.900562482358360e+00 5.345240279775672e+00 5.038028142094114e+00 4.738521602153144e+00 4.560259992989059e+00 4.267052895631169e+00 4.106579421195541e+00 3.795024683035358e+00 3.642858248757406e+00 3.345804587539910e+00 5.384403469989460e+00 5.271028736542361e+00 5.375628038162381e+00 5.290388214395720e+00 5.391602373620528e+00 5.127947465296211e+00 4.998733524280961e+00 5.328440107143370e+00 3.065947851984026e+00 3.491992040467465e+00 4.110976855804759e+00 4.093333203598117e+00 4.495758950454942e+00 4.304696715913556e+00 3.479953546711818e+00 3.639031987809315e+00 4.708166838104470e+00 4.770101795056657e+00 4.598766513705738e+00 4.317958924860808e+00 5.996187165973739e+00 6.692756009244769e+00 6.537183238460285e+00 6.607690234202483e+00 6.612344155262011e+00 6.449845478790778e+00 6.420247403599888e+00 6.305509814431982e+00 6.341572163583589e+00 6.292794565359392e+00 6.417837043491237e+00 6.486666215268664e+00 6.560072341233287e+00 6.450916930601809e+00 6.178663175681839e+00 6.171058306413943e+00 6.392548897063744e+00 6.091440255543941e+00 5.933486504032609e+00 6.433908485193863e+00 6.537228796357653e+00 6.434672099053349e+00 6.107228482861723e+00 6.739039889232962e+00 5.895096293761872e+00 5.579315618067842e+00 5.275415631583922e+00 4.964971763690064e+00 5.391009186254747e+00 5.271646965874668e+00 5.508033329261878e+00 7.270524879420957e+00 7.138067076658134e+00 7.057841152860609e+00 6.641142774897467e+00 6.875592540047993e+00 6.882101109911501e+00 6.941221147883686e+00 6.803006902788127e+00 6.787107773521251e+00 4.644671204904559e+00 4.855303386569588e+00 4.678976355950804e+00 5.427233981564829e+00 4.978189151667079e+00 4.786821124578269e+00 3.988794700053043e+00 4.221923124851096e-01 2.084549784103247e+00 2.330714355024404e+00 5.015996452401867e-01 9.025693862636307e-01 2.685536677018138e+00 1.718663233680372e+00 2.882119944053485e+00 1.952556358017247e+00 3.638426703910748e+00 3.737690218278037e+00 3.442750180481258e+00 3.468117993912421e+00 3.003793006522095e+00 2.597308056429758e+00 3.149201758405091e+00 3.628604733694412e+00 2.919775628713706e+00 2.291053017941219e+00 1.773724543536047e+00 9.204700891146659e-01 2.005444353948318e+00 1.333195966323178e+00 1.541382320917249e+00 1.483402438406768e+00 8.433700132655229e-01 7.443819854047636e-01 3.475663903105052e-01 1.189761764911615e+00 4.452318762238107e-01 6.598470020159118e+00 4.749573399312728e+00 5.790827710737529e+00 5.094720659041945e+00 5.016914069635565e+00 5.461431752334891e+00 5.564526447539662e+00 5.193495797199843e+00 5.440704150527000e+00 5.596154977771837e+00 6.026870262815385e+00 6.278472963724051e+00 5.853063214817985e+00 6.426872767808517e+00 2.853246745192059e+00 6.714049624832356e+00 6.586758690077779e+00 6.523307728525562e+00 6.517985670767326e+00 3.929165859671935e+00 6.300644714758931e+00 6.142697337200849e+00 3.133557084452722e+00 3.404141832044350e+00 6.254668014307940e+00 3.147599564354408e+00 4.848113315097650e+00 3.506613133063201e+00 3.854975238280093e+00 3.457575807319961e+00 3.713158148468004e+00 3.684046913246686e+00 5.951258024760739e+00 4.933759665775510e+00 4.532058448007439e+00 3.944941285470610e+00 4.451693441044712e+00 4.199018115075932e+00 4.061701590762427e+00 3.973841005859441e+00 4.347160581166561e+00 4.487283275195896e+00 4.701312356344571e+00 4.703194769879731e+00 4.233507790073643e+00 4.519043067139202e+00 4.294851248186376e+00 5.397220389806479e+00 5.737104594638417e+00 5.879416380771881e+00 5.757574792701227e+00 5.468067955269357e+00 5.036941119910505e+00 5.321495463011626e+00 5.605723849296092e+00 5.081750420848897e+00 4.938556779270676e+00 5.328419030362822e+00 5.466847176742385e+00 5.848162971290347e+00 5.863395901207758e+00 5.415723642867762e+00 5.612465347471007e+00 4.904772790681652e+00 5.159878131427694e+00 4.197843461815955e+00 4.421383077477221e+00 4.943353397991816e+00 4.689908243910820e+00 5.169954943253585e+00 4.661400241774782e+00 6.404970457312658e+00 6.013968129701315e+00 6.259709860457535e+00 6.753615361155330e+00 6.661292769887295e+00 6.557783681013797e+00 6.754971584784325e+00 6.731243254087338e+00 6.655027383085777e+00 6.918688586384565e+00 6.857765726663226e+00 6.569183966666110e+00 6.563370969607845e+00 6.397952169304779e+00 6.119516074930846e+00 7.246495242878971e+00 7.338807102170168e+00 7.238637481544314e+00 7.136974845572640e+00 7.015034741121783e+00 7.411071442365222e+00 9.181200304890295e+00 8.639324943083794e+00 8.708577417197606e+00 9.060601740021861e+00 8.786656255723539e+00 7.447684437064968e+00 8.948688252556094e+00 7.622570786572957e+00 7.849261814263647e+00 7.569822801457898e+00 7.777922136827069e+00 7.763759042578252e+00 8.968857041557984e+00 9.027576558762627e+00 8.190262125879299e+00 8.018243508253898e+00 8.063585051476156e+00 8.272915122482013e+00 8.520075797607221e+00 8.431131984376773e+00 8.582157940438046e+00 8.353512497200123e+00 7.935496252944630e+00 8.199909725244328e+00 7.461122883143856e+00 7.294331023672731e+00 7.566486191186515e+00 7.338469193610068e+00 7.453017671113415e+00 9.087494563325176e+00 8.827362724060700e+00 9.719069610984885e+00 8.124525729317918e+00 8.354332683989826e+00 8.139264622787650e+00 8.443990905528738e+00 8.388030189662855e+00 8.746701521276581e+00 8.535067613441825e+00 7.967891475222848e+00 8.777575895166811e+00 8.954267285207578e+00 9.381816758783744e+00 9.160779491837149e+00 9.033794171349406e+00 7.914146969723836e+00 7.741759529382077e+00 8.034231834509281e+00 8.655050710600214e+00 8.439439513186890e+00 8.312532472708316e+00 9.448256015370733e+00 9.410901868479348e+00 9.329049472137774e+00 9.585301223666962e+00 9.564863407909519e+00 8.700563897125306e+00 9.128190518084487e+00 9.022068157728485e+00 9.468300947052882e+00 9.590232508576783e+00 9.458036512972669e+00 9.298835079990891e+00 9.760383969654251e+00 9.690928566032326e+00 9.891642850435348e+00 9.823244645256148e+00 1.196725022902730e+01 1.108074751197515e+01 1.012606195856041e+01 1.041362245395552e+01 1.022972670592077e+01 9.887168619220876e+00 1.007200171063029e+01 9.979377831452247e+00 9.794584085343043e+00 9.705900112930335e+00 1.016758637367454e+01 1.002641445256910e+01 9.777692687395989e+00 9.848013775831980e+00 9.965726480323907e+00 9.809886760909425e+00 1.000509794691120e+01 9.903057033524091e+00 1.031024009749579e+01 1.019693102228070e+01 1.059214368688663e+01 1.046302242016103e+01 1.071218994278799e+01 1.073109032841837e+01 1.048999446541719e+01 1.038251872425628e+01 1.254918186436429e+01 1.245280107313616e+01 1.265592303133734e+01 1.162273386764406e+01 1.184908201035360e+01 1.150097983315030e+01 1.129890154069721e+01 1.129915479791525e+01 1.234864157768904e+01 1.199521278073900e+01 1.235131170972122e+01 1.255887747686693e+01 1.148905198329619e+01 1.162838307896508e+01 1.148525000885831e+01 1.148195082948368e+01 1.196238904662800e+01 1.165975476956310e+01 1.154526842331899e+01 1.161673161253320e+01 1.153445847738527e+01 1.186045169680955e+01 1.189892433955304e+01 1.204019396459550e+01 1.259494481479674e+01 1.238535911778877e+01 1.222245450067594e+01 1.258547099906422e+01 1.218925346342324e+01 1.187708072419455e+01 1.253550181597430e+01 1.226361986083768e+01 9.668866032077966e+00 9.814493254026543e+00 9.890498968952755e+00 1.084701074898809e+01 1.055316495628261e+01 1.017256189720661e+01 1.060806393757825e+01 1.070871070706925e+01 1.005038220728525e+01 1.009560646897164e+01 1.068001564096387e+01 1.055939642714865e+01 1.031334499526226e+01 1.045411442413524e+01 1.036500735995783e+01 1.047134440681073e+01 1.025310541702561e+01 1.022274516088158e+01 1.033376691354749e+01 1.042279033885216e+01 1.049516567043825e+01 1.183005397868971e+01 1.260708945892781e+01 1.244656209358230e+01 1.217135053672567e+01 1.211316981331748e+01 1.201050112789721e+01 1.200743167052027e+01 1.260593685758566e+01 1.216890617425084e+01 1.243212755563918e+01 1.242707669276787e+01 1.232110194742660e+01 1.228666433923865e+01 1.251457077775094e+01 1.236670493607675e+01 7.929273432535288e+00 7.692499515357113e+00 7.437784156517694e+00 7.730806676328077e+00 7.626801587940691e+00 8.308521005971850e+00 8.111286824762443e+00 6.915015373226531e+00 8.529651213595594e+00 6.885384896178623e+00 6.920917025149555e+00 6.849815279063184e+00 7.651619069983042e+00 7.502811312261715e+00 7.822686195967822e+00 7.74