<?xml version="1.0"?>
<VTKFile type="UnstructuredGrid" version="0.1" byte_order="LittleEndian">
<UnstructuredGrid>
<Piece NumberOfPoints="133" NumberOfCells="393">
<Points>
<DataArray type="Float64" NumberOfComponents="3" format="ascii">
0.0000000000 0.0000000000 -1.0000000000 1.0000000000 0.0000000000 -1.0000000000 1.0000000000 1.0000000000 -1.0000000000 0.0000000000 1.0000000000 -1.0000000000 0.0000000000 1.0000000000 0.0000000000 1.0000000000 1.0000000000 0.0000000000 0.0000000000 0.0000000000 0.0000000000 1.0000000000 0.0000000000 0.0000000000 0.2500000000 0.0000000000 0.0000000000 0.5000000000 0.0000000000 0.0000000000 0.7500000000 0.0000000000 0.0000000000 1.0000000000 0.2500000000 0.0000000000 1.0000000000 0.5000000000 0.0000000000 1.0000000000 0.7500000000 0.0000000000 0.7500000000 1.0000000000 0.0000000000 0.5000000000 1.0000000000 0.0000000000 0.2500000000 1.0000000000 0.0000000000 0.0000000000 0.7500000000 0.0000000000 0.0000000000 0.5000000000 0.0000000000 0.0000000000 0.2500000000 0.0000000000 0.2500000000 0.0000000000 -1.0000000000 0.5000000000 0.0000000000 -1.0000000000 0.7500000000 0.0000000000 -1.0000000000 1.0000000000 0.2500000000 -1.0000000000 1.0000000000 0.5000000000 -1.0000000000 1.0000000000 0.7500000000 -1.0000000000 0.7500000000 1.0000000000 -1.0000000000 0.5000000000 1.0000000000 -1.0000000000 0.2500000000 1.0000000000 -1.0000000000 0.0000000000 0.7500000000 -1.0000000000 0.0000000000 0.5000000000 -1.0000000000 0.0000000000 0.2500000000 -1.0000000000 0.0000000000 0.0000000000 -0.2500000000 0.0000000000 0.0000000000 -0.5000000000 0.0000000000 0.0000000000 -0.7500000000 1.0000000000 0.0000000000 -0.2500000000 1.0000000000 0.0000000000 -0.5000000000 1.0000000000 0.0000000000 -0.7500000000 1.0000000000 1.0000000000 -0.2500000000 1.0000000000 1.0000000000 -0.5000000000 1.0000000000 1.0000000000 -0.7500000000 0.0000000000 1.0000000000 -0.2500000000 0.0000000000 1.0000000000 -0.5000000000 0.0000000000 1.0000000000 -0.7500000000 0.5010954034 0.4989045966 0.0000000000 0.7215998861 0.7213564631 0.0000000000 0.2758949211 0.7244296429 0.0000000000 0.7214781746 0.2785218254 0.0000000000 0.2758934185 0.2752713375 0.0000000000 0.5015957729 0.8075422341 0.0000000000 0.1939047803 0.4998782885 0.0000000000 0.8092732420 0.4998647650 0.0000000000 0.5015822494 0.1922008194 0.0000000000 0.8581138699 0.8580732994 0.0000000000 0.1414685980 0.8585854960 0.0000000000 0.8580935847 0.1419064153 0.0000000000 0.1414683475 0.1413646674 0.0000000000 1.0000000000 0.4973897095 -0.4998377180 1.0000000000 0.2736533657 -0.2736533657 1.0000000000 0.7214781746 -0.2785218254 1.0000000000 0.2785218254 -0.7214781746 1.0000000000 0.7214781746 -0.7214781746 1.0000000000 0.1923225309 -0.5014605379 1.0000000000 0.5014605379 -0.1923225309 1.0000000000 0.5000000000 -0.8091380071 1.0000000000 0.8088479748 -0.4999819687 1.0000000000 0.1440972222 -0.1440972222 1.0000000000 0.1419064153 -0.8580935847 1.0000000000 0.8580935847 -0.1419064153 1.0000000000 0.8580935847 -0.8580935847 0.5000000000 1.0000000000 -0.5000000000 0.7214781746 1.0000000000 -0.2785218254 0.7214781746 1.0000000000 -0.7214781746 0.2755823780 1.0000000000 -0.2785218254 0.2755823780 1.0000000000 -0.7214781746 0.4996733947 1.0000000000 -0.1908619929 0.8091380071 1.0000000000 -0.5000000000 0.4996733947 1.0000000000 -0.8091380071 0.1937830688 1.0000000000 -0.5000000000 0.8580935847 1.0000000000 -0.1419064153 0.8580935847 1.0000000000 -0.8580935847 0.1414165074 1.0000000000 -0.1419064153 0.1414165074 1.0000000000 -0.8580935847 0.0000000000 0.5001786123 -0.4977306037 0.0000000000 0.7214781746 -0.2785218254 0.0000000000 0.7234071869 -0.7234071869 0.0000000000 0.2785218254 -0.2785218254 0.0000000000 0.2785218254 -0.7214781746 0.0000000000 0.5000000000 -0.1908619929 0.0000000000 0.8093523418 -0.5002143347 0.0000000000 0.5002341805 -0.8091001866 0.0000000000 0.1908619929 -0.5000000000 0.0000000000 0.8580935847 -0.1419064153 0.0000000000 0.8559027778 -0.8559027778 0.0000000000 0.1419064153 -0.1419064153 0.0000000000 0.1419064153 -0.8580935847 0.4963198221 0.4990398316 -1.0000000000 0.7210692659 0.7213714892 -1.0000000000 0.2785218254 0.7214781746 -1.0000000000 0.7214781746 0.2785218254 -1.0000000000 0.2754200960 0.2786841074 -1.0000000000 0.4995456570 0.8090194677 -1.0000000000 0.1923225309 0.5014605379 -1.0000000000 0.8086836641 0.4998814607 -1.0000000000 0.4992464547 0.1907733389 -1.0000000000 0.8580254332 0.8580758038 -1.0000000000 0.1419064153 0.8580935847 -1.0000000000 0.8580935847 0.1419064153 -1.0000000000 0.1413894604 0.1419334623 -1.0000000000 0.5010954034 0.0000000000 -0.4962101031 0.2785218254 0.0000000000 -0.2755823780 0.2786435369 0.0000000000 -0.7210570750 0.7214781746 0.0000000000 -0.2755823780 0.7214781746 0.0000000000 -0.7214781746 0.1909972279 0.0000000000 -0.4992055062 0.5000000000 0.0000000000 -0.1937830688 0.8092597185 0.0000000000 -0.4992522951 0.5001352350 0.0000000000 -0.8086701186 0.1419064153 0.0000000000 -0.1414165074 0.8580935847 0.0000000000 -0.1414165074 0.1419267006 0.0000000000 -0.8580234014 0.8580935847 0.0000000000 -0.8580935847 0.4234874845 0.3355875015 -0.4113875031 0.4234874845 0.6765124798 -0.4113875031 0.7644125223 0.6765124798 -0.4113875031 0.4234874845 0.6765124798 -0.7523125410 0.7230534657 0.3029574597 -0.3603107804 0.7644125223 0.6765124798 -0.7523125410 0.7644125223 0.3355875015 -0.7523125410 0.3640021351 0.3034018227 -0.7180358234 0.1677937210 0.2503562570 -0.1556937397 0.8203564444 0.1732932485 -0.1938638181 0.1766355027 0.2000173281 -0.8076732735 
</DataArray>
</Points>
<Cells>
<DataArray type="UInt32" Name="connectivity" format="ascii">
97 26 101 98 29 102 99 23 103 20 104 100 97 103 25 99 104 22 98 101 28 100 102 31 26 27 101 29 30 102 23 24 103 20 21 104 27 28 101 31 102 30 24 25 103 21 22 104 96 97 101 98 96 101 98 102 96 96 103 97 100 96 102 99 103 96 99 96 104 100 104 96 97 105 26 98 106 29 99 107 23 20 100 108 97 25 105 99 22 107 98 28 106 100 31 108 2 26 105 3 29 106 3 106 28 2 105 25 0 108 31 1 107 22 1 23 107 0 20 108 68 53 13 5 92 4 81 41 118 130 110 32 57 63 124 126 15 75 14 49 73 89 123 84 35 131 66 58 106 74 98 28 131 119 10 112 119 55 10 7 93 85 29 98 25 97 127 105 22 104 21 117 73 75 46 123 84 73 46 123 106 82 28 3 124 127 122 123 100 132 102 31 26 97 72 77 64 23 60 128 64 25 103 127 26 27 101 77 125 101 98 77 2 25 69 105 104 132 129 100 97 26 101 77 73 16 81 46 57 62 126 60 128 23 60 67 44 46 49 123 121 37 1 67 128 57 126 60 97 127 72 77 14 53 45 71 53 59 45 71 61 64 57 127 92 17 84 46 96 128 99 103 14 75 71 49 70 76 71 124 111 132 20 120 68 53 5 79 109 110 122 114 57 64 128 127 14 53 71 79 74 43 82 93 96 102 125 98 59 38 79 68 116 126 113 109 62 116 37 36 127 128 122 125 25 64 103 24 128 127 96 125 82 74 93 106 95 0 31 108 70 124 71 123 74 85 98 125 8 52 115 48 75 70 71 123 78 74 70 123 86 88 19 130 23 128 107 67 88 84 123 83 128 127 122 124 104 22 99 117 51 44 124 126 94 86 19 130 63 51 124 126 128 67 60 113 44 123 122 50 4 92 81 54 92 4 17 54 16 4 81 54 55 131 11 66 129 109 117 113 59 76 124 71 33 34 91 114 44 46 123 50 89 43 42 78 129 91 114 122 126 116 112 109 38 65 59 76 94 86 130 32 57 62 58 126 56 130 48 8 19 130 50 48 116 62 58 35 51 44 45 124 98 101 28 77 62 116 58 126 73 92 81 41 33 91 32 114 101 27 28 77 82 106 93 3 59 65 124 76 87 132 95 31 104 129 99 96 74 85 93 98 128 107 113 99 104 100 129 96 100 132 129 102 89 73 123 78 37 62 60 113 107 22 113 99 121 22 113 107 52 9 8 115 106 93 29 98 101 96 125 98 59 53 79 71 91 86 32 114 20 132 100 108 52 9 115 10 53 59 79 68 70 127 123 125 18 88 17 50 67 37 60 113 38 59 79 71 59 38 76 71 128 129 122 125 63 57 58 126 19 94 56 6 120 20 0 108 99 22 113 117 73 78 70 123 132 120 108 20 43 82 93 3 131 63 58 126 127 70 124 72 90 102 30 29 126 52 122 115 94 130 19 56 56 118 8 6 70 74 125 123 89 74 43 78 23 107 1 67 129 100 102 96 23 64 103 128 129 111 117 109 130 19 56 48 75 16 73 46 90 129 125 83 85 90 125 83 92 73 84 41 44 48 50 122 110 109 122 115 89 42 41 78 17 88 84 46 70 76 124 72 85 74 89 125 73 89 84 41 73 92 84 46 132 95 31 108 72 61 80 40 61 69 80 40 130 56 118 8 59 124 45 71 21 104 20 117 59 63 124 57 74 85 89 43 104 111 20 117 74 98 28 77 25 61 127 64 128 23 107 99 25 97 103 127 127 128 96 103 97 127 96 103 131 63 11 58 59 65 57 124 57 128 126 124 128 64 103 127 61 65 124 57 92 73 81 46 116 62 37 113 116 62 35 36 131 119 112 35 126 44 124 122 121 22 107 1 44 47 126 51 23 128 103 99 74 125 98 77 127 70 123 124 75 73 70 123 48 130 50 122 124 44 123 122 74 70 125 77 129 102 125 96 74 85 43 93 129 128 96 125 88 83 123 122 121 37 67 113 64 57 128 60 129 83 122 125 127 125 122 123 125 83 122 123 119 131 10 55 51 63 13 12 16 15 49 75 74 82 28 106 110 130 122 114 24 64 103 23 16 75 49 46 46 75 49 123 131 47 10 55 5 53 14 79 132 100 108 31 92 46 81 54 128 57 127 124 130 110 122 115 46 16 81 54 131 47 55 11 131 126 112 115 38 68 5 79 111 132 120 34 132 87 95 34 123 88 122 50 61 65 40 76 38 65 76 39 69 2 80 40 76 65 40 39 17 92 54 46 106 93 3 29 111 132 114 129 126 128 122 124 88 130 122 50 106 74 93 98 107 121 1 67 129 128 99 96 90 129 102 125 76 61 72 40 45 124 49 71 61 127 72 80 84 89 123 83 2 69 80 105 44 52 48 122 61 57 124 127 17 88 46 50 130 118 110 8 73 89 41 78 45 14 71 49 55 66 11 7 131 58 11 66 26 2 80 105 67 113 107 121 107 113 67 128 74 89 123 78 123 89 74 125 127 77 70 72 70 77 127 125 131 35 55 119 55 35 131 66 35 7 55 119 55 7 35 66 61 76 124 65 124 49 44 45 44 49 124 123 115 48 122 130 122 48 115 52 126 115 109 112 109 115 126 122 113 62 126 116 90 125 98 85 98 125 90 102 90 98 29 85 29 98 90 102 51 124 59 63 59 124 51 45 51 59 13 63 13 59 51 45 59 53 13 68 13 53 59 45 99 117 129 104 111 129 104 132 104 129 111 117 51 11 63 12 114 129 109 111 114 109 129 122 129 113 99 128 99 113 129 117 8 130 115 110 115 130 8 48 50 19 88 130 50 88 19 18 132 20 104 111 104 20 132 100 77 97 125 101 77 125 97 127 125 97 96 101 125 96 97 127 102 31 90 30 130 32 56 94 56 32 130 118 32 6 56 94 56 6 32 118 130 114 32 86 32 114 130 110 129 90 87 83 86 114 122 130 122 114 86 91 83 122 86 91 80 61 105 69 80 105 61 127 105 61 25 69 105 25 61 127 49 71 123 75 123 71 49 124 34 132 108 95 34 108 132 120 0 34 108 95 0 108 34 120 89 125 83 85 83 125 89 123 126 60 113 128 113 60 126 62 52 126 44 47 44 126 52 122 129 91 83 87 83 91 129 122 123 88 46 84 123 46 88 50 124 72 61 127 61 72 124 76 127 80 97 72 97 80 127 105 80 26 97 72 97 26 80 105 132 114 34 111 47 126 63 131 63 126 47 51 47 63 11 131 11 63 47 51 10 115 131 112 87 129 114 132 114 129 87 91 87 114 34 132 34 114 87 91 126 113 122 128 122 113 126 109 113 129 122 128 122 129 113 109 131 35 116 58 116 35 131 112 131 116 126 58 126 116 131 112 88 86 122 130 122 86 88 83 87 129 102 90 102 129 87 132 87 102 31 90 31 102 87 132 126 52 131 47 131 52 126 115 52 10 131 47 131 10 52 115 
</DataArray>
<DataArray type="UInt32" Name="offsets" format="ascii">
3 6 9 12 15 18 21 24 27 30 33 36 39 42 45 48 51 54 57 60 63 66 69 72 75 78 81 84 87 90 93 96 99 102 105 108 111 114 117 120 124 128 132 136 140 144 148 152 156 160 164 168 172 176 180 184 188 192 196 200 204 208 212 216 220 224 228 232 236 240 244 248 252 256 260 264 268 272 276 280 284 288 292 296 300 304 308 312 316 320 324 328 332 336 340 344 348 352 356 360 364 368 372 376 380 384 388 392 396 400 404 408 412 416 420 424 428 432 436 440 444 448 452 456 460 464 468 472 476 480 484 488 492 496 500 504 508 512 516 520 524 528 532 536 540 544 548 552 556 560 564 568 572 576 580 584 588 592 596 600 604 608 612 616 620 624 628 632 636 640 644 648 652 656 660 664 668 672 676 680 684 688 692 696 700 704 708 712 716 720 724 728 732 736 740 744 748 752 756 760 764 768 772 776 780 784 788 792 796 800 804 808 812 816 820 824 828 832 836 840 844 848 852 856 860 864 868 872 876 880 884 888 892 896 900 904 908 912 916 920 924 928 932 936 940 944 948 952 956 960 964 968 972 976 980 984 988 992 996 1000 1004 1008 1012 1016 1020 1024 1028 1032 1036 1040 1044 1048 1052 1056 1060 1064 1068 1072 1076 1080 1084 1088 1092 1096 1100 1104 1108 1112 1116 1120 1124 1128 1132 1136 1140 1144 1148 1152 1156 1160 1164 1168 1172 1176 1180 1184 1188 1192 1196 1200 1204 1208 1212 1216 1220 1224 1228 1232 1236 1240 1244 1248 1252 1256 1260 1264 1268 1272 1276 1280 1284 1288 1292 1296 1300 1304 1308 1312 1316 1320 1324 1328 1332 1336 1340 1344 1348 1352 1356 1360 1364 1368 1372 1376 1380 1384 1388 1392 1396 1400 1404 1408 1412 1416 1420 1424 1428 1432 1436 1440 1444 1448 1452 1456 1460 1464 1468 1472 1476 1480 1484 1488 1492 1496 1500 1504 1508 1512 1516 1520 1524 1528 1532 
</DataArray>
<DataArray type="UInt32" Name="types" format="ascii">
5 5 5 5 5 5 5 5 5 5 5 5 5 5 5 5 5 5 5 5 5 5 5 5 5 5 5 5 5 5 5 5 5 5 5 5 5 5 5 5 10 10 10 10 10 10 10 10 10 10 10 10 10 10 10 10 10 10 10 10 10 10 10 10 10 10 10 10 10 10 10 10 10 10 10 10 10 10 10 10 10 10 10 10 10 10 10 10 10 10 10 10 10 10 10 10 10 10 10 10 10 10 10 10 10 10 10 10 10 10 10 10 10 10 10 10 10 10 10 10 10 10 10 10 10 10 10 10 10 10 10 10 10 10 10 10 10 10 10 10 10 10 10 10 10 10 10 10 10 10 10 10 10 10 10 10 10 10 10 10 10 10 10 10 10 10 10 10 10 10 10 10 10 10 10 10 10 10 10 10 10 10 10 10 10 10 10 10 10 10 10 10 10 10 10 10 10 10 10 10 10 10 10 10 10 10 10 10 10 10 10 10 10 10 10 10 10 10 10 10 10 10 10 10 10 10 10 10 10 10 10 10 10 10 10 10 10 10 10 10 10 10 10 10 10 10 10 10 10 10 10 10 10 10 10 10 10 10 10 10 10 10 10 10 10 10 10 10 10 10 10 10 10 10 10 10 10 10 10 10 10 10 10 10 10 10 10 10 10 10 10 10 10 10 10 10 10 10 10 10 10 10 10 10 10 10 10 10 10 10 10 10 10 10 10 10 10 10 10 10 10 10 10 10 10 10 10 10 10 10 10 10 10 10 10 10 10 10 10 10 10 10 10 10 10 10 10 10 10 10 10 10 10 10 10 10 10 10 10 10 10 10 10 10 10 10 10 10 10 10 10 10 10 10 10 10 10 10 10 10 10 10 10 10 10 10 10 10 10 10 10 10 10 
</DataArray>
</Cells>
<PointData Scalars="pressure_p0," Vectors="velocity_p0," Tensors="anisotropy,">
<DataArray type="Float64" Name="pressure_p0" format="ascii">
-1.5117620079 -1.5064667915 -1.5059182479 -1.5052610613 -0.0013511143 -0.0012465348 -0.0008228800 -0.0006634369 -0.0056279754 -0.0031865930 -0.0052349429 -0.0050799338 -0.0033040776 -0.0039691734 -0.0042445392 -0.0033074990 -0.0040997662 -0.0045417775 -0.0036068655 -0.0052306470 -1.7418863378 -2.2301225314 -1.9422188362 -1.7384855751 -2.2341036477 -1.7414138173 -1.9817862420 -2.2180463308 -1.9425540213 -1.9801067062 -2.2303068769 -1.7340656755 -0.0085146859 -0.0130084145 -0.1682399835 -0.0072062515 -0.0130373770 -0.0552385162 -0.0072858548 -0.0128108530 -0.0560211960 -0.0082847595 -0.0143110313 -0.0582067556 -0.0567070364 -0.0187756409 -0.0175853903 -0.0159360494 -0.0188902192 -0.0281744504 -0.0308390138 -0.0239794639 -0.0255183202 -0.0045552418 -0.0026271064 -0.0027505641 -0.0028848697 -0.1356924281 -0.0262516320 -0.0191478882 -0.1882576950 -0.2223296895 -0.0521092822 -0.0262013828 -0.5107768299 -0.0392815398 -0.0035904331 -0.3268548433 -0.0024821953 -0.2905010789 -0.1801045809 -0.0320035509 -0.3230561787 -0.0290268836 -0.3581575397 -0.0231345760 -0.0483973623 -0.7605337688 -0.0551081700 -0.0036568232 -0.4677284852 -0.0037829605 -0.2895609924 -0.2039253948 -0.0326697886 -0.4015741765 -0.0368049866 -0.3255804512 -0.0390053765 -0.1028845956 -0.6797011204 -0.0915609586 -0.0050667990 -0.4521378577 -0.0039513581 -0.3537243053 -2.3099072839 -1.8831719927 -1.7237496130 -1.9947994161 -2.3766824734 -2.2893196736 -1.8515046029 -2.0910491600 -1.9223081700 -1.5435226002 -1.6748026244 -1.5332275727 -1.4897407661 -0.1252855400 -0.0299944856 -0.3636226165 -0.0234994913 -0.3432123590 -0.1018385618 -0.0298644341 -0.0375077851 -0.6529387000 -0.0044429024 -0.0033912262 -0.3635503520 -0.2873395545 -0.1710412677 -0.1247326890 -0.1193983333 -0.7626536227 -0.0880438428 -0.6337483211 -0.6605770732 -0.6798123864 -0.0181134769 -0.0143218607 -0.6355586599 
</DataArray>
<DataArray type="Float64" Name="velocity_p0" NumberOfComponents="3" format="ascii">
0.6280693225 0.6265919223 -1.1226331688 -0.6318280644 0.6302940920 -1.1112470756 -0.6232070551 -0.6281669766 -1.1107848337 0.6254516054 -0.6196125511 -1.1090387403 0.0076945261 -0.0076886888 -0.2077153979 -0.0070228762 -0.0070084219 -0.2071115756 0.0057380717 0.0056078170 -0.2058506137 -0.0048703756 0.0047676885 -0.2048535485 0.0067833541 0.0166240723 -0.2194700592 0.0007762181 0.0198944122 -0.2197383111 -0.0054554358 0.0173743056 -0.2178703198 -0.0170472109 0.0060795751 -0.2178118373 -0.0207928280 0.0006827961 -0.2206146366 -0.0189590609 -0.0035221761 -0.2174177867 -0.0040844324 -0.0199393552 -0.2182555867 0.0010691133 -0.0206197579 -0.2208029253 0.0028521957 -0.0170860420 -0.2188809981 0.0193676498 -0.0039702883 -0.2212921601 0.0223214980 0.0003202520 -0.2226771507 0.0195324265 0.0047882515 -0.2207548718 0.1457615414 0.8474131729 -1.0766455294 -0.0375324181 1.1583046418 -1.1623658509 -0.0800793273 0.9243432645 -1.1088012727 -0.8195862729 0.1113740183 -1.0410909035 -1.1738898692 -0.0007452054 -1.1584694976 -0.8359533155 -0.1023312863 -1.0608153267 -0.1030002792 -0.9265121336 -1.1343343318 0.0070629020 -1.1028385134 -1.1761439633 0.0688517457 -0.9271601073 -1.1050917274 0.9150376646 -0.1027758042 -1.1377998632 1.1506192063 -0.0353885424 -1.1626446248 0.8635038580 0.1303857213 -1.0832981116 0.0273149853 0.0263785550 -0.2174493765 0.0817434891 0.0817033870 -0.2235477377 0.3276832577 0.3123578738 -0.4747514250 -0.0253211868 0.0256149455 -0.2146386680 -0.0821885760 0.0812396290 -0.2237569311 -0.2809351854 0.3068650621 -0.3498817456 -0.0317299807 -0.0294726128 -0.2145606737 -0.0805432041 -0.0804233653 -0.2251061060 -0.3112877410 -0.2844644164 -0.3540053349 0.0345791612 -0.0370467620 -0.2171966664 0.0886448274 -0.0900744483 -0.2251198809 0.2940502115 -0.3197640432 -0.3523533090 -0.0032124526 -0.0009481612 -0.2860635929 -0.0171985003 -0.0118896904 -0.2365778726 0.0119434933 -0.0152980215 -0.2316033985 -0.0135615889 0.0139021499 -0.2331471624 0.0114253807 0.0127760609 -0.2348307240 -0.0014775000 -0.0249033057 -0.2458106105 0.0171103208 0.0021985372 -0.2506921212 -0.0267191760 -0.0011120436 -0.2401473162 -0.0015581034 0.0199918108 -0.2423047879 -0.0107160183 -0.0094494935 -0.2113701492 0.0050450790 -0.0051353929 -0.2144113022 -0.0047389780 0.0052252538 -0.2081683529 0.0064944956 0.0039401738 -0.2100549115 -0.2369878210 -0.0034718895 -0.3555329371 -0.0581175231 0.0224208565 -0.2444591871 -0.0403398425 -0.0189828185 -0.2298262529 -0.4842727663 0.1092963128 -0.4377488281 -0.4717717646 -0.1765809493 -0.5041746441 -0.1209763994 0.0923742931 -0.2688282122 -0.0450208193 0.0009589327 -0.2389625730 -1.1052293285 -0.0111131485 -1.0299158615 -0.1349191329 -0.0470868297 -0.2519071887 -0.0118967180 0.0054819954 -0.2084425264 -0.7197641798 0.4058678026 -0.8407175144 -0.0136085134 -0.0044004563 -0.2052185384 -0.9535205101 -0.3502853289 -1.0098905972 -0.0116366701 -0.2230216172 -0.4031844653 -0.0153134097 -0.0465539830 -0.2449246249 -0.1550486276 -0.4544358974 -0.5937405616 0.0228565715 -0.0485562644 -0.2442199227 0.2010006426 -0.4656632048 -0.6623224479 0.0042974739 -0.0410614245 -0.2380952625 -0.0913804187 -0.0974442493 -0.2660624095 0.0048695995 -0.9516892891 -1.2262638032 0.0549170334 -0.1478619175 -0.2684330468 -0.0111740533 -0.0117778666 -0.2055281227 -0.4272576901 -0.6575524100 -0.9944469872 0.0047950526 -0.0129679382 -0.2121171103 0.3479399837 -0.9493975409 -1.0052112958 0.2019110934 -0.0041426842 -0.4191928218 0.0500116133 -0.0197741038 -0.2447240697 0.5224248962 -0.1796326772 -0.6852563651 0.0572555014 0.0258791763 -0.2569363949 0.5723537476 0.0661445112 -0.5816359511 0.0414971568 0.0016892590 -0.2564435716 0.1025144891 -0.0997316662 -0.3230396041 0.9791431855 -0.0241678316 -1.1595231858 0.1260271045 0.0648782265 -0.2963033121 0.0121778554 -0.0108984385 -0.2124514418 0.7386637073 -0.4631100407 -1.0480704371 0.0148140183 0.0044521580 -0.2114132939 0.9918263621 0.3257000297 -1.0492081036 -0.0404531690 -0.0022834098 -0.8762583295 -0.1453521467 -0.4006407077 -0.9671384309 0.3442242145 -0.3281593925 -0.9534215925 -0.1039897279 0.3544778019 -0.9440669337 0.1923787585 0.2015940022 -0.9754222201 0.0295525402 -0.6127538101 -0.9820447948 0.5874372391 0.0463023724 -0.9742545683 -0.5872971899 0.0008465333 -0.9750164272 0.0690285246 0.6420323865 -0.9625235872 -0.5771988030 -0.3981699665 -1.0657155381 0.4425251812 -0.6222795687 -1.0675844054 -0.4071681827 0.5265386335 -1.0428582966 0.5068617267 0.4888182064 -1.0537425098 0.0111951836 0.2287035518 -0.3524408286 0.0132953903 0.0563261885 -0.2403961544 0.0693776511 0.6645987764 -0.6425993147 -0.0143018720 0.0560832776 -0.2336343150 -0.1703071984 0.3952393645 -0.6168997356 0.0976871165 0.1242425996 -0.3175315961 0.0005584125 0.0387998561 -0.2434946227 -0.0482404973 0.0957762589 -0.2467851381 -0.0064138676 1.1236327866 -1.2299089916 0.0067604914 0.0117111237 -0.2105731256 -0.0054737936 0.0116765659 -0.2073580642 0.3561806371 0.9740779637 -1.0490875758 -0.3411699594 0.9384431404 -1.0103228711 0.0148469228 0.0445482243 -0.3669485811 0.0224012700 -0.0706756536 -0.3223660084 -0.0890994055 -0.0467836657 -0.3204877921 0.1298624410 -0.1734614560 -0.8247771449 -0.0662554774 0.0572768124 -0.2920688342 -0.3150886521 -0.1705252889 -0.8167734708 -0.3641633416 0.1117934081 -0.8386785578 0.1419281229 0.2328039093 -0.7728915366 0.0160174416 0.0192272592 -0.2274149450 -0.0163236893 0.0184293026 -0.2221788947 0.4198610824 0.4185738864 -1.0045699575 
</DataArray>
<DataArray type="Float64" Name="anisotropy" NumberOfComponents="9" format="ascii">