<?xml version="1.0"?>
<VTKFile type="UnstructuredGrid" version="0.1" byte_order="LittleEndian">
<UnstructuredGrid>
<Piece NumberOfPoints="322" NumberOfCells="1444">
<Points>
<DataArray type="Float64" NumberOfComponents="3" format="ascii">
0.000000000000000e+00 0.000000000000000e+00 0.000000000000000e+00 1.000000000000000e+00 0.000000000000000e+00 0.000000000000000e+00 1.000000000000000e+00 1.000000000000000e+00 0.000000000000000e+00 0.000000000000000e+00 1.000000000000000e+00 0.000000000000000e+00 0.000000000000000e+00 1.000000000000000e+00 1.000000000000000e+00 1.000000000000000e+00 1.000000000000000e+00 1.000000000000000e+00 0.000000000000000e+00 0.000000000000000e+00 1.000000000000000e+00 1.000000000000000e+00 0.000000000000000e+00 1.000000000000000e+00 5.000000000000000e-01 5.000000000000000e-01 0.000000000000000e+00 5.000000000000000e-01 5.000000000000000e-01 1.000000000000000e+00 0.000000000000000e+00 8.000000000002776e-01 0.000000000000000e+00 0.000000000000000e+00 6.000000000009714e-01 0.000000000000000e+00 0.000000000000000e+00 4.000000000012490e-01 0.000000000000000e+00 0.000000000000000e+00 2.000000000008326e-01 0.000000000000000e+00 1.249999999996999e-01 1.249999999996999e-01 0.000000000000000e+00 2.499999999995108e-01 2.499999999995108e-01 0.000000000000000e+00 3.749999999996687e-01 3.749999999996687e-01 0.000000000000000e+00 3.750000000000868e-01 6.249999999999133e-01 0.000000000000000e+00 2.500000000003469e-01 7.499999999996531e-01 0.000000000000000e+00 1.250000000002602e-01 8.749999999997398e-01 0.000000000000000e+00 1.999999999995199e-01 1.000000000000000e+00 0.000000000000000e+00 3.999999999991729e-01 1.000000000000000e+00 0.000000000000000e+00 5.999999999991480e-01 1.000000000000000e+00 0.000000000000000e+00 7.999999999994699e-01 1.000000000000000e+00 0.000000000000000e+00 8.750000000000000e-01 8.750000000000000e-01 0.000000000000000e+00 7.500000000000000e-01 7.500000000000000e-01 0.000000000000000e+00 6.250000000000000e-01 6.250000000000000e-01 0.000000000000000e+00 6.249999999999133e-01 3.750000000000868e-01 0.000000000000000e+00 7.499999999996531e-01 2.500000000003469e-01 0.000000000000000e+00 8.749999999997398e-01 1.250000000002602e-01 0.000000000000000e+00 1.000000000000000e+00 1.999999999995199e-01 0.000000000000000e+00 1.000000000000000e+00 3.999999999991729e-01 0.000000000000000e+00 1.000000000000000e+00 5.999999999991480e-01 0.000000000000000e+00 1.000000000000000e+00 7.999999999994699e-01 0.000000000000000e+00 8.000000000002776e-01 0.000000000000000e+00 0.000000000000000e+00 6.000000000009714e-01 0.000000000000000e+00 0.000000000000000e+00 4.000000000012490e-01 0.000000000000000e+00 0.000000000000000e+00 2.000000000008326e-01 0.000000000000000e+00 0.000000000000000e+00 0.000000000000000e+00 0.000000000000000e+00 1.999999999995199e-01 0.000000000000000e+00 0.000000000000000e+00 3.999999999991729e-01 0.000000000000000e+00 0.000000000000000e+00 5.999999999991480e-01 0.000000000000000e+00 0.000000000000000e+00 7.999999999994699e-01 0.000000000000000e+00 1.999999999995199e-01 1.000000000000000e+00 0.000000000000000e+00 3.999999999991729e-01 1.000000000000000e+00 0.000000000000000e+00 5.999999999991480e-01 1.000000000000000e+00 0.000000000000000e+00 7.999999999994699e-01 1.000000000000000e+00 0.000000000000000e+00 1.000000000000000e+00 1.999999999995199e-01 0.000000000000000e+00 1.000000000000000e+00 3.999999999991729e-01 0.000000000000000e+00 1.000000000000000e+00 5.999999999991480e-01 0.000000000000000e+00 1.000000000000000e+00 7.999999999994699e-01 1.249999999996999e-01 1.249999999996999e-01 1.000000000000000e+00 2.499999999995108e-01 2.499999999995108e-01 1.000000000000000e+00 3.749999999996687e-01 3.749999999996687e-01 1.000000000000000e+00 3.750000000000868e-01 6.249999999999133e-01 1.000000000000000e+00 2.500000000003469e-01 7.499999999996531e-01 1.000000000000000e+00 1.250000000002602e-01 8.749999999997398e-01 1.000000000000000e+00 1.999999999995199e-01 1.000000000000000e+00 1.000000000000000e+00 3.999999999991729e-01 1.000000000000000e+00 1.000000000000000e+00 5.999999999991480e-01 1.000000000000000e+00 1.000000000000000e+00 7.999999999994699e-01 1.000000000000000e+00 1.000000000000000e+00 8.750000000000000e-01 8.750000000000000e-01 1.000000000000000e+00 7.500000000000000e-01 7.500000000000000e-01 1.000000000000000e+00 6.250000000000000e-01 6.250000000000000e-01 1.000000000000000e+00 6.249999999999133e-01 3.750000000000868e-01 1.000000000000000e+00 7.499999999996531e-01 2.500000000003469e-01 1.000000000000000e+00 8.749999999997398e-01 1.250000000002602e-01 1.000000000000000e+00 1.000000000000000e+00 1.999999999995199e-01 1.000000000000000e+00 1.000000000000000e+00 3.999999999991729e-01 1.000000000000000e+00 1.000000000000000e+00 5.999999999991480e-01 1.000000000000000e+00 1.000000000000000e+00 7.999999999994699e-01 1.000000000000000e+00 8.000000000002776e-01 0.000000000000000e+00 1.000000000000000e+00 6.000000000009714e-01 0.000000000000000e+00 1.000000000000000e+00 4.000000000012490e-01 0.000000000000000e+00 1.000000000000000e+00 2.000000000008326e-01 0.000000000000000e+00 1.000000000000000e+00 1.000000000000000e+00 1.000000000000000e+00 8.000000000002776e-01 1.000000000000000e+00 1.000000000000000e+00 6.000000000009714e-01 1.000000000000000e+00 1.000000000000000e+00 4.000000000012490e-01 1.000000000000000e+00 1.000000000000000e+00 2.000000000008326e-01 1.000000000000000e+00 0.000000000000000e+00 1.999999999995199e-01 1.000000000000000e+00 0.000000000000000e+00 3.999999999991729e-01 1.000000000000000e+00 0.000000000000000e+00 5.999999999991480e-01 1.000000000000000e+00 0.000000000000000e+00 7.999999999994699e-01 5.000000000000000e-01 5.000000000000000e-01 8.000000000002776e-01 5.000000000000000e-01 5.000000000000000e-01 6.000000000009714e-01 5.000000000000000e-01 5.000000000000000e-01 4.000000000012490e-01 5.000000000000000e-01 5.000000000000000e-01 2.000000000008326e-01 2.497637412056921e-01 2.497637412056921e-01 7.654733950704831e-01 3.799833762537673e-01 3.799833762537672e-01 3.801627119771356e-01 3.935231654785580e-01 3.935231654785579e-01 6.306923272086891e-01 1.321194326791542e-01 1.321194326791542e-01 6.616679307851107e-01 3.587591429364578e-01 3.587591429364578e-01 1.492933950247788e-01 8.549160165201043e-02 8.549160165201047e-02 1.258878216983642e-01 2.658182497022121e-01 2.658182497022121e-01 5.332142362351319e-01 3.753983075612645e-01 3.753983075612644e-01 8.629809700952866e-01 1.267449727451169e-01 1.267449727451169e-01 8.619537098611011e-01 1.240858399087730e-01 1.240858399087730e-01 4.655070199621396e-01 1.943046836098252e-01 1.943046836098252e-01 1.455568615795695e-01 1.107507443800250e-01 1.107507443800250e-01 2.752988858577731e-01 2.389503394651767e-01 2.389503394651767e-01 3.248388517727547e-01 7.418165102022181e-01 7.418165102022181e-01 2.743643096646061e-01 6.294372194458859e-01 6.294372194458859e-01 6.902750435531602e-01 8.688145540670051e-01 8.688145540670050e-01 6.901603983105372e-01 8.713448950656909e-01 8.713448950656908e-01 3.448125911495457e-01 7.497489187848079e-01 7.497489187848079e-01 8.092016427870273e-01 6.187393154113460e-01 6.187393154113460e-01 3.488247926688184e-01 8.583013551944593e-01 8.583013551944593e-01 1.444267908584474e-01 6.175780899687151e-01 6.175780899687151e-01 1.684981274850401e-01 7.463360958546172e-01 7.463360958546172e-01 5.032094454970533e-01 7.185391910730786e-01 7.185391910730786e-01 1.174578456016187e-01 5.972329415974484e-01 5.972329415974484e-01 5.083748947690007e-01 8.978742839452822e-01 8.978742839452822e-01 5.075723780706394e-01 7.502417391959546e-01 7.502417391959546e-01 6.747744148581882e-01 6.256976897051156e-01 6.256976897051157e-01 8.832461143900775e-01 8.739272454753021e-01 8.739272454753021e-01 8.832270068496403e-01 2.498919805238935e-01 7.501080194761065e-01 7.654733990589936e-01 2.458941262804164e-01 7.541058737195836e-01 4.614873340033861e-01 3.824153997943013e-01 6.175846002056987e-01 3.334757811655090e-01 1.087304747642247e-01 8.912695252357752e-01 3.351297455043841e-01 1.224270185051910e-01 8.775729814948090e-01 6.061074780894853e-01 3.740345047470863e-01 6.259654952529137e-01 6.071953108011829e-01 3.750380593857344e-01 6.249619406142657e-01 1.282881590114399e-01 1.190345751659227e-01 8.809654248340771e-01 1.293204314866770e-01 2.498516425724947e-01 7.501483574275053e-01 6.062292181016341e-01 2.468521058984911e-01 7.531478941015088e-01 2.312835751952327e-01 1.245531665049486e-01 8.754468334950514e-01 8.619301461913248e-01 3.748210808785690e-01 6.251789191214310e-01 8.621114516434091e-01 7.403144177881407e-01 2.596855822118592e-01 7.616336483807643e-01 7.501962976659715e-01 2.498037023340284e-01 4.268662301355867e-01 6.237688657663405e-01 3.762311342336593e-01 3.090211609429645e-01 8.892578442963518e-01 1.107421557036482e-01 3.322380185909328e-01 8.827506503239752e-01 1.172493496760248e-01 5.990710480449946e-01 6.204097472982530e-01 3.795902527017468e-01 6.819009835993896e-01 6.246411205114666e-01 3.753588794885333e-01 1.277994535038089e-01 8.756999936053935e-01 1.243000063946064e-01 8.585590913479942e-01 8.806301446775068e-01 1.193698553224932e-01 1.288384770011018e-01 7.218706318332385e-01 2.781293681667614e-01 5.878394140006262e-01 7.520937303307529e-01 2.479062696692470e-01 2.297361221739134e-01 6.216781449891486e-01 3.783218550108513e-01 8.615291470394970e-01 6.193742570939673e-01 3.806257429060326e-01 5.009379647801313e-01 4.999999999999831e-01 3.313697865225625e-01 1.000000000000000e+00 2.700000000002277e-01 1.206620563269478e-01 1.000000000000000e+00 7.300000000001118e-01 1.206620563273107e-01 1.000000000000000e+00 4.020833333334677e-01 2.134093848592255e-01 1.000000000000000e+00 5.724404761907642e-01 1.843487468156475e-01 1.000000000000000e+00 6.686302134773208e-01 4.999999999999344e-01 1.000000000000000e+00 8.793379436728325e-01 7.299999999997017e-01 1.000000000000000e+00 8.793379436726763e-01 2.699999999998728e-01 1.000000000000000e+00 7.865906151405749e-01 5.979166666664382e-01 1.0000000000000
[...]
<PointData Scalars="node_scalars_" Vectors="">
<DataArray type="Float64" Name="node_scalars_" format="ascii">
-1.084879210959315e-02 8.712462067490976e-01 8.651532086315616e-01 -8.661420661356648e-03 -8.726558131048794e-01 3.785818280086357e-03 -8.748809742348839e-01 1.016938843636446e-02 4.393734403919985e-01 -4.247992884328599e-01 -7.819827458762663e-03 1.583219127447561e-02 -3.444352691786626e-03 -1.426819151997480e-02 9.151880409230354e-02 1.885126504650530e-01 3.160673300658306e-01 3.014436065199351e-01 1.834246391816321e-01 7.018371996402198e-02 1.433283868846554e-01 3.475485487296587e-01 5.164634677730158e-01 7.518179002769241e-01 8.349311623759514e-01 7.283026845772079e-01 6.143456028638337e-01 6.119039212205288e-01 6.992863235152272e-01 8.420525563313095e-01 9.093030258320768e-01 8.908000047984800e-01 8.763257718327216e-01 8.889444604190423e-01 7.526548588234722e-01 5.499522147699669e-01 3.117757623473298e-01 1.307372845729105e-01 -1.606824265916493e-01 -3.490548003409196e-01 -5.266610418493243e-01 -7.366965562633737e-01 -9.100660877197125e-01 -8.849198112295886e-01 -8.683362317834085e-01 -9.051067152420755e-01 -1.697710801475338e-01 -3.691945210298029e-01 -5.277206425307083e-01 -7.267833814245916e-01 -8.429194133696493e-01 -6.936173808445397e-01 -5.855482106288940e-01 -6.106107143232383e-01 -6.917780064429562e-01 -8.399632281647124e-01 -7.744962509940154e-01 -5.502081448344273e-01 -3.018875147378600e-01 -1.482822985698356e-01 -9.789803121191980e-02 -1.849452046040632e-01 -3.318924649300939e-01 -3.175234694540717e-01 -1.716135373835740e-01 -6.995389596737127e-02 -4.024478283225481e-03 1.660622205048404e-02 5.681053485985852e-03 1.293908994502371e-02 -1.322744025628420e-01 -3.063507207987718e-01 -5.521939440576811e-01 -7.556549412786606e-01 1.509722236872922e-01 3.570220484620009e-01 5.539981876470099e-01 7.265452393742149e-01 7.401209205372874e-01 5.295999516625033e-01 3.632209478947252e-01 1.780781930405673e-01 -2.895105783963105e-01 -7.099663609636463e-02 7.386447658475796e-02 2.569054217646704e-01 -5.614722349068821e-01 -5.854105854599313e-02 -2.838368169029095e-01 -5.375001917065493e-01 1.806698624226848e-01 -2.308668780074324e-02 -3.510109479266269e-01 -5.413125044960103e-01 -7.452563603952042e-01 -3.419440917260311e-01 3.549037385053242e-02 -1.472843437819922e-01 -1.130636339724445e-01 5.041371604573444e-01 1.396487221998115e-02 1.771798967168937e-01 5.399599705179092e-01 -4.954163950578256e-02 3.437521917338030e-01 7.240766163535988e-01 5.061261042957442e-01 3.097872255708661e-01 6.465061890199408e-01 1.552343176364237e-01 3.922509230546437e-01 9.371431242805936e-02 -2.265077228485345e-01 -1.931893257166394e-02 -5.545418276313807e-01 -2.957101700466839e-01 -1.564034982620535e-02 -2.329677667531034e-01 -4.760333947940388e-01 -2.882399417544103e-01 2.208068575434407e-01 -1.641148128079456e-02 -3.791010322181797e-01 1.225655774386921e-02 -7.357470284639527e-01 -5.391986077674573e-01 3.803505648783298e-03 3.426969503884740e-01 3.774258479976768e-01 5.433893700519477e-01 2.895780345636538e-01 -1.983433764834760e-03 5.438577793457960e-01 1.760087240594516e-02 7.396985692808290e-01 1.960514809403310e-01 5.825340813426090e-01 -2.069225492813506e-01 2.029800919034820e-01 -4.550619790375925e-01 -6.763732533383875e-01 -2.154963839431812e-01 -5.435796482159736e-01 -3.899598889151759e-01 -2.667274417560667e-01 -4.819637462711739e-02 -4.363807792782198e-02 -1.285638230359695e-01 -1.042365403274356e-01 -4.211527457918283e-01 -4.456335224926524e-01 -2.063894903327817e-01 -6.883201945696793e-01 -3.239126500458246e-01 -5.463134715602493e-01 -8.157176260413839e-01 -6.784360869701125e-01 -8.301847371416989e-01 -8.406376051361520e-01 -7.578021336613701e-01 -7.487892876237779e-01 4.469686085398238e-01 4.354674632764775e-01 6.689954098024483e-01 2.045127825496944e-01 5.733664999901532e-01 3.291182292292589e-01 8.070039578144796e-01 6.751811954681465e-01 8.271906108465276e-01 8.401923447280195e-01 7.395184065098276e-01 7.539405670963478e-01 4.299770003697394e-01 4.393617687153096e-01 2.163617472439258e-01 6.617102499847474e-01 3.337632254960681e-01 5.694652717359217e-01 7.668683622070524e-02 2.345516073105986e-01 2.522601660254141e-02 3.468544807820337e-02 1.467009251649635e-01 1.380048537960802e-01 -4.282261536285017e-01 -2.634577978558176e-01 -7.839224108070426e-01 -2.950002957381545e-01 -6.715993484236565e-01 -7.445743555189848e-01 -1.408644752815055e-01 -4.443193594077852e-01 -5.899513169044166e-01 -5.101530355031613e-01 -5.961360234345568e-01 -3.235311272055834e-01 -1.293631366928894e-01 -8.137987191537404e-01 -7.029489992229720e-01 -6.808374714223212e-01 -2.412468032927676e-01 -8.644268219390648e-01 -1.088749431928462e-01 -8.538268289166931e-01 -1.082824706727883e-01 -6.976836173158227e-02 8.281458290738332e-02 5.302540436641652e-01 -3.027852550495311e-02 -4.335674918252974e-01 -2.650720442677827e-01 3.304571134853999e-01 2.929450697070739e-01 -2.719732893043969e-01 5.183139249435648e-02 5.470179161903730e-01 -5.013133243974504e-01 -1.280395446141515e-01 2.020898350897904e-01 3.172802853582612e-01 -3.253960931797699e-02 -6.574914063084643e-02 7.361241276522623e-01 -2.574342550899257e-04 1.615233990510195e-01 -3.173614427435770e-01 -2.106444469056156e-01 -6.960597485079365e-01 4.877522700230989e-01 6.218076798449994e-01 7.390232140092969e-01 1.025738942078375e-01 2.150104578467751e-01 7.841239487645982e-01 4.387067793699512e-01 5.560037464815788e-01 2.015893552285674e-01 3.852606751530366e-01 3.160359101468550e-01 5.456414567095755e-01 7.738959370397281e-01 6.077197120801027e-01 3.118644626863444e-01 7.790917871077739e-01 8.719349888780052e-02 4.602427741747489e-02 1.693680731373405e-01 7.865107124456442e-01 -1.396004415054483e-01 8.553883152185573e-02 4.249644305806790e-01 -5.626346561457223e-01 -9.091453030825157e-02 6.932712128496231e-02 -3.524090411295963e-01 1.081361966478401e-01 3.587191436953709e-01 2.451208747147377e-01 -3.615131899398027e-01 -1.182673668232079e-01 1.178617302545120e-01 5.331503164925733e-01 1.430404986381140e-01 -3.692810510815224e-01 -2.005013160671289e-01 -1.213650257873802e-01 -5.929170496875472e-01 3.130169274836975e-01 -4.037447146467013e-03 -7.614600963660672e-01 6.758497115881252e-01 -2.480190947961514e-01 2.747386422612331e-01 3.874771034002718e-02 -2.166782173477447e-01 -1.664267598718275e-02 2.200730348811618e-01 3.000709725483117e-01 -2.477382907179656e-01 -4.822110696539325e-01 3.490722752808104e-02 -3.567178698488911e-01 4.749894838722390e-01 2.068448117480109e-01 6.802738131022097e-02 6.313762412745348e-01 4.101431514549930e-01 2.514570876696494e-01 7.372668476091215e-01 4.035107116343619e-02 2.791271722135977e-01 5.805735061382076e-01 3.250268661568592e-02 5.420086683960506e-01 2.443481269093473e-01 -1.067907423500516e-01 7.710834283501793e-01 1.993453074650781e-01 4.355537862463683e-01 -2.922623269796859e-01 -1.810591844251933e-02 2.434311665898605e-01 -3.373722492405254e-02 4.645918465286395e-01 -2.711752674458323e-01 -2.086611574120569e-01 2.987745000031386e-01 2.383684323855611e-01 -5.053151777015499e-01 -1.305684662987542e-01 1.673013927600275e-01 -2.888911307702503e-01 -5.782296046182409e-01 -1.064662244462924e-01 -3.493862558916624e-01 -7.573074530393324e-01 -7.364582237935023e-01 -2.446570407334268e-02 -2.604035451538313e-01 5.697710548115247e-02 -5.586614806032986e-01 
</DataArray>
</PointData>
<CellData Scalars="element_scalars_," Vectors="element_vectors_">
<DataArray type="Float64" Name="element_scalars_" format="ascii">
-4.000104114167787e-01 -2.000295902640265e-01 -3.804901720781414e-05 1.999731843542144e-01 3.999897031731210e-01 3.311708320261204e-01 2.497875465120963e-01 -5.663310136844671e-01 -5.151096266048675e-01 2.598753182866232e-02 -8.225232776350733e-02 -8.484542158189470e-01 -8.732389268877665e-01 -4.554131058810638e-01 -3.173298686229929e-01 -5.078314417135857e-01 -4.176313290945400e-01 -2.797786805885790e-01 -2.286098792702953e-01 1.333606321358756e-01 3.559875307933361e-02 2.575503520322889e-01 1.453706662555213e-01 -2.608235102979566e-01 -1.433757804427908e-01 -6.506642053124609e-01 -7.004374177515499e-01 -7.924915439383113e-01 -6.398914321941781e-01 -6.864839214234981e-01 -6.172311386286031e-01 -3.629510017512971e-01 -4.479484003521071e-01 -1.610660645086301e-01 -2.503566864698046e-01 -1.517905113118865e-02 6.669138097607293e-02 -6.773109565818357e-02 -6.192406344889342e-01 -4.832184290331932e-01 1.450795343646468e-02 -9.691883404568091e-02 -4.870199192131375e-01 -4.139832731671453e-01 -3.321159015092362e-02 -2.674722460407470e-01 -1.927229971929985e-01 5.596842337480901e-01 5.090966287122620e-01 -3.526535846819598e-01 -2.699141141262036e-01 8.661640032596836e-01 8.417662759243701e-01 -4.223275266584223e-02 6.662618810454735e-02 7.853559806135633e-01 6.702216898088005e-01 7.030594436577802e-01 5.947772569985819e-01 -1.234667685543567e-01 -2.778183846631473e-01 -1.613787469900745e-01 -9.016931661952406e-02 2.668598634980524e-01 1.343819123149171e-01 4.702739163708517e-01 3.387829095123977e-01 6.495591317454035e-01 5.212822954561404e-01 6.932056022960171e-01 -9.897478696243385e-03 -1.099691113275533e-01 1.959057934516938e-01 1.117464438284829e-01 3.710165870638934e-01 2.918860560009418e-01 4.464727359127786e-01 3.995452571754718e-01 2.985333005319399e-01 4.719262602264385e-01 5.981661564738169e-01 6.252838340580197e-01 4.481563815905769e-02 -6.374412140085688e-02 1.028237776244968e-01 5.927358593663928e-02 1.857116215871898e-01 1.568687319918994e-01 3.058591221890001e-01 2.122475503697908e-01 4.588608743958852e-01 4.217200114722046e-01 5.558039701447933e-01 3.468167518963108e-01 2.643491297471316e-01 -5.662885324252940e-01 -5.147047351628889e-01 3.530325036751236e-02 -7.322159283739804e-02 -8.492308090722569e-01 -8.739684105881242e-01 2.727988924220399e-01 1.162649957520697e-01 6.667121683078754e-02 1.393217237166986e-01 -2.815809944747934e-01 -1.561033683718414e-01 -5.024279105996610e-01 -3.857896856437408e-01 -6.349297902534354e-01 -6.861784124066460e-01 -6.399284433072079e-01 -7.931669664351375e-01 -6.868819850135153e-01 -6.174113236781057e-01 -3.600903406325994e-01 -4.449415124819157e-01 -2.380952094563059e-01 3.488080693771391e-03 -1.625171754511394e-01 9.768515680412196e-02 -3.429617507437299e-01 -3.996399773350318e-01 -2.267464362352252e-01 -1.187237794522197e-01 -1.834704691082216e-01 -3.430950095087452e-01 -4.953876893763668e-01 -6.051245076740714e-01 3.531412523456685e-02 -9.691308799171292e-02 -4.372746542504902e-01 -4.850592593963318e-01 -3.274042197968405e-02 7.581840784534245e-02 5.677555927723825e-01 5.172251639015985e-01 -3.421874726173117e-01 -2.594049949389441e-01 8.785052210301598e-01 8.536937067979942e-01 6.417345115013539e-01 7.975330726241840e-01 6.211993031891609e-01 6.930587846351508e-01 -2.689751984350039e-01 -1.135273966395684e-01 -6.500973845928813e-02 -1.362791793630155e-01 6.584884387811384e-01 7.134383176982582e-01 4.353539763174301e-01 4.955812356763807e-01 3.012546904744596e-01 1.791336646673656e-01 -8.278502272078197e-03 -9.921207261165356e-02 2.015281335421631e-01 1.190164669126264e-01 3.827896930679685e-01 3.106736730637283e-01 4.689921529504408e-01 4.531575339944134e-01 3.444006821369622e-01 5.110993716136959e-01 4.217340060822316e-01 5.083187227112783e-01 6.334618768255719e-01 2.971409854202174e-01 2.727401917266676e-01 1.195574077370718e-01 1.785390636960275e-01 8.912543362010113e-02 -3.670873987372151e-02 1.599684252423915e-01 5.135144217696584e-01 -4.442225869588671e-02 5.981906026168501e-01 -1.887173324215650e-01 4.211505268697303e-01 6.124462169626815e-01 -2.519400374567338e-02 4.135464049739569e-01 -1.437536254662848e-01 5.993693597920946e-01 3.684929243168123e-01 3.251613724432139e-01 3.185253733254967e-01 -1.244453467428740e-01 8.154468228131972e-02 1.249779327203056e-01 3.436976719643209e-01 -1.205079348594065e-01 3.253253215404232e-01 1.892589416057663e-01 1.591423484875862e-01 6.503195386391041e-01 3.763317756190616e-01 5.822539480237104e-01 2.522930571022580e-01 -6.637403716098377e-01 -1.740108996312877e-01 -3.943855612791340e-02 4.281177803350091e-01 6.020826223540755e-01 5.178078527873858e-01 5.634171271494282e-01 1.879203561498033e-02 6.356463496963027e-01 -6.338863924564410e-02 3.397054951321600e-01 -7.665648170622047e-03 2.698828096863305e-01 -3.336344882454181e-01 -2.479702538726312e-02 -1.688340426516603e-01 -1.333830918048592e-01 3.493818440756513e-01 -2.878589725146074e-01 -4.989006742543884e-01 1.135280643980015e-01 2.325686383909998e-01 5.149188298013428e-01 5.486947207477418e-01 1.720932393819419e-02 -5.903606701195507e-01 2.211240137869875e-01 5.618409015026111e-02 6.681951389198845e-01 4.309831073286317e-01 -6.876684282362748e-02 2.308686975944581e-01 -3.700412932885670e-01 2.968291693843261e-02 6.990100605572552e-02 -2.463858557565328e-01 -7.381211934178854e-02 6.111022780620474e-01 4.494584544397586e-01 -1.136127530165215e-01 5.505426380406980e-01 -1.865880677991565e-01 -1.420031639978225e-01 -1.932651521275397e-01 -4.844088578482542e-01 -3.512100303797721e-01 -3.366595874319406e-01 5.780919343995896e-01 9.930101442255140e-02 4.628600934608124e-02 -8.149750396320446e-02 3.866141374408804e-01 -3.280677834684625e-01 -2.290999501956124e-01 5.486291663010548e-02 -5.405108442122612e-02 5.568077189594498e-01 -5.272821749930683e-01 1.534493345487734e-01 -3.722870346151368e-01 2.698920298775032e-01 4.047524732370048e-01 -5.680497930731178e-01 6.047905087664734e-01 2.253561213178653e-02 -5.722733802688913e-01 6.843692904812123e-01 -5.686867824501640e-01 7.620298440817129e-01 1.547559576974327e-01 -4.595598162502301e-01 -3.720204325160891e-01 -2.381673638082561e-01 -4.780609687183696e-01 3.768171771958639e-01 1.059921560704461e-01 -9.886329259647968e-02 -4.010669069170901e-01 -1.386776410581961e-01 -3.780000600018143e-01 3.689297201038955e-01 -1.722462631587686e-01 -6.431386717694424e-01 -1.715779449110378e-01 4.673306565500094e-01 -2.484052755267284e-01 -5.325346530764091e-01 -2.860999454183025e-01 -1.306827968501332e-01 -2.033707509034381e-01 -2.201151555130120e-01 -4.705856528382452e-01 -3.945449899692143e-01 -4.660912949893392e-01 1.331843176833042e-01 -6.841357558572440e-03 5.528806142838747e-01 -3.744523685412142e-01 1.547748271657259e-01 3.683833257834930e-01 5.609153530613625e-02 -8.093314201175079e-01 6.995056551984783e-01 1.885141433125983e-01 4.310501090834888e-01 -3.106908677373334e-01 -6.041211111539858e-01 6.534109845667103e-02 -6.029721715016378e-01 -6.261175063082330e-01 -3.596052263436635e-01 -7.574399960957701e-01 3.879678008297557e-01 -2.120028447211895e-01 1.170346274846320e-01 -3.044146693552842e-03 1.933032648548796e-01 9.522836745606138e-02 -2.159654401068490e-01 6.912551648581258e-01 3.784321958291010e-01 -1.776166247787956e-01 1.198153789452453e-01 8.037098363102100e-01 -6.571705086369935e-02 4.359588872819725e-01 -5.457680311784044e-01 1.514726811620760e-01 -1.240797586710098e-01 -3.305769759999172e-01 1.544902980674512e-01 4.427365832438619e-01 -3.559156976944509e-01 -6.112021280616595e-02 2.242036928557636e-01 2.027626220027701e-01 3.159194705206808e-01 -9.249819684160902e-02 3.740112226913471e-01 -1.305939061094025e-01 3.714790315543836e-01 -2.340065915125328e-01 6.796338570694620e-02 8.443241867166886e-01 -6.390735413731197e-02 7.995666786121851e-01 3.570687937233519e-01 -2.378248775267481e-01 3.020225682390427e-01 -8.623900547626244e-02 -3.045561240613314e-01 -6.144122669908008e-01 2.617827850470609e-01 -3.508324606826949e-01 5.217945649055373e-01 -7.065245868236137e-01 4.369426191386227e-01 2.062721294216580e-01 -4.169132901029041e-01 -3.603933868625435e-01 3.639832383540316e-01 1.383094489820456e-01 -2.755899297379465e-01 1.886934005570102e-01 -2.856252386541395e-01 -4.491325817828413e-01 4.077417404048915e-01 1.880212435300156e-01 1.060169035926214e-01 -1.839972232130409e-01 -7.127466939390837e-01 -2.284550156257351e-01 3.970796323775233e-01 -1.411680221327659e-01 9.215664478378685e-02 4.807073220383336e-02 -2.405269300652476e-01 1.361742256384952e-01 2.230774703963232e-01 -2.036596456714996e-02 -4.525384119521684e-01 -1.543950097158279e-01 -4.121662461561630e-01 -5.198389642495610e-01 3.742159952064992e-01 3.682622889022814e-01 -3.967824292485974e-01 -3.482112982909309e-01 -3.335791525900588e-01 -1.712213411996128e-01 -1.547795318324303e-01 -3.873097595852457e-01 2.388875378522649e-01 -5.633620745206028e-02 -4.781499061295914e-01 2.800733737776256e-01 1.669452884263437e-01 8.253685210839494e-02 7.639128533327894e-02 -2.415980215541466e-01 -7.752647106086490e-01 -7.937630264891662e-02 -4.117809856558489e-01 2.322814264167184e-02 -2.448986954383444e-01 2.316085084224311e-01 7.796517377174254e-01 -8.213122391696891e-01 1.642979691625899e-01 -4.256487032533458e-02 -8.050008178333284e-02 1.770172804820569e-01 1.476479580477856e-03 -1.034364039672677e-01 -2.918025326585959e-01 -3.679813911504045e-01 -5.718455947588841e-02 -7.527706141429132e-03 -4.430201784641082e-01 -4.871087682796372e-01 1.548145771158242e-01 3.150230222426499e-01 6.417438898700815e-03 -3.268317429578988e-01 -3.733677462031633e-01 -4.367719430541361e-02 2.648910496130711e-01 -2.351799293922183e-01 -5.179864234397613e-01 -4.324409646609633e-01 -1.749525775443782e-01 5.215297423439775e-02 -5.101330859368947e-01 -3.059138409404984e-01 9.117762923828576e-02 -7.064181589657088e-01 -3.701262094038646e-01 2.660088603028635e-01 2.038466687681807e-01 -5.086680381196822e-01 8.526530331762044e-02 1.584082241055528e-01 -6.563826384126543e-01 8.204636970515518e-02 -7.789011334036345e-01 -8.454037220460860e-02 3.773648484449745e-01 3.207554207058763e-01 3.077086224411139e-01 2.566580384806945e-01 8.519481065432120e-02 4.780566731808880e-01 2.637924686392545e-01 4.637119293302849e-01 3.422847846628552e-01 5.430396600046166e-01 3.282875538862434e-01 2.718580027907391e-02 3.641430950639428e-02 5.997468348278489e-01 -6.016949784536157e-01 -3.649176142832897e-01 1.535537694862220e-01 -1.256298529026091e-02 -6.369375984302689e-01 -1.605926419305881e-01 -5.978248352808077e-01 -8.036671947570448e-02 -2.672176411243410e-01 2.200836267841444e-01 1.879253126625325e-01 -3.271445200855320e-01 3.951504192453472e-01 -6.775562423341941e-01 -4.706787571524839e-01 -8.533732702265426e-01 6.144440835475382e-02 6.658493432729159e-01 -9.438925862104923e-02 1.854724574720973e-01 1.046187245875041e-01 3.549761208301851e-01 5.793587694481954e-01 2.146986243621452e-01 -2.530964377675642e-01 -4.482186948408393e-01 2.813881512967130e-01 -2.018233618818204e-01 -5.090260919419163e-01 1.463930550546329e-01 4.868960589116323e-01 6.019645133628126e-02 1.509215065088713e-01 7.715950485081684e-01 5.349837307655514e-01 7.319983962436879e-01 7.062720910686320e-01 -1.308408779141870e-02 4.824398059163845e-01 6.847536612310966e-01 8.353191636656997e-01 1.483865856813014e-01 7.115343404785675e-01 -4.123641657076556e-02 1.320538306016167e-01 1.793735004278006e-01 6.692305799834237e-01 1.986610876593141e-01 5.256613399177833e-01 2.943257533323367e-01 6.701553242915196e-01 6.763229921517987e-01 -1.294822020462722e-03 2.590473387360289e-01 8.567658612271530e-01 7.580347524114741e-01 7.424142316210901e-01 2.067496885351482e-01 5.170293670932299e-03 5.169812079751072e-01 6.908685387563862e-01 6.890621157543727e-01 8.129278282141511e-02 -2.977865561348740e-02 6.156852688935663e-01 7.060944955667817e-01 -1.513124127652721e-01 4.930798984281097e-01 2.475301957676478e-01 1.661456571279012e-01 4.195815450194051e-01 -1.181256241605163e-02 -6.077451857097543e-02 7.916834306616055e-01 6.518611827465519e-01 8.449604100949385e-01 9.734694987161814e-02 6.892999799227713e-01 7.513953721779519e-01 -7.369891612169656e-02 4.836236750555462e-01 6.219958114120068e-01 1.926011403269908e-01 5.537814302778629e-01 2.746184425041137e-01 1.842951621890259e-01 -2.332647887433492e-01 7.308083915942557e-01 6.341739057074155e-01 6.712963600357652e-01 1.341205729877967e-02 4.949305311523955e-01 5.277374993745983e-02 6.660996262130354e-01 8.912829200384360e-01 1.947183531192944e-01 7.3