<?xml version="1.0"?>
<VTKFile type="UnstructuredGrid" version="0.1" byte_order="LittleEndian">
<UnstructuredGrid>
<Piece NumberOfPoints="220" NumberOfCells="390">
<Points>
<DataArray type="Float64" NumberOfComponents="3" format="ascii">
0.0000000000 0.0000000000 0.0000000000 0.0000000000 0.0000100000 0.0000000000 0.0000000000 0.1000000000 0.0000000000 1.0000000000 0.0000000000 0.0000000000 1.0000000000 0.0000100000 0.0000000000 1.0000000000 0.1000000000 0.0000000000 0.0000000000 0.0001221059 0.0000000000 0.0000000000 0.0002771482 0.0000000000 0.0000000000 0.0004915718 0.0000000000 0.0000000000 0.0007881193 0.0000000000 0.0000000000 0.0011982444 0.0000000000 0.0000000000 0.0017654472 0.0000000000 0.0000000000 0.0025498882 0.0000000000 0.0000000000 0.0036347697 0.0000000000 0.0000000000 0.0051351601 0.0000000000 0.0000000000 0.0072101992 0.0000000000 0.0000000000 0.0100799765 0.0000000000 0.0000000000 0.0140488777 0.0000000000 0.0000000000 0.0195378643 0.0000000000 0.0000000000 0.0271291304 0.0000000000 0.0000000000 0.0376278451 0.0000000000 0.0000000000 0.0521475645 0.0000000000 0.0000000000 0.0722283238 0.0000000000 0.1000000000 0.0000000000 0.0000000000 0.2000000000 0.0000000000 0.0000000000 0.3000000000 0.0000000000 0.0000000000 0.4000000000 0.0000000000 0.0000000000 0.5000000000 0.0000000000 0.0000000000 0.6000000000 0.0000000000 0.0000000000 0.7000000000 0.0000000000 0.0000000000 0.8000000000 0.0000000000 0.0000000000 0.9000000000 0.0000000000 0.0000000000 0.1000000000 0.0000100000 0.0000000000 0.2000000000 0.0000100000 0.0000000000 0.3000000000 0.0000100000 0.0000000000 0.4000000000 0.0000100000 0.0000000000 0.5000000000 0.0000100000 0.0000000000 0.6000000000 0.0000100000 0.0000000000 0.7000000000 0.0000100000 0.0000000000 0.8000000000 0.0000100000 0.0000000000 0.9000000000 0.0000100000 0.0000000000 1.0000000000 0.0001221059 0.0000000000 1.0000000000 0.0002771482 0.0000000000 1.0000000000 0.0004915718 0.0000000000 1.0000000000 0.0007881193 0.0000000000 1.0000000000 0.0011982444 0.0000000000 1.0000000000 0.0017654472 0.0000000000 1.0000000000 0.0025498882 0.0000000000 1.0000000000 0.0036347697 0.0000000000 1.0000000000 0.0051351601 0.0000000000 1.0000000000 0.0072101992 0.0000000000 1.0000000000 0.0100799765 0.0000000000 1.0000000000 0.0140488777 0.0000000000 1.0000000000 0.0195378643 0.0000000000 1.0000000000 0.0271291304 0.0000000000 1.0000000000 0.0376278451 0.0000000000 1.0000000000 0.0521475645 0.0000000000 1.0000000000 0.0722283238 0.0000000000 0.1000000000 0.1000000000 0.0000000000 0.2000000000 0.1000000000 0.0000000000 0.3000000000 0.1000000000 0.0000000000 0.4000000000 0.1000000000 0.0000000000 0.5000000000 0.1000000000 0.0000000000 0.6000000000 0.1000000000 0.0000000000 0.7000000000 0.1000000000 0.0000000000 0.8000000000 0.1000000000 0.0000000000 0.9000000000 0.1000000000 0.0000000000 0.1000000000 0.0001221059 0.0000000000 0.2000000000 0.0001221059 0.0000000000 0.3000000000 0.0001221059 0.0000000000 0.4000000000 0.0001221059 0.0000000000 0.5000000000 0.0001221059 0.0000000000 0.6000000000 0.0001221059 0.0000000000 0.7000000000 0.0001221059 0.0000000000 0.8000000000 0.0001221059 0.0000000000 0.9000000000 0.0001221059 0.0000000000 0.1000000000 0.0002771482 0.0000000000 0.2000000000 0.0002771482 0.0000000000 0.3000000000 0.0002771482 0.0000000000 0.4000000000 0.0002771482 0.0000000000 0.5000000000 0.0002771482 0.0000000000 0.6000000000 0.0002771482 0.0000000000 0.7000000000 0.0002771482 0.0000000000 0.8000000000 0.0002771482 0.0000000000 0.9000000000 0.0002771482 0.0000000000 0.1000000000 0.0004915718 0.0000000000 0.2000000000 0.0004915718 0.0000000000 0.3000000000 0.0004915718 0.0000000000 0.4000000000 0.0004915718 0.0000000000 0.5000000000 0.0004915718 0.0000000000 0.6000000000 0.0004915718 0.0000000000 0.7000000000 0.0004915718 0.0000000000 0.8000000000 0.0004915718 0.0000000000 0.9000000000 0.0004915718 0.0000000000 0.1000000000 0.0007881193 0.0000000000 0.2000000000 0.0007881193 0.0000000000 0.3000000000 0.0007881193 0.0000000000 0.4000000000 0.0007881193 0.0000000000 0.5000000000 0.0007881193 0.0000000000 0.6000000000 0.0007881193 0.0000000000 0.7000000000 0.0007881193 0.0000000000 0.8000000000 0.0007881193 0.0000000000 0.9000000000 0.0007881193 0.0000000000 0.1000000000 0.0011982444 0.0000000000 0.2000000000 0.0011982444 0.0000000000 0.3000000000 0.0011982444 0.0000000000 0.4000000000 0.0011982444 0.0000000000 0.5000000000 0.0011982444 0.0000000000 0.6000000000 0.0011982444 0.0000000000 0.7000000000 0.0011982444 0.0000000000 0.8000000000 0.0011982444 0.0000000000 0.9000000000 0.0011982444 0.0000000000 0.1000000000 0.0017654472 0.0000000000 0.2000000000 0.0017654472 0.0000000000 0.3000000000 0.0017654472 0.0000000000 0.4000000000 0.0017654472 0.0000000000 0.5000000000 0.0017654472 0.0000000000 0.6000000000 0.0017654472 0.0000000000 0.7000000000 0.0017654472 0.0000000000 0.8000000000 0.0017654472 0.0000000000 0.9000000000 0.0017654472 0.0000000000 0.1000000000 0.0025498882 0.0000000000 0.2000000000 0.0025498882 0.0000000000 0.3000000000 0.0025498882 0.0000000000 0.4000000000 0.0025498882 0.0000000000 0.5000000000 0.0025498882 0.0000000000 0.6000000000 0.0025498882 0.0000000000 0.7000000000 0.0025498882 0.0000000000 0.8000000000 0.0025498882 0.0000000000 0.9000000000 0.0025498882 0.0000000000 0.1000000000 0.0036347697 0.0000000000 0.2000000000 0.0036347697 0.0000000000 0.3000000000 0.0036347697 0.0000000000 0.4000000000 0.0036347697 0.0000000000 0.5000000000 0.0036347697 0.0000000000 0.6000000000 0.0036347697 0.0000000000 0.7000000000 0.0036347697 0.0000000000 0.8000000000 0.0036347697 0.0000000000 0.9000000000 0.0036347697 0.0000000000 0.1000000000 0.0051351601 0.0000000000 0.2000000000 0.0051351601 0.0000000000 0.3000000000 0.0051351601 0.0000000000 0.4000000000 0.0051351601 0.0000000000 0.5000000000 0.0051351601 0.0000000000 0.6000000000 0.0051351601 0.0000000000 0.7000000000 0.0051351601 0.0000000000 0.8000000000 0.0051351601 0.0000000000 0.9000000000 0.0051351601 0.0000000000 0.1000000000 0.0072101992 0.0000000000 0.2000000000 0.0072101992 0.0000000000 0.3000000000 0.0072101992 0.0000000000 0.4000000000 0.0072101992 0.0000000000 0.5000000000 0.0072101992 0.0000000000 0.6000000000 0.0072101992 0.0000000000 0.7000000000 0.0072101992 0.0000000000 0.8000000000 0.0072101992 0.0000000000 0.9000000000 0.0072101992 0.0000000000 0.1000000000 0.0100799765 0.0000000000 0.2000000000 0.0100799765 0.0000000000 0.3000000000 0.0100799765 0.0000000000 0.4000000000 0.0100799765 0.0000000000 0.5000000000 0.0100799765 0.0000000000 0.6000000000 0.0100799765 0.0000000000 0.7000000000 0.0100799765 0.0000000000 0.8000000000 0.0100799765 0.0000000000 0.9000000000 0.0100799765 0.0000000000 0.1000000000 0.0140488777 0.0000000000 0.2000000000 0.0140488777 0.0000000000 0.3000000000 0.0140488777 0.0000000000 0.4000000000 0.0140488777 0.0000000000 0.5000000000 0.0140488777 0.0000000000 0.6000000000 0.0140488777 0.0000000000 0.7000000000 0.0140488777 0.0000000000 0.8000000000 0.0140488777 0.0000000000 0.9000000000 0.0140488777 0.0000000000 0.1000000000 0.0195378643 0.0000000000 0.2000000000 0.0195378643 0.0000000000 0.3000000000 0.0195378643 0.0000000000 0.4000000000 0.0195378643 0.0000000000 0.5000000000 0.0195378643 0.0000000000 0.6000000000 0.0195378643 0.0000000000 0.7000000000 0.0195378643 0.0000000000 0.8000000000 0.0195378643 0.0000000000 0.9000000000 0.0195378643 0.0000000000 0.1000000000 0.0271291304 0.0000000000 0.2000000000 0.0271291304 0.0000000000 0.3000000000 0.0271291304 0.0000000000 0.4000000000 0.0271291304 0.0000000000 0.5000000000 0.0271291304 0.0000000000 0.6000000000 0.0271291304 0.0000000000 0.7000000000 0.0271291304 0.0000000000 0.8000000000 0.0271291304 0.0000000000 0.9000000000 0.0271291304 0.0000000000 0.1000000000 0.0376278451 0.0000000000 0.2000000000 0.0376278451 0.0000000000 0.3000000000 0.0376278451 0.0000000000 0.4000000000 0.0376278451 0.0000000000 0.5000000000 0.0376278451 0.0000000000 0.6000000000 0.0376278451 0.0000000000 0.7000000000 0.0376278451 0.0000000000 0.8000000000 0.0376278451 0.0000000000 0.9000000000 0.0376278451 0.0000000000 0.1000000000 0.0521475645 0.0000000000 0.2000000000 0.0521475645 0.0000000000 0.3000000000 0.0521475645 0.0000000000 0.4000000000 0.0521475645 0.0000000000 0.5000000000 0.0521475645 0.0000000000 0.6000000000 0.0521475645 0.0000000000 0.7000000000 0.0521475645 0.0000000000 0.8000000000 0.0521475645 0.0000000000 0.9000000000 0.0521475645 0.0000000000 0.1000000000 0.0722283238 0.0000000000 0.2000000000 0.0722283238 0.0000000000 0.3000000000 0.0722283238 0.0000000000 0.4000000000 0.0722283238 0.0000000000 0.5000000000 0.0722283238 0.0000000000 0.6000000000 0.0722283238 0.0000000000 0.7000000000 0.0722283238 0.0000000000 0.8000000000 0.0722283238 0.0000000000 0.9000000000 0.0722283238 0.0000000000 
</DataArray>
</Points>
<Cells>
<DataArray type="UInt32" Name="connectivity" format="ascii">
0 23 23 24 24 25 25 26 26 27 27 28 28 29 29 30 30 31 31 3 0 1 32 0 32 23 23 32 33 23 33 24 24 33 34 24 34 25 25 34 35 25 35 26 26 35 36 26 36 27 27 36 37 27 37 28 28 37 38 28 38 29 29 38 39 29 39 30 30 39 40 30 40 31 31 40 4 31 4 3 1 6 67 1 67 32 32 67 68 32 68 33 33 68 69 33 69 34 34 69 70 34 70 35 35 70 71 35 71 36 36 71 72 36 72 37 37 72 73 37 73 38 38 73 74 38 74 39 39 74 75 39 75 40 40 75 41 40 41 4 6 7 76 6 76 67 67 76 77 67 77 68 68 77 78 68 78 69 69 78 79 69 79 70 70 79 80 70 80 71 71 80 81 71 81 72 72 81 82 72 82 73 73 82 83 73 83 74 74 83 84 74 84 75 75 84 42 75 42 41 7 8 85 7 85 76 76 85 86 76 86 77 77 86 87 77 87 78 78 87 88 78 88 79 79 88 89 79 89 80 80 89 90 80 90 81 81 90 91 81 91 82 82 91 92 82 92 83 83 92 93 83 93 84 84 93 43 84 43 42 8 9 94 8 94 85 85 94 95 85 95 86 86 95 96 86 96 87 87 96 97 87 97 88 88 97 98 88 98 89 89 98 99 89 99 90 90 99 100 90 100 91 91 100 101 91 101 92 92 101 102 92 102 93 93 102 44 93 44 43 9 10 103 9 103 94 94 103 104 94 104 95 95 104 105 95 105 96 96 105 106 96 106 97 97 106 107 97 107 98 98 107 108 98 108 99 99 108 109 99 109 100 100 109 110 100 110 101 101 110 111 101 111 102 102 111 45 102 45 44 10 11 112 10 112 103 103 112 113 103 113 104 104 113 114 104 114 105 105 114 115 105 115 106 106 115 116 106 116 107 107 116 117 107 117 108 108 117 118 108 118 109 109 118 119 109 119 110 110 119 120 110 120 111 111 120 46 111 46 45 11 12 121 11 121 112 112 121 122 112 122 113 113 122 123 113 123 114 114 123 124 114 124 115 115 124 125 115 125 116 116 125 126 116 126 117 117 126 127 117 127 118 118 127 128 118 128 119 119 128 129 119 129 120 120 129 47 120 47 46 12 13 130 12 130 121 121 130 131 121 131 122 122 131 132 122 132 123 123 132 133 123 133 124 124 133 134 124 134 125 125 134 135 125 135 126 126 135 136 126 136 127 127 136 137 127 137 128 128 137 138 128 138 129 129 138 48 129 48 47 13 14 139 13 139 130 130 139 140 130 140 131 131 140 141 131 141 132 132 141 142 132 142 133 133 142 143 133 143 134 134 143 144 134 144 135 135 144 145 135 145 136 136 145 146 136 146 137 137 146 147 137 147 138 138 147 49 138 49 48 14 15 148 14 148 139 139 148 149 139 149 140 140 149 150 140 150 141 141 150 151 141 151 142 142 151 152 142 152 143 143 152 153 143 153 144 144 153 154 144 154 145 145 154 155 145 155 146 146 155 156 146 156 147 147 156 50 147 50 49 15 16 157 15 157 148 148 157 158 148 158 149 149 158 159 149 159 150 150 159 160 150 160 151 151 160 161 151 161 152 152 161 162 152 162 153 153 162 163 153 163 154 154 163 164 154 164 155 155 164 165 155 165 156 156 165 51 156 51 50 16 17 166 16 166 157 157 166 167 157 167 158 158 167 168 158 168 159 159 168 169 159 169 160 160 169 170 160 170 161 161 170 171 161 171 162 162 171 172 162 172 163 163 172 173 163 173 164 164 173 174 164 174 165 165 174 52 165 52 51 17 18 175 17 175 166 166 175 176 166 176 167 167 176 177 167 177 168 168 177 178 168 178 169 169 178 179 169 179 170 170 179 180 170 180 171 171 180 181 171 181 172 172 181 182 172 182 173 173 182 183 173 183 174 174 183 53 174 53 52 18 19 184 18 184 175 175 184 185 175 185 176 176 185 186 176 186 177 177 186 187 177 187 178 178 187 188 178 188 179 179 188 189 179 189 180 180 189 190 180 190 181 181 190 191 181 191 182 182 191 192 182 192 183 183 192 54 183 54 53 19 20 193 19 193 184 184 193 194 184 194 185 185 194 195 185 195 186 186 195 196 186 196 187 187 196 197 187 197 188 188 197 198 188 198 189 189 198 199 189 199 190 190 199 200 190 200 191 191 200 201 191 201 192 192 201 55 192 55 54 20 21 202 20 202 193 193 202 203 193 203 194 194 203 204 194 204 195 195 204 205 195 205 196 196 205 206 196 206 197 197 206 207 197 207 198 198 207 208 198 208 199 199 208 209 199 209 200 200 209 210 200 210 201 201 210 56 201 56 55 21 22 211 21 211 202 202 211 212 202 212 203 203 212 213 203 213 204 204 213 214 204 214 205 205 214 215 205 215 206 206 215 216 206 216 207 207 216 217 207 217 208 208 217 218 208 218 209 209 218 219 209 219 210 210 219 57 210 57 56 22 2 58 22 58 211 211 58 59 211 59 212 212 59 60 212 60 213 213 60 61 213 61 214 214 61 62 214 62 215 215 62 63 215 63 216 216 63 64 216 64 217 217 64 65 217 65 218 218 65 66 218 66 219 219 66 5 219 5 57 
</DataArray>
<DataArray type="UInt32" Name="offsets" format="ascii">
2 4 6 8 10 12 14 16 18 20 23 26 29 32 35 38 41 44 47 50 53 56 59 62 65 68 71 74 77 80 83 86 89 92 95 98 101 104 107 110 113 116 119 122 125 128 131 134 137 140 143 146 149 152 155 158 161 164 167 170 173 176 179 182 185 188 191 194 197 200 203 206 209 212 215 218 221 224 227 230 233 236 239 242 245 248 251 254 257 260 263 266 269 272 275 278 281 284 287 290 293 296 299 302 305 308 311 314 317 320 323 326 329 332 335 338 341 344 347 350 353 356 359 362 365 368 371 374 377 380 383 386 389 392 395 398 401 404 407 410 413 416 419 422 425 428 431 434 437 440 443 446 449 452 455 458 461 464 467 470 473 476 479 482 485 488 491 494 497 500 503 506 509 512 515 518 521 524 527 530 533 536 539 542 545 548 551 554 557 560 563 566 569 572 575 578 581 584 587 590 593 596 599 602 605 608 611 614 617 620 623 626 629 632 635 638 641 644 647 650 653 656 659 662 665 668 671 674 677 680 683 686 689 692 695 698 701 704 707 710 713 716 719 722 725 728 731 734 737 740 743 746 749 752 755 758 761 764 767 770 773 776 779 782 785 788 791 794 797 800 803 806 809 812 815 818 821 824 827 830 833 836 839 842 845 848 851 854 857 860 863 866 869 872 875 878 881 884 887 890 893 896 899 902 905 908 911 914 917 920 923 926 929 932 935 938 941 944 947 950 953 956 959 962 965 968 971 974 977 980 983 986 989 992 995 998 1001 1004 1007 1010 1013 1016 1019 1022 1025 1028 1031 1034 1037 1040 1043 1046 1049 1052 1055 1058 1061 1064 1067 1070 1073 1076 1079 1082 1085 1088 1091 1094 1097 1100 1103 1106 1109 1112 1115 1118 1121 1124 1127 1130 1133 1136 1139 1142 1145 1148 1151 1154 1157 1160 
</DataArray>
<DataArray type="UInt32" Name="types" format="ascii">
3 3 3 3 3 3 3 3 3 3 5 5 5 5 5 5 5 5 5 5 5 5 5 5 5 5 5 5 5 5 5 5 5 5 5 5 5 5 5 5 5 5 5 5 5 5 5 5 5 5 5 5 5 5 5 5 5 5 5 5 5 5 5 5 5 5 5 5 5 5 5 5 5 5 5 5 5 5 5 5 5 5 5 5 5 5 5 5 5 5 5 5 5 5 5 5 5 5 5 5 5 5 5 5 5 5 5 5 5 5 5 5 5 5 5 5 5 5 5 5 5 5 5 5 5 5 5 5 5 5 5 5 5 5 5 5 5 5 5 5 5 5 5 5 5 5 5 5 5 5 5 5 5 5 5 5 5 5 5 5 5 5 5 5 5 5 5 5 5 5 5 5 5 5 5 5 5 5 5 5 5 5 5 5 5 5 5 5 5 5 5 5 5 5 5 5 5 5 5 5 5 5 5 5 5 5 5 5 5 5 5 5 5 5 5 5 5 5 5 5 5 5 5 5 5 5 5 5 5 5 5 5 5 5 5 5 5 5 5 5 5 5 5 5 5 5 5 5 5 5 5 5 5 5 5 5 5 5 5 5 5 5 5 5 5 5 5 5 5 5 5 5 5 5 5 5 5 5 5 5 5 5 5 5 5 5 5 5 5 5 5 5 5 5 5 5 5 5 5 5 5 5 5 5 5 5 5 5 5 5 5 5 5 5 5 5 5 5 5 5 5 5 5 5 5 5 5 5 5 5 5 5 5 5 5 5 5 5 5 5 5 5 5 5 5 5 5 5 5 5 5 5 5 5 5 5 5 5 5 5 5 5 5 5 5 5 5 5 5 5 5 5 5 5 5 5 5 5 5 5 5 5 5 5 5 5 5 5 5 5 
</DataArray>
</Cells>
<CellData Scalars="pressure_p0,piezo_head_p0," Vectors="velocity_p0," Tensors="">
<DataArray type="Float64" Name="pressure_p0" format="ascii">
0.0000000500 0.0000001500 0.0000002500 0.0000003500 0.0000004500 0.0000005500 0.0000006500 0.0000007500 0.0000008500 0.0000009500 0.0000000500 0.0000000667 0.0000001333 0.0000001667 0.0000002333 0.0000002667 0.0000003333 0.0000003667 0.0000004333 0.0000004667 0.0000005333 0.0000005667 0.0000006333 0.0000006667 0.0000007333 0.0000007667 0.0000008333 0.0000008667 0.0000009333 0.0000009500 0.0000000501 0.0000000667 0.0000001334 0.0000001667 0.0000002333 0.0000002667 0.0000003333 0.0000003667 0.0000004333 0.0000004667 0.0000005333 0.0000005667 0.0000006333 0.0000006667 0.0000007333 0.0000007667 0.0000008333 0.0000008667 0.0000009333 0.0000009500 0.0000000502 0.0000000668 0.0000001334 0.0000001667 0.0000002333 0.0000002667 0.0000003333 0.0000003667 0.0000004333 0.0000004667 0.0000005333 0.0000005667 0.0000006333 0.0000006667 0.0000007333 0.0000007667 0.0000008333 0.0000008666 0.0000009332 0.0000009499 0.0000000503 0.0000000669 0.0000001334 0.0000001667 0.0000002334 0.0000002667 0.0000003333 0.0000003667 0.0000004333 0.0000004667 0.0000005333 0.0000005667 0.0000006333 0.0000006667 0.0000007333 0.0000007666 0.0000008333 0.0000008666 0.0000009330 0.0000009497 0.0000000506 0.0000000671 0.0000001335 0.0000001667 0.0000002334 0.0000002667 0.0000003333 0.0000003667 0.0000004333 0.0000004667 0.0000005333 0.0000005667 0.0000006333 0.0000006667 0.0000007333 0.0000007666 0.0000008332 0.0000008665 0.0000009329 0.0000009495 0.0000000508 0.0000000673 0.0000001336 0.0000001668 0.0000002334 0.0000002667 0.0000003333 0.0000003667 0.0000004333 0.0000004667 0.0000005333 0.0000005667 0.0000006333 0.0000006667 0.0000007333 0.0000007666 0.0000008332 0.0000008664 0.0000009326 0.0000009493 0.0000000513 0.0000000676 0.0000001337 0.0000001668 0.0000002334 0.0000002667 0.0000003334 0.0000003667 0.0000004333 0.0000004667 0.0000005333 0.0000005667 0.0000006333 0.0000006666 0.0000007333 0.0000007666 0.0000008331 0.0000008663 0.0000009322 0.0000009489 0.0000000518 0.0000000680 0.0000001339 0.0000001669 0.0000002335 0.0000002667 0.0000003334 0.0000003667 0.0000004333 0.0000004667 0.0000005333 0.0000005667 0.0000006333 0.0000006666 0.0000007333 0.0000007666 0.0000008330 0.0000008661 0.0000009318 0.0000009484 0.0000000526 0.0000000686 0.0000001342 0.0000001670 0.0000002335 0.0000002668 0.0000003334 0.0000003667 0.0000004333 0.0000004667 0.0000005333 0.0000005667 0.0000006333 0.0000006666 0.0000007332 0.0000007665 0.0000008329 0.0000008659 0.0000009311 0.0000009477 0.0000000536 0.0000000694 0.0000001345 0.0000001672 0.0000002336 0.0000002668 0.0000003334 0.0000003667 0.0000004333 0.0000004667 0.0000005333 0.0000005667 0.0000006333 0.0000006666 0.0000007332 0.0000007664 0.0000008327 0.0000008656 0.0000009302 0.0000009468 0.0000000550 0.0000000705 0.0000001350 0.0000001674 0.0000002337 0.0000002668 0.0000003334 0.0000003667 0.0000004334 0.0000004667 0.0000005333 0.0000005667 0.0000006333 0.0000006666 0.0000007331 0.0000007663 0.0000008325 0.0000008651 0.0000009290 0.0000009455 0.0000000569 0.0000000720 0.0000001356 0.0000001677 0.0000002338 0.0000002669 0.0000003334 0.0000003667 0.0000004334 0.0000004667 0.0000005333 0.0000005666 0.0000006333 0.0000006666 0.0000007331 0.0000007662 0.0000008321 0.0000008646 0.0000009273 0.0000009438 0.0000000594 0.0000000740 0.0000001364 0.0000001682 0.0000002340 0.0000002670 0.0000003335 0.0000003667 0.0000004334 0.0000004667 0.0000005333 0.0000005666 0.0000006332 0.0000006665 0.0000007329 0.0000007660 0.0000008317 0.0000008638 0.0000009251 0.0000009415 0.0000000627 0.0000000766 0.0000001376 0.0000001687 0.0000002343 0.0000002671 0.0000003336 0.0000003668 0.0000004334 0.0000004667 0.0000005333 0.0000005666 0.0000006332 0.0000006665 0.0000007328 0.0000007658 0.0000008310 0.0000008627 0.0000009222 0.0000009385 0.0000000669 0.0000000799 0.0000001391 0.0000001695 0.0000002346 0.0000002673 0.0000003336 0.0000003668 0.0000004334 0.0000004667 0.0000005333 0.0000005666 0.0000006332 0.0000006664 0.0000007326 0.0000007655 0.0000008302 0.0000008613 0.0000009186 0.0000009346 0.0000000720 0.0000000841 0.0000001410 0.0000001705 0.0000002351 0.0000002676 0.0000003337 0.0000003669 0.0000004334 0.0000004667 0.0000005333 0.0000005666 0.0000006331 0.0000006663 0.0000007323 0.0000007650 0.0000008291 0.0000008595 0.0000009141 0.0000009298 0.0000000778 0.0000000891 0.0000001432 0.0000001718 0.0000002356 0.0000002679 0.0000003339 0.0000003669 0.0000004334 0.0000004667 0.0000005333 0.0000005666 0.0000006330 0.0000006662 0.0000007320 0.0000007645 0.0000008277 0.0000008573 0.0000009090 0.0000009241 0.0000000837 0.0000000943 0.0000001456 0.0000001732 0.0000002363 0.0000002682 0.0000003340 0.0000003670 0.0000004335 0.0000004667 0.0000005333 0.0000005665 0.0000006329 0.0000006660 0.0000007316 0.0000007639 0.0000008263 0.0000008549 0.0000009038 0.0000009182 0.0000000878 0.0000000988 0.0000001474 0.0000001745 0.0000002367 0.0000002685 0.0000003341 0.0000003671 0.0000004335 0.0000004667 0.0000005333 0.0000005665 0.0000006329 0.0000006659 0.0000007314 0.0000007633 0.0000008252 0.0000008529 0.0000009003 0.0000009132 
</DataArray>
<DataArray type="Float64" Name="piezo_head_p0" format="ascii">
0.0000000500 0.0000001500 0.0000002500 0.0000003500 0.0000004500 0.0000005500 0.0000006500 0.0000007500 0.0000008500 0.0000009500 0.0000000500 0.0000000667 0.0000001333 0.0000001667 0.0000002333 0.0000002667 0.0000003333 0.0000003667 0.0000004333 0.0000004667 0.0000005333 0.0000005667 0.0000006333 0.0000006667 0.0000007333 0.0000007667 0.0000008333 0.0000008667 0.0000009333 0.0000009500 0.0000000501 0.0000000667 0.0000001334 0.0000001667 0.0000002333 0.0000002667 0.0000003333 0.0000003667 0.0000004333 0.0000004667 0.0000005333 0.0000005667 0.0000006333 0.0000006667 0.0000007333 0.0000007667 0.0000008333 0.0000008667 0.0000009333 0.0000009500 0.0000000502 0.0000000668 0.0000001334 0.0000001667 0.0000002333 0.0000002667 0.0000003333 0.0000003667 0.0000004333 0.0000004667 0.0000005333 0.0000005667 0.0000006333 0.0000006667 0.0000007333 0.0000007667 0.0000008333 0.0000008666 0.0000009332 0.0000009499 0.0000000503 0.0000000669 0.0000001334 0.0000001667 0.0000002334 0.0000002667 0.0000003333 0.0000003667 0.0000004333 0.0000004667 0.0000005333 0.0000005667 0.0000006333 0.0000006667 0.0000007333 0.0000007666 0.0000008333 0.0000008666 0.0000009330 0.0000009497 0.0000000506 0.0000000671 0.0000001335 0.0000001667 0.0000002334 0.0000002667 0.0000003333 0.0000003667 0.0000004333 0.0000004667 0.0000005333 0.0000005667 0.0000006333 0.0000006667 0.0000007333 0.0000007666 0.0000008332 0.0000008665 0.0000009329 0.0000009495 0.0000000508 0.0000000673 0.0000001336 0.0000001668 0.0000002334 0.0000002667 0.0000003333 0.0000003667 0.0000004333 0.0000004667 0.0000005333 0.0000005667 0.0000006333 0.0000006667 0.0000007333 0.0000007666 0.0000008332 0.0000008664 0.0000009326 0.0000009493 0.0000000513 0.0000000676 0.0000001337 0.0000001668 0.0000002334 0.0000002667 0.0000003334 0.0000003667 0.0000004333 0.0000004667 0.0000005333 0.0000005667 0.0000006333 0.0000006666 0.0000007333 0.0000007666 0.0000008331 0.0000008663 0.0000009322 0.0000009489 0.0000000518 0.0000000680 0.0000001339 0.0000001669 0.0000002335 0.0000002667 0.0000003334 0.0000003667 0.0000004333 0.0000004667 0.0000005333 0.0000005667 0.0000006333 0.0000006666 0.0000007333 0.0000007666 0.0000008330 0.0000008661 0.0000009318 0.0000009484 0.0000000526 0.0000000686 0.0000001342 0.0000001670 0.0000002335 0.0000002668 0.0000003334 0.0000003667 0.0000004333 0.0000004667 0.0000005333 0.0000005667 0.0000006333 0.0000006666 0.0000007332 0.0000007665 0.0000008329 0.0000008659 0.0000009311 0.0000009477 0.0000000536 0.0000000694 0.0000001345 0.0000001672 0.0000002336 0.0000002668 0.0000003334 0.0000003667 0.0000004333 0.0000004667 0.0000005333 0.0000005667 0.0000006333 0.0000006666 0.0000007332 0.0000007664 0.0000008327 0.0000008656 0.0000009302 0.0000009468 0.0000000550 0.0000000705 0.0000001350 0.0000001674 0.0000002337 0.0000002668 0.0000003334 0.0000003667 0.0000004334 0.0000004667 0.0000005333 0.0000005667 0.0000006333 0.0000006666 0.0000007331 0.0000007663 0.0000008325 0.0000008651 0.0000009290 0.0000009455 0.0000000569 0.0000000720 0.0000001356 0.0000001677 0.0000002338 0.0000002669 0.0000003334 0.0000003667 0.0000004334 0.0000004667 0.0000005333 0.0000005666 0.0000006333 0.0000006666 0.0000007331 0.0000007662 0.0000008321 0.0000008646 0.0000009273 0.0000009438 0.0000000594 0.0000000740 0.0000001364 0.0000001682 0.0000002340 0.0000002670 0.0000003335 0.0000003667 0.0000004334 0.0000004667 0.0000005333 0.0000005666 0.0000006332 0.0000006665 0.0000007329 0.0000007660 0.0000008317 0.0000008638 0.0000009251 0.0000009415 0.0000000627 0.0000000766 0.0000001376 0.0000001687 0.0000002343 0.0000002671 0.0000003336 0.0000003668 0.0000004334 0.0000004667 0.0000005333 0.0000005666 0.0000006332 0.0000006665 0.0000007328 0.0000007658 0.0000008310 0.0000008627 0.0000009222 0.0000009385 0.0000000669 0.0000000799 0.0000001391 0.0000001695 0.0000002346 0.0000002673 0.0000003336 0.0000003668 0.0000004334 0.0000004667 0.0000005333 0.0000005666 0.0000006332 0.0000006664 0.0000007326 0.0000007655 0.0000008302 0.0000008613 0.0000009186 0.0000009346 0.0000000720 0.0000000841 0.0000001410 0.0000001705 0.0000002351 0.0000002676 0.0000003337 0.0000003669 0.0000004334 0.0000004667 0.0000005333 0.0000005666 0.0000006331 0.0000006663 0.0000007323 0.0000007650 0.0000008291 0.0000008595 0.0000009141 0.0000009298 0.0000000778 0.0000000891 0.0000001432 0.0000001718 0.0000002356 0.0000002679 0.0000003339 0.0000003669 0.0000004334 0.0000004667 0.0000005333 0.0000005666 0.0000006330 0.0000006662 0.0000007320 0.0000007645 0.0000008277 0.0000008573 0.0000009090 0.0000009241 0.0000000837 0.0000000943 0.0000001456 0.0000001732 0.0000002363 0.0000002682 0.0000003340 0.0000003670 0.0000004335 0.0000004667 0.0000005333 0.0000005665 0.0000006329 0.0000006660 0.0000007316 0.0000007639 0.0000008263 0.0000008549 0.0000009038 0.0000009182 0.0000000878 0.0000000988 0.0000001474 0.0000001745 0.0000002367 0.0000002685 0.0000003341 0.0000003671 0.0000004335 0.0000004667 0.0000005333 0.0000005665 0.0000006329 0.0000006659 0.0000007314 0.0000007633 0.0000008252 0.0000008529 0.0000009003 0.0000009132 
</DataArray>
<DataArray type="Float64" Name="velocity_p0" NumberOfComponents="3" format="ascii">