<?xml version="1.0"?>
<VTKFile type="UnstructuredGrid" version="0.1" byte_order="LittleEndian">
<UnstructuredGrid>
<Piece NumberOfPoints="133" NumberOfCells="393">
<Points>
<DataArray type="Float64" NumberOfComponents="3" format="ascii">
0 0 -1 0 0.1419064153440632 -0.85809358465605046 0.14138946044788619 0.141933462342688 -1 0.17663550269374309 0.2000173280584561 -0.80767327345777706 0.14192670059260701 0 -0.85802340138044431 0.24999999999941211 0 -1 0.49924645474497431 0.19077333889470441 -1 0.49999999999869432 0 -1 0.27864353689002019 0 -0.72105707495041649 0 0 -0.74999999999934164 0 0.27852182539691489 -0.72147817460311425 0.36400213509809493 0.30340182266465199 -0.71803582340462213 0.49631982208178133 0.49903983155338327 -1 0.27542009602191558 0.2786841073879448 -1 0 0.25000000000104028 -1 0 0.50000000000205869 -1 0.19232253086422449 0.50146053791918455 -1 0 0.50023418051147772 -0.80910018661861283 0 0.72340718694886286 -0.72340718694880013 0 0.80935234175974147 -0.50021433470480037 0 1 -0.74999999999934164 0 1 -1 0 0.75000000000034661 -1 0 0.85590277777789092 -0.85590277777763279 0.14190641534415949 0.85809358465625163 -1 0.14141650744674819 1 -0.85809358465604513 0.4995456570474846 0.80901946774026934 -1 0.25000000000104028 1 -1 0.49967339473549249 1 -0.80913800705467398 0.27558237801302449 1 -0.72147817460308317 0.49999999999996553 1 -0.50000000000003098 0.42348748445510859 0.67651247978210449 -0.75231254100799561 0.27852182539691328 0.7214781746031842 -1 0.72106926594561294 0.72137148922016592 -1 0.72147817460319108 1 -0.72147817460312469 0.50000000000205869 1 -1 0.85809358465621599 1 -0.8580935846559189 0.75000000000034661 1 -1 0.85802543321328628 0.85807580375875903 -1 1 0.85809358465601437 -0.85809358465601437 1 1 -1 1 1 -0.74999999999934164 1 0.72147817460311847 -0.72147817460311847 1 0.74999999999934164 -1 0.764412522315979 0.67651247978210449 -0.75231254100799561 1 0.49999999999869432 -1 1 0.49999999999972489 -0.80913800705468164 0.80868366410180859 0.49988146068535011 -1 0.764412522315979 0.33558750152587891 -0.75231254100799561 1 0.24999999999941211 -1 1 0.14190641534373399 -0.85809358465589558 1 0 -1 0.85809358465601437 0 -0.85809358465601437 0.85809358465589669 0.14190641534373391 -1 0.74999999999934164 0 -1 0.50013523499221102 0 -0.80867011855167226 0.72147817460313113 0.27852182539678161 -1 0.72147817460311847 0 -0.72147817460311858 1 0 -0.74999999999934164 1 0.19232253086420811 -0.50146053791859801 1 0.27852182539678272 -0.72147817460312469 1 0.49738970948455541 -0.4998377180089762 1 0.27365336566714249 -0.27365336566714249 0.80925971854791523 0 -0.49925229508213942 1 0 -0.49999999999869432 0.72147817460308961 0 -0.2755823780128876 0.50109540343913672 0 -0.49621010312562502 0.72305346565390649 0.3029574597295554 -0.36031078036159248 0.72147817460313146 0.27852182539678172 0 0.5010954034391506 0.49890459656082159 0 0.50158224941189322 0.19220081937093081 0 0.74999999999934164 0 0 0.85809358465589691 0.14190641534373391 0 0.82035644440722078 0.17329324848814129 -0.19386381810203029 0.8580935846558897 0 -0.1414165074464182 1 0 0 1 0 -0.24999999999941211 1 0.1440972222221624 -0.1440972222221624 1 0.24999999999941211 0 0.80927324204716267 0.49986476500725602 0 1 0.49999999999869432 0 1 0.50146053791859801 -0.19232253086420811 1 0.74999999999934164 0 0.764412522315979 0.67651247978210449 -0.41138750314712519 1 0.72147817460312469 -0.27852182539678277 0.80913800705466277 1 -0.49999999999972899 1 0.80884797477518766 -0.49998196866738898 1 1 -0.49999999999869432 1 1 -0.24999999999941211 1 1 0 1 0.85809358465589558 -0.1419064153437341 0.85811386990508953 0.85807329940704491 0 0.75000000000034661 1 0 0.85809358465609753 1 -0.14190641534383081 0.50159577291168977 0.80754223414328785 0 0.50000000000205869 1 0 0.72147817460319741 1 -0.27852182539678338 0.72159988609643178 0.72135646310988133 0 0.27589492110682312 0.72442964287534417 0 0.42348748445510859 0.67651247978210449 -0.41138750314712519 0.27558237801301821 1 -0.27852182539675591 0.49967339473549238 1 -0.19086199294534331 0.25000000000104028 1 0 0.1414165074468669 1 -0.14190641534369289 0.14146859796247779 0.85858549603494483 0 0 0.85809358465609809 -0.14190641534383031 0 0.75000000000034661 0 0 1 0 0 1 -0.24999999999941211 0.19378306878302151 1 -0.49999999999974709 0 1 -0.49999999999869432 0 0.72147817460320118 -0.27852182539678011 0 0.50017861225427096 -0.49773060372977418 0 0.50000000000205869 0 0 0.50000000000037348 -0.1908619929453429 0 0.25000000000104028 0 0.16779372096061709 0.25035625696182251 -0.15569373965263369 0.19390478027631419 0.49987828850705518 0 0.27589341849557891 0.27527133753033889 0 0.42348748445510859 0.33558750152587891 -0.41138750314712519 0 0.27852182539690867 -0.27852182539678699 0.19099722793781729 0 -0.49920550623183851 0 0 -0.49999999999869432 0 0.190861992945314 -0.49999999999972489 0.27852182539674158 0 -0.27558237801288138 0.49999999999869432 0 0 0.49999999999974359 0 -0.1937830687830959 0.24999999999941211 0 0 0.14190641534384699 0 -0.14141650744653689 0.14146834752682999 0.14136466736642039 0 0 0.14190641534418191 -0.14190641534369811 0 0 -0.24999999999941211 0 0 0 
</DataArray>
</Points>
<Cells>
<DataArray type="UInt32" Name="connectivity" format="ascii">
2 5 13 3 4 5 8 0 1 2 14 1 2 3 9 2 3 4 9 2 3 13 14 3 4 8 9 1 3 9 10 0 1 2 9 0 2 4 9 0 2 14 1 3 10 14 2 3 5 13 2 13 14 1 2 3 14 2 3 4 5 0 2 4 5 0 2 5 5 6 8 55 5 6 7 55 3 6 8 11 6 8 11 55 3 6 11 13 3 5 6 8 3 5 6 13 5 6 13 5 6 7 11 66 119 121 8 11 66 121 8 11 55 66 3 8 11 121 9 10 121 123 9 121 122 123 11 119 121 123 3 9 10 121 10 11 121 123 3 10 11 121 3 8 9 121 11 112 119 123 11 17 31 112 10 11 112 123 10 11 17 112 11 31 48 119 11 31 112 119 11 12 13 16 6 12 13 11 12 16 31 3 11 13 16 12 13 16 6 11 12 13 3 13 14 16 3 10 14 16 11 16 17 31 14 15 16 17 14 15 16 13 14 16 10 11 16 17 3 10 11 16 10 14 16 17 15 16 17 22 17 18 31 32 16 17 31 32 17 18 22 32 16 17 22 32 16 22 32 15 16 22 18 19 31 112 17 18 31 112 19 31 99 112 19 20 29 109 19 20 109 110 18 19 29 31 19 29 99 109 18 19 20 29 18 22 23 32 20 21 23 25 22 24 32 23 24 25 29 24 27 32 24 27 29 32 18 29 31 32 21 24 27 20 23 25 29 23 24 29 32 24 25 27 29 21 24 25 27 18 23 29 32 18 20 23 29 22 23 24 32 21 23 24 25 21 22 23 24 21 22 24 27 28 29 32 26 28 31 32 28 29 31 32 26 27 32 26 27 28 35 26 27 35 26 27 28 32 19 29 31 99 29 30 31 99 29 30 99 109 28 29 30 31 31 99 112 119 12 16 32 12 16 31 32 12 26 32 12 26 31 32 12 31 33 44 12 26 31 33 12 26 33 12 33 47 12 31 44 48 12 44 47 48 12 33 44 47 31 44 99 119 44 48 83 119 31 44 48 119 30 31 44 99 30 34 83 85 30 34 44 83 30 44 83 99 28 30 34 44 28 30 31 44 26 28 33 37 26 28 31 33 26 28 35 37 28 33 34 44 28 33 34 37 26 33 37 26 35 37 28 31 33 44 34 36 41 42 36 39 40 41 34 36 42 44 38 40 43 36 39 41 42 36 38 39 42 38 42 43 44 33 38 43 38 39 42 43 36 38 42 44 33 37 38 33 38 43 44 33 36 37 38 33 34 36 37 33 36 38 44 33 34 36 44 38 39 40 43 37 38 40 36 37 38 40 36 38 39 40 41 42 85 86 34 41 42 85 42 83 85 86 41 85 86 87 34 42 83 85 34 42 44 83 42 44 61 83 44 48 61 83 42 44 46 61 44 46 48 61 42 61 83 86 43 45 47 44 46 47 48 43 45 46 47 42 43 44 46 33 43 47 43 44 46 47 33 43 44 47 45 46 47 49 48 49 50 60 45 47 49 48 49 53 56 46 47 48 49 47 49 56 46 48 49 60 47 48 49 56 50 51 52 58 48 50 53 57 50 52 53 57 50 52 57 58 51 53 54 49 51 53 48 49 50 53 51 52 53 54 53 54 56 57 53 54 56 48 50 57 60 50 57 58 60 48 53 56 57 49 53 56 52 53 54 57 49 50 51 53 50 51 52 53 6 54 56 54 55 56 57 11 55 56 57 11 48 56 57 6 7 54 55 6 54 55 56 6 11 55 56 6 7 54 11 12 31 48 6 11 12 56 6 12 56 11 12 48 56 12 47 56 12 47 48 56 48 57 67 119 11 55 57 66 57 63 66 67 11 57 66 119 11 48 57 119 48 57 60 67 57 58 59 63 57 59 60 67 57 58 59 60 58 59 63 64 57 59 63 67 46 48 60 61 48 60 61 67 59 60 61 67 48 61 67 83 61 62 67 81 62 67 73 81 59 61 62 67 61 67 81 83 59 62 63 76 59 62 63 67 59 63 64 76 63 65 67 73 62 63 67 73 63 65 73 76 62 63 73 76 65 67 73 126 65 66 67 126 66 67 119 126 57 66 67 119 63 65 66 67 67 69 83 119 48 67 83 119 67 68 69 79 67 69 79 83 67 69 70 119 67 68 69 70 67 70 73 126 67 68 70 73 68 70 71 73 65 71 73 126 70 71 73 126 70 71 125 126 67 70 119 126 62 73 77 78 65 71 73 74 68 72 73 78 62 73 76 77 65 73 74 76 71 72 74 75 68 71 72 73 71 72 73 74 72 75 76 77 72 74 75 76 72 73 74 76 72 73 76 77 72 75 77 78 72 73 77 78 62 73 78 81 78 79 80 81 67 68 79 81 67 68 73 81 68 73 78 81 67 79 81 83 68 78 79 81 79 82 84 97 79 81 83 84 79 83 84 97 79 81 82 84 79 80 81 82 61 83 84 86 61 81 83 84 84 85 88 96 83 84 85 96 84 85 86 88 85 86 87 88 83 84 85 86 84 88 90 93 88 89 90 93 82 89 90 91 82 84 90 91 82 84 91 97 83 84 96 97 84 88 93 96 84 90 91 93 91 92 96 97 84 91 93 96 84 91 96 97 91 92 93 96 89 90 91 93 89 91 92 93 94 96 99 101 83 94 96 97 92 94 96 101 92 94 95 101 92 94 96 97 83 94 96 99 30 96 99 101 30 83 85 96 30 83 96 99 44 83 99 119 69 83 99 119 69 83 94 99 69 83 94 97 69 79 83 97 69 98 99 117 69 94 98 99 69 99 117 119 99 114 117 119 30 99 100 101 30 99 100 109 98 100 101 102 94 98 99 101 94 95 101 102 98 99 100 101 94 98 101 102 98 103 104 105 98 102 103 104 98 99 100 111 98 104 105 106 98 100 102 103 98 105 106 111 100 103 105 108 102 103 104 107 100 105 108 111 98 100 103 105 98 100 105 111 104 105 106 107 103 104 105 107 103 105 107 108 19 100 108 111 19 99 100 111 19 99 100 109 19 108 109 110 19 100 108 109 19 99 111 112 99 111 112 114 99 112 114 119 98 99 114 117 98 99 111 114 98 106 111 114 98 106 114 117 106 113 114 117 114 115 116 120 113 114 115 117 114 116 117 119 115 116 117 118 114 115 116 117 69 117 118 119 116 117 118 119 69 70 118 119 114 116 119 120 112 114 119 120 112 119 120 123 119 120 121 123 116 119 120 121 116 121 124 131 116 120 121 131 120 121 123 131 121 122 123 131 116 119 124 126 66 119 124 126 116 119 121 124 66 119 121 124 70 118 126 127 70 125 126 127 116 118 126 127 116 118 119 126 70 118 119 126 116 124 126 127 116 129 130 131 115 116 120 130 116 128 129 131 116 124 127 128 116 127 128 129 127 128 129 132 116 118 127 129 115 129 130 132 116 120 130 131 115 116 118 129 116 124 128 131 115 116 129 130 129 130 131 132 128 129 131 132 
</DataArray>
<DataArray type="UInt32" Name="offsets" format="ascii">
3 7 11 15 19 23 27 31 35 39 42 46 50 53 57 61 65 68 72 76 80 84 88 92 96 99 102 106 110 114 118 122 126 130 134 138 142 146 150 154 158 162 166 170 174 177 181 185 188 192 196 200 204 208 211 214 218 222 226 230 234 238 242 246 249 252 256 260 264 268 272 276 280 284 288 292 295 299 302 306 310 313 317 321 325 329 333 337 341 345 349 352 356 360 364 367 371 374 378 382 386 390 394 398 401 405 408 412 416 420 423 426 430 434 438 442 446 450 454 458 462 466 470 474 478 482 486 490 494 497 500 504 508 512 516 519 523 527 531 534 538 542 545 549 553 557 561 565 569 572 576 580 584 588 592 596 600 604 608 612 616 620 624 627 631 635 639 642 646 650 654 658 661 665 669 672 676 680 684 688 692 696 699 702 706 710 714 717 721 725 729 732 736 740 744 747 751 755 759 763 767 771 774 778 782 785 789 792 796 800 804 808 812 816 820 824 828 832 836 840 844 848 852 856 860 864 868 872 876 880 884 888 892 896 900 904 908 912 916 920 924 928 932 936 940 944 948 952 956 960 964 968 972 976 980 984 988 992 996 1000 1004 1008 1012 1016 1020 1024 1028 1032 1036 1040 1044 1048 1052 1056 1060 1064 1068 1072 1076 1080 1084 1088 1092 1096 1100 1104 1108 1112 1116 1120 1124 1128 1132 1136 1140 1144 1148 1152 1156 1160 1164 1168 1172 1176 1180 1184 1188 1192 1196 1200 1204 1208 1212 1216 1220 1224 1228 1232 1236 1240 1244 1248 1252 1256 1260 1264 1268 1272 1276 1280 1284 1288 1292 1296 1300 1304 1308 1312 1316 1320 1324 1328 1332 1336 1340 1344 1348 1352 1356 1360 1364 1368 1372 1376 1380 1384 1388 1392 1396 1400 1404 1408 1412 1416 1420 1424 1428 1432 1436 1440 1444 1448 1452 1456 1460 1464 1468 1472 1476 1480 1484 1488 1492 1496 1500 1504 1508 1512 1516 1520 1524 1528 1532 
</DataArray>
<DataArray type="UInt32" Name="types" format="ascii">
5 10 10 10 10 10 10 10 10 10 5 10 10 5 10 10 10 5 10 10 10 10 10 10 10 5 5 10 10 10 10 10 10 10 10 10 10 10 10 10 10 10 10 10 10 5 10 10 5 10 10 10 10 10 5 5 10 10 10 10 10 10 10 10 5 5 10 10 10 10 10 10 10 10 10 10 5 10 5 10 10 5 10 10 10 10 10 10 10 10 10 5 10 10 10 5 10 5 10 10 10 10 10 10 5 10 5 10 10 10 5 5 10 10 10 10 10 10 10 10 10 10 10 10 10 10 10 10 10 5 5 10 10 10 10 5 10 10 10 5 10 10 5 10 10 10 10 10 10 5 10 10 10 10 10 10 10 10 10 10 10 10 10 5 10 10 10 5 10 10 10 10 5 10 10 5 10 10 10 10 10 10 5 5 10 10 10 5 10 10 10 5 10 10 10 5 10 10 10 10 10 10 5 10 10 5 10 5 10 10 10 10 10 10 10 10 10 10 10 10 10 10 10 10 10 10 10 10 10 10 10 10 10 10 10 10 10 10 10 10 10 10 10 10 10 10 10 10 10 10 10 10 10 10 10 10 10 10 10 10 10 10 10 10 10 10 10 10 10 10 10 10 10 10 10 10 10 10 10 10 10 10 10 10 10 10 10 10 10 10 10 10 10 10 10 10 10 10 10 10 10 10 10 10 10 10 10 10 10 10 10 10 10 10 10 10 10 10 10 10 10 10 10 10 10 10 10 10 10 10 10 10 10 10 10 10 10 10 10 10 10 10 10 10 10 10 10 10 10 10 10 10 10 10 10 10 10 10 10 10 10 10 10 10 10 10 10 10 10 10 10 10 10 10 10 10 10 10 10 10 10 10 10 10 10 10 10 10 10 10 10 10 10 
</DataArray>
</Cells>
<CellData Scalars="pressure_p0," Vectors="velocity_p0," Tensors="anisotropy,">
<DataArray type="Float64" Name="pressure_p0" format="ascii">
-3.7386089473967363 -0.26091985702430265 -0.55706459301044153 -0.33386161746501986 -0.33789575059552251 -1.1812535806803419 -0.14511390285576023 -0.1325769692221902 -0.23772883726117555 -0.23899852593186488 -3.7385601119643543 -0.23678685179756964 -1.1925273125765541 -3.7386087306930347 -0.62432677357522526 -0.6387149530511651 -0.55965893164089353 -3.7385602873504524 -0.45072856598538857 -0.73546548643358078 -0.73613383929719378 -0.57441943105079274 -1.1870028619786031 -0.7175815881378893 -1.3925842847323482 -3.7386516939033849 -3.7386323671602937 -0.17143311390099786 -0.13798045171618289 -0.2224011611883448 -0.29640194725275848 -0.033578554736298415 -0.015461302873755748 -0.17351740499995855 -0.11263914781825861 -0.16809432792535503 -0.32059475359104117 -0.094545086977701781 -0.18977604447809543 -0.48488261596248411 -0.15762736491177043 -0.24643368582999309 -0.58956753682767338 -0.39676423837879349 -1.6655264623404245 -3.7387227358677659 -1.3757637469097892 -1.2133849895990041 -3.7387240446741545 -1.6311774295738068 -1.3781262942370669 -0.69446062830892941 -0.91874367009457136 -0.73507821857399858 -3.7386338556095908 -3.7386524055772177 -0.60208223618961232 -0.75485624665738937 -0.44723428744417965 -0.70887374962047611 -0.71034574452539989 -1.1639430727662556 -0.60822416235224253 -1.2418221539528123 -3.7386682613599933 -3.7386409332825048 -0.19280814321322229 -0.28874909622877304 -0.20870330957127042 -0.0366406509874143 -0.016927683859381919 -0.28806438983349714 -0.11822361263256619 -0.068590288063864635 -0.5965254490045655 -0.060077960190479007 -3.7386330831386445 -0.30870491308477876 -3.7386352503521709 -1.0266509877715857 -0.65930360081406714 -3.738585597277726 -0.0621844102820178 -0.81034385341977055 -0.35595300532348806 -0.56112788680799275 -0.49831100322131883 -0.10481950514331245 -1.1472210353939991 -0.38931761440815338 -0.54387240328034714 -3.738584143018048 -0.59303552181558361 -1.1502870241211538 -0.68582881938072637 -3.738671152373588 -0.69484759109692606 -3.7386467922326703 -1.2393847854456073 -0.25142000016762089 -0.23665112193108229 -0.096662865766655073 -0.24544658298811051 -0.28956874437906543 -3.7387287298464567 -1.6981448692857191 -3.7387299386475741 -1.6610497092384584 -1.3493976073246474 -1.7183613795064461 -3.7387308893377718 -3.7387267019816681 -1.1366593247889256 -1.3114274333789726 -1.6297439997926777 -0.44253624346837267 -0.39202137053310826 -0.66200009610837685 -0.38234193132520355 -0.077557709281609988 -0.21078815513597918 -0.23119563116897285 -0.24147873882773618 -0.46290298845955924 -1.2611178468232318 -1.1932854527013503 -0.70004385486573684 -0.6422566396953503 -0.61204728604028458 -3.7386699770282288 -3.7386463426560996 -0.92550873656526955 -0.099524458654346171 -0.059794919414588331 -0.34390013805647773 -3.7385780683663912 -0.060804822251388974 -0.31016277855404883 -0.61841290334394827 -3.7386268457698084 -0.35837277957592578 -0.50567562871045457 -3.7386294981606114 -1.2716424972690032 -1.1455142434332624 -0.59992699572525265 -0.94656361559764579 -0.60504715737014858 -0.56272975297006134 -3.7385793978499131 -0.54468532130397707 -0.39114128282732463 -0.033767542551593852 -0.066809336307987646 -0.081046497250808092 -0.015426071516605203 -0.1202511728574689 -0.25708605235495813 -0.17138655254832147 -0.28414373306169771 -0.17509007546223257 -0.34631830061344976 -0.063133804713795566 -3.7386372006663353 -0.78443463006400582 -0.72927107198965646 -0.29185022433138752 -3.7386605272252664 -0.77920339714120535 -1.3309788145146149 -0.72986986203244053 -0.27989490475170592 -3.7386357130149803 -1.2455193077065854 -0.78106984960356884 -3.7386576304615544 -0.31022072098823339 -1.3206814014491355 -0.059180955056380297 -0.52062891361433838 -0.30445690161928934 -0.059173400719291398 -3.7385760137005266 -3.7385740165800501 -0.68584346765690929 -0.55952636140079437 -1.0157051119791234 -3.7386257770732292 -0.32018888154108355 -0.096238071299558789 -0.88317049636064859 -3.7386225063871801 -0.35299268457644556 -0.55423577133348756 -0.38870686846505892 -3.7386642027159467 -0.58272043232087545 -0.66922953802994667 -0.77713802314156522 -0.70775371099861561 -1.2489846180870379 -1.1109033523194565 -3.7386378129730731 -1.1105768823040711 -1.6767729301891867 -3.7387271854852266 -1.3154783983162579 -3.7387250581565881 -1.6280604865887038 -0.2846384456088259 -0.22678011286609037 -0.069687421932423249 -0.22181391251563498 -0.43073568746370361 -0.26728116945463715 -0.033687044604965626 -0.12233435817758233 -0.067639538268956606 -0.015512056611447847 -0.087594393976505008 -0.18043975681172209 -0.17356183200898187 -0.064777548919364408 -0.20183514617535378 -0.035309435683590046 -0.030007295968984202 -0.04377472144061182 -0.085979572010622007 -0.015740038231613213 -0.059470393050883683 -0.010562696938148297 -0.040392737401623746 -0.045024021369973521 -0.010061678762247957 -0.01328356728871399 -0.031138223216307926 -0.037781742759955286 -0.100545764273675 -0.15683669656128119 -0.049077357470091169 -0.13626388853829682 -0.27262027432039143 -0.023765687736415027 -0.065249936177322762 -0.067137113203889903 -0.023708496332250098 -0.031775324417381963 -0.024570030599548237 -0.0064414081608395509 -0.008107528878424879 -0.009919436209210113 -0.0032674481871179284 -0.068167063706929126 -0.0055586567167450595 -0.0054381828308546478 -0.0046740307326513754 -0.0066050119949518198 -0.005998462768033886 -0.00057692604594438953 -0.0045419730710217531 -0.0035866221047023313 -0.00075922244727042744 -0.00068602363903318283 -0.0040611265840164905 -0.0043046753071693715 -0.00063157389037975481 -0.0036834503076916313 -0.0077431661978525843 -0.0032329526239076112 -0.028260997126530286 -0.028282209546914232 -0.0085257802198651436 -0.060553421976422668 -0.0065898483970543527 -0.0058651620664187656 -0.028878384401165066 -0.027358131293988952 -0.0072382578801310554 -0.0033752019213640918 -0.041100564041105049 -0.032842798051236619 -0.0097111952414304491 -0.044376235530586484 -0.014765685823520211 -0.010195633295566124 -0.054816504332896476 -0.0026953076497750368 -0.00097526651242123069 -0.00082190964286578318 -0.0022590071322046434 -0.0042554993515199228 -0.034851696568939244 -0.0053720390285026528 -0.0057956919470619006 -0.004536074783464657 -0.0090118568134850245 -0.013467952724534377 -0.0022154590950727248 -0.002345988013428447 -0.00084297498728996779 -0.037267329086108469 -0.034651522211555125 -0.0073166783056367226 -0.0034188645329547252 -0.007137180915067291 -0.078628004474471269 -0.052911403649798038 -0.052044734894763391 -0.11855741916797256 -0.28045546332485138 -0.15169363015275586 -0.073745177339565579 -0.028247616970047001 -0.027385549228615833 -0.029221922902997959 -0.027938150538090501 -0.080998014686344946 -0.090014029069505536 -0.049549716184307889 -0.063374958657494179 -0.0068585015993037398 -0.030452945554039351 -0.0031961325823283687 -0.034280408624208336 -0.0060937617318661992 -0.0062144513328219169 -0.0025507359787863074 -0.043509182078324729 -0.0026038886852391748 -0.0049734382762934111 -0.0049948018839661946 -0.0026635963823535194 -0.00092602364649290543 -0.0055954104251606908 -0.009402680792487933 -0.014714721757313328 -0.00094567866369481464 -0.0025218572292771265 -0.0010108961046352795 -0.010912782399281231 -0.063199762495335057 -0.079509688227039188 -0.01169437563694295 -0.017831490200835104 -0.075858030484941524 -0.059126229808170026 -0.13618944284518059 -0.036546391821495661 -0.041114933535903488 -0.007671997220588739 -0.0073940698627682558 -0.0036402244203525861 -0.0089183503665239434 -0.003573505356846615 -0.041423168427441176 -0.0057740137503098487 -0.010138903838087866 -0.029787699071492674 -0.03155617035478267 -0.02875551597698842 -0.04328751699234127 -0.057036447755826052 -0.071431866484012063 -0.079446397967494808 -0.060073243978831098 -0.012621396809252108 -0.017145949573826747 -0.016120712036807934 -0.010555524426867802 -0.041230589548627058 -0.047950349694879692 -0.051746362435523767 -0.061138264196611461 -0.0061481415833628955 -0.0031057359016034461 -0.0092066469700542476 -0.036185662232906708 -0.033224077395885204 -0.010077150314493664 -0.004826957652895098 -0.0062604645386383235 -0.0054051027832372599 -0.0070543140037625414 -0.0042030256983697882 -0.00080362735817582007 -0.004425151373588768 -0.00048299859002613385 -0.0083288805544884 -0.0038390751840171248 -0.0081374313718975046 -0.0028578585595726825 -0.00095098574374548024 -0.0010539075014693803 
</DataArray>
<DataArray type="Float64" Name="velocity_p0" NumberOfComponents="3" format="ascii">