<?xml version="1.0"?>
<VTKFile type="UnstructuredGrid" version="0.1" byte_order="LittleEndian">
<UnstructuredGrid>
<Piece NumberOfPoints="572" NumberOfCells="1040">
<Points>
<DataArray type="Float64" NumberOfComponents="3" format="ascii">
-1 1 0 -1 -1 0 1 -1 0 1 1 0 -1 0 0 1 0 0 -0.90000000000027736 0 0 -0.80000000000055482 0 0 -0.70000000000083218 0 0 -0.60000000000110965 0 0 -0.500000000001387 0 0 -0.40000000000166441 0 0 -0.30000000000194182 0 0 -0.20000000000221921 0 0 -0.1000000000024964 0 0 -2.7522428780457631e-12 0 0 0.099999999997503419 0 0 0.19999999999778079 0 0 0.29999999999805832 0 0 0.39999999999833552 0 0 0.49999999999861289 0 0 0.59999999999889031 0 0 0.69999999999916795 0 0 0.79999999999944538 0 0 0.89999999999972258 0 0 -0.90000000000027736 1 0 -0.80000000000055482 1 0 -0.70000000000083218 1 0 -0.60000000000110965 1 0 -0.500000000001387 1 0 -0.40000000000166441 1 0 -0.30000000000194182 1 0 -0.20000000000221921 1 0 -0.1000000000024964 1 0 -2.7522428780457631e-12 1 0 0.099999999997503419 1 0 0.19999999999778079 1 0 0.29999999999805832 1 0 0.39999999999833552 1 0 0.49999999999861289 1 0 0.59999999999889031 1 0 0.69999999999916795 1 0 0.79999999999944538 1 0 0.89999999999972258 1 0 -0.90000000000027736 -1 0 -0.80000000000055482 -1 0 -0.70000000000083218 -1 0 -0.60000000000110965 -1 0 -0.500000000001387 -1 0 -0.40000000000166441 -1 0 -0.30000000000194182 -1 0 -0.20000000000221921 -1 0 -0.1000000000024964 -1 0 -2.7522428780457631e-12 -1 0 0.099999999997503419 -1 0 0.19999999999778079 -1 0 0.29999999999805832 -1 0 0.39999999999833552 -1 0 0.49999999999861289 -1 0 0.59999999999889031 -1 0 0.69999999999916795 -1 0 0.79999999999944538 -1 0 0.89999999999972258 -1 0 -1 0.90000000000027736 0 -1 0.80000000000055482 0 -1 0.70000000000083218 0 -1 0.60000000000110965 0 -1 0.500000000001387 0 -1 0.40000000000166441 0 -1 0.30000000000194182 0 -1 0.20000000000221921 0 -1 0.1000000000024964 0 -1 2.7522428780457631e-12 0 -1 -0.099999999997503419 0 -1 -0.19999999999778079 0 -1 -0.29999999999805832 0 -1 -0.39999999999833552 0 -1 -0.49999999999861289 0 -1 -0.59999999999889031 0 -1 -0.69999999999916795 0 -1 -0.79999999999944538 0 -1 -0.89999999999972258 0 1 -0.90000000000027736 0 1 -0.80000000000055482 0 1 -0.70000000000083218 0 1 -0.60000000000110965 0 1 -0.500000000001387 0 1 -0.40000000000166441 0 1 -0.30000000000194182 0 1 -0.20000000000221921 0 1 -0.1000000000024964 0 1 -2.7522428780457631e-12 0 1 0.099999999997503419 0 1 0.19999999999778079 0 1 0.29999999999805832 0 1 0.39999999999833552 0 1 0.49999999999861289 0 1 0.59999999999889031 0 1 0.69999999999916795 0 1 0.79999999999944538 0 1 0.89999999999972258 0 -0.01061383187313995 -0.01311481510474197 0 -0.40895472842853953 0.41418753126836783 0 0.41428571428567468 -0.41428571428575389 0 -0.42016887327654279 -0.4208605055044452 0 0.41074167542315759 0.42168097707896107 0 -0.54212116076986616 0.0046113257445018667 0 0.015519287095846599 0.5551031837384186 0 -0.0050789352056840927 -0.56310109343181958 0 0.56062717770032566 -2.1389767818838139e-14 0 -0.65796252927403542 0.65796252927403542 0 0.66198458460254794 -0.66063662966639447 0 -0.66063662966639791 -0.66198458460254872 0 0.65796252927397414 0.65796252927397414 0 -0.28251563123946388 0.1287216439643355 0 0.13397212543551329 -0.28031358885018698 0 0.1339721254355595 0.28031358885017171 0 -0.6924706066409958 0.27900381266943652 0 -0.27888571573028348 0.69739559123710171 0 -0.28805872176393071 -0.69079093640220368 0 0.69197059825779317 -0.27938503035669698 0 -0.6919705982576867 -0.27938503035656609 0 0.27938503035653511 -0.6919705982576807 0 0.27938503035660872 0.69197059825767149 0 0.69067474429601372 0.27443037162767908 0 -0.26187827783191181 -0.16000394219252231 0 0.28584940960420158 -0.046115340988881079 0 -0.1556578530938483 0.3511683732538059 0 -0.17371543536655429 -0.39282500672618448 0 0.4035092669611236 0.187566120197243 0 -0.77590751771552857 0.069359079097650989 0 -0.0687724357802353 0.76018566428803891 0 -0.069359079097684517 -0.77590751771551503 0 0.7614299711942577 -0.075453410862108869 0 0.44676955466743551 -0.18338046383346679 0 -0.4607330253638216 -0.19901559189860879 0 -0.47529887371052559 0.77285289764673681 0 -0.77737749670643286 0.48017667867029751 0 0.79454769647731782 -0.48796898025426 0 -0.48796898025427538 -0.79454769647732604 0 0.47406950461201208 -0.77927521322868998 0 -0.77927521322869797 -0.47406950461203001 0 0.77921578107193767 0.47418783337171971 0 0.47833357666690052 0.78249933000094973 0 -0.48567781430724483 0.20799293033512209 0 0.19722102451532189 -0.47643546384112118 0 0.2053642254569738 0.48660637280070562 0 -0.050217021994717982 -0.1998878767558474 0 -0.041844351132384307 0.19034476320312441 0 -0.79963922303082813 0.79963922303082813 0 -0.7996392230308087 -0.7996392230308107 0 0.79963922303081092 -0.79963922303080903 0 0.7996392230307916 0.7996392230307916 0 -0.8061644395414197 -0.12631527951348559 0 0.12631527951345339 -0.80616443954141204 0 0.12631527951351801 0.80616443954142625 0 0.8068972369333316 0.1225727985025421 0 -0.58297834562871875 0.49156092684301428 0 -0.48437148397650293 -0.59662319074318548 0 0.5961127143835756 -0.48296294557636638 0 0.49146884681693043 0.58140414164200693 0 -0.43131501912592651 0.59635644645846486 0 -0.59919948168610138 -0.44167040413495873 0 0.4285222361163098 -0.58868518819109983 0 0.59502227511536832 0.43455421919087278 0 -0.37291926432290312 -0.030800522046931771 0 0.13571949057218641 0.085222065187543425 0 -0.26878942544373657 0.51758309261608526 0 -0.18186924584182881 -0.003835595458241841 0 0.0005410890823097066 -0.38385210394383662 0 0.0046850495617647954 0.39069444846047918 0 -0.16370242646336891 -0.5777762045036029 0 0.30331513502589569 -0.28623252516880388 0 0.55173719981312863 0.1615540178945119 0 0.1150689758475002 -0.1090543261930367 0 -0.6365481942048683 0.83677605187738835 0 -0.82992510631214866 0.64549295198774048 0 0.83677605187737092 -0.63654819420483844 0 -0.63654819420484821 -0.83677605187738091 0 0.64197509449883328 -0.83441826052837542 0 -0.83441826052838386 -0.6419750944988396 0 0.83677605187769888 0.63654819420475084 0 0.6334687565798498 0.82318393499880649 0 0.29511574677936109 0.3033883323063018 0 -0.31065821093002632 0.30278410835350889 0 -0.84008359246699993 0.2167927422095616 0 -0.21075466135571319 0.84321874838420763 0 -0.2167927422096024 -0.84008359246699449 0 0.84524898577641994 -0.21106975294376329 0 -0.85001967829287361 -0.3205140356601322 0 0.32051403566010889 -0.85001967829286618 0 0.32240434483541353 0.85119520548779715 0 0.85090154059463952 0.32307040874386789 0 0.53897915924703976 -0.3177105192612491 0 0.59930457432615736 -0.1559405615036521 0 -0.64188275786890203 -0.12647599944499299 0 0.1338316671469508 -0.64086639143040158 0 0.13778857131570069 0.64288997289471894 0 -0.324703651358907 -0.54237645725363381 0 -0.13669542358530201 0.61954828258117756 0 -0.63588638069197712 0.13518527981977951 0 -0.30247020696682608 -0.30861246261794911 0 0.51428656432750353 0.31045521862802189 0 0.41422621598292048 0.026720431725729611 0 0.33640632039013108 0.55539601205575828 0 -0.56317640015462289 0.33341464725815168 0 -0.36421308363204069 0.86290249142720332 0 -0.86206916956704671 0.35402627809683412 0 0.86040239119392747 -0.35419161167421048 0 -0.35402627809680381 -0.86206916956708635 0 0.6854508402638263 0.092623841405805707 0 -0.5600042615204982 -0.3022392442516032 0 -0.1859451725580179 0.21409168185188579 0 -0.1117146801132619 0.48450184907249128 0 0.35195110864426732 -0.53274079443453226 0 0.28891988136383823 0.095418886744580309 0 0.25493211416795292 -0.18030784790426341 0 -0.45528489496905511 0.079540665230630234 0 -0.1562772572313921 -0.26985735987571691 0 -0.86937922163151948 -0.030439385579060979 0 0.03043938557903034 -0.86937922163151227 0 0.030439385579088641 0.8693792216315176 0 0.86762859033409412 0.030171108964265701 0 -0.17358787540932591 -0.67886754505165448 0 -0.13617080003583551 0.1187866776106193 0 0.20865667840883431 0.21232375481067081 0 -0.69490903249875124 0.00036097509575783588 0 0.01020054443356978 -0.68272682549687891 0 0.0027121555186365421 0.69328740708298164 0 -0.7001636117650285 0.39221782672037542 0 0.68496067693368512 -0.39295322630166168 0 -0.39410857488925027 -0.68531385852577364 0 0.4053486679224958 0.70152274590348562 0 -0.54718362253020481 0.68301288061983978 0 0.54638374923678279 -0.68391710636282899 0 -0.68391710636283531 -0.54638374923679189 0 0.68408745299593998 0.54704171078932162 0 0.1195693579436254 -0.40079776512214388 0 -0.079615991940835878 -0.46599381596091 0 0.28624975374721839 -0.40582618990558561 0 -0.2885572025066192 -0.42787505339128901 0 -0.87935476757633946 -0.21242231670899131 0 0.2124223167089675 -0.87935476757633346 0 0.2126323510617977 0.87948538170912449 0 0.88056301356103406 0.21527296220369491 0 0.038482929977862519 0.1236927312288916 0 0.071590737074179095 0.46853165542657121 0 -0.092728214705634679 -0.082511708636141962 0 0.38864083852905978 -0.07911249888001344 0 -0.89136455902115863 0.89136455902115896 0 -0.88313294977548285 -0.88313294977557599 0 0.8831329497755761 -0.88313294977548296 0 0.89136455902110656 0.89136455902110634 0 -0.47268263746841882 -0.086050535039233877 0 -0.36770489836975179 -0.13455337528768371 0 -0.53086838324734975 0.88709554258287093 0 -0.88716653153493263 0.54638256175438171 0 0.88709554258288925 -0.53086838324735519 0 -0.5308683832473674 -0.88709554258289625 0 0.53086838324688512 -0.8870955425831647 0 -0.88709554258317225 -0.53086838324689811 0 0.88709554258318302 0.53086838324689045 0 0.5440885360085943 0.88643213825344347 0 -0.68501913887596033 0.55222549982965841 0 -0.550882928589565 -0.69455312426130233 0 0.69526220540688566 -0.55046977004277375 0 0.55190032164238356 0.6846030938644686 0 0.40479761625167299 0.28135772693983119 0 -0.89539395919160814 0.1062979057056538 0 -0.1097640704688327 0.88452386634203251 0 -0.11514387165657811 -0.87424123159094724 0 0.88452386634202718 -0.1097640704688658 0 0.70096774425951325 -0.16931
[...]
<CellData Scalars="pressure_diff,velocity_diff,div_diff,pressure_p0,piezo_head_p0," Vectors="velocity_p0," Tensors="">
<DataArray type="Float64" Name="pressure_diff" format="ascii">
0.022505815958159633 0.0045560761861479721 0.0025598417637065275 0.0019512422835652008 0.0012690477734903585 0.00061497664604160079 0.0022444065879164885 0.0033142693428728233 0.003244581105784248 0.003335206872371189 0.0036793910272772882 0.0038741233481205065 0.0039748617157480508 0.003598488914197567 0.0025690280966146678 0.0014631619983355205 0.0013407144775752745 0.0049126810013302288 0.007545384074239824 0.021123714223624756 0.0014293562106088848 0.0015022704439946642 0.0010045814014272801 0.0021364536501111784 0.0013626825352306322 0.0029777665614559895 0.0010912967602106731 0.0008478784351403525 0.0035722838121497198 0.00078932055371187825 0.00077245573220905979 0.0017378334859687445 0.001789514273937998 0.00067515678670862814 0.0020655569458058777 0.00038775592930955871 0.0019787387974737627 0.0016139086139760719 0.0014261815333927667 0.0030274273142438914 0.0029932713501390515 0.001333452996964178 0.004132244883974596 0.0015893540362049584 0.00022758537551367732 0.0014073645551064236 0.0017073218630303218 0.00024039117983627324 0.00025624484720426305 0.0016714118266027635 0.0018599151772047773 0.00026819873752975979 0.001384937943915717 0.0001584811780832948 0.0016966415344154672 0.0019531159098123679 0.00016384140754967288 0.00017472221887767113 0.0019314627157172135 0.0021522112811643178 0.00016746502014611475 0.0002594230078276263 0.002247648587315897 0.0025029317273541842 0.00026534670501126602 0.0013911283753206523 0.0013244451877885747 0.00077439037377397262 0.0012122261566186632 0.00061528864467452944 0.00080597167891900072 0.0017023656966015962 0.0016168654248482821 0.00069831814992463734 0.0018834930456237175 0.0038998991354156866 0.001146478236084921 0.0018449695306756364 0.00040220737725699162 0.0020117689396934478 0.0008166982548386346 0.00082617873266564051 0.0033344271307469983 0.00046200890094699791 0.00044176850669565119 0.0016166162777882503 0.00087326066836170251 0.0010126104943481932 0.0009149934905514532 0.0010579476402344044 0.0013185009042026262 0.0013167548682832665 0.0013858029020964702 0.0013820652397300546 0.00079946787037023215 0.001151719661876463 0.00080903883238022355 0.0012739979278401901 0.00097392234907099705 0.0043895132090954955 0.0021961733481383411 0.00051456715094920936 0.00052172884268587415 0.0024319097015910195 0.0015120058068055172 0.0015381271339816891 0.0037336979314501399 0.0035701124307362256 0.00068065666289077913 0.0014938264699298396 0.0013481279451898625 0.000532053806456643 0.0025160890233399129 0.0013039941362818417 0.0012085935411505922 0.00062014868791584392 0.0011600578969922328 0.0043889708249888627 0.0016269067362463252 0.0021324633762196434 0.0021489456095715887 0.0025634923117617359 0.0013631364007532479 0.0010283573142221229 0.0013753988494227506 0.0015118373817422581 0.0015351346132226348 0.0010630315387934188 0.0015615911810154958 0.0018564081105335076 0.0015569251058716643 0.0013442077869162076 0.00018725468693853869 0.0047094337522095939 0.0053818259654647375 0.00017497092791764524 0.00066885714752017752 0.0061056517023480921 0.00034828759329180357 0.00032922901715327229 0.0067040261518158768 0.0010844022367694944 0.0013985536031585293 0.0015918062971967278 0.0026888928318995024 0.00014763987018547367 0.00015399629682754431 0.0024043622541165145 0.0018249177585399051 0.0013670619890867705 0.00014602877595227865 0.00091135383360831828 0.001025242421440535 0.00015689619460690506 0.00016804096059237428 0.00098920465616424971 0.0010963093387963859 0.00017515433788287834 0.0016063915598772145 0.0013188194954486367 0.0025201513293095852 0.0014584026779101444 0.0012419305499141522 0.0012612485646788624 0.0015512428376566122 0.0021992378897093016 0.0015796523143209247 0.00088967685606779656 0.0010710378149579498 0.0014585354275278256 0.00081574003181828511 0.00091507731928927203 0.00097042390275394949 0.0029584286596906063 0.00063017426266400659 0.00061420634012086849 0.0013521384840414993 0.003134851037054119 0.00062607668475222187 0.00059554456155200232 0.0015462904603995929 0.00056265816446113314 0.0018562392554524684 0.0032651537653302387 0.00035317894136840537 0.00130929894745331 0.0015640290640635483 0.00037891647144919406 0.00041403431699484913 0.0015476300429485103 0.0016897324774271551 0.00041649252487234364 0.0020424500231199156 0.0014697039733698616 0.0016632188544535684 0.0015077512264972965 0.0014689464769614545 0.0019171657149435097 0.0019654081534490964 0.0019178559091230726 0.0012791948901397074 0.0014753471536248228 0.0016714577381771556 0.0014293522469254305 0.0014012631694103337 0.0018646678345622871 0.0015035501091347522 0.00097053846010139563 0.0017790363267009975 0.0022748129756915625 0.0013590094717891958 0.0022815724206572208 0.0010370291000372325 0.0017954431281677601 0.00044365260884566388 0.0037770929731560797 0.00042085009608805349 0.00040766324994071445 0.0025700897611357371 0.0005165568782618808 0.0013148969411266298 0.0013606162039296907 0.0017444611274298344 0.0013796275983242931 0.0010633664559564786 0.0012468583012385528 0.0012950049259450934 0.0013884360353659012 0.00019039238339239463 0.00060657306513559181 0.0006997520814933714 0.00020515846926111458 0.00021648410806023458 0.00065662819267146713 0.00074338685576071995 0.00022443094220502851 0.00097097092854702837 0.0013244477066712767 0.0011923625415561675 0.0019005474618929436 0.001658217038009491 0.0019427120272752332 0.0010101625070879174 0.0016638682059509338 0.00080264569078449856 0.0004040164608159983 0.00041756210500470622 0.00093177080091130988 0.0016389387118601179 0.0016975154653002999 0.0014042908599448724 0.0016182500599366525 0.00058343613966187766 0.00053236594002020569 0.0011639867599339234 0.001302087734125916 0.0010756450010858945 0.0016445770349380331 0.0010746137143129463 0.001397712867010417 0.0011727890164949953 0.001152033454214477 0.0018960859987134622 0.0014766229245132233 0.00054324645923453608 0.00056152962767266478 0.00043725522846489858 0.0005863603067703697 0.0004600394384241624 0.00048947722447259675 0.00061831477491004815 0.00052626150922416282 0.0006712474034812891 0.0021974340371453249 0.0010949327442363174 0.0038204005482929118 0.00047264253225779421 0.0004419646209960882 0.0014469868443345375 0.0015414905092086594 0.0013340317044369054 0.0017352267669497239 0.0060398859025359167 9.4823347614231409e-05 8.9828738000944774e-05 0.0053088439213775668 0.00020625017603946556 0.00041712692200761558 0.00048874681512783521 0.00022857109134294414 0.00024282980055251915 0.00046596007282660127 0.00050256957155534246 0.00024866920317929731 0.0017620234879906539 0.0011136160577504843 0.0010875906187328716 0.0016204192437996689 0.0019851053156322682 0.0014171477207596201 0.0016291886957264508 0.00225068268825048 0.0024335746923027446 0.00017913337262528967 0.003919093128066352 0.004095592327727114 0.00016594477582069028 0.0021615691767218059 0.00058269279235787874 0.00099770433438456461 0.0012873483342282493 0.0016533236196036199 0.00088965456554449007 0.0019633195711249844 0.00074214557709884543 0.003986302461118767 0.00060241663110762161 0.00053131515154505036 0.0020989865197341673 0.00048063092037434478 0.0023040864250661428 0.0016327054258639538 0.0021348819373866808 0.00068434016195968663 0.0025398637154343019 0.00086100313491817033 0.0014190493974575137 0.00035446892366599594 0.00035647524836907339 0.00069035061101647608 0.00040222681524594605 0.00043826389525877417 0.00080012462261805698 0.0007416401228103062 0.00046280447157718825 0.00048003849573317387 0.00084626003847591369 0.00091290916345751548 0.00082083092422719623 0.0020704667534858644 0.00072884822404440362 0.0013046872843166745 0.0035893143837373831 0.0021673499438080216 0.00070864248970481966 0.0007327308526873346 0.0016536584388983887 0.00086902959668624144 0.0018372617195652524 0.0010050135806676322 0.0013991260218049223 0.00080421375319188919 0.0010399030903948669 0.00095087001304086714 0.001193395183709627 0.001594034289769543 0.0015240071498418821 0.0031035643231068551 0.00061600930459070849 0.0015380718666122132 0.0013556355810177081 0.00018437925297079888 0.0020068564914638379 0.0021167605768639026 0.0002021190094149909 0.0043364337957026078 0.00034853179163374924 0.0003267304453123662 0.0050128293522856988 0.0011285565500739443 0.00054211970202835979 0.00053741707166528731 0.0023764984384771338 0.00087787320016534083 0.0018457326342144369 0.0016283953494344305 0.0012114763223185869 0.00299753119613553 9.1670762687049985e-05 9.0422026592137993e-05 0.0031384474962718395 0.0015566257612744353 0.0012668701500855746 0.0013123829897400986 0.0013965759998477464 0.00032385920913719819 0.00015046041611818008 0.00022494722717995898 0.00017990709304497587 0.00027301607625410454 0.00026101107870433657 0.00018859471648009169 0.00026811999840098823 0.0001791000958747822 0.00059618866550303592 0.0004880952294390941 0.00051637036572182581 0.0011387091384582933 0.00059748888237814762 0.00094994951771369554 0.0012230685103168317 0.0010672380848516666 0.0010173446995948925 0.002726012692169251 0.0018322155239952351 0.0016871884212073794 0.0015793542750140606 0.0013202548914387038 0.0013410373515770715 0.0011415737892966798 0.0010604378412162091 0.0017679854975055603 0.0012436739699926171 0.0021424040626102127 0.00067370207221300422 0.0015931464962519852 0.0015656028968443157 0.00087970581837618718 0.0016398243360179793 0.00086992273460260181 0.0013908752633055627 0.0015968814701701605 0.0013653695036571847 0.0010941285159806826 0.0011252147096133774 0.0012198407546873493 0.0024982705560413925 0.0020947783346139926 0.00093484681675884049 0.0013293587371150863 0.00091480368595923717 0.0012271290913718903 0.0017397674813133398 0.00053984847305485267 0.0012362398801106331 0.003097617346634331 0.00027527321464746059 0.00025978759349289701 0.0034250118551455429 0.00092896169882394734 0.0061971065257657105 0.0016590477837145046 0.0010832021238938669 0.0012231547094478218 0.00093813410676396244 0.0011658716875569393 0.0015332923262641664 0.0012393330764281483 0.0018101906506879039 0.0028338590993259118 0.001009866665525777 0.0014552038398027468 0.00098511687429499476 0.00098488561396767337 7.1798127225012459e-05 0.0034455733317253876 0.0034001381315745807 7.8100112021049583e-05 0.0010533850256592904 9.5984864057200309e-05 0.00051821922978707326 0.00058728560318045242 0.00010366771493371447 0.0001092911405559413 0.00056417078442353732 0.00061882398037136385 0.00011451684712013082 0.0015082954391177749 0.0013713277594207686 0.001401915636898474 0.0006535436854610264 0.0017693765201715194 0.00074927391937835888 0.0018838191223624584 0.0015849555347309684 0.0018979022183134261 0.0016299802425011997 0.0010442312736282586 0.0031224470363586461 0.0001303114625186511 0.00012038419693547875 0.0032234229303380736 0.0037798470747249452 0.00018365837503028236 0.00017451592286466937 0.0041920555717119678 0.0015262221258273269 0.0021479138376549758 0.0014864944765223087 0.0015071234019204515 0.00091910637081508506 0.00084448648174467636 0.0013291908770121474 0.0012479257602406599 0.0013289171379707728 0.0015670599631533208 0.0014079323000148823 0.0015519379859793741 0.0012211341907879376 0.0018657553218054792 0.001290186762855192 0.00066496842091048262 0.0017431849752817092 0.0022651814866404439 0.00058408029797287441 0.0014284228509657069 0.00088884104015429528 0.0014355502514524384 0.0010471012835670574 0.0015917485477403076 0.0013400788003118849 0.00063580489622127125 0.0015521038873689799 0.00093488661530972343 0.00066694970658530731 0.00062258344317052546 0.0014009697053407001 0.00056135913987227391 0.0006419195202916016 0.00051228105694752781 0.00064222470137686386 0.00072980780570923063 0.0035925753662445306 0.0015343276337470165 0.0011762524363707542 0.0041496633880213933 0.0016387679545618625 0.0014094566738136307 0.00076004540081620411 0.0011716130343611818 0.0012735863561142192 0.00077938508358827731 0.00074303232870460653 0.00086076716623533086 0.00075271253981321485 0.0003975027869518619 0.00068229391604072401 0.00061240486153407421 0.0015518213166937841 0.00042911256506886561 0.001473004625521739 0.0004609480417758679 0.0014813941006622221 0.0010928655486314729 0.0010168428852675474 0.00086859302245324605 0.0015589630301089295 0.0010452657975630187 0.0029437916790046974 0.001772740344272589 0.0017153175814280277 0.00045062507888546534 0.0013787877455921588 0.00037189943681227588 0.0014900179659583504 0.00050004955664263349 0.0015822735947013196 0.00043950156811680243 0.0017594894059252725 0.00072932573797885518 0.00087493011759222242 0.0015884854445104284 0.0017915313077391554 0.00063403530976792032 0.0020526560968500314 0.0015546646852287616 0.0010903131081714534 0.00091542301282918341 0.00064090234883467853 0.0012957596964497295 0.00091504379294536837 0.001621969300747551 0.0015122126751001125 0.0015652185430436493 0.0006396733599807028 0.00044673702258444696 0.00068609167315473942 0.0023096786606954349 0.00061707810016600349 0.0014766081281718689 0.00067452144182226484 0.0010551297851526403 0.003535145352376826 0.00031683364632016111 0.0013911871958676215 0.0012814546537904649 0.00063890567554923498 9.5063669698528452e-05 0.0021154405463859123 0.0023115050471263338 0.00012246932393787137 0.0014058480716576619 0.003854255192219689 0.00014050998368528696 0.00016255002387385417 0.0041327401366134543 0.0012438181021223679 0.001320056971975751 0.0005370934469511872 0.0011451252758083996 0.0012609855296565429 0.0012747874565903396 0.0011242495103551183 0.00023004428886954273 0.00025071070016771039 0.0033316041800800738 0.0011199324098867705 0.00036683213800748666 0.0010437003787899671 0.00019162424522289637 0.00098736323090142472 0.00016675661685428223 0.0010409620752540579 0.00032443850630083971 0.0012324429406351408 0.00022272325551929363 0.0011393620030952841 0.00017880805973940044 0.0010608327402153608 0.0003457002125286892 0.0011517345288687925 0.0011553368244535856 0.0011604600130575137 0.0024491112632579804 0.0028501971961572047 0.0028837314914400055 0.002964003986728378 0.00097740776107632155 0.00195593423157223 0.001429848420100142 0.0036439657271503251 0.0029291321951605441 0.0020331846259000219 0.00066920624218504458 0.002405455030497329 0.0016441001479598522 0.0019118813162872523 0.00054729583894894769 0.0018375814479712751 0.00035486446559921682 0.00043391267660066758 0.0019312803138194523 0.0011552407207511758 0.0013021459403151844 0.0025095323022382566 0.00083368944482046061 0.0012585160138114697 0.0010499284968218136 0.001477400739815857 0.00081061642597231331 0.0010547210206787506 0.00094722958021866864 0.00068329740201266429 0.001358828588224999 0.00096488324680236222 0.0012484993085481711 0.0011405419432473167 0.0013761474797333714 0.0014273856215504311 0.0016006863121250518 0.00078870117200884212 0.00041333657857436045 0.00086439396281865963 0.00050457094421801701 0.00054433505538022977 0.0018688181318821141 0.00031692115379621872 0.0020584487470152882 0.0014579134150050415 0.001727658801509845 0.00050040899568807033 0.0013924195943314538 0.0012715135150689367 0.001667433351249041 0.0042800541429507365 0.0011700935508728427 0.0011019497876005198 0.0011553186233463149 0.0011016504172234687 0.0015512369938751709 0.0011254903256505855 0.0015471152277265698 0.0010619643399594279 0.00017656993394217006 0.0071223303400985575 0.0076725749759024619 0.0001674424574241854 0.0010097231747422757 0.0012523244583817522 0.001281968101849916 0.0010855418178222973 0.0026399505807787522 0.00085795257686022413 0.0008137266843511405 0.001396685053442346 0.0019678578342689828 0.0019242401714766881 0.0014489985193021555 0.0017541117622408733 0.0019586745866681569 0.002023842930730864 0.0019661061381912059 0.0013746826269319266 0.0016817431116284576 0.00068362245683715138 0.00070515080834803443 0.00077782596867635723 0.0008393628412722788 0.00041266917632955258 0.0023692543002153611 0.0026224028342858225 0.00088314528450546509 0.0011698816308784727 0.0013073590325954976 0.0026840148388896676 0.0024860583290948431 0.0011417588997920257 0.0012316834983312651 0.0017555700646292697 0.0017405688729942852 0.0015628985778170011 0.0010842383527037576 0.0010388771251095411 0.0023202756282152265 0.0035894480734625254 0.00015221358379247373 0.002352303853996038 0.0026355659437823473 0.00013847999080757463 0.0011462778481570097 0.0013944158756020574 0.00062755515506363773 0.0015848515833944072 0.0012756675025530982 0.0019454731943990839 0.0017952434581741564 0.0028784369897365716 0.0012126432219652053 0.0021308988297561136 0.0022677327729758957 0.0010309970876278911 0.0012316131678290199 0.0012366694460672343 0.0014246312579965607 0.0012157072727403651 0.0023854331382982177 0.00027209030872884951 0.00026210134911799259 0.0026241985510307296 0.0012238281873371267 0.0023182227464535114 0.0019472583558312042 0.0016554798898608448 0.0042405647092054986 0.00038121746779241764 0.00041887188031258636 0.00074053346154235558 0.0010155284221629681 0.00056123896860010662 0.00098971870363422066 0.00076054332168007095 0.00052470468192057868 0.00083225714489926824 0.00063513517085369458 0.001577469902299463 0.0014626651122684876 0.00058472923317678829 0.0010826961171279644 0.00094705555861102542 0.0050097951630184434 0.00032039116600937238 0.00034944029494810279 0.00082764566583868313 0.00088412982995928933 0.0020572624093646462 0.0019750063459587318 0.0019917829741051213 0.0021162649813722414 0.00077975796602961758 0.0011385209482448798 8.2120069956294182e-05 0.0011118409193992972 0.0012206401356544647 8.698486048752106e-05 9.148647828129899e-05 0.0011889127187200439 0.0013207010244794739 0.00011932969554217925 0.0013138410387566483 0.0017985277484551764 0.0017335816194724658 0.00075740874536121296 0.0004196508065482656 0.00038264194734307592 0.0013397495966899604 0.0005997521924408669 0.00052679102956794096 0.0016233056589852247 0.00036867319222620194 0.00021187053275969757 0.0023865917505334093 0.0026328263169930629 0.00019770221137979882 0.001890784017165672 8.3309182102867546e-05 0.0026098309514114128 0.002924133878179214 7.2137046113951623e-05 0.0012963640749848631 0.0031111376330402686 6.5025739453767581e-05 6.1110911500406853e-05 0.0035101489996447674 0.0014392755379430838 0.0014823641735459859 0.0015696969395854578 0.0006260983385175037 0.00055811442090786549 0.00067067299400735926 0.00052699938372910437 0.00087971720585075411 0.00083656680503644513 0.0022015315365564877 0.0020549540746110078 0.0019381827459279397 0.00063155921945641958 0.00059086728225050283 0.0024501807589861319 0.00064078577494514543 0.00057191495315856052 0.0021808292368605624 0.00147139661385296 0.00079966729890091758 0.0015588915792704311 0.0017204508147275882 0.00029751139568395807 0.0023429242547187883 0.00091512362569655295 0.00081433570002668767 0.00027100122054510929 0.00080709617825327779 0.00080987498984030123 0.0009639637011779231 0.0010063117083794694 0.0023847694417025904 6.5668746435002291e-05 0.0036427146043812308 0.0035870903222080652 7.0234975058594499e-05 0.0010509288125144366 0.0025821041148491723 0.0034625835846886551 0.0024809430759135101 0.0023197274928294497 0.0013569330632278991 0.0016838979640919247 0.0027741482480224998 0.0013736910554583903 0.0014502307033792447 0.00072248803332518232 0.00017655298954670842 7.623907499093413e-05 5.7345281050027388e-05 0.00014809695831975847 7.2332842498563709e-05 0.00018475561863939949 0.00017711710163488092 6.9315717060919766e-05 0.00038268213322661308 0.00091964807370340451 0.0011435580339921544 0.0025610318048244654 0.000223729791492707 0.00023104612026993531 0.0028843208489642441 9.5767947690239698e-05 0.0022197426226422705 0.00018603386930519456 0.0020546914831220836 0.00012384354120954547 0.0019669541250606696 0.0021648985416865773 0.00021652568330150432 0.00072274155193642554 0.00083586371107024582 0.00046054486083734191 0.0012392023595780624 0.00056806963245617363 0.0011564188010243217 0.0020696917387