<?xml version="1.0"?>
<VTKFile type="UnstructuredGrid" version="0.1" byte_order="LittleEndian">
<UnstructuredGrid>
<Piece NumberOfPoints="146" NumberOfCells="250">
<Points>
<DataArray type="Float64" NumberOfComponents="3" format="ascii">
0 0 0 0 0.2 0 0.2 0.2 0 0.2 0 0 0 0.019999999999965 0 0 0.039999999999912 0 0 0.0599999999998546 0 0 0.0799999999997917 0 0 0.099999999999737 0 0 0.119999999999788 0 0 0.13999999999984 0 0 0.159999999999895 0 0 0.179999999999946 0 0.019999999999965 0.2 0 0.039999999999912 0.2 0 0.0599999999998546 0.2 0 0.0799999999997917 0.2 0 0.099999999999737 0.2 0 0.119999999999788 0.2 0 0.13999999999984 0.2 0 0.159999999999895 0.2 0 0.179999999999946 0.2 0 0.2 0.180000000000055 0 0.2 0.160000000000111 0 0.2 0.140000000000166 0 0.2 0.120000000000221 0 0.2 0.100000000000274 0 0.2 0.0800000000002201 0 0.2 0.060000000000167 0 0.2 0.0400000000001096 0 0.2 0.0200000000000564 0 0.180000000000055 0 0 0.160000000000111 0 0 0.140000000000166 0 0 0.120000000000221 0 0 0.100000000000274 0 0 0.0800000000002201 0 0 0.060000000000167 0 0 0.0400000000001096 0 0 0.0200000000000564 0 0 0.1 0.1 0 0.057038550926509 0.140738790609104 0 0.0592612093908959 0.0570385509265082 0 0.140738790609103 0.142961449073492 0 0.142961449073493 0.0592612093908971 0 0.0439372822299652 0.099999999999995 0 0.0999999999999949 0.156062717770035 0 0.100000000000005 0.0439372822299653 0 0.156062717770035 0.100000000000005 0 0.0341005291005142 0.165899470899457 0 0.0341005291005428 0.0341005291005136 0 0.165899470899455 0.165899470899487 0 0.165899470899487 0.0341005291005453 0 0.0302267861832154 0.0718579774721309 0 0.0718579774721308 0.169773213816785 0 0.128142022527869 0.0302267861832175 0 0.169773213816783 0.128142022527869 0 0.0302267861831483 0.128142022527879 0 0.0718579774721212 0.030226786183147 0 0.128142022527879 0.169773213816852 0 0.169773213816853 0.0718579774721213 0 0.0719686411149814 0.113397212543552 0 0.0866027874564484 0.0719686411149814 0 0.113397212543551 0.128031358885019 0 0.128031358885019 0.0866027874564487 0 0.0656937592485226 0.0871752681869573 0 0.0882602500949993 0.133234672945338 0 0.111739749905001 0.0667653270546627 0 0.133234672945338 0.111739749905001 0 0.0220020016418305 0.107775591778903 0 0.0922244082210997 0.0220020016418291 0 0.107844725460113 0.178072419834241 0 0.177997998358171 0.0922244082210998 0 0.0521595069405988 0.180392060488528 0 0.0196079395114726 0.0521595069405985 0 0.180392060488524 0.147840493059407 0 0.147840493059407 0.0196079395114762 0 0.0196393438958872 0.148016299171036 0 0.0519837008289658 0.0196393438958859 0 0.148016299171035 0.180360656104113 0 0.180360656104115 0.0519837008289669 0 0.05355862617188 0.11973188197449 0 0.0801027402438638 0.0536111365655791 0 0.11973188197449 0.14644137382812 0 0.146598184681182 0.0801875265875624 0 0.07694097832262 0.15010420199332 0 0.0498957980066807 0.0769409783226201 0 0.150104201993318 0.123059021677381 0 0.123059021677381 0.0498957980066821 0 0.180024378698912 0.180024378698912 0 0.0199756213010873 0.180024378698913 0 0.180024378698912 0.0199756213010879 0 0.0199756213010873 0.0199756213010872 0 0.017073730510092 0.0866871572573122 0 0.0866790215040874 0.182935032772833 0 0.113312842742693 0.0170737305100911 0 0.182827535085176 0.113420838257665 0 0.0400766867126018 0.147404729040639 0 0.0525952709593619 0.0400766867126003 0 0.147404729040637 0.159923313287399 0 0.1599233132874 0.0525952709593643 0 0.0544412351323534 0.160253059324359 0 0.0397469406756418 0.0544412351323512 0 0.160253059324355 0.14555876486765 0 0.145558764867652 0.0397469406756457 0 0.0900331758058835 0.115170138254436 0 0.0821579650052456 0.0967855078943024 0 0.115397522978018 0.109250727089388 0 0.0995126974614008 0.0817268679039801 0 0.0715001361588055 0.130390485467539 0 0.0687633044340069 0.0698536222016603 0 0.130390485467538 0.128499863841195 0 0.13014637779834 0.0687633044340075 0 0.0699999999998231 0.186483665873354 0 0.013516334126646 0.0699999999998231 0 0.129906047777445 0.0134265722028536 0 0.186560263209849 0.129920447179442 0 0.0140878622716379 0.129191188463597 0 0.129200406287759 0.185922060591838 0 0.0708088115364077 0.0140878622716368 0 0.185912137728363 0.0708088115364079 0 0.0359796559780515 0.184005718855487 0 0.0159942811445127 0.0359796559780514 0 0.184005718855482 0.164020344021948 0 0.164020344021948 0.015994281144518 0 0.164020344021967 0.184005718855545 0 0.0159942811444547 0.164020344021968 0 0.184005718855546 0.0359796559780329 0 0.035979655978032 0.0159942811444533 0 0.0598132146365165 0.102806347469244 0 0.102806347469244 0.140186785363484 0 0.0963033959219251 0.0620110877275104 0 0.140186785363484 0.0971936525307562 0 0.0332980393214822 0.0883115494703587 0 0.0881691940101259 0.166706408748769 0 0.111688450529641 0.0332980393214812 0 0.166839872615104 0.111799642146 0 0.0360755992992117 0.11358068681036 0 0.11358068681036 0.163924400700788 0 0.0864193131896405 0.0360755992992104 0 0.16392440070079 0.0864193131896406 0 0.111788044474371 0.0899810450729541 0 0.0437302306415954 0.133386800385591 0 0.0666131996144097 0.0437302306415936 0 0.13338680038559 0.156269769358405 0 0.156269769358407 0.0666131996144111 0 
</DataArray>
</Points>
<Cells>
<DataArray type="Int32" Name="connectivity" format="ascii">
2 22 89 3 31 91 1 13 90 4 92 0 2 89 21 3 91 30 1 90 12 0 92 39 62 106 108 63 107 105 62 65 106 66 63 105 68 64 107 64 141 107 45 65 86 66 85 46 67 88 47 48 68 87 67 141 64 8 9 69 17 18 71 35 36 70 26 27 72 9 117 69 18 118 71 36 119 70 27 120 72 66 130 63 68 132 64 45 129 65 66 46 130 67 47 131 48 132 68 62 110 65 67 64 112 67 108 141 40 105 107 40 108 106 69 117 57 71 118 59 70 119 58 60 72 120 32 33 76 23 24 75 14 15 73 6 74 5 10 11 77 19 20 79 37 38 78 28 29 80 53 86 102 54 85 101 55 88 104 56 87 103 42 102 86 41 101 85 44 104 88 43 103 87 8 69 93 17 71 94 35 70 95 26 72 96 57 77 97 58 78 98 59 79 99 60 80 100 69 45 133 46 134 71 47 135 70 48 136 72 62 82 110 61 81 109 64 84 112 63 83 111 49 73 101 50 74 102 51 75 103 52 76 104 41 109 81 42 110 82 43 111 83 44 112 84 61 109 105 66 105 109 63 111 107 68 107 111 7 8 93 16 17 94 34 35 95 25 26 96 45 86 133 46 85 134 47 88 135 48 87 136 23 75 123 32 76 124 14 73 121 5 74 122 11 126 77 20 125 79 38 128 78 29 127 80 53 102 74 54 101 73 55 104 76 56 103 75 49 97 77 50 98 78 51 99 79 52 100 80 22 23 123 31 32 124 13 14 121 4 5 122 20 21 125 11 12 126 29 30 127 38 39 128 69 133 93 71 134 94 70 135 95 72 136 96 22 123 89 31 124 91 13 121 90 4 122 92 21 89 125 12 90 126 30 91 127 39 92 128 49 101 97 50 102 98 51 103 99 52 104 100 62 131 82 61 129 81 63 130 83 64 132 84 69 137 45 47 70 139 46 71 138 48 72 140 69 57 137 70 58 139 71 59 138 60 140 72 58 119 78 57 117 77 60 120 80 59 118 79 37 78 119 10 77 117 28 80 120 19 79 118 6 114 74 15 113 73 54 73 113 53 74 114 33 115 76 24 116 75 56 75 116 55 76 115 45 81 129 46 83 130 47 82 131 48 84 132 61 106 129 62 108 131 65 129 106 67 131 108 49 121 73 50 122 74 51 123 75 52 124 76 49 77 126 50 78 128 51 79 125 52 80 127 66 109 85 65 110 86 68 111 87 67 112 88 41 85 109 42 86 110 43 87 111 44 88 112 41 97 101 42 98 102 43 99 103 44 100 104 45 137 81 46 138 83 47 139 82 48 140 84 41 81 142 42 82 143 43 83 144 44 84 145 57 97 142 58 98 143 59 99 144 60 100 145 54 134 85 53 133 86 55 135 88 56 136 87 81 137 142 82 139 143 83 138 144 84 140 145 49 90 121 50 92 122 51 89 123 52 91 124 49 126 90 51 125 89 50 128 92 52 127 91 57 142 137 58 143 139 59 144 138 60 145 140 40 106 105 61 105 106 7 93 114 16 94 113 34 95 115 25 96 116 56 116 96 55 115 95 54 113 94 53 114 93 6 7 114 15 16 113 33 34 115 24 25 116 9 10 117 18 19 118 36 37 119 27 28 120 53 93 133 54 94 134 55 95 135 56 96 136 41 142 97 42 143 98 43 144 99 44 145 100 40 107 141 40 141 108 
</DataArray>
<DataArray type="Int32" Name="offsets" format="ascii">
3 6 9 12 15 18 21 24 27 30 33 36 39 42 45 48 51 54 57 60 63 66 69 72 75 78 81 84 87 90 93 96 99 102 105 108 111 114 117 120 123 126 129 132 135 138 141 144 147 150 153 156 159 162 165 168 171 174 177 180 183 186 189 192 195 198 201 204 207 210 213 216 219 222 225 228 231 234 237 240 243 246 249 252 255 258 261 264 267 270 273 276 279 282 285 288 291 294 297 300 303 306 309 312 315 318 321 324 327 330 333 336 339 342 345 348 351 354 357 360 363 366 369 372 375 378 381 384 387 390 393 396 399 402 405 408 411 414 417 420 423 426 429 432 435 438 441 444 447 450 453 456 459 462 465 468 471 474 477 480 483 486 489 492 495 498 501 504 507 510 513 516 519 522 525 528 531 534 537 540 543 546 549 552 555 558 561 564 567 570 573 576 579 582 585 588 591 594 597 600 603 606 609 612 615 618 621 624 627 630 633 636 639 642 645 648 651 654 657 660 663 666 669 672 675 678 681 684 687 690 693 696 699 702 705 708 711 714 717 720 723 726 729 732 735 738 741 744 747 750 
</DataArray>
<DataArray type="UInt8" Name="types" format="ascii">
5 5 5 5 5 5 5 5 5 5 5 5 5 5 5 5 5 5 5 5 5 5 5 5 5 5 5 5 5 5 5 5 5 5 5 5 5 5 5 5 5 5 5 5 5 5 5 5 5 5 5 5 5 5 5 5 5 5 5 5 5 5 5 5 5 5 5 5 5 5 5 5 5 5 5 5 5 5 5 5 5 5 5 5 5 5 5 5 5 5 5 5 5 5 5 5 5 5 5 5 5 5 5 5 5 5 5 5 5 5 5 5 5 5 5 5 5 5 5 5 5 5 5 5 5 5 5 5 5 5 5 5 5 5 5 5 5 5 5 5 5 5 5 5 5 5 5 5 5 5 5 5 5 5 5 5 5 5 5 5 5 5 5 5 5 5 5 5 5 5 5 5 5 5 5 5 5 5 5 5 5 5 5 5 5 5 5 5 5 5 5 5 5 5 5 5 5 5 5 5 5 5 5 5 5 5 5 5 5 5 5 5 5 5 5 5 5 5 5 5 5 5 5 5 5 5 5 5 5 5 5 5 5 5 5 5 5 5 5 5 5 5 5 5 5 5 5 5 5 5 
</DataArray>
</Cells>
<CellData Scalars="A_conc," Vectors="" Tensors="">
<DataArray type="Float64" Name="A_conc" format="ascii">
19.9603434515683 19.7087307634416 0.000227495303130262 5.10679729576075e-05 19.7087307634391 19.9603434515686 4.95217704972123e-05 0.0002347323637219 0.525499349731853 2.69504640479204 0.231603878577385 1.25293277670437 6.13910501295593 4.35545162363653 0.0104899132545218 0.741065339843554 3.2508627793714 13.499157892096 3.63814118141423 1.40330700778305e-05 2.92186120937159 0.933279075557462 19.9292726711536 9.65963401416618e-05 4.79213124974804 0.483681989258491 19.8078811838674 2.1920220289755 8.64697996888413 0.0292471642768551 1.49059845710867 2.19998696349779 10.5572986170415 0.0962630271273371 5.65084426431004 2.52021290019223 1.51245180957223 0.989629676918892 0.000401682384393372 5.35483450094881 0.244473156797742 19.4364795291855 13.3207033463654 19.9647817714314 0.0273463149978295 1.83355497240343e-05 2.08460590882687e-05 13.3485663481066 0.0283053381190333 19.9644162770069 0.00376724407579364 0.135550192280683 7.63876617112833 16.495889472211 0.011899283580413 0.055225568119422 10.2265900977352 13.9559229950671 5.29749390899214e-05 1.6636943188984 1.79784565887585 19.7273402965372 0.000945036926360804 0.0370592804273805 11.1521241001472 18.3819725607788 0.00100853321149632 1.66066180015989 1.81105188980732 18.1953674690825 0.295737267599239 0.138131824203704 8.23052953025098 5.48668807096792 0.0141617549607332 0.00157565652177066 17.9076514448418 13.9152516033872 0.0669633730925864 0.12216673818497 7.80804003328827 11.7746272931469 0.312537441438189 0.678713576644916 4.89959178799417 7.00980630540445 8.26987696117347e-06 0.85836613009546 3.37330857379272 19.9860635759197 0.00380955752607186 0.674571560690676 3.52375309490374 16.3353889714058 19.844060122788 16.1544336775587 0.0112816620148539 0.000111836541691502 0.000129076179202421 16.1791968705554 0.0117667698070834 19.8431309531552 0.000943866663442879 0.0422203992548201 11.0410624724945 18.5251731615808 0.00173786113298598 0.0129232960024841 14.1954718607367 17.9346938823455 19.9920569450847 17.8094288126905 0.00335680516548706 1.97777323043376e-05 17.8094288126794 2.22555955410021e-05 19.9920569450861 0.00350282874296713 0.000260089622755783 0.826998191283419 2.29253784534686 19.2770786574827 19.832940488891 19.2124792374478 0.000940155982197699 7.67236139167837e-05 19.2124792374437 8.41124460094916e-05 19.8329404888948 0.000970222305776222 0.00630657755534567 0.00568964870796068 16.106722469722 15.9165039188713 0.624797826628117 0.0670467180516961 3.83015102744875 9.8210432960277 0.00322137042526328 1.22812940734364 2.71405766533303 16.8917640454881 0.00145496294655417 0.651099150239887 3.85664466472308 18.9480413953385 0.100511303753829 0.000268366234676653 19.5361704369164 8.08679553121471 0.079034076988717 6.37627005894059e-05 19.8805448168699 10.766354460922 6.26665822103965e-05 0.076440826063782 0.0865566725524081 0.000263095786379553 10.9067648494192 19.8914703959331 19.5536622970782 8.14369069405687 0.026050073598244 2.16660633244348 1.2247374781291 12.4465600776255 0.164409338267433 0.955131965049834 0.0771341774363552 1.49527580703856 0.00465777841851358 0.000444212388265618 19.3409664037739 16.8898864542194 0.000501136621595309 0.00435065177322519 16.9125106645705 19.3388731785192 0.376095838926891 0.0358595606368004 9.82097902040663 5.91091059774891 0.170558102837048 0.0376098418022702 11.2658814206113 8.40945382763976 0.0217205505812053 0.0183824996888594 13.1323244223492 13.5423030832754 0.0101765068291586 3.44321322232886 0.658900276139574 14.6951121852685 0.0318280102269553 0.111124338644072 8.22936865646601 14.1223838735122 0.00369504522353132 0.101271509887008 8.73387827550318 17.4923023652195 0.328379233268702 0.00101142808243565 5.53812373005989 17.4044039115969 0.00959868791187365 0.320299297679686 5.16651585851393 15.9377615932067 0.00152012992685554 0.00034854218362507 19.3660608048929 18.4600115187199 0.000379230710849241 18.4600115187154 0.00141028075552214 19.3660608048967 0.00402520662740683 0.220182230810475 6.31945084289721 17.6625165521141 0.775397341720312 0.380943982816471 1.46976872102368e-05 0.467323031894097 5.43666534271094 19.9415445084833 19.6952020470166 5.9001712078778 0.211108924457926 6.57158205668785e-05 9.67332011907836e-06 0.203517637092442 7.87467372921283 19.9984282209795 2.00172076497959e-05 7.75200064409491 0.210780185885467 19.9974667754271 0.000274239167715329 0.43126357397758 3.98043394603609 19.0066386476668 0.0102875151519407 0.0523795272481358 11.1691889847787 15.6752798705433 2.97436736739001 1.8568775945031 
</DataArray>
</CellData>
</Piece>
</UnstructuredGrid>
</VTKFile>
