<?xml version="1.0"?>
<VTKFile type="UnstructuredGrid" version="0.1" byte_order="LittleEndian">
<UnstructuredGrid>
<Piece NumberOfPoints="714" NumberOfCells="1306">
<Points>
<DataArray type="Float64" NumberOfComponents="3" format="ascii">
0.000000000000000e+00 0.000000000000000e+00 0.000000000000000e+00 5.000000000000000e+00 0.000000000000000e+00 0.000000000000000e+00 5.000000000000000e+00 1.000000000000000e+00 0.000000000000000e+00 0.000000000000000e+00 1.000000000000000e+00 0.000000000000000e+00 9.999999999992801e-02 0.000000000000000e+00 0.000000000000000e+00 1.999999999998339e-01 0.000000000000000e+00 0.000000000000000e+00 2.999999999997341e-01 0.000000000000000e+00 0.000000000000000e+00 3.999999999996643e-01 0.000000000000000e+00 0.000000000000000e+00 4.999999999995944e-01 0.000000000000000e+00 0.000000000000000e+00 5.999999999995166e-01 0.000000000000000e+00 0.000000000000000e+00 6.999999999992880e-01 0.000000000000000e+00 0.000000000000000e+00 7.999999999989961e-01 0.000000000000000e+00 0.000000000000000e+00 8.999999999987042e-01 0.000000000000000e+00 0.000000000000000e+00 9.999999999984124e-01 0.000000000000000e+00 0.000000000000000e+00 1.099999999998120e+00 0.000000000000000e+00 0.000000000000000e+00 1.199999999997829e+00 0.000000000000000e+00 0.000000000000000e+00 1.299999999997537e+00 0.000000000000000e+00 0.000000000000000e+00 1.399999999997245e+00 0.000000000000000e+00 0.000000000000000e+00 1.499999999996953e+00 0.000000000000000e+00 0.000000000000000e+00 1.599999999996661e+00 0.000000000000000e+00 0.000000000000000e+00 1.699999999996369e+00 0.000000000000000e+00 0.000000000000000e+00 1.799999999996077e+00 0.000000000000000e+00 0.000000000000000e+00 1.899999999995785e+00 0.000000000000000e+00 0.000000000000000e+00 1.999999999995511e+00 0.000000000000000e+00 0.000000000000000e+00 2.099999999995593e+00 0.000000000000000e+00 0.000000000000000e+00 2.199999999995745e+00 0.000000000000000e+00 0.000000000000000e+00 2.299999999995897e+00 0.000000000000000e+00 0.000000000000000e+00 2.399999999996049e+00 0.000000000000000e+00 0.000000000000000e+00 2.499999999996201e+00 0.000000000000000e+00 0.000000000000000e+00 2.599999999996353e+00 0.000000000000000e+00 0.000000000000000e+00 2.699999999996505e+00 0.000000000000000e+00 0.000000000000000e+00 2.799999999996657e+00 0.000000000000000e+00 0.000000000000000e+00 2.899999999996809e+00 0.000000000000000e+00 0.000000000000000e+00 2.999999999996961e+00 0.000000000000000e+00 0.000000000000000e+00 3.099999999997114e+00 0.000000000000000e+00 0.000000000000000e+00 3.199999999997265e+00 0.000000000000000e+00 0.000000000000000e+00 3.299999999997417e+00 0.000000000000000e+00 0.000000000000000e+00 3.399999999997569e+00 0.000000000000000e+00 0.000000000000000e+00 3.499999999997721e+00 0.000000000000000e+00 0.000000000000000e+00 3.599999999997873e+00 0.000000000000000e+00 0.000000000000000e+00 3.699999999998025e+00 0.000000000000000e+00 0.000000000000000e+00 3.799999999998176e+00 0.000000000000000e+00 0.000000000000000e+00 3.899999999998329e+00 0.000000000000000e+00 0.000000000000000e+00 3.999999999998481e+00 0.000000000000000e+00 0.000000000000000e+00 4.099999999998633e+00 0.000000000000000e+00 0.000000000000000e+00 4.199999999998784e+00 0.000000000000000e+00 0.000000000000000e+00 4.299999999998937e+00 0.000000000000000e+00 0.000000000000000e+00 4.399999999999088e+00 0.000000000000000e+00 0.000000000000000e+00 4.499999999999240e+00 0.000000000000000e+00 0.000000000000000e+00 4.599999999999393e+00 0.000000000000000e+00 0.000000000000000e+00 4.699999999999545e+00 0.000000000000000e+00 0.000000000000000e+00 4.799999999999696e+00 0.000000000000000e+00 0.000000000000000e+00 4.899999999999848e+00 0.000000000000000e+00 0.000000000000000e+00 5.000000000000000e+00 9.999999999981467e-02 0.000000000000000e+00 5.000000000000000e+00 1.999999999995579e-01 0.000000000000000e+00 5.000000000000000e+00 2.999999999992664e-01 0.000000000000000e+00 5.000000000000000e+00 3.999999999989749e-01 0.000000000000000e+00 5.000000000000000e+00 4.999999999986943e-01 0.000000000000000e+00 5.000000000000000e+00 5.999999999989468e-01 0.000000000000000e+00 5.000000000000000e+00 6.999999999992100e-01 0.000000000000000e+00 5.000000000000000e+00 7.999999999994734e-01 0.000000000000000e+00 5.000000000000000e+00 8.999999999997368e-01 0.000000000000000e+00 4.899999999999999e+00 1.000000000000000e+00 0.000000000000000e+00 4.800000000000000e+00 1.000000000000000e+00 0.000000000000000e+00 4.699999999999999e+00 1.000000000000000e+00 0.000000000000000e+00 4.600000000000000e+00 1.000000000000000e+00 0.000000000000000e+00 4.499999999999999e+00 1.000000000000000e+00 0.000000000000000e+00 4.399999999999999e+00 1.000000000000000e+00 0.000000000000000e+00 4.299999999999999e+00 1.000000000000000e+00 0.000000000000000e+00 4.199999999999998e+00 1.000000000000000e+00 0.000000000000000e+00 4.099999999999999e+00 1.000000000000000e+00 0.000000000000000e+00 3.999999999999999e+00 1.000000000000000e+00 0.000000000000000e+00 3.899999999999999e+00 1.000000000000000e+00 0.000000000000000e+00 3.799999999999999e+00 1.000000000000000e+00 0.000000000000000e+00 3.699999999999998e+00 1.000000000000000e+00 0.000000000000000e+00 3.599999999999999e+00 1.000000000000000e+00 0.000000000000000e+00 3.499999999999999e+00 1.000000000000000e+00 0.000000000000000e+00 3.399999999999999e+00 1.000000000000000e+00 0.000000000000000e+00 3.299999999999999e+00 1.000000000000000e+00 0.000000000000000e+00 3.199999999999998e+00 1.000000000000000e+00 0.000000000000000e+00 3.099999999999999e+00 1.000000000000000e+00 0.000000000000000e+00 2.999999999999999e+00 1.000000000000000e+00 0.000000000000000e+00 2.899999999999999e+00 1.000000000000000e+00 0.000000000000000e+00 2.799999999999999e+00 1.000000000000000e+00 0.000000000000000e+00 2.699999999999999e+00 1.000000000000000e+00 0.000000000000000e+00 2.599999999999999e+00 1.000000000000000e+00 0.000000000000000e+00 2.500000000000000e+00 1.000000000000000e+00 0.000000000000000e+00 2.399999999999999e+00 1.000000000000000e+00 0.000000000000000e+00 2.299999999999999e+00 1.000000000000000e+00 0.000000000000000e+00 2.199999999999999e+00 1.000000000000000e+00 0.000000000000000e+00 2.100000000000000e+00 1.000000000000000e+00 0.000000000000000e+00 2.000000000000000e+00 1.000000000000000e+00 0.000000000000000e+00 1.899999999999999e+00 1.000000000000000e+00 0.000000000000000e+00 1.799999999999999e+00 1.000000000000000e+00 0.000000000000000e+00 1.699999999999999e+00 1.000000000000000e+00 0.000000000000000e+00 1.599999999999999e+00 1.000000000000000e+00 0.000000000000000e+00 1.500000000000000e+00 1.000000000000000e+00 0.000000000000000e+00 1.399999999999999e+00 1.000000000000000e+00 0.000000000000000e+00 1.299999999999999e+00 1.000000000000000e+00 0.000000000000000e+00 1.199999999999999e+00 1.000000000000000e+00 0.000000000000000e+00 1.100000000000000e+00 1.000000000000000e+00 0.000000000000000e+00 9.999999999999991e-01 1.000000000000000e+00 0.000000000000000e+00 8.999999999999995e-01 1.000000000000000e+00 0.000000000000000e+00 7.999999999999998e-01 1.000000000000000e+00 0.000000000000000e+00 7.000000000000002e-01 1.000000000000000e+00 0.000000000000000e+00 5.999999999999996e-01 1.000000000000000e+00 0.000000000000000e+00 4.999999999999991e-01 1.000000000000000e+00 0.000000000000000e+00 3.999999999999995e-01 1.000000000000000e+00 0.000000000000000e+00 3.000000000000007e-01 1.000000000000000e+00 0.000000000000000e+00 1.999999999999993e-01 1.000000000000000e+00 0.000000000000000e+00 9.999999999999964e-02 1.000000000000000e+00 0.000000000000000e+00 0.000000000000000e+00 8.999999999995836e-01 0.000000000000000e+00 0.000000000000000e+00 7.999999999999998e-01 0.000000000000000e+00 0.000000000000000e+00 7.000000000006934e-01 0.000000000000000e+00 0.000000000000000e+00 6.000000000013869e-01 0.000000000000000e+00 0.000000000000000e+00 5.000000000020587e-01 0.000000000000000e+00 0.000000000000000e+00 4.000000000016644e-01 0.000000000000000e+00 0.000000000000000e+00 3.000000000012483e-01 0.000000000000000e+00 0.000000000000000e+00 2.000000000008322e-01 0.000000000000000e+00 0.000000000000000e+00 1.000000000004160e-01 0.000000000000000e+00 7.477570327540725e-01 4.905967956478702e-01 0.000000000000000e+00 1.346210646643281e+00 4.806066422083806e-01 0.000000000000000e+00 1.949496869330408e+00 5.032480558805372e-01 0.000000000000000e+00 4.449999999999997e+00 5.000000000000384e-01 0.000000000000000e+00 3.859142349610828e+00 5.103468031113156e-01 0.000000000000000e+00 3.246530027037640e+00 5.183101712757180e-01 0.000000000000000e+00 2.657531292711257e+00 5.037429884868682e-01 0.000000000000000e+00 3.824015840967434e-01 6.064457502813875e-01 0.000000000000000e+00 2.306343155343502e+00 6.315316747431162e-01 0.000000000000000e+00 1.049999999998266e+00 3.374999999994497e-01 0.000000000000000e+00 1.641930697057102e+00 3.436055112169133e-01 0.000000000000000e+00 4.150000000000006e+00 6.625000000000185e-01 0.000000000000000e+00 3.552784161359181e+00 6.642488388863971e-01 0.000000000000000e+00 2.940292465243163e+00 6.575992780735344e-01 0.000000000000000e+00 1.641237689750194e+00 6.703960699373966e-01 0.000000000000000e+00 1.050000000000000e+00 6.706367924525535e-01 0.000000000000000e+00 2.960517759676693e+00 3.261740577967960e-01 0.000000000000000e+00 3.551899302943298e+00 3.210887133285832e-01 0.000000000000000e+00 4.150779393876139e+00 3.209867287821391e-01 0.000000000000000e+00 2.213980362532827e+00 3.194901812685164e-01 0.000000000000000e+00 4.927283029162088e-01 3.252862896001115e-01 0.000000000000000e+00 4.696684455724628e+00 3.145438084075651e-01 0.000000000000000e+00 4.690990908683984e+00 6.962960281446974e-01 0.000000000000000e+00 2.487221901830106e+00 2.763334294511438e-01 0.000000000000000e+00 6.215262983536076e-01 7.328515730233995e-01 0.000000000000000e+00 2.065768881873406e+00 7.342557316219342e-01 0.000000000000000e+00 2.543072460766750e+00 7.257064952909391e-01 0.000000000000000e+00 8.105176211436336e-01 2.535517621144286e-01 0.0000000000000
[...]
<CellData Scalars="A_conc,As-lin_conc,Bs-lang_conc,Cs-freund_conc," Vectors="">
<DataArray type="Float64" Name="A_conc" format="ascii">
1.725537323543120e-12 5.804894173574751e-01 1.033521467145098e-153 4.126339428289890e-15 5.131979850523256e-01 2.869975744909474e-72 3.569640085466226e-67 4.270781757282052e-01 5.636287751102250e-01 2.945736863730151e-12 8.291662294943009e-148 1.188845136652241e-19 4.950664260436823e-36 1.148573915265352e-142 2.628239854705881e-15 1.139400360631123e-09 6.984917440925135e-15 5.019319327194368e-12 6.744657600656875e-88 2.734534699693824e-12 2.058574664509797e-71 3.881022736567840e-49 1.101834996083328e-19 1.121557965231481e-25 3.596751723827644e-22 3.666706142959159e-29 1.054200649729491e-12 4.923469636792349e-01 9.758950858760904e-22 7.399792179727507e-13 3.139597249668597e-46 9.700848165985944e-19 2.309120058960699e-44 5.629328760742660e-196 9.644867411139293e-83 5.454970091175826e-01 3.277512258904409e-23 3.923715192200974e-68 5.143306499536475e-23 5.206353806551873e-01 7.870138144538610e-133 6.716741081420732e-42 3.953940743775747e-201 1.301499461027363e-85 2.983797779810032e-79 8.460938420559924e-80 2.712105969664857e-09 1.199522289093434e-24 3.882253297269286e-94 5.099408544199756e-85 5.619616947577580e-01 5.160816994103551e-32 4.310432965232420e-10 5.357272104636466e-01 5.571501625615526e-01 5.940079114860513e-01 1.692823883975300e-67 4.176613601513631e-01 4.808298038475508e-01 6.330371886523741e-10 6.742086719123441e-117 4.218754168444061e-01 2.404738031969014e-49 9.275696893014151e-75 1.460911448304869e-80 2.087040562199474e-65 1.010922616275563e-28 1.779797326890754e-54 5.741134320800291e-01 4.706857640302973e-01 3.368202203261283e-69 6.577274194017548e-171 1.815890374475030e-29 6.468860197408068e-12 3.910994459664119e-19 9.122122309825451e-89 2.146380469349292e-38 1.595156699930783e-80 3.117583526994212e-08 2.946662623221365e-67 9.347126390846537e-10 6.628576117373614e-86 2.945019066407195e-23 1.557438459751086e-127 3.543091872397930e-42 5.162911971645487e-35 1.137535492962359e-85 1.966038125928110e-13 2.454905251316699e-28 2.860859515803768e-55 9.857611958931924e-102 5.683174867024766e-39 4.517763990784983e-01 6.556008319971083e-46 9.119927697644838e-81 4.554817978593667e-15 4.418808947363879e-46 4.300255493069791e-01 6.783741567361390e-159 4.806069555508928e-01 1.370606611053146e-74 3.622548164405840e-25 4.851161162587647e-22 1.607096109265914e-47 2.700841193055851e-38 1.294522978963579e-15 3.025538938750305e-15 4.970577426227989e-01 9.860592729329459e-42 3.976079930649529e-10 1.429486139153909e-63 1.138624984712950e-25 7.684380050450980e-29 1.054647936264736e-40 4.192915512175843e-31 4.384578511073782e-01 2.405822977588033e-15 1.514898466811235e-64 2.427857396792051e-77 4.917102533274353e-01 1.130467880117046e-73 3.635626228230876e-22 5.165752531214029e-49 1.469810307580531e-22 4.841369594506308e-01 1.222349320450698e-64 1.634040921518043e-148 1.973549182653541e-32 4.487275297144485e-01 1.522339169506393e-01 6.086601179636742e-86 1.792536013858149e-57 4.572627280294219e-08 3.131677575789404e-01 6.449759832313142e-60 2.611729362773231e-83 2.268890823011262e-12 5.882303905391424e-01 1.851178915172402e-27 2.765310373140423e-62 1.341975521410736e-60 4.813604592586094e-01 1.291001350298579e-24 1.214109295693253e-76 1.205426521881422e-115 6.859706844860158e-121 4.211797105963431e-21 1.566467484772139e-46 7.670163282141757e-76 2.426707452449129e-15 7.834176551105118e-50 8.311738265160444e-81 5.598143813313370e-60 8.174100267635544e-34 1.046765734595212e-83 4.067176263390329e-122 9.459997525140243e-50 4.511977736851190e-01 3.036421672239232e-26 7.460554384300438e-118 2.969491739158417e-09 7.194871015489307e-02 2.131400777411600e-52 2.941592579401960e-159 5.437862315662316e-74 4.236754287185551e-23 2.652488925489665e-26 1.955557936818875e-55 1.324045660883820e-55 7.044756652704586e-118 2.777398835255855e-25 1.372712384517206e-42 8.820603215124383e-117 3.005389408493302e-122 2.049993478007051e-68 6.841906529099787e-55 4.120414668260753e-01 6.278443190995934e-159 7.333015393916910e-59 3.498922505370530e-69 1.153021388611252e-49 4.283179316656891e-01 5.274656928720771e-01 2.011250276472415e-58 2.081512120636299e-62 1.147031525692269e-42 2.123376769316565e-38 5.698091021388356e-55 4.746882892277424e-155 8.229968874896802e-72 3.274547950458129e-26 2.055688178815843e-42 4.116871661583440e-12 3.073098944528665e-19 9.295473134987191e-29 4.499557004320377e-68 8.091433538329070e-25 1.197570571994884e-28 2.875572275658259e-187 1.089153460855299e-181 2.315074237033340e-29 9.776482016716806e-71 6.144547294074298e-01 8.695291696861465e-48 1.445638104251011e-54 3.995904030640153e-01 1.893109714352275e-73 3.511351389689565e-43 2.907079260835706e-09 5.420454303445965e-01 3.864914096746949e-75 2.322588763816724e-159 4.812832236112753e-65 1.264367232574080e-12 4.633199004782958e-15 1.491145693799746e-65 1.287675190061569e-25 1.002219844301682e-69 2.011728169868625e-19 5.592356883749593e-91 4.494993291606252e-96 5.045764679199913e-01 1.473471807494921e-71 9.204857246425668e-41 1.057016789431232e-36 6.039996231965297e-01 1.916188094784637e-25 1.381036606935576e-16 7.721365218126735e-137 2.753164204084353e-64 1.053658330155761e-60 5.389720133317318e-32 1.975459181567178e-19 4.970426623670556e-23 1.245773444679588e-51 9.077246652922517e-31 3.365888698769740e-22 2.562226827223098e-67 1.212085223013346e-28 1.465323726198309e-131 1.099881910113350e-16 1.162900059601516e-42 3.995280467383063e-76 1.328645570619803e-78 3.525801391591886e-107 4.016363787525542e-44 4.373768554101012e-01 5.496276628840242e-123 2.654767029809546e-09 9.040646874221572e-132 1.831266577685355e-78 8.201591869163081e-77 9.967078778178476e-112 4.058365167932826e-44 4.366626196585000e-01 4.367365104038360e-01 3.568714146997599e-16 5.966906805867601e-191 2.448357282760080e-09 1.745021591078287e-134 9.540501172955646e-65 2.380797887245951e-30 8.720837222653178e-33 4.539290319516546e-38 1.499306382854929e-46 2.286541053906184e-09 1.910139784936835e-19 9.502917984336279e-16 1.252737995295085e-33 2.525250061663692e-132 1.586179641718061e-91 6.174131381882007e-54 6.657914886957883e-13 8.786634766082731e-81 6.429874910619318e-13 2.200882424108738e-09 7.255727944528595e-13 2.427352095115174e-18 5.373791981898292e-42 1.088641229897372e-38 3.351339285237983e-65 8.397559833049049e-03 1.664788194319548e-59 2.932300594009997e-12 4.953133119948149e-01 5.587739336928132e-46 2.240023277221365e-39 5.869245257812897e-57 2.136955966251433e-60 5.881571042341435e-33 1.558602066217534e-50 2.523859868759643e-95 6.188905189867434e-41 1.564217639311919e-37 5.303959439314813e-93 1.336187234227882e-90 3.330449431667080e-51 2.008097529321412e-12 4.198081438056378e-128 5.058886790378602e-55 1.630897318911389e-106 1.177734338126603e-51 2.659611886805157e-39 4.484607929022419e-01 7.745003104959751e-23 1.050753953941056e-09 8.026605132748293e-10 4.862912925303318e-01 2.412837101851009e-35 6.807480965672111e-105 4.685900071125038e-30 2.143535698119088e-99 3.615603827636594e-127 2.267623454159877e-61 6.138564193532152e-122 4.478602890928787e-16 9.139801665295532e-60 2.744202934565531e-56 5.638994680663557e-01 4.181049524477762e-01 4.031750816673098e-01 1.250646473318374e-63 4.069765743548338e-60 4.848003069750492e-32 6.879223823537045e-76 3.493300998116324e-44 1.465524594910389e-49 1.881592329991500e-32 2.162771470490214e-107 2.402903365224508e-15 5.896246498378999e-01 5.843754567577994e-01 5.853875847306520e-01 5.890619628634576e-01 4.753237588829654e-01 3.417748518307848e-12 4.772909160362055e-22 5.774437241269492e-72 5.189208536016676e-59 7.825577210240006e-45 5.499322859069492e-70 2.214055043174582e-28 1.715209718795226e-148 5.315627634632875e-01 1.519797255814648e-138 1.281494224609309e-18 2.243219960397732e-40 1.830599328105412e-133 2.492672964706893e-35 2.226294222472497e-30 6.074317668656957e-01 1.210257083697224e-153 1.379820020850580e-31 2.093023123797747e-78 2.812734952841790e-09 4.307764293873464e-01 1.885138677054518e-69 1.340977682089009e-65 2.118957374986575e-21 2.236364642294840e-58 5.885130301103784e-15 1.866271830943510e-80 4.672755453700826e-12 2.849322236665432e-01 1.638823222833260e-15 3.295779160873361e-01 5.285019035298682e-47 1.589826381486814e-38 4.485690918584497e-55 5.715214033171059e-01 6.151823609229261e-01 6.151823660779527e-01 5.093158859922988e-01 5.077743730761798e-01 1.569965017871735e-111 6.711388271702959e-75 4.474601224125551e-01 8.111557930106431e-75 4.126612072568834e-01 1.496489847857819e-72 5.700920679597725e-01 5.134331036161194e-12 8.257982208566243e-25 6.493653115297942e-30 1.214803250492054e-99 2.258584314128536e-37 4.825292764704158e-65 9.302613233055757e-186 1.624847957108065e-63 5.054573617662685e-01 5.679465606105463e-01 4.249077483028133e-69 1.191978302821135e-35 2.635179864400618e-24 4.038721104310291e-40 5.124318000479767e-12 1.901536535680268e-18 4.319716283108285e-04 1.692474646544416e-09 3.855664144629310e-53 1.286673530072403e-115 5.556981974355351e-01 1.959033347659869e-27 2.236604166387127e-17 1.293479165375604e-21 3.317503689350057e-22 6.379990076960394e-50 1.956146102189960e-75 5.368047054330696e-01 2.073925979054181e-07 2.151843374594935e-127 6.146559417730597e-01 2.588742416945234e-122 3.844983682892791e-32 3.806500396411463e-01 5.605303817476703e-01 1.960778668220557e-39 6.483813724449826e-36 6.822482962017510e-54 6.652025786574877e-71 1.839733673739432e-49 1.098190273144651e-80 1.384367569096584e-12 4.839795280158322e-01 3.758272112505302e-44 1.232186419761328e-16 4.417217870766265e-61 2.201062279199715e-62 2.730366927921123e-91 3.094627499972812e-28 4.759093097527001e-01 2.379895157125639e-12 8.723392589492538e-59 1.618104213555987e-96 1.501300584072090e-33 4.665001263219549e-01 2.178803908148454e-18 6.252157629349959e-80 3.728819178463150e-39 1.064305839686017e-54 2.206442093794829e-112 2.287260746935394e-46 7.849890396274971e-36 1.566590681054478e-01 1.798692354149761e-67 3.928254944799416e-01 1.186732398286507e-54 4.393551182748723e-163 4.142552835569695e-12 5.990952332756443e-01 6.294134583662619e-158 1.261889606930255e-49 2.950495409932609e-70 5.909786757824764e-01 2.162445420021348e-03 8.599195591669006e-73 2.366456029286467e-127 3.135685946149282e-26 3.535434396987940e-192 7.133890875426997e-73 5.285313289408140e-01 5.624908021998285e-01 3.957637306243619e-12 1.103081523011880e-165 3.395244156189652e-17 3.322423604527719e-18 5.922384426240588e-01 5.853038880404081e-01 2.110376907508363e-35 4.093526439512263e-01 6.897553785423572e-138 1.516389939106433e-137 5.259149271286101e-121 5.580130575322495e-01 5.459956553680920e-01 5.546604959860066e-01 8.492507713790405e-39 1.909845709798402e-25 6.909545828988384e-55 3.861894224957321e-168 4.751487171249248e-01 3.455197295853642e-39 5.093707290171667e-01 1.894259995803556e-51 1.220100561498226e-59 7.402141842933518e-75 4.444055750929425e-01 2.201595675744977e-41 1.254170057493904e-46 5.617518530573892e-22 3.785192556099177e-06 5.845949475298529e-01 5.188228534743320e-01 3.515519212019068e-01 4.232836466587981e-01 2.646255166032802e-49 6.192799583920210e-150 4.950251611934111e-01 3.774614382472166e-102 5.203683721053370e-01 9.164725432710227e-49 5.297448815763911e-22 2.607076562964433e-21 4.313213333716660e-10 6.784299435818378e-83 1.611695412342489e-25 7.887460721277058e-57 3.898009001134042e-35 4.906842111681469e-83 2.079446454059455e-197 4.979131100934186e-01 2.769565678739175e-09 1.593182405309946e-164 3.516148311015284e-18 1.507317858011640e-26 1.760952784511785e-28 2.128128918984170e-01 4.698502247181577e-01 5.224360294809244e-01 5.257157695070357e-01 1.175354451755944e-15 3.747051361940474e-12 4.686898356863108e-44 4.296078671760328e-81 5.392386589024621e-01 5.036984969619429e-01 8.966189372582618e-39 4.225698832533936e-01 1.005606538588276e-113 5.459310784649832e-01 1.758639749722610e-108 8.463030196933589e-29 5.123682956624066e-01 4.467697404271218e-01 1.210621452890700e-139 1.393857945237671e-77 1.426377486561563e-128 1.119606566865091e-18 3.518025960569181e-15 4.969955867481248e-01 1.698880267648522e-77 4.510087408143639e-01 2.812945285455148e-82 9.813193268768666e-39 3.027608854834240e-106 2.568257185336195e-80 4.776126370318553e-67 5.179005635022720e-01 1.685280997953844e-133 4.037544363818743e-12 3.633452229101305e-09 2.035521985946772e-22 4.600337840178703e-53 4.612224957995566e-07 1.697438605113581e-75 5.469464253710210e-15 4.831843003686371e-01 5.503854183537089e-01 2.285584598765868e-10 3.219114407439865e-13 1.017931050231716e-75 4.445304678947378e-19 5.234771944706338e-39 3.414054143937209e-96 2.289966747095430e-28 3.168205471419034e-52 2.703434726115730e-01 4.176359822060936e-09 5.747027262720019e-01 5.362636964400846e-12 6.977526314400643e-36 5.290589268364396e-01 5.230846548430694e-01 2.360000029624941e-65 4.869474707911695e-01 4.938313111877704e-01 7.055942678335274e-37 2.888885349962925e-126 1.507810894155244e-40 1.961665138104530e-18 9.092100115239070e-140 5.715264798509928e-01 5.629801650365340e-01 3.816232692495490e-19 2.280710499421332e-53 2.078039884846409e-51 3.882053971495657e-173 6.883263826494338e-145 8.658751268694438e-57 4.606460107505346e-01 8.870985154236327e-64 5.152152129273123e-57 3.348372056123207e-04 1.862040252125985e-60 8.532205112218003e-02 5.913459190509410e-01 5.828612804841236e-01 1.470668079897647e-22 1.445137547431776e-80 1.535165707390549e-09 4.539228992792565e-86 1.947283982584739e-57 1.017857811406392e-13 3.705640405375342e-09 2.235052354055566e-83 5.698465843009248e-01 8.550491740030347e-73 2.965503444559561e-46 1.492052087662811e-72 1.049204270336231e-143 4.414172037696643e-43 4.786705490365535e-12 2.123645051043591e-76 4.441032806062091e-36 4.943207873841451e-01 3.828329989552043e-46 7.950053521116077e-61 1.740202737376416e-175 2.133256754581968e-106 3.756251549877448e-71 4.020040659180165e-01 4.279209413403764e-142 5.459343071844269e-34 2.588704072276775e-09 4.600533233634619e-01 6.906455252669726e-69 2.379451201183654e-164 5.155193032357406e-44 5.009567305203673e-12 1.441063797215184e-18 4.176054155016106e-01 4.005502327261893e-01 2.656820457415460e-68 1.482563682019229e-201 1.043488013718931e-11 2.676076762509872e-34 2.351801548084861e-78 6.702801311569549e-53 2.567816107457355e-42 4.265713142128023e-91 4.205035634694258e-23 3.183090021779187e-57 1.070390944986017e-53 4.329700872511477e-57 3.874255760882203e-17 2.250858369375647e-72 1.620627155169553e-51 9.124351618726108e-139 6.853249234625116e-72 2.445896136075400e-50 1.009358706310379e-24 5.176419277775197e-01 2.963325963369176e-09 3.059363896772608e-39 1.934723631163846e-08 5.364286338089554e-78 5.482838457990042e-28 4.654587651982773e-01 4.584917841451738e-01 1.914427038227685e-38 8.010384217225127e-43 4.276455935807338e-01 1.212986049729698e-15 2.687981538344003e-37 5.359548189387726e-64 4.066640147505557e-79 1.676243341998764e-176 2.855218948359750e-129 1.431990334853692e-169 3.781249309090356e-30 2.595629628500215e-31 4.384407682119486e-01 4.300871086231972e-01 7.910042850773248e-117 5.670090131841621e-71 2.057962715230023e-67 3.370741767448411e-72 5.552428823613135e-10 2.055466732954541e-98 6.209267681337106e-62 5.766976744573295e-69 3.055397964695147e-87 1.135620578831565e-36 2.791642359517378e-09 1.480008636783488e-132 5.392291628018964e-01 3.586845802517698e-12 6.087326354226746e-01 6.075549725336257e-01 7.471087189014564e-39 2.057014129881995e-09 5.480437172101159e-52 3.706211982204019e-57 1.826903869159293e-112 2.543877623506607e-20 2.502118694433341e-23 8.506394331062794e-86 6.096295307955954e-46 1.084576853989000e-17 8.603194778631879e-145 4.706582973953976e-01 9.544364190635476e-51 5.996151678866379e-01 6.081646998254552e-01 6.084035363408191e-01 5.998658617931557e-01 5.967512055828611e-01 5.979745404775612e-01 2.601115516101822e-29 8.551158985118119e-18 2.950608616995476e-110 3.267198679249653e-110 1.301344125494188e-60 3.931381288739908e-45 2.354539000502682e-16 2.271672221890130e-47 5.287489993549745e-01 8.299988093901489e-42 1.645382220392251e-10 5.998279576304640e-31 9.541032779364758e-28 4.661355917046871e-20 4.939757431218504e-62 3.331472809175084e-09 4.027008379795190e-10 1.324938864883209e-25 4.186306760788697e-143 4.394220647284188e-73 3.257980910976269e-25 1.430560632754701e-75 1.041391362090688e-89 2.774679012447047e-93 1.721538091770234e-01 5.952351341025169e-60 3.529484224265064e-65 1.707215267196479e-09 4.755217607366125e-53 1.018538838114140e-86 1.215893707359939e-42 4.400666053391008e-12 9.659596714093486e-34 7.835112698531544e-36 1.904577854463238e-29 4.694410774139972e-96 2.685502712091067e-101 1.577861213586236e-61 1.837828609543202e-01 4.031785298834989e-36 1.729370969501617e-18 1.758662960842854e-111 6.175087583840361e-01 6.175087602517730e-01 5.098048866283629e-61 4.726720076462464e-01 1.109714293127033e-95 9.677443667440476e-10 4.675624997984136e-28 6.975534029819768e-11 5.596717692353262e-46 2.334023465897727e-81 2.367523021502992e-09 1.026610548554474e-59 6.076175660018521e-01 6.076175716798258e-01 6.753438813171490e-23 5.284694551507714e-01 5.184549775736281e-01 4.911089626827602e-01 1.423162225095143e-18 1.555806117077521e-72 5.471164505275614e-01 5.377145104176015e-01 1.738742711634740e-26 2.319075687250011e-71 2.108601162845967e-21 1.403759780072407e-76 9.949822434398637e-79 5.252074971389695e-01 2.973933215707461e-106 5.982371758925258e-01 5.983995799951731e-01 2.175699928917137e-39 1.308546079808598e-35 3.360295264425375e-01 9.073753561808128e-49 4.418561267321154e-65 7.053491763379161e-51 5.261082278716221e-25 4.346414718215320e-01 4.584519228454923e-01 3.603338848673959e-09 3.542228247910794e-09 1.517383642269047e-44 3.001085549357353e-41 4.377583880584775e-124 9.583504705682334e-48 4.729574500991458e-01 2.592084215830894e-72 1.516624243587886e-77 7.928496621389819e-02 1.355935207597398e-04 3.194452605846940e-98 7.636603620008339e-15 4.724270941623775e-64 1.046889595781734e-41 2.079219570552968e-31 8.464225335023766e-33 1.283130946933691e-111 1.677113710865591e-44 4.400999225912837e-01 3.788018094614962e-01 4.522059973577939e-60 2.062588748738299e-103 8.777746453938650e-66 8.608083331240038e-46 3.154428762298735e-27 3.510028533307910e-12 5.241843901618871e-75 2.806388657866371e-18 8.602650511793805e-22 4.229524915382554e-01 1.509022391002538e-103 5.554782642227662e-01 1.799496493037484e-43 4.575829208209767e-01 2.505746999938472e-90 2.771659248688807e-39 5.449882653347563e-22 5.294245491831417e-71 4.513227707399722e-01 6.652922386985191e-123 4.430049104563436e-128 1.679241620692931e-09 6.324498035940102e-15 3.698425525988041e-50 3.737335941037062e-124 5.678541210865057e-01 5.743667984899363e-01 1.164703141300401e-09 2.000212881829926e-35 9.036617228098952e-105 5.572425366830075e-01 4.326650005426745e-76 3.839357982874066e-13 2.668557966217435e-10 5.346343874870434e-01 5.443853486109820e-01 9.663559108950119e-43 5.114707953467762e-66 4.232743202610965e-86 6.494254498256905e-23 6.190769058535941e-25 4.805000800661942e-28 5.448955944209019e-46 8.487973772478049e-62 3.751013912212760e-59 2.840300041883106e-13 8.685556720630638e-212 5.465056369445609e-01 3.207463035572417e-99 3.308815647598193e-174 1.649568337128787e-09 5.743200485357695e-01 5.987953077795609e-01 6.078732458468497e-01 1.132778130532966e-14 4.545275218093946e-63 5.161612764958341e-154 5.523312775789488e-149 1.330179691276601e-75 4.165385118618193e-01 1.940071131119230e-51 2.189852677248602e-21 2.596425942633995e-09 1.004380919593723e-91 5.085100800550433e-97 3.661934210087732e-18 1.245503028080654e-32 2.705498247366053e-18 8.806890004843146e-83 2.367132449162769e-93 2.337392997233183e-61 3.280299753192973e-178 2.386672137458534e-45 3.816945825691270e-70 1.743719402597762e-01 1.137317325881069e-55 6.876231330419411e-52 3.451329261188952e-46 4.412838075045837e-01 1.255274993083371e-206 9.537291429584535e-15 3.376405892022624e-133 5.356418742999879e-67 2.093087747346439e-63 1.762342996738522e-35 5.678021217558344e-01 2.177205611583839e-184