<?xml version="1.0"?>
<VTKFile type="UnstructuredGrid" version="0.1" byte_order="LittleEndian">
<UnstructuredGrid>
<Piece NumberOfPoints="492" NumberOfCells="906">
<Points>
<DataArray type="Float64" NumberOfComponents="3" format="ascii">
0.000000000000000e+00 0.000000000000000e+00 0.000000000000000e+00 0.000000000000000e+00 1.000000000000000e+00 0.000000000000000e+00 1.000000000000000e+00 1.000000000000000e+00 0.000000000000000e+00 1.000000000000000e+00 0.000000000000000e+00 0.000000000000000e+00 0.000000000000000e+00 5.263157894724207e-02 0.000000000000000e+00 0.000000000000000e+00 1.052631578944841e-01 0.000000000000000e+00 0.000000000000000e+00 1.578947368417262e-01 0.000000000000000e+00 0.000000000000000e+00 2.105263157889683e-01 0.000000000000000e+00 0.000000000000000e+00 2.631578947362221e-01 0.000000000000000e+00 0.000000000000000e+00 3.157894736835109e-01 0.000000000000000e+00 0.000000000000000e+00 3.684210526307997e-01 0.000000000000000e+00 0.000000000000000e+00 4.210526315780885e-01 0.000000000000000e+00 0.000000000000000e+00 4.736842105253773e-01 0.000000000000000e+00 0.000000000000000e+00 5.263157894727392e-01 0.000000000000000e+00 0.000000000000000e+00 5.789473684201740e-01 0.000000000000000e+00 0.000000000000000e+00 6.315789473676090e-01 0.000000000000000e+00 0.000000000000000e+00 6.842105263150439e-01 0.000000000000000e+00 0.000000000000000e+00 7.368421052624787e-01 0.000000000000000e+00 0.000000000000000e+00 7.894736842099683e-01 0.000000000000000e+00 0.000000000000000e+00 8.421052631574764e-01 0.000000000000000e+00 0.000000000000000e+00 8.947368421049842e-01 0.000000000000000e+00 0.000000000000000e+00 9.473684210524922e-01 0.000000000000000e+00 5.263157894724207e-02 1.000000000000000e+00 0.000000000000000e+00 1.052631578944841e-01 1.000000000000000e+00 0.000000000000000e+00 1.578947368417262e-01 1.000000000000000e+00 0.000000000000000e+00 2.105263157889683e-01 1.000000000000000e+00 0.000000000000000e+00 2.631578947362221e-01 1.000000000000000e+00 0.000000000000000e+00 3.157894736835109e-01 1.000000000000000e+00 0.000000000000000e+00 3.684210526307997e-01 1.000000000000000e+00 0.000000000000000e+00 4.210526315780885e-01 1.000000000000000e+00 0.000000000000000e+00 4.736842105253773e-01 1.000000000000000e+00 0.000000000000000e+00 5.263157894727392e-01 1.000000000000000e+00 0.000000000000000e+00 5.789473684201740e-01 1.000000000000000e+00 0.000000000000000e+00 6.315789473676090e-01 1.000000000000000e+00 0.000000000000000e+00 6.842105263150439e-01 1.000000000000000e+00 0.000000000000000e+00 7.368421052624787e-01 1.000000000000000e+00 0.000000000000000e+00 7.894736842099683e-01 1.000000000000000e+00 0.000000000000000e+00 8.421052631574764e-01 1.000000000000000e+00 0.000000000000000e+00 8.947368421049842e-01 1.000000000000000e+00 0.000000000000000e+00 9.473684210524922e-01 1.000000000000000e+00 0.000000000000000e+00 1.000000000000000e+00 9.473684210527046e-01 0.000000000000000e+00 1.000000000000000e+00 8.947368421054093e-01 0.000000000000000e+00 1.000000000000000e+00 8.421052631581138e-01 0.000000000000000e+00 1.000000000000000e+00 7.894736842108185e-01 0.000000000000000e+00 1.000000000000000e+00 7.368421052635596e-01 0.000000000000000e+00 1.000000000000000e+00 6.842105263164103e-01 0.000000000000000e+00 1.000000000000000e+00 6.315789473692610e-01 0.000000000000000e+00 1.000000000000000e+00 5.789473684221118e-01 0.000000000000000e+00 1.000000000000000e+00 5.263157894749625e-01 0.000000000000000e+00 1.000000000000000e+00 4.736842105276671e-01 0.000000000000000e+00 1.000000000000000e+00 4.210526315802255e-01 0.000000000000000e+00 1.000000000000000e+00 3.684210526327841e-01 0.000000000000000e+00 1.000000000000000e+00 3.157894736853426e-01 0.000000000000000e+00 1.000000000000000e+00 2.631578947379012e-01 0.000000000000000e+00 1.000000000000000e+00 2.105263157903501e-01 0.000000000000000e+00 1.000000000000000e+00 1.578947368427626e-01 0.000000000000000e+00 1.000000000000000e+00 1.052631578951750e-01 0.000000000000000e+00 1.000000000000000e+00 5.263157894758763e-02 0.000000000000000e+00 9.473684210527046e-01 0.000000000000000e+00 0.000000000000000e+00 8.947368421054093e-01 0.000000000000000e+00 0.000000000000000e+00 8.421052631581138e-01 0.000000000000000e+00 0.000000000000000e+00 7.894736842108185e-01 0.000000000000000e+00 0.000000000000000e+00 7.368421052635596e-01 0.000000000000000e+00 0.000000000000000e+00 6.842105263164103e-01 0.000000000000000e+00 0.000000000000000e+00 6.315789473692610e-01 0.000000000000000e+00 0.000000000000000e+00 5.789473684221118e-01 0.000000000000000e+00 0.000000000000000e+00 5.263157894749625e-01 0.000000000000000e+00 0.000000000000000e+00 4.736842105276671e-01 0.000000000000000e+00 0.000000000000000e+00 4.210526315802255e-01 0.000000000000000e+00 0.000000000000000e+00 3.684210526327841e-01 0.000000000000000e+00 0.000000000000000e+00 3.157894736853426e-01 0.000000000000000e+00 0.000000000000000e+00 2.631578947379012e-01 0.000000000000000e+00 0.000000000000000e+00 2.105263157903501e-01 0.000000000000000e+00 0.000000000000000e+00 1.578947368427626e-01 0.000000000000000e+00 0.000000000000000e+00 1.052631578951750e-01 0.000000000000000e+00 0.000000000000000e+00 5.263157894758763e-02 0.000000000000000e+00 0.000000000000000e+00 5.000768619666112e-01 6.073188554060099e-01 0.000000000000000e+00 6.795380246767664e-01 3.051439214016982e-01 0.000000000000000e+00 2.657431272343335e-01 3.583622349137769e-01 0.000000000000000e+00 7.778111410595571e-01 6.762714425551062e-01 0.000000000000000e+00 2.607426257384951e-01 7.108648205749732e-01 0.000000000000000e+00 1.925410402609788e-01 8.072897193003743e-01 0.000000000000000e+00 8.120681721638150e-01 1.867443256665874e-01 0.000000000000000e+00 8.429568111511234e-01 8.370136966129558e-01 0.000000000000000e+00 1.887085678387430e-01 1.942865534629338e-01 0.000000000000000e+00 1.651677048840214e-01 8.667722398931621e-01 0.000000000000000e+00 8.836633669191022e-01 1.084026514754809e-01 0.000000000000000e+00 9.685389086937463e-01 7.274054905852957e-02 0.000000000000000e+00 4.352932362624411e-02 9.173715253517774e-01 0.000000000000000e+00 9.241081310787339e-01 9.627872911261246e-01 0.000000000000000e+00 4.665702639581027e-01 2.966710361013457e-01 0.000000000000000e+00 7.457691610660050e-01 4.937482709445991e-01 0.000000000000000e+00 5.124327408742055e-01 7.972257391806719e-01 0.000000000000000e+00 4.139184944998919e-01 4.886178466606589e-01 0.000000000000000e+00 5.794123181752160e-01 4.770262960507517e-01 0.000000000000000e+00 5.745824728513373e-01 1.280831738701313e-01 0.000000000000000e+00 3.921967503782522e-01 1.185901536343156e-01 0.000000000000000e+00 9.992548653213773e-02 4.752146485274584e-01 0.000000000000000e+00 8.680062226361797e-01 4.287979305759036e-01 0.000000000000000e+00 2.991047558979558e-01 1.973979233801190e-01 0.000000000000000e+00 7.140071920057445e-01 8.382382491017021e-01 0.000000000000000e+00 8.189363322807111e-01 3.270427252528633e-01 0.000000000000000e+00 1.260422786413521e-01 3.831814387673006e-01 0.000000000000000e+00 3.744347783115686e-01 6.759694791923643e-01 0.000000000000000e+00 6.345513284423596e-01 6.545750755932673e-01 0.000000000000000e+00 1.482905044071461e-01 2.987819499203461e-01 0.000000000000000e+00 8.823950871163319e-01 6.747277421017024e-01 0.000000000000000e+00 7.045199380766443e-01 4.862305688554183e-02 0.000000000000000e+00 9.495676700920537e-02 2.542878793617160e-01 0.000000000000000e+00 9.161569341424017e-01 2.838790265759349e-01 0.000000000000000e+00 7.080441356431567e-01 9.610778915671577e-01 0.000000000000000e+00 2.902412080146349e-01 7.528496672690950e-02 0.000000000000000e+00 1.036024125949905e-01 6.657665487544948e-01 0.000000000000000e+00 2.616762994390670e-01 9.010984154916205e-01 0.000000000000000e+00 8.057964710161646e-01 9.988332988076845e-02 0.000000000000000e+00 9.193406562742105e-01 8.226521161808503e-01 0.000000000000000e+00 1.618217027865307e-01 9.113294842911728e-01 0.000000000000000e+00 2.216251568644465e-01 2.589589622123038e-01 0.000000000000000e+00 7.569837171226450e-01 2.445305945173807e-01 0.000000000000000e+00 8.590142195453966e-01 9.521276807895324e-01 0.000000000000000e+00 4.402477648881222e-02 8.663838880976044e-01 0.000000000000000e+00 9.474543022606529e-01 1.192562341855612e-01 0.000000000000000e+00 5.715115842330903e-02 1.339611925669680e-01 0.000000000000000e+00 8.718541440964978e-01 3.245699810888708e-02 0.000000000000000e+00 9.536019591372769e-01 9.155831064959428e-01 0.000000000000000e+00 9.161219870557668e-01 5.360690789524346e-02 0.000000000000000e+00 7.548922358470611e-02 9.489485111843923e-01 0.000000000000000e+00 5.492509137503038e-02 8.407525559195163e-02 0.000000000000000e+00 1.338290078374573e-01 8.889689671696894e-01 0.000000000000000e+00 8.850108101897147e-01 8.568356417223725e-01 0.000000000000000e+00 8.401324540582252e-01 1.461985836418656e-01 0.000000000000000e+00 3.736587383006215e-01 2.477899593021611e-01 0.000000000000000e+00 6.215822783678956e-01 2.231997275545906e-01 0.000000000000000e+00 1.685263063586827e-01 4.160471124896989e-01 0.000000000000000e+00 2.680261468312237e-01 4.562905052002703e-01 0.000000000000000e+00 8.121933773954787e-01 4.052869767154916e-01 0.000000000000000e+00 3.625119198709785e-01 3.273008519037463e-01 0.000000000000000e+00 3.468918975558964e-01 4.220211114867651e-01 0.000000000000000e+00 5.813425695337223e-01 7.274115590873627e-01 0.000000000000000e+00 5.768484086200723e-01 3.019361073474691e-01 0.000000000000000e+00 4.402151087125771e-01 7.381776909706687e-01 0.000000000000000e+00 7.137906082496469e-01 3.998326229438716e-01 0.000000000000000e+00 6.251561152114772e-01 3.939374276747084e-01 0.000000000000000e+00 4.375567280004101e-01 1.986674890152439e-01 0.000000000000000e+00 3.926866755464224e-01 5.805376032354694e-01 0.000000000000000e+00 5.332000484765275e-01 3.907911305757537e-01 0.000000000000000e+00 1.768746658781452e-01 5.942294572210166e-01 0.000000000000000e+00 4.385321552863963e-01 3.994211893040143e-01 0.00000000000000
[...]
<PointData Scalars="pressure_nodes_[L]," Vectors="">
<DataArray type="Float64" Name="pressure_nodes_[L]" format="ascii">
7.295090762636846e-14 6.302807682913443e-14 8.428931746654636e+01 8.495566260624470e+01 6.108500067090532e-14 8.698540162413291e-14 7.242807053598351e-14 5.006157903326981e-14 3.983978847307697e-14 2.755094168195119e-14 2.793120944137055e-14 4.183781018383310e-14 4.886952765424338e-14 3.966104267303823e-14 3.644121288501721e-14 4.029273786989410e-14 6.693328100327502e-14 3.822084426149457e-14 3.776685523811740e-14 4.277149987430981e-14 4.778075841404994e-14 4.273163705623726e-14 5.260360601160278e-13 5.790374003714943e-12 6.818046197166680e-11 7.530852434796579e-10 8.554753506247027e-09 8.230452013538284e-08 9.273222637842216e-07 8.690317281921293e-06 6.344912719502439e-05 4.829034596823700e-04 3.382442766180393e-03 2.168377219644155e-02 1.160298011086671e-01 5.384466380794595e-01 2.082416679288766e+00 7.681023767406918e+00 2.417223553939854e+01 5.463323611505009e+01 8.609558459377845e+01 8.501372050851842e+01 8.580972011837042e+01 8.671239442524042e+01 8.346145045329753e+01 8.074005513419156e+01 8.268780494312286e+01 8.108648586406792e+01 8.137699336147617e+01 8.399236165366415e+01 8.102608218227552e+01 8.615969881998276e+01 8.714029986055964e+01 8.690023125290682e+01 8.470633437440760e+01 8.328489456148249e+01 8.591145241476491e+01 8.882275141227427e+01 5.391778628893661e+01 2.390907896028738e+01 8.462740292889029e+00 2.509723927035558e+00 7.234928223108512e-01 1.172509441985301e-01 2.205672977786915e-02 3.623282861741478e-03 4.815346627405028e-04 5.915837700424862e-05 6.944739548480975e-06 7.627823520625519e-07 8.569292901970473e-08 9.698791426202300e-09 9.456612903220962e-10 8.254398952939578e-11 7.323223901208358e-12 6.807383236420548e-13 1.727540722225099e-04 9.872735133427631e-02 8.687163437255089e-09 1.793085095252942e+00 6.275454226609753e-09 3.482622605592215e-10 4.156523385431385e+00 8.693892305901585e+00 2.450766613135330e-10 1.148034473120330e-10 2.002797238696150e+01 7.113319031967535e+01 2.848800868423705e-13 3.857886396385771e+01 4.620275073351538e-05 7.162105727865909e-01 2.437432512270831e-04 4.179952116273914e-06 2.931944658335449e-03 2.896119947711039e-03 1.943875406073075e-06 3.752114336565019e-12 1.353159438947604e+01 4.423610468075313e-08 2.837655988416184e-01 4.883029306770170e+00 1.427663374183750e-11 8.566820630361976e-07 2.141524737524433e-02 3.877807370471145e-11 2.045766382093613e+01 2.102530788114101e-01 3.034804239183407e-12 3.558142026932067e+01 2.662638329764632e-01 2.769046582452984e-08 5.102506242072952e-12 8.176547935633327e-09 3.694379152653825e+00 3.643826149766610e+01 7.542240721286061e-11 1.150215433876164e-09 9.966985026394914e-01 1.272390215651974e+01 3.033261444822146e-13 5.547077785215512e+01 7.548604415213113e-13 1.613047235461554e+01 6.012739592409758e+01 3.558149197118230e+01 1.481246937073942e-12 6.329245926961757e-13 1.953941580195054e-11 2.002216769437133e+01 8.442776831215797e+00 8.482769596324179e-07 1.402193237457782e-02 1.104552046546332e-10 6.729389149942238e-09 4.250068952772058e+00 6.039106208470980e-07 2.667384219402834e-07 2.976111015503169e-03 2.837308525284620e-03 1.306813689410001e-05 2.860669238988240e-01 1.520491100644636e-02 1.225805424188285e-05 1.792071567153945e-06 5.391355804153498e-04 1.153132520354661e-10 1.280889817715560e-05 3.252912841988050e-07 5.520389382293073e-02 8.196911509218944e-11 9.121807484929353e-03 4.248221015454962e-04 1.352632372732464e-01 7.477391839203094e-03 1.190516429081393e-10 2.929555888016121e-08 9.060905673741427e+00 6.426375277341803e+00 6.442135025481531e-10 1.412695453610890e-11 3.763802332983811e-04 2.511613107314323e-01 3.969979606186626e-09 3.073185123894043e-12 5.251707994094827e-02 9.001688981265486e+00 1.167507773893324e-04 6.943981183664884e-06 3.130771111076327e+01 6.416947948239025e-02 1.812364437692661e-02 7.274395587131990e-05 6.955030984944464e-05 1.878403787237999e-02 1.848902923586807e-05 2.690711647565814e-05 4.659960239341374e-04 3.847736367864279e-10 2.430434394642294e-13 3.616787138563568e-07 1.264364296088389e+01 2.925991635582258e+01 1.006452171156322e-03 1.442723435124061e+00 1.375746225861996e-09 4.229299495334418e-01 1.018473048449342e+01 1.043381545751676e+00 1.063788090209212e-12 1.540804101833105e-07 1.974612079837943e-06 5.954205234656246e+01 2.107185184943120e-11 2.009781828883968e-08 6.018170550100979e+00 6.407725867956711e+01 1.866152194110588e-07 1.958889640940126e-09 2.378214602518413e-07 3.389228708046257e+01 1.005150205969669e+00 2.534593305146680e-08 1.265815696330918e+00 2.874803586499506e+01 3.494916234692529e-08 3.540906375668492e+00 1.010059231256013e+01 4.358695167713993e-13 8.570827032324548e-01 1.669335793764492e-09 1.153349442986946e+00 6.803750416734620e-12 3.050321612963328e+00 4.044557447181949e-13 5.909059869913889e+01 2.711712486924723e-13 1.409596585813131e-10 3.001004943780898e+01 2.563042657478188e-01 1.288936483963200e+01 3.527583512888167e-13 7.542840332288730e-11 4.183254181630590e-09 2.085550148896411e+01 8.978235957078547e-12 2.047740454912682e-10 2.636188434638955e+00 9.193631994092958e-01 4.847952194418511e+00 3.459916022209102e+00 3.812233383445707e+00 1.226415858823271e+01 3.344310041439560e-13 2.664965481209605e-12 2.593341116666058e+01 1.959677965840131e-11 2.663429319544773e-09 2.872542751157446e-11 2.307142214310838e-10 1.642408288555557e+01 6.786010045697841e-10 3.901931012475628e+01 9.805240280959330e+00 1.077015235877369e+01 2.647407854359930e+01 6.392857258001296e+01 1.956371538270278e-12 2.562591791845536e-12 2.701916891403637e-13 7.039798646444778e+01 6.878386127383922e+01 1.868026197927518e-13 1.919344304350624e-03 9.179612555919830e-06 3.998385430690397e-05 2.753669351632326e-04 4.800750706692036e-06 5.313937340010473e-08 7.110709595168809e-09 1.051666749492246e-09 4.786291442594798e-06 1.812694616686473e-04 2.029038971278165e-05 3.091310064600244e-06 1.657667947682488e+00 4.511830405469008e-02 2.335638074016660e-12 1.378399351066338e-02 3.064138292799940e-06 2.340729075081649e-05 1.073823491815148e-03 4.259561594069814e-04 3.487455880212145e-02 4.721751030495638e-01 2.065019344453430e-04 6.944184901987266e-03 1.676207522614785e-02 7.794668070807700e-08 3.043406131764543e-01 1.226052696798119e-01 6.966361430543057e-03 1.529090082819708e-01 9.566185708212074e-04 3.012781370865627e-03 9.362772231948968e-13 1.692473628913160e-07 1.495171368860940e-04 4.529625762621911e-03 1.202022553310740e-03 1.357951837037895e-03 2.992195173028728e-02 4.569843768031392e-05 2.246190639430588e-13 4.091561652225513e-07 9.622485906171084e-01 1.009312633291055e-05 5.186547818268359e-05 1.243086790012212e-06 3.797979367617690e-01 2.697059341017072e-06 3.685942981720005e-08 8.188428731114737e-02 8.523477412183524e-05 6.258028675414404e-05 2.021460259600678e-05 1.395951512542281e-02 2.648289151047550e-10 1.600481333149169e-01 1.599261122504234e-03 1.017450434338746e-01 2.127908602631401e-02 2.763487985415710e-09 6.668802964347502e-03 1.303897247608204e-03 1.147348797081092e-06 5.386470092760966e-02 3.440203452479167e-02 1.876457430122920e-06 4.360321415929081e-05 1.024190118613793e-07 2.611292369628539e-11 2.191723654203588e-02 2.329284019574505e-08 3.849427474538872e-10 5.480240578045079e-03 5.241919560778095e-07 6.972962744479436e-07 2.492649560345357e-04 6.745410649439824e-02 3.017379638474746e-03 2.426306873651310e-01 2.437877510018221e-04 1.307719828723493e-11 6.538075735569453e-01 2.573803557949867e-05 1.220348667411546e-09 1.731615550944357e-04 4.751972283460090e-02 9.358445121128633e-10 1.981480838736504e-01 7.226342506979123e-06 8.079889913058021e-03 1.871459201821092e-07 5.466988018733284e-05 7.343210898636928e-04 3.383107926169021e-06 2.569157784991616e-09 4.190665163121757e-06 1.631820383146381e-06 3.457769421997827e-03 1.536683867111801e-04 1.689216903869169e-13 8.851438911428705e-04 8.776799259386683e-11 1.221961073308371e-03 6.199963243176185e-06 1.229833455795064e-07 1.457593597732150e-05 5.384989129001158e-07 9.188396606722708e-07 5.943747874779519e-04 2.632499279227302e-12 1.415322737546333e-08 2.133863308526798e-07 4.438440087771103e-10 2.377306288673344e+00 1.325419215568082e-03 7.838608402121074e-01 2.953111445515574e-11 1.163906272392785e+00 2.863258577468345e-05 2.597834187595156e+00 7.675663457445648e-07 6.600893941696614e-11 2.689796611606536e-01 1.103567342280101e-02 3.118355592128359e+00 1.284176664010190e-02 3.224892578860027e+00 2.532360815212384e-07 3.836314122290824e-09 2.257756241998363e-05 7.568330790185511e-07 5.552815463028896e+00 1.290264847989743e-05 2.004314497472089e-04 5.188611997465835e-04 4.319580085067167e-04 1.443418273512021e-03 7.885284564623535e-05 4.566845434457815e-08 4.450735798480782e-10 1.801567847800775e-08 1.978355274953933e+01 1.159519246014499e+00 3.064276949868397e-08 5.641713659776114e-10 2.714031612002919e+00 4.866429327805698e-10 7.221851060283634e-01 2.211821811773179e+01 5.543324851867834e-02 4.767232348083879e+01 1.274308790645375e-02 6.428914362538950e+01 1.002830058773542e-05 4.955975636476083e-12 3.780992833437869e-06 2.212306921302649e-07 4.695904998844744e+00 1.230307378817593e-11 5.867056148155225e+01 7.145676194283632e-06 3.293774774063135e-06 1.056674149750635e+00 2.312226613365806e-01 7.773275922608539e-02 4.652135412749629e-03 1.595100600053587e-04 4.367079827944970e-01 2.373943895820114e-06 9.322776717415623e-03 1.126826237916209e+01 4.732558249765076e-06 9.245091697860734e-02 2.613349416644958e-08 3.583451873206945e-05 7.020363135376087e+01 2.184190329659011e-03 1.727303439692438e-04 6.878681166550278e-08 3.414969938236660e-01 3.401428913427910e-02 2.868155933904150e-12 5.328793959952455e-07 5.080847778930840e+01 9.179521426429543e-12 3.742695814179440e-09 4.614875940143186e+00 3.401989451726114e-02 3.821301421441301e-11 1.539334703568865e+01 1.050144865889373e-08 6.286305331124577e+01 3.644974854270823e+01 1.119597075556983e-11 3.212522143741422e-11 2.643441013388502e+00 5.010383575362308e-03 1.022209942988779e-10 3.324975162462903e-13 9.304975370738150e-03 1.023441947190544e-11 1.708483965354492e-12 3.188907462575796e+01 1.582043725875246e-11 6.721645405045568e+01 2.348151041666356e-05 5.721469400284686e-08 4.758371363465504e+01 9.443050992423695e-01 1.554212815998788e-13 2.413151738362923e-13 6.363889704288519e-09 4.522343785821781e-02 1.309461756424525e-01 2.960692530336533e-09 1.008795050946065e-09 5.948424742060057e-12 4.567313787060671e-02 1.179022068047837e-13 6.078187457271916e+01 9.283421880252909e-02 3.338681325669061e-01 1.979856622711150e-07 5.243343422915749e-05 5.488846733281909e+01 2.683509824908824e-08 8.821743537131994e+00 1.534646683344253e-01 6.552871480504223e+01 1.654094739490255e+00 3.771518358875407e+00 1.414802014604751e-12 3.387211634938303e-09 5.501211247742963e-02 1.224316933155373e-03 2.443440184065033e-03 1.717827554382157e-09 1.291256674253376e-13 1.190334960971700e-07 
</DataArray>
</PointData>
<CellData Scalars="pressure_elements_[L]," Vectors="velocity_elements_[L/T],">
<DataArray type="Float64" Name="pressure_elements_[L]" format="ascii">