<?xml version="1.0"?>
<VTKFile type="UnstructuredGrid" version="0.1" byte_order="LittleEndian">
<UnstructuredGrid>
<Piece NumberOfPoints="492" NumberOfCells="906">
<Points>
<DataArray type="Float64" NumberOfComponents="3" format="ascii">
0.000000000000000e+00 0.000000000000000e+00 0.000000000000000e+00 0.000000000000000e+00 1.000000000000000e+00 0.000000000000000e+00 1.000000000000000e+00 1.000000000000000e+00 0.000000000000000e+00 1.000000000000000e+00 0.000000000000000e+00 0.000000000000000e+00 0.000000000000000e+00 5.263157894724207e-02 0.000000000000000e+00 0.000000000000000e+00 1.052631578944841e-01 0.000000000000000e+00 0.000000000000000e+00 1.578947368417262e-01 0.000000000000000e+00 0.000000000000000e+00 2.105263157889683e-01 0.000000000000000e+00 0.000000000000000e+00 2.631578947362221e-01 0.000000000000000e+00 0.000000000000000e+00 3.157894736835109e-01 0.000000000000000e+00 0.000000000000000e+00 3.684210526307997e-01 0.000000000000000e+00 0.000000000000000e+00 4.210526315780885e-01 0.000000000000000e+00 0.000000000000000e+00 4.736842105253773e-01 0.000000000000000e+00 0.000000000000000e+00 5.263157894727392e-01 0.000000000000000e+00 0.000000000000000e+00 5.789473684201740e-01 0.000000000000000e+00 0.000000000000000e+00 6.315789473676090e-01 0.000000000000000e+00 0.000000000000000e+00 6.842105263150439e-01 0.000000000000000e+00 0.000000000000000e+00 7.368421052624787e-01 0.000000000000000e+00 0.000000000000000e+00 7.894736842099683e-01 0.000000000000000e+00 0.000000000000000e+00 8.421052631574764e-01 0.000000000000000e+00 0.000000000000000e+00 8.947368421049842e-01 0.000000000000000e+00 0.000000000000000e+00 9.473684210524922e-01 0.000000000000000e+00 5.263157894724207e-02 1.000000000000000e+00 0.000000000000000e+00 1.052631578944841e-01 1.000000000000000e+00 0.000000000000000e+00 1.578947368417262e-01 1.000000000000000e+00 0.000000000000000e+00 2.105263157889683e-01 1.000000000000000e+00 0.000000000000000e+00 2.631578947362221e-01 1.000000000000000e+00 0.000000000000000e+00 3.157894736835109e-01 1.000000000000000e+00 0.000000000000000e+00 3.684210526307997e-01 1.000000000000000e+00 0.000000000000000e+00 4.210526315780885e-01 1.000000000000000e+00 0.000000000000000e+00 4.736842105253773e-01 1.000000000000000e+00 0.000000000000000e+00 5.263157894727392e-01 1.000000000000000e+00 0.000000000000000e+00 5.789473684201740e-01 1.000000000000000e+00 0.000000000000000e+00 6.315789473676090e-01 1.000000000000000e+00 0.000000000000000e+00 6.842105263150439e-01 1.000000000000000e+00 0.000000000000000e+00 7.368421052624787e-01 1.000000000000000e+00 0.000000000000000e+00 7.894736842099683e-01 1.000000000000000e+00 0.000000000000000e+00 8.421052631574764e-01 1.000000000000000e+00 0.000000000000000e+00 8.947368421049842e-01 1.000000000000000e+00 0.000000000000000e+00 9.473684210524922e-01 1.000000000000000e+00 0.000000000000000e+00 1.000000000000000e+00 9.473684210527046e-01 0.000000000000000e+00 1.000000000000000e+00 8.947368421054093e-01 0.000000000000000e+00 1.000000000000000e+00 8.421052631581138e-01 0.000000000000000e+00 1.000000000000000e+00 7.894736842108185e-01 0.000000000000000e+00 1.000000000000000e+00 7.368421052635596e-01 0.000000000000000e+00 1.000000000000000e+00 6.842105263164103e-01 0.000000000000000e+00 1.000000000000000e+00 6.315789473692610e-01 0.000000000000000e+00 1.000000000000000e+00 5.789473684221118e-01 0.000000000000000e+00 1.000000000000000e+00 5.263157894749625e-01 0.000000000000000e+00 1.000000000000000e+00 4.736842105276671e-01 0.000000000000000e+00 1.000000000000000e+00 4.210526315802255e-01 0.000000000000000e+00 1.000000000000000e+00 3.684210526327841e-01 0.000000000000000e+00 1.000000000000000e+00 3.157894736853426e-01 0.000000000000000e+00 1.000000000000000e+00 2.631578947379012e-01 0.000000000000000e+00 1.000000000000000e+00 2.105263157903501e-01 0.000000000000000e+00 1.000000000000000e+00 1.578947368427626e-01 0.000000000000000e+00 1.000000000000000e+00 1.052631578951750e-01 0.000000000000000e+00 1.000000000000000e+00 5.263157894758763e-02 0.000000000000000e+00 9.473684210527046e-01 0.000000000000000e+00 0.000000000000000e+00 8.947368421054093e-01 0.000000000000000e+00 0.000000000000000e+00 8.421052631581138e-01 0.000000000000000e+00 0.000000000000000e+00 7.894736842108185e-01 0.000000000000000e+00 0.000000000000000e+00 7.368421052635596e-01 0.000000000000000e+00 0.000000000000000e+00 6.842105263164103e-01 0.000000000000000e+00 0.000000000000000e+00 6.315789473692610e-01 0.000000000000000e+00 0.000000000000000e+00 5.789473684221118e-01 0.000000000000000e+00 0.000000000000000e+00 5.263157894749625e-01 0.000000000000000e+00 0.000000000000000e+00 4.736842105276671e-01 0.000000000000000e+00 0.000000000000000e+00 4.210526315802255e-01 0.000000000000000e+00 0.000000000000000e+00 3.684210526327841e-01 0.000000000000000e+00 0.000000000000000e+00 3.157894736853426e-01 0.000000000000000e+00 0.000000000000000e+00 2.631578947379012e-01 0.000000000000000e+00 0.000000000000000e+00 2.105263157903501e-01 0.000000000000000e+00 0.000000000000000e+00 1.578947368427626e-01 0.000000000000000e+00 0.000000000000000e+00 1.052631578951750e-01 0.000000000000000e+00 0.000000000000000e+00 5.263157894758763e-02 0.000000000000000e+00 0.000000000000000e+00 5.000768619666112e-01 6.073188554060099e-01 0.000000000000000e+00 6.795380246767664e-01 3.051439214016982e-01 0.000000000000000e+00 2.657431272343335e-01 3.583622349137769e-01 0.000000000000000e+00 7.778111410595571e-01 6.762714425551062e-01 0.000000000000000e+00 2.607426257384951e-01 7.108648205749732e-01 0.000000000000000e+00 1.925410402609788e-01 8.072897193003743e-01 0.000000000000000e+00 8.120681721638150e-01 1.867443256665874e-01 0.000000000000000e+00 8.429568111511234e-01 8.370136966129558e-01 0.000000000000000e+00 1.887085678387430e-01 1.942865534629338e-01 0.000000000000000e+00 1.651677048840214e-01 8.667722398931621e-01 0.000000000000000e+00 8.836633669191022e-01 1.084026514754809e-01 0.000000000000000e+00 9.685389086937463e-01 7.274054905852957e-02 0.000000000000000e+00 4.352932362624411e-02 9.173715253517774e-01 0.000000000000000e+00 9.241081310787339e-01 9.627872911261246e-01 0.000000000000000e+00 4.665702639581027e-01 2.966710361013457e-01 0.000000000000000e+00 7.457691610660050e-01 4.937482709445991e-01 0.000000000000000e+00 5.124327408742055e-01 7.972257391806719e-01 0.000000000000000e+00 4.139184944998919e-01 4.886178466606589e-01 0.000000000000000e+00 5.794123181752160e-01 4.770262960507517e-01 0.000000000000000e+00 5.745824728513373e-01 1.280831738701313e-01 0.000000000000000e+00 3.921967503782522e-01 1.185901536343156e-01 0.000000000000000e+00 9.992548653213773e-02 4.752146485274584e-01 0.000000000000000e+00 8.680062226361797e-01 4.287979305759036e-01 0.000000000000000e+00 2.991047558979558e-01 1.973979233801190e-01 0.000000000000000e+00 7.140071920057445e-01 8.382382491017021e-01 0.000000000000000e+00 8.189363322807111e-01 3.270427252528633e-01 0.000000000000000e+00 1.260422786413521e-01 3.831814387673006e-01 0.000000000000000e+00 3.744347783115686e-01 6.759694791923643e-01 0.000000000000000e+00 6.345513284423596e-01 6.545750755932673e-01 0.000000000000000e+00 1.482905044071461e-01 2.987819499203461e-01 0.000000000000000e+00 8.823950871163319e-01 6.747277421017024e-01 0.000000000000000e+00 7.045199380766443e-01 4.862305688554183e-02 0.000000000000000e+00 9.495676700920537e-02 2.542878793617160e-01 0.000000000000000e+00 9.161569341424017e-01 2.838790265759349e-01 0.000000000000000e+00 7.080441356431567e-01 9.610778915671577e-01 0.000000000000000e+00 2.902412080146349e-01 7.528496672690950e-02 0.000000000000000e+00 1.036024125949905e-01 6.657665487544948e-01 0.000000000000000e+00 2.616762994390670e-01 9.010984154916205e-01 0.000000000000000e+00 8.057964710161646e-01 9.988332988076845e-02 0.000000000000000e+00 9.193406562742105e-01 8.226521161808503e-01 0.000000000000000e+00 1.618217027865307e-01 9.113294842911728e-01 0.000000000000000e+00 2.216251568644465e-01 2.589589622123038e-01 0.000000000000000e+00 7.569837171226450e-01 2.445305945173807e-01 0.000000000000000e+00 8.590142195453966e-01 9.521276807895324e-01 0.000000000000000e+00 4.402477648881222e-02 8.663838880976044e-01 0.000000000000000e+00 9.474543022606529e-01 1.192562341855612e-01 0.000000000000000e+00 5.715115842330903e-02 1.339611925669680e-01 0.000000000000000e+00 8.718541440964978e-01 3.245699810888708e-02 0.000000000000000e+00 9.536019591372769e-01 9.155831064959428e-01 0.000000000000000e+00 9.161219870557668e-01 5.360690789524346e-02 0.000000000000000e+00 7.548922358470611e-02 9.489485111843923e-01 0.000000000000000e+00 5.492509137503038e-02 8.407525559195163e-02 0.000000000000000e+00 1.338290078374573e-01 8.889689671696894e-01 0.000000000000000e+00 8.850108101897147e-01 8.568356417223725e-01 0.000000000000000e+00 8.401324540582252e-01 1.461985836418656e-01 0.000000000000000e+00 3.736587383006215e-01 2.477899593021611e-01 0.000000000000000e+00 6.215822783678956e-01 2.231997275545906e-01 0.000000000000000e+00 1.685263063586827e-01 4.160471124896989e-01 0.000000000000000e+00 2.680261468312237e-01 4.562905052002703e-01 0.000000000000000e+00 8.121933773954787e-01 4.052869767154916e-01 0.000000000000000e+00 3.625119198709785e-01 3.273008519037463e-01 0.000000000000000e+00 3.468918975558964e-01 4.220211114867651e-01 0.000000000000000e+00 5.813425695337223e-01 7.274115590873627e-01 0.000000000000000e+00 5.768484086200723e-01 3.019361073474691e-01 0.000000000000000e+00 4.402151087125771e-01 7.381776909706687e-01 0.000000000000000e+00 7.137906082496469e-01 3.998326229438716e-01 0.000000000000000e+00 6.251561152114772e-01 3.939374276747084e-01 0.000000000000000e+00 4.375567280004101e-01 1.986674890152439e-01 0.000000000000000e+00 3.926866755464224e-01 5.805376032354694e-01 0.000000000000000e+00 5.332000484765275e-01 3.907911305757537e-01 0.000000000000000e+00 1.768746658781452e-01 5.942294572210166e-01 0.000000000000000e+00 4.385321552863963e-01 3.994211893040143e-01 0.00000000000000
[...]
<PointData Scalars="pressure_nodes_[L]," Vectors="">
<DataArray type="Float64" Name="pressure_nodes_[L]" format="ascii">
2.737454358085256e-11 2.448332844984317e-11 8.724690424728534e+01 8.775328209438671e+01 2.351477010068363e-11 3.232557918929111e-11 2.768628274728135e-11 2.078667950788125e-11 1.683428301976972e-11 1.211257641800443e-11 1.227350696593353e-11 1.761563348947888e-11 2.069811267940830e-11 1.733311105934566e-11 1.602088973957351e-11 1.726710270267125e-11 2.714731663040620e-11 1.640612341969554e-11 1.606959959701049e-11 1.755278374620227e-11 1.952683086572917e-11 1.743383479043605e-11 1.682420900423314e-10 1.389830260818383e-09 1.198075885158212e-08 9.620890240891892e-08 7.831781633399683e-07 5.349888397366278e-06 4.023630457141991e-05 2.637099326216917e-04 1.367663676666404e-03 7.199459850752438e-03 3.514887675944109e-02 1.552007437325811e-01 5.810489257990900e-01 1.899289723625568e+00 5.352892355023621e+00 1.422135534436021e+01 3.354498102076869e+01 6.223322355857317e+01 8.872829850593114e+01 8.785287665328183e+01 8.850831734114594e+01 8.924032136865171e+01 8.658372317144705e+01 8.434765329837316e+01 8.601505062021590e+01 8.466862442062131e+01 8.491048805195584e+01 8.704556355022108e+01 8.456419078978287e+01 8.880551656204241e+01 8.957978020371557e+01 8.938904058135378e+01 8.758838780768190e+01 8.640978329177356e+01 8.856075794463229e+01 9.095565373139218e+01 6.156008061670973e+01 3.339803310331953e+01 1.531177760016991e+01 6.183698106358584e+00 2.355212066845842e+00 5.753898632406459e-01 1.547282548206014e-01 3.657135008761457e-02 7.231649290717349e-03 1.304510346721626e-03 2.202585479598753e-04 3.437331709755003e-05 5.362470913100510e-06 8.366267643268657e-07 1.143978653038564e-07 1.388411707181469e-08 1.677752266819519e-09 2.068904172638438e-10 3.161446951518094e-03 5.132281112861432e-01 7.877319439250308e-07 4.733461244218109e+00 5.995034144579417e-07 4.945521137827461e-08 9.008205079243520e+00 1.576655697532171e+01 3.723582747325408e-08 1.847624072996519e-08 2.904783950279523e+01 7.630743935141540e+01 9.762130757381155e-11 4.768730684523136e+01 1.060098451654678e-03 2.375280653433677e+00 4.235203244915773e-03 1.499253569306280e-04 3.182313105707225e-02 3.079884238615550e-02 7.743746178226776e-05 9.860766180712564e-10 2.173360402882784e+01 3.094533251880401e-06 1.161176490831398e+00 1.013810484411488e+01 3.140645369992317e-09 3.915005020440224e-05 1.547664627634122e-01 7.487350017557436e-09 2.940128412453274e+01 9.106502871707117e-01 8.194263946861238e-10 4.479100759592427e+01 1.099122814613117e+00 2.080454387767675e-06 1.271857260937251e-09 7.347334733366215e-07 8.165413578264644e+00 4.584639116177406e+01 1.308118325801262e-08 1.404396174322286e-07 3.044627864234304e+00 2.055968978859534e+01 1.037439259629837e-10 6.272958413413921e+01 2.229007002503372e-10 2.499329305735193e+01 6.690200027881714e+01 4.477715882569378e+01 4.195768850975731e-10 1.906388728853886e-10 4.042312218891607e-09 2.928856956598465e+01 1.519362855520889e+01 3.901035598732999e-05 1.095382600412552e-01 1.843758399202654e-08 6.578928720480944e-07 9.105549445976148e+00 2.872060353159925e-05 1.471743758697633e-05 3.210024222555578e-02 3.090360055317689e-02 3.851249757927483e-04 1.172295698424386e+00 1.183551615907941e-01 3.618030931165154e-04 7.325506230339086e-05 8.093296733960057e-03 1.938817051399268e-08 3.747567481617725e-04 1.738893146635444e-05 3.240587473896765e-01 1.378207129012679e-08 7.899261328974486e-02 6.534551932112217e-03 6.515351237630217e-01 6.693323267202553e-02 1.966966321913282e-08 2.223376594660180e-06 1.599530625186658e+01 1.244974874622781e+01 8.555702496767995e-08 3.149161927242703e-09 5.962646414933935e-03 1.042036606771632e+00 4.080780785469986e-07 8.036469388969041e-10 3.140595946495870e-01 1.599326170466049e+01 2.336576835956265e-03 2.239356418507228e-04 4.064515858511473e+01 3.639201751659060e-01 1.356332013664421e-01 1.556491048184419e-03 1.510643508910620e-03 1.381700682211934e-01 4.991560077266175e-04 6.827321255875858e-04 7.198157494210366e-03 5.464608430788365e-08 8.957938369460111e-11 1.843716999639832e-05 2.059225014948523e+01 3.867837227255826e+01 1.332879351478660e-02 4.012630146212539e+00 1.579857651265583e-07 1.569000024179121e+00 1.754042750409408e+01 3.170984150773714e+00 3.248343318726697e-10 9.341602191093405e-06 7.680361376203148e-05 6.648988466521268e+01 4.394378710424984e-09 1.633931091754824e-06 1.180249900853011e+01 7.029647888435413e+01 1.043015024608983e-05 2.145303999372412e-07 1.303959857797430e-05 4.327819695794205e+01 3.041947672066415e+00 1.905691394387667e-06 3.621029237360724e+00 3.818635773663865e+01 2.638813618446428e-06 8.021330932794180e+00 1.755527265469755e+01 1.468405700940661e-10 2.676051970140729e+00 1.898166796910739e-07 3.404938474545207e+00 1.645018096004266e-09 7.060991549874420e+00 1.345109613459924e-10 6.597661696328643e+01 9.607265947997745e-11 2.277248977817829e-08 3.946360415818647e+01 1.061649050137736e+00 2.088912015516317e+01 1.212866032472053e-10 1.288257141976190e-08 4.125516956114882e-07 3.016623829639833e+01 2.099298979219838e-09 3.018037386061810e-08 6.388843918128623e+00 2.823790036788905e+00 1.000732137141104e+01 7.763586003969622e+00 8.365085546778264e+00 2.018226064488320e+01 1.161734680792442e-10 6.897296895206088e-10 3.525594609686238e+01 4.004802205583381e-09 2.835972899755516e-07 5.686157482843437e-09 3.418069843500950e-08 2.516546095457381e+01 8.583609942922074e-08 4.832591689588057e+01 1.712708599855365e+01 1.824293907784116e+01 3.589004368445237e+01 7.027067243997627e+01 5.588250828611319e-10 6.768958752206528e-10 9.103632415352444e-11 7.569204655141299e+01 7.436533628152988e+01 6.719874385257175e-11 2.239349959891828e-02 2.824092820096042e-04 9.375970888684607e-04 4.643123874992470e-03 1.630197872854312e-04 3.727185946523037e-06 6.764261732878330e-07 1.297106219616084e-07 1.620184551708546e-04 3.315551109175571e-03 5.447820030255745e-04 1.119971078103611e-04 4.511036040927805e+00 2.767234110317474e-01 6.495485353702855e-10 1.075594280561203e-01 1.131410924234235e-04 6.135160015403752e-04 1.401702523400460e-02 6.644203360030764e-03 2.286894283256293e-01 1.726821215228219e+00 3.739059678884280e-03 6.353568358086417e-02 1.276516400910079e-01 5.107092382762399e-06 1.233137515882744e+00 6.091696084081037e-01 6.283151525419775e-02 7.238119214606011e-01 1.289117424045236e-02 3.182252727102334e-02 2.872754371127012e-10 1.011486879654201e-05 2.814994536516377e-03 4.516266021332519e-02 1.549484282213662e-02 1.710875576845428e-02 2.018216065147123e-01 1.071437615546164e-03 8.141721087489881e-11 2.089887942290067e-05 2.985297294509976e+00 3.098561853613684e-04 1.198983013709697e-03 5.366010214830002e-05 1.466976558245847e+00 1.034541014161051e-04 2.767245145578484e-06 4.462049448456448e-01 1.790384290682241e-03 1.376981129536339e-03 5.391654280887813e-04 1.104546370775115e-01 3.978679257549498e-08 7.388464818172036e-01 1.933815500401606e-02 5.267319491196597e-01 1.542170843582468e-01 3.030304493602381e-07 6.136214309722200e-02 1.649227365718316e-02 5.053894596974015e-05 3.185592169186467e-01 2.241002323179066e-01 7.564850505062420e-05 1.036027320024448e-03 6.432952633034436e-06 5.407524448473986e-09 1.583455587577773e-01 1.882806164111630e-06 5.277854754785854e-08 5.263929184776146e-02 2.596790310262478e-05 3.345807976458992e-05 4.323681757080395e-03 3.825948841520971e-01 3.253999065104043e-02 1.020750444389130e+00 4.257055012395916e-03 2.917288568065418e-09 2.208684881719654e+00 6.721196697243050e-04 1.505948184127266e-07 3.134736250622857e-03 2.881441064683615e-01 1.172811339623940e-07 8.845384357022574e-01 2.341144374268955e-04 7.132164144731797e-02 1.084927399704693e-05 1.264709921757158e-03 1.027918326660345e-02 1.240747998132311e-04 2.694829485277963e-07 1.468951936697556e-04 6.761367205475429e-05 3.628156600203329e-02 2.907924599344652e-03 6.294201987742598e-11 1.217846581660148e-02 1.539726681903841e-08 1.575442767458743e-02 2.061631397978659e-04 7.530937613400711e-06 4.215478499000060e-04 2.699722333431528e-05 4.059376792213174e-05 8.778643567114764e-03 7.235572054461698e-10 1.194247191441033e-06 1.219367311663085e-05 6.155284923501796e-08 5.905674892258127e+00 1.622607184865888e-02 2.502861451037744e+00 5.834256382602651e-09 3.429016250823374e+00 7.222773741132723e-04 6.305725703047381e+00 3.510315130192470e-05 1.188393918716745e-08 1.105516604623017e+00 8.874495778897240e-02 7.183620745438420e+00 1.034300991084971e-01 7.391320482365771e+00 1.370465261814708e-05 3.899762050976739e-07 6.055466100535985e-04 3.471928568371632e-05 1.122951103990147e+01 3.754935553643708e-04 3.526997915127524e-03 7.782558055936430e-03 6.628364600884324e-03 1.760070219521784e-02 1.681290604268461e-03 3.150103594264784e-06 6.250471496060335e-08 1.492488003033003e-06 2.888599640803402e+01 3.387318590018445e+00 2.355653835408156e-06 7.558987082906012e-08 6.478288966414612e+00 6.755050966327116e-08 2.358270570388158e+00 3.154808816602493e+01 3.191124520104622e-01 5.598249984805810e+01 1.027147460204814e-01 7.054514079305110e+01 3.060635721536640e-04 1.222256890255833e-09 1.332207807237274e-04 1.239653265487386e-05 9.894019095471439e+00 2.711295039928405e-09 6.565911988814058e+01 2.318936021486411e-04 1.211023171607347e-04 3.163913258332051e+00 9.706664804792379e-01 4.250693787700673e-01 4.557706865499310e-02 2.943508198247799e-03 1.615071806634713e+00 9.303143438366391e-05 7.868051168590937e-02 1.893626493502577e+01 1.634166051008336e-04 4.857364360702324e-01 2.022823082136747e-06 8.765952492902489e-04 7.554605922303639e+01 2.517123443033916e-02 3.136555117008787e-03 4.676299891866917e-06 1.347920932103294e+00 2.228303481898980e-01 7.543026068101942e-10 2.609657468432533e-05 5.862835028704643e+01 2.123317941101892e-09 3.900886567251177e-07 9.698830520921634e+00 2.238152844095413e-01 7.360346594021721e-09 2.380808081048876e+01 9.303035138101193e-07 6.928809610265660e+01 4.602045181618885e+01 2.368814771000920e-09 6.086048792195999e-09 6.348653528352663e+00 4.869600754514755e-02 1.754701432671113e-08 1.161098712177721e-10 7.902067710738581e-02 2.409302948093619e-09 5.029562346236535e-10 4.145638319082453e+01 3.458627025757304e-09 7.303783008215692e+01 6.096982323441961e-04 3.840468313899483e-06 5.573217260285718e+01 2.931206639247969e+00 5.888285318508812e-11 8.814147112993257e-11 6.042951667281626e-07 2.741690170277594e-01 6.519213540484103e-01 3.068672200235424e-07 1.266397915640743e-07 1.474476051723963e-09 2.781854058913403e-01 4.654617830670184e-11 6.757040448703422e+01 4.897296190253356e-01 1.328936247914586e+00 1.131076305986996e-05 1.200065141693660e-03 6.228684997644403e+01 2.022498550366548e-06 1.590233967591126e+01 7.131218990128257e-01 7.156860625070330e+01 4.501535251494809e+00 8.298292181488261e+00 4.155589220608452e-10 3.580682906463035e-07 3.221098143777462e-01 1.547288884128275e-02 2.747651691399000e-02 2.046080145197417e-07 5.028212176069482e-11 7.559433157734082e-06 
</DataArray>
</PointData>
<CellData Scalars="pressure_elements_[L]," Vectors="velocity_elements_[L/T],">
<DataArray type="Float64" Name="pressure_elements_[L]" format="ascii">