<?xml version="1.0"?>
<VTKFile type="UnstructuredGrid" version="0.1" byte_order="LittleEndian">
<UnstructuredGrid>
<Piece NumberOfPoints="492" NumberOfCells="906">
<Points>
<DataArray type="Float64" NumberOfComponents="3" format="ascii">
0.000000000000000e+00 0.000000000000000e+00 0.000000000000000e+00 0.000000000000000e+00 1.000000000000000e+00 0.000000000000000e+00 1.000000000000000e+00 1.000000000000000e+00 0.000000000000000e+00 1.000000000000000e+00 0.000000000000000e+00 0.000000000000000e+00 0.000000000000000e+00 5.263157894724207e-02 0.000000000000000e+00 0.000000000000000e+00 1.052631578944841e-01 0.000000000000000e+00 0.000000000000000e+00 1.578947368417262e-01 0.000000000000000e+00 0.000000000000000e+00 2.105263157889683e-01 0.000000000000000e+00 0.000000000000000e+00 2.631578947362221e-01 0.000000000000000e+00 0.000000000000000e+00 3.157894736835109e-01 0.000000000000000e+00 0.000000000000000e+00 3.684210526307997e-01 0.000000000000000e+00 0.000000000000000e+00 4.210526315780885e-01 0.000000000000000e+00 0.000000000000000e+00 4.736842105253773e-01 0.000000000000000e+00 0.000000000000000e+00 5.263157894727392e-01 0.000000000000000e+00 0.000000000000000e+00 5.789473684201740e-01 0.000000000000000e+00 0.000000000000000e+00 6.315789473676090e-01 0.000000000000000e+00 0.000000000000000e+00 6.842105263150439e-01 0.000000000000000e+00 0.000000000000000e+00 7.368421052624787e-01 0.000000000000000e+00 0.000000000000000e+00 7.894736842099683e-01 0.000000000000000e+00 0.000000000000000e+00 8.421052631574764e-01 0.000000000000000e+00 0.000000000000000e+00 8.947368421049842e-01 0.000000000000000e+00 0.000000000000000e+00 9.473684210524922e-01 0.000000000000000e+00 5.263157894724207e-02 1.000000000000000e+00 0.000000000000000e+00 1.052631578944841e-01 1.000000000000000e+00 0.000000000000000e+00 1.578947368417262e-01 1.000000000000000e+00 0.000000000000000e+00 2.105263157889683e-01 1.000000000000000e+00 0.000000000000000e+00 2.631578947362221e-01 1.000000000000000e+00 0.000000000000000e+00 3.157894736835109e-01 1.000000000000000e+00 0.000000000000000e+00 3.684210526307997e-01 1.000000000000000e+00 0.000000000000000e+00 4.210526315780885e-01 1.000000000000000e+00 0.000000000000000e+00 4.736842105253773e-01 1.000000000000000e+00 0.000000000000000e+00 5.263157894727392e-01 1.000000000000000e+00 0.000000000000000e+00 5.789473684201740e-01 1.000000000000000e+00 0.000000000000000e+00 6.315789473676090e-01 1.000000000000000e+00 0.000000000000000e+00 6.842105263150439e-01 1.000000000000000e+00 0.000000000000000e+00 7.368421052624787e-01 1.000000000000000e+00 0.000000000000000e+00 7.894736842099683e-01 1.000000000000000e+00 0.000000000000000e+00 8.421052631574764e-01 1.000000000000000e+00 0.000000000000000e+00 8.947368421049842e-01 1.000000000000000e+00 0.000000000000000e+00 9.473684210524922e-01 1.000000000000000e+00 0.000000000000000e+00 1.000000000000000e+00 9.473684210527046e-01 0.000000000000000e+00 1.000000000000000e+00 8.947368421054093e-01 0.000000000000000e+00 1.000000000000000e+00 8.421052631581138e-01 0.000000000000000e+00 1.000000000000000e+00 7.894736842108185e-01 0.000000000000000e+00 1.000000000000000e+00 7.368421052635596e-01 0.000000000000000e+00 1.000000000000000e+00 6.842105263164103e-01 0.000000000000000e+00 1.000000000000000e+00 6.315789473692610e-01 0.000000000000000e+00 1.000000000000000e+00 5.789473684221118e-01 0.000000000000000e+00 1.000000000000000e+00 5.263157894749625e-01 0.000000000000000e+00 1.000000000000000e+00 4.736842105276671e-01 0.000000000000000e+00 1.000000000000000e+00 4.210526315802255e-01 0.000000000000000e+00 1.000000000000000e+00 3.684210526327841e-01 0.000000000000000e+00 1.000000000000000e+00 3.157894736853426e-01 0.000000000000000e+00 1.000000000000000e+00 2.631578947379012e-01 0.000000000000000e+00 1.000000000000000e+00 2.105263157903501e-01 0.000000000000000e+00 1.000000000000000e+00 1.578947368427626e-01 0.000000000000000e+00 1.000000000000000e+00 1.052631578951750e-01 0.000000000000000e+00 1.000000000000000e+00 5.263157894758763e-02 0.000000000000000e+00 9.473684210527046e-01 0.000000000000000e+00 0.000000000000000e+00 8.947368421054093e-01 0.000000000000000e+00 0.000000000000000e+00 8.421052631581138e-01 0.000000000000000e+00 0.000000000000000e+00 7.894736842108185e-01 0.000000000000000e+00 0.000000000000000e+00 7.368421052635596e-01 0.000000000000000e+00 0.000000000000000e+00 6.842105263164103e-01 0.000000000000000e+00 0.000000000000000e+00 6.315789473692610e-01 0.000000000000000e+00 0.000000000000000e+00 5.789473684221118e-01 0.000000000000000e+00 0.000000000000000e+00 5.263157894749625e-01 0.000000000000000e+00 0.000000000000000e+00 4.736842105276671e-01 0.000000000000000e+00 0.000000000000000e+00 4.210526315802255e-01 0.000000000000000e+00 0.000000000000000e+00 3.684210526327841e-01 0.000000000000000e+00 0.000000000000000e+00 3.157894736853426e-01 0.000000000000000e+00 0.000000000000000e+00 2.631578947379012e-01 0.000000000000000e+00 0.000000000000000e+00 2.105263157903501e-01 0.000000000000000e+00 0.000000000000000e+00 1.578947368427626e-01 0.000000000000000e+00 0.000000000000000e+00 1.052631578951750e-01 0.000000000000000e+00 0.000000000000000e+00 5.263157894758763e-02 0.000000000000000e+00 0.000000000000000e+00 5.000768619666112e-01 6.073188554060099e-01 0.000000000000000e+00 6.795380246767664e-01 3.051439214016982e-01 0.000000000000000e+00 2.657431272343335e-01 3.583622349137769e-01 0.000000000000000e+00 7.778111410595571e-01 6.762714425551062e-01 0.000000000000000e+00 2.607426257384951e-01 7.108648205749732e-01 0.000000000000000e+00 1.925410402609788e-01 8.072897193003743e-01 0.000000000000000e+00 8.120681721638150e-01 1.867443256665874e-01 0.000000000000000e+00 8.429568111511234e-01 8.370136966129558e-01 0.000000000000000e+00 1.887085678387430e-01 1.942865534629338e-01 0.000000000000000e+00 1.651677048840214e-01 8.667722398931621e-01 0.000000000000000e+00 8.836633669191022e-01 1.084026514754809e-01 0.000000000000000e+00 9.685389086937463e-01 7.274054905852957e-02 0.000000000000000e+00 4.352932362624411e-02 9.173715253517774e-01 0.000000000000000e+00 9.241081310787339e-01 9.627872911261246e-01 0.000000000000000e+00 4.665702639581027e-01 2.966710361013457e-01 0.000000000000000e+00 7.457691610660050e-01 4.937482709445991e-01 0.000000000000000e+00 5.124327408742055e-01 7.972257391806719e-01 0.000000000000000e+00 4.139184944998919e-01 4.886178466606589e-01 0.000000000000000e+00 5.794123181752160e-01 4.770262960507517e-01 0.000000000000000e+00 5.745824728513373e-01 1.280831738701313e-01 0.000000000000000e+00 3.921967503782522e-01 1.185901536343156e-01 0.000000000000000e+00 9.992548653213773e-02 4.752146485274584e-01 0.000000000000000e+00 8.680062226361797e-01 4.287979305759036e-01 0.000000000000000e+00 2.991047558979558e-01 1.973979233801190e-01 0.000000000000000e+00 7.140071920057445e-01 8.382382491017021e-01 0.000000000000000e+00 8.189363322807111e-01 3.270427252528633e-01 0.000000000000000e+00 1.260422786413521e-01 3.831814387673006e-01 0.000000000000000e+00 3.744347783115686e-01 6.759694791923643e-01 0.000000000000000e+00 6.345513284423596e-01 6.545750755932673e-01 0.000000000000000e+00 1.482905044071461e-01 2.987819499203461e-01 0.000000000000000e+00 8.823950871163319e-01 6.747277421017024e-01 0.000000000000000e+00 7.045199380766443e-01 4.862305688554183e-02 0.000000000000000e+00 9.495676700920537e-02 2.542878793617160e-01 0.000000000000000e+00 9.161569341424017e-01 2.838790265759349e-01 0.000000000000000e+00 7.080441356431567e-01 9.610778915671577e-01 0.000000000000000e+00 2.902412080146349e-01 7.528496672690950e-02 0.000000000000000e+00 1.036024125949905e-01 6.657665487544948e-01 0.000000000000000e+00 2.616762994390670e-01 9.010984154916205e-01 0.000000000000000e+00 8.057964710161646e-01 9.988332988076845e-02 0.000000000000000e+00 9.193406562742105e-01 8.226521161808503e-01 0.000000000000000e+00 1.618217027865307e-01 9.113294842911728e-01 0.000000000000000e+00 2.216251568644465e-01 2.589589622123038e-01 0.000000000000000e+00 7.569837171226450e-01 2.445305945173807e-01 0.000000000000000e+00 8.590142195453966e-01 9.521276807895324e-01 0.000000000000000e+00 4.402477648881222e-02 8.663838880976044e-01 0.000000000000000e+00 9.474543022606529e-01 1.192562341855612e-01 0.000000000000000e+00 5.715115842330903e-02 1.339611925669680e-01 0.000000000000000e+00 8.718541440964978e-01 3.245699810888708e-02 0.000000000000000e+00 9.536019591372769e-01 9.155831064959428e-01 0.000000000000000e+00 9.161219870557668e-01 5.360690789524346e-02 0.000000000000000e+00 7.548922358470611e-02 9.489485111843923e-01 0.000000000000000e+00 5.492509137503038e-02 8.407525559195163e-02 0.000000000000000e+00 1.338290078374573e-01 8.889689671696894e-01 0.000000000000000e+00 8.850108101897147e-01 8.568356417223725e-01 0.000000000000000e+00 8.401324540582252e-01 1.461985836418656e-01 0.000000000000000e+00 3.736587383006215e-01 2.477899593021611e-01 0.000000000000000e+00 6.215822783678956e-01 2.231997275545906e-01 0.000000000000000e+00 1.685263063586827e-01 4.160471124896989e-01 0.000000000000000e+00 2.680261468312237e-01 4.562905052002703e-01 0.000000000000000e+00 8.121933773954787e-01 4.052869767154916e-01 0.000000000000000e+00 3.625119198709785e-01 3.273008519037463e-01 0.000000000000000e+00 3.468918975558964e-01 4.220211114867651e-01 0.000000000000000e+00 5.813425695337223e-01 7.274115590873627e-01 0.000000000000000e+00 5.768484086200723e-01 3.019361073474691e-01 0.000000000000000e+00 4.402151087125771e-01 7.381776909706687e-01 0.000000000000000e+00 7.137906082496469e-01 3.998326229438716e-01 0.000000000000000e+00 6.251561152114772e-01 3.939374276747084e-01 0.000000000000000e+00 4.375567280004101e-01 1.986674890152439e-01 0.000000000000000e+00 3.926866755464224e-01 5.805376032354694e-01 0.000000000000000e+00 5.332000484765275e-01 3.907911305757537e-01 0.000000000000000e+00 1.768746658781452e-01 5.942294572210166e-01 0.000000000000000e+00 4.385321552863963e-01 3.994211893040143e-01 0.00000000000000
[...]
<PointData Scalars="pressure_nodes_[L]," Vectors="">
<DataArray type="Float64" Name="pressure_nodes_[L]" format="ascii">
1.756932380256482e-09 1.607943647902183e-09 8.898490685288631e+01 8.942048783250020e+01 1.539855907119911e-09 2.062950697939511e-09 1.805838210983007e-09 1.430706396185641e-09 1.171838774582376e-09 8.682666829483422e-10 8.789229191259666e-10 1.223383377049558e-09 1.442163559445070e-09 1.235310437468800e-09 1.148241175868141e-09 1.217508537006490e-09 1.837434472460000e-09 1.158379369286890e-09 1.126396140437962e-09 1.199903078021520e-09 1.331341039627882e-09 1.188250099214157e-09 9.523755816183421e-09 6.250191154410938e-08 4.193405702924583e-07 2.614234871771381e-06 1.637659415186248e-05 8.631830592228411e-05 4.816918226676543e-04 2.411888910430055e-03 9.738075169489690e-03 3.935893258738232e-02 1.488107962363319e-01 5.094206196189777e-01 1.507379206263897e+00 3.950290034222119e+00 9.157303448424965e+00 2.010060154210623e+01 4.028110786934826e+01 6.697834007454826e+01 9.026852126147817e+01 8.951743621934240e+01 9.009031672991068e+01 9.072189760091439e+01 8.841641467605493e+01 8.646920065601401e+01 8.794390377348974e+01 8.676203328334927e+01 8.697495009669200e+01 8.882284703315440e+01 8.665433350648260e+01 9.034828635011259e+01 9.100773158120043e+01 9.084626709925600e+01 8.928496275085733e+01 8.825458572507652e+01 9.011880495812321e+01 9.220676872279282e+01 6.638824226140196e+01 4.023067629634615e+01 2.135516849568044e+01 1.029693204342363e+01 4.674807531789347e+00 1.481925868627265e+00 5.040621593691429e-01 1.525937228985169e-01 3.967546850345309e-02 9.405572379550987e-03 2.073329572304252e-03 4.212789080070190e-04 8.456771530451743e-05 1.690658455756881e-05 3.000632156271904e-06 4.721974045733522e-07 7.307456397986251e-08 1.129866756035618e-08 1.992348091719370e-02 1.364509011833793e+00 1.639077978807877e-05 8.266273671452904e+00 1.296125117895485e-05 1.460323778664789e-06 1.394388911690396e+01 2.195852816338216e+01 1.154624917039870e-06 6.065969402129526e-07 3.580161489743457e+01 7.943844058994408e+01 5.837379552293054e-09 5.371216449375401e+01 7.865165564178829e-03 4.749475466267453e+00 2.562026969898983e-02 1.531177722963161e-03 1.383707312007792e-01 1.327881361184279e-01 8.592857423723989e-04 4.726329189796390e-08 2.833931185618125e+01 5.292045076383849e-05 2.648819971461371e+00 1.531453703389006e+01 1.310070982351713e-07 4.815270331109488e-04 5.114308045049550e-01 2.813134976656593e-07 3.609879189002039e+01 2.163266287439529e+00 4.017630396682239e-08 5.099435019609567e+01 2.528110882690515e+00 3.756054725484655e-05 5.864684553091438e-08 1.523885390220421e-05 1.282574869295440e+01 5.210501628596310e+01 4.545266407340209e-07 3.672530274883714e-06 5.793149998856658e+00 2.696321497099278e+01 6.183250361094427e-09 6.732755716956713e+01 1.193488037284387e-08 3.184826155389391e+01 7.110231396811665e+01 5.098720677335000e+01 2.158308714985701e-08 1.035394012909255e-08 1.616594016571777e-07 3.617378206251002e+01 2.117892878472035e+01 4.812724379129322e-04 3.822135497368806e-01 6.177386573583363e-07 1.438246043947867e-05 1.402031483046247e+01 3.650394112849618e-04 2.083946448454340e-04 1.391627399742135e-01 1.346493165607418e-01 3.408353347492898e-03 2.675467310457580e+00 4.102628023636470e-01 3.214356615234766e-03 8.264833260121693e-04 4.413418052255188e-02 6.518096572611661e-07 3.307546679800529e-03 2.400979895967819e-04 9.347510458359695e-01 4.681347046967495e-07 2.943665727467900e-01 3.646751752611858e-02 1.654225191036570e+00 2.550903060059033e-01 6.539511845945937e-07 4.023990256758140e-05 2.206010048660340e+01 1.807460771904518e+01 2.389376783237960e-06 1.322555462604962e-07 3.384923718021877e-02 2.410459766612584e+00 9.332895450917991e-06 3.864852827759373e-08 9.145368631585512e-01 2.209846826266417e+01 1.561769489348124e-02 2.123693085558283e-03 4.708982805217848e+01 1.027222540249696e+00 4.585771376030718e-01 1.097114989755155e-02 1.074042684787297e-02 4.627744526700686e-01 4.168071842193813e-03 5.455363603734300e-03 4.004686030514677e-02 1.608449210268114e-06 5.605968066574787e-09 2.475000433962840e-04 2.708116523814542e+01 4.523842516529466e+01 6.671824533910542e-02 7.223674781085375e+00 3.974471169780606e-06 3.378236120388756e+00 2.380700966703262e+01 6.003485128336720e+00 1.760831924948827e-08 1.418411710276867e-04 8.418379112538850e-04 7.077473464247487e+01 1.755058570234714e-07 3.115781277590105e-05 1.728689895860018e+01 7.411979255711299e+01 1.507521157693594e-04 5.189167046137110e-06 1.845757577985783e-04 4.963486355581672e+01 5.774212040422863e+00 3.454438067550438e-05 6.634458087261778e+00 4.477295501005538e+01 4.742825213462085e-05 1.271762359744750e+01 2.391270283069009e+01 8.596405074878139e-09 5.185074391632080e+00 4.711328701914818e-06 6.343556396016178e+00 7.391968823684294e-08 1.138853562799765e+01 7.840477360209733e-09 7.027801784246142e+01 5.861308158681217e-09 7.440589153346246e-07 4.601374164578905e+01 2.455519466446121e+00 2.740537176007858e+01 7.231589533123270e-09 4.420179881131965e-07 9.204977511555372e-06 3.704098264953256e+01 9.182540914830125e-08 9.249866877490126e-07 1.057367781042447e+01 5.419147336697019e+00 1.509534864393567e+01 1.230171297784472e+01 1.307271931396156e+01 2.668102421048635e+01 6.972873877301544e-09 3.311866182571030e-08 4.191351642046321e+01 1.587463684000718e-07 6.696087197649244e-06 2.186430536624193e-07 1.048217335336965e-06 3.192929616916550e+01 2.330825512237275e-06 5.442598106315506e+01 2.339819985864642e+01 2.454809367548285e+01 4.256101706161258e+01 7.414581590578645e+01 2.863580805734837e-08 3.291751232565003e-08 5.382737384357045e-09 7.890922632585598e+01 7.773516192641345e+01 4.164742703296595e-09 1.025003513890830e-01 2.587146790165515e-03 7.071346969145379e-03 2.752605753263622e-02 1.611537708751306e-03 6.346980717276623e-05 1.454125387314563e-05 3.422459815133493e-06 1.598771640631733e-03 2.081372254323999e-02 4.520906145353297e-03 1.161694284187423e-03 7.984793594601790e+00 8.203672749077573e-01 3.263593744225298e-08 3.749479912382753e-01 1.187884888183654e-03 5.001285398870276e-03 6.941859828391790e-02 3.724399658972363e-02 7.063410199127745e-01 3.667856067373520e+00 2.324206192933208e-02 2.455060805069399e-01 4.358761417776179e-01 8.275202676248472e-05 2.794597510505772e+00 1.571672044193288e+00 2.413214230572210e-01 1.809993086561478e+00 6.516185419764382e-02 1.366713009251946e-01 1.564726354257292e-08 1.516946693014262e-04 1.807009312430255e-02 1.851050548810659e-01 7.589548375158892e-02 8.251002794565934e-02 6.360544227179743e-01 8.041489751525006e-03 5.056666626958224e-09 2.797968398779093e-04 5.728163978623775e+00 2.827311391357791e-03 8.895174899645766e-03 6.313294658607242e-04 3.220163478747524e+00 1.112329218345695e-03 4.949021162909913e-05 1.221738812300271e+00 1.241510169585776e-02 9.901878662677423e-03 4.467230304620550e-03 3.878710949274312e-01 1.221603926514650e-06 1.827565694524248e+00 9.089631740587953e-02 1.394897735852587e+00 5.096323138194000e-01 7.255189559154709e-06 2.383191986124882e-01 7.976664490494943e-02 6.028054721872420e-04 9.236282620179964e-01 6.919652661039567e-01 8.465483121387610e-04 7.845019020388817e-03 1.009352931218375e-04 2.138514204947111e-07 5.221489715104033e-01 3.556770844974933e-05 1.524678157049838e-06 2.103409813305882e-01 3.390606361899438e-04 4.246808183399580e-04 2.611901995190341e-02 1.075258296531444e+00 1.408685954807291e-01 2.380186436222774e+00 2.582116924694551e-02 1.229010088047383e-07 4.470596713464563e+00 5.452761611368536e-03 3.955016015896309e-06 1.966397020955619e-02 8.469276253406447e-01 3.131219828508354e-06 2.131245702000816e+00 2.224563277692561e-03 2.697164318132377e-01 1.596385320018563e-04 9.365120353517404e-03 5.351122024622398e-02 1.293611529947278e-03 6.312392383786287e-06 1.484249339430367e-03 7.704404555604763e-04 1.543695737537165e-01 1.869722286236817e-02 3.991029970319987e-09 6.241242475084380e-02 5.338205892498849e-07 7.714525010049450e-02 1.998167677897482e-03 1.156923769234090e-04 3.678890209581357e-03 3.542218519067413e-04 4.887078288555673e-04 4.730884166390711e-02 3.592619909151479e-08 2.346835256328111e-05 1.769475189671875e-04 1.780694821631765e-06 9.918461515010884e+00 7.740364851735232e-02 4.914740301586253e+00 2.238692433220311e-07 6.381713262583148e+00 5.735031042591158e-03 1.044483965571038e+01 4.325744218916622e-04 4.219641587842484e-07 2.537864617704920e+00 3.176053859052604e-01 1.155396424974454e+01 3.670736108668282e-01 1.186151074416896e+01 1.921651770086960e-04 8.868672440764127e-06 5.001886131900731e-03 4.292823949582651e-04 1.668200288554339e+01 3.303380416676217e-03 2.166834573188336e-02 4.253709372672493e-02 3.691735333078254e-02 8.341760057509409e-02 1.178737232739007e-02 5.336518692720286e-05 1.819046609399102e-06 2.886645993838134e-05 3.568958548806123e+01 6.292268211559030e+00 4.294556991898419e-05 2.129812628036541e-06 1.064750758621842e+01 1.953538866010892e-06 4.692297030889823e+00 3.842563948785460e+01 9.133951304318271e-01 6.132228840526291e+01 3.650114046907698e-01 7.437719472437590e+01 2.786088098183679e-03 5.611072994133424e-08 1.354795815380384e-03 1.779320278462567e-04 1.505162626574462e+01 1.136979156643754e-07 7.000352281791235e+01 2.204915289413313e-03 1.265332747347382e-03 5.966313225050516e+00 2.267570373403978e+00 1.170329362451491e+00 1.851823594187582e-01 1.868917129841763e-02 3.463172633086139e+00 1.015748835455266e-03 2.896596065493861e-01 2.534073092108214e+01 1.631401611470447e-03 1.303241296099637e+00 3.720439365073900e-05 6.787763010377226e-03 7.877159282227537e+01 1.140770920438575e-01 1.967047940175988e-02 7.758345894373933e-05 3.002386802241696e+00 6.895259248748485e-01 3.653253761274024e-08 3.381932249474809e-04 6.364594798208600e+01 9.237064855687873e-08 8.999849388095994e-06 1.476339951644166e+01 6.940790002070817e-01 2.757791927739263e-07 3.045553996369127e+01 1.896420035154778e-05 7.324344954112838e+01 5.233836175006842e+01 9.716062626691452e-08 2.274958201441904e-07 1.047034450731506e+01 1.966401271733453e-01 5.997222679641685e-07 6.988060704156679e-09 2.917162014925309e-01 1.053222094568790e-07 2.633163362650748e-08 4.797708386020274e+01 1.432921105166968e-07 7.657623275796092e+01 4.955889391671181e-03 6.366681664428613e-05 6.100864410440281e+01 5.626909639790858e+00 3.780256452428012e-09 5.494446116631061e-09 1.304574797169944e-05 8.100985824038358e-01 1.675479801435160e+00 7.107808810098631e-06 3.378180232552364e-06 6.759876138500895e-08 8.228209250890377e-01 3.078238070027205e-09 7.173909654748437e+01 1.312517313064796e+00 2.972713013964101e+00 1.652545971828457e-04 8.852261581722644e-03 6.695409621118883e+01 3.669436538226136e-05 2.209524904342794e+01 1.772073341309230e+00 7.526174131306664e+01 7.971054739492930e+00 1.299029412737267e+01 2.183311698717563e-08 8.350230472004660e-06 9.280037149118300e-01 7.508124812582426e-02 1.223839941736147e-01 5.206241097019363e-06 3.291148474684585e-09 1.184906693551986e-04 
</DataArray>
</PointData>
<CellData Scalars="pressure_elements_[L]," Vectors="velocity_elements_[L/T],">
<DataArray type="Float64" Name="pressure_elements_[L]" format="ascii">