<?xml version="1.0"?>
<VTKFile type="UnstructuredGrid" version="0.1" byte_order="LittleEndian">
<UnstructuredGrid>
<Piece NumberOfPoints="69" NumberOfCells="124">
<Points>
<DataArray type="Float64" NumberOfComponents="3" format="ascii">
0 0 0 0 0.25 0 0 1 0 0.124999999999755 0 0 0.0843524221639116 0.0864517126562662 0 0 0.125000000000347 0 0.100817145298862 0.188857036972505 0 0.240388654717835 0.241888147926738 0 0.184027618128645 0.111732405146644 0 0.12499999999976 0.31249999999988 0 0.437499999999133 0 0 0.428791151854623 0.154554454279667 0 0.312500000000208 0.125000000000416 0 0.338194444444483 0.338194444444563 0 0.375000000000278 0.250000000000555 0 0.494574932893002 0.262517037765555 0 0.437500000000069 0.375000000000139 0 0.374999999999735 0.437499999999867 0 0.149291241869753 0.445827935681064 0 0.249999999999609 0.374999999999804 0 0 0.437500000000347 0 0.25 -0 0 0.139285875159121 0.573398061056774 0 0.139007895996117 0.7261831610706 0 0 0.625000000000694 0 0 0.812500000001041 0 0.187500000000521 1 0 0.127101071360123 0.870948066182034 0 0.279879602129308 0.834427414705705 0 0.375000000000694 1 0 0.449271053967154 0.855651240851559 0 0.381362046804951 0.740385922138312 0 0.275894670506865 0.660588531564357 0 0.264524437006746 0.515635315816399 0 0.413941406991218 0.605632526401004 0 0.5 0.5 -0 0.63236534182377 0.502967564063323 0 0.712597478078444 0.638466913157018 0 0.501458569330786 0.736746630465049 0 0.5625 0.625 0 0.567775120571876 0.84702246410953 0 0.562500000000867 1 0 0.738577951704336 0.777367885642847 0 0.625 0.75 0 0.857879273915174 0.753532520882502 0 0.805529844910009 0.887111228721274 0 0.906379534221801 0.902085833280573 0 0.875 1 0 1 0.833333333333565 0 1 0.666666666667361 0 0.6875 0.875 0 0.861274669778197 0.579480769787976 0 1 0.500000000001388 0 0.75 1 0 1 0.33333333333449 0 0.860872866902176 0.252065235979594 0 0.86569408477091 0.409836739167666 0 0.753384302623209 0.492944434231756 0 0.569867071784366 0.37762093650872 0 0.611084625850828 0.257505995823432 0 0.718260394928406 0.345640207172162 0 0.715089934061838 0.157159568547776 0 1 0 0 0.54475767668583 0.143183888206693 0 0.624999999998959 0 0 0.81249999999948 0 0 1 1 0 1 0.16666666666736 0 0.876989016488121 0.116063833865798 0 
</DataArray>
</Points>
<Cells>
<DataArray type="UInt32" Name="connectivity" format="ascii">
1 9 0 3 4 0 4 5 5 4 6 5 6 1 6 4 8 9 6 7 8 7 6 12 7 8 21 8 3 21 12 8 3 8 4 21 10 12 10 63 11 12 10 11 63 15 11 14 11 15 12 14 7 12 11 14 9 19 19 7 13 14 13 7 14 15 16 14 16 13 16 17 13 16 35 17 17 33 19 17 19 13 19 33 18 19 18 9 19 9 7 1 9 20 9 1 6 20 9 18 20 18 22 20 22 24 12 21 14 12 19 17 33 32 22 33 22 18 28 23 32 32 23 22 25 24 23 24 22 23 25 23 27 26 2 27 2 25 27 26 27 28 28 27 23 16 14 35 16 17 35 30 28 31 29 28 30 29 26 28 29 30 41 30 31 38 39 38 34 34 38 31 34 31 32 28 32 31 34 32 33 17 34 33 17 35 34 39 34 35 39 35 36 39 35 43 39 39 36 37 57 37 36 39 37 43 43 37 42 39 43 38 43 40 38 30 38 40 41 30 40 50 41 40 50 53 41 50 45 53 50 42 45 50 40 43 50 43 42 45 42 44 50 43 53 50 45 44 46 47 53 45 47 45 46 66 47 46 66 46 48 48 44 49 48 46 44 49 44 51 44 37 51 44 42 37 51 37 57 49 51 52 54 52 56 51 56 52 67 54 55 54 56 55 56 60 55 61 55 60 51 57 56 57 60 56 58 60 36 57 36 60 16 58 35 35 58 36 16 15 58 58 15 59 61 60 59 58 59 60 61 59 63 63 59 15 10 64 63 64 61 63 65 61 64 65 68 61 61 68 55 67 55 68 65 62 68 67 68 62 
</DataArray>
<DataArray type="UInt32" Name="offsets" format="ascii">
2 5 8 11 14 17 20 23 26 29 32 35 38 41 44 47 50 53 56 58 61 64 67 70 73 76 79 82 85 88 91 94 97 100 103 106 108 110 112 115 118 121 124 127 130 133 136 139 142 145 147 149 151 154 157 160 163 166 169 172 175 178 181 184 187 190 193 195 197 200 203 206 209 212 215 218 221 224 227 230 233 236 239 242 244 246 249 252 255 258 261 264 267 270 273 276 279 282 285 288 291 294 297 300 303 306 309 312 315 318 321 324 327 330 333 336 339 342 345 348 351 354 357 360 
</DataArray>
<DataArray type="UInt32" Name="types" format="ascii">
3 5 5 5 5 5 5 5 5 5 5 5 5 5 5 5 5 5 5 3 5 5 5 5 5 5 5 5 5 5 5 5 5 5 5 5 3 3 3 5 5 5 5 5 5 5 5 5 5 5 3 3 3 5 5 5 5 5 5 5 5 5 5 5 5 5 5 3 3 5 5 5 5 5 5 5 5 5 5 5 5 5 5 5 3 3 5 5 5 5 5 5 5 5 5 5 5 5 5 5 5 5 5 5 5 5 5 5 5 5 5 5 5 5 5 5 5 5 5 5 5 5 5 5 
</DataArray>
</Cells>
<CellData Scalars="age_conc,U235_conc,age_diffusion_rate_immobile,U235_diffusion_rate_immobile,age_init_conc_immobile,U235_init_conc_immobile,age_conc_immobile,U235_conc_immobile,age_sorption_type,U235_sorption_type,age_distribution_coefficient,U235_distribution_coefficient,age_isotherm_other,U235_isotherm_other,age_init_conc_solid,U235_init_conc_solid,age_conc_solid,U235_conc_solid,age_conc_immobile_solid,U235_conc_immobile_solid," Vectors="" Tensors="">
<DataArray type="Float64" Name="age_conc" format="ascii">
0.999018550241209 0.990650028014425 0.990856864773601 0.992023620188185 0.992858713621177 0.992902021661274 0.995075234757087 0.993808190128219 0.995063618699696 0.992647833369367 0.99436444925122 0.991850741484758 0.992834252435481 0.993909700500746 0.993253076704075 0.994454993706265 0.993594412491295 0.996145749782773 0.993156655077654 0.999177216333858 0.996554147819513 0.996540401783631 0.993953020981001 0.997624922607419 0.997851692846984 0.99854597106597 0.994842214119219 0.997631640868879 0.994449474101941 0.993956365804483 0.996173548505325 0.9935279254691 0.99440179795704 0.99397167065435 0.994746260505588 0.995595315234429 0.998998785894635 0.99915831271994 0.999340980116346 0.995885295966287 0.995425856660844 0.997295353562152 0.996765779224648 0.997385984258232 0.996334920415648 0.997964137228615 0.999224284982314 0.998766853917031 0.998757264496071 0.998206709285147 0.999325340377961 0.999496837401405 0.999506495916 0.998284301477039 0.998855581668412 0.999175126864216 0.999429110251762 0.997853405495167 0.997295101529502 0.997271628476416 0.996912173722395 0.997817917969927 0.996317172895816 0.99538762695508 0.995973212313694 0.996697445637689 0.995629770269498 0.999670535780666 0.999758976278749 0.996076969347567 0.996652816333176 0.996593920225872 0.997073414250582 0.99792593505372 0.998420006752464 0.998299084238064 0.998730670588073 0.999294206839966 0.999604992535841 0.998516567841298 0.99797142739354 0.998850161338785 0.997472485455347 0.998087886613827 0.999842117407496 0.999922107256633 0.99854898724761 0.999100063233794 0.999051422756155 0.999483222778056 0.999499237571136 0.999094379898516 0.998940312780453 0.998535266400224 0.997628282918701 0.997480872512781 0.997163754043935 0.99899005994749 0.999029649160835 0.998444854514949 0.999036150336863 0.998513021977786 0.997488853772785 0.996921251310894 0.997703980826087 0.997199009728089 0.996039181602833 0.996481438451537 0.994832336451153 0.995277365725938 0.994395797584856 0.995156514192243 0.996209163646496 0.995606882685482 0.99576660041767 0.994854408967188 0.994889804000484 0.995465357991905 0.996834344388864 0.997396684984157 0.997608778757092 0.998647411117121 0.998700737350262 0.999146956366404 
</DataArray>
<DataArray type="Float64" Name="U235_conc" format="ascii">
0.999016424299925 0.990801602606296 0.991000909040261 0.992116248957612 0.992940382919362 0.9929353200359 0.995072203071104 0.993821529629274 0.995060879422088 0.992729332987974 0.994385062808385 0.991947980104031 0.99282223697931 0.993898770771846 0.993241369664993 0.994444759764784 0.993582990321844 0.996139865062013 0.993144745581449 0.999175426424235 0.996547659557501 0.996533929826635 0.993942047667311 0.997620100842156 0.997847243755062 0.998542895576845 0.994832520716753 0.997626827717774 0.994439214885651 0.993945453053955 0.996167548120336 0.993516535541084 0.99442442073651 0.993960789440527 0.994736416461525 0.99558681918484 0.998996629210209 0.999156492311625 0.99933953848619 0.995877245933308 0.995417051683352 0.997289812625502 0.996759264637071 0.997380621962092 0.996327650842143 0.997959886874423 0.999222617324408 0.998764224312463 0.998754610655037 0.998202936882585 0.999323872516466 0.999495734513524 0.999505409832632 0.998280675831596 0.998853121449778 0.999173351330496 0.999427862784555 0.997848909895145 0.997289538189249 0.997266022296079 0.996905908382305 0.997813368166087 0.996309851133638 0.995378772539909 0.995965306172781 0.996690788712602 0.995621292859816 0.999669806744667 0.999758439814614 0.996069240767238 0.996646116754333 0.996587086421333 0.997067450700043 0.997921577919142 0.998416635976838 0.998295474106993 0.998727942818499 0.999292661119753 0.999604120890711 0.99851342204592 0.997967187036001 0.998847676741717 0.997467279522961 0.998083857365205 0.999841764516899 0.999921932564639 0.998545888084815 0.999098126084648 0.999049366456866 0.999482090112522 0.999498139037266 0.999092433501883 0.998938026434078 0.998532160570367 0.997623393438775 0.99747566749672 0.997157985369438 0.998987913231248 0.999027591471366 0.998441583890832 0.999034106698802 0.998509894907191 0.997483740754906 0.996915084434788 0.997699258469525 0.99719332971153 0.996031422800231 0.996474446132483 0.994822611616415 0.995268330101272 0.994385435532114 0.995147314815164 0.996201746629818 0.995598402614671 0.995758437848813 0.994844760461935 0.994880337367652 0.995456737030998 0.996828043309947 0.997391417579947 0.997603915814322 0.998644556148912 0.998697986198423 0.999145139584982 
</DataArray>
<DataArray type="Float64" Name="age_diffusion_rate_immobile" format="ascii">
0.01 0.01 0.01 0.01 0.01 0.01 0.01 0.01 0.01 0.01 0.01 0.01 0.01 0.01 0.01 0.01 0.01 0.01 0.01 0.01 0.01 0.01 0.01 0.01 0.01 0.01 0.01 0.01 0.01 0.01 0.01 0.01 0.01 0.01 0.01 0.01 0.01 0.01 0.01 0.01 0.01 0.01 0.01 0.01 0.01 0.01 0.01 0.01 0.01 0.01 0.01 0.01 0.01 0.01 0.01 0.01 0.01 0.01 0.01 0.01 0.01 0.01 0.01 0.01 0.01 0.01 0.01 0.01 0.01 0.01 0.01 0.01 0.01 0.01 0.01 0.01 0.01 0.01 0.01 0.01 0.01 0.01 0.01 0.01 0.01 0.01 0.01 0.01 0.01 0.01 0.01 0.01 0.01 0.01 0.01 0.01 0.01 0.01 0.01 0.01 0.01 0.01 0.01 0.01 0.01 0.01 0.01 0.01 0.01 0.01 0.01 0.01 0.01 0.01 0.01 0.01 0.01 0.01 0.01 0.01 0.01 0.01 0.01 0.01 
</DataArray>
<DataArray type="Float64" Name="U235_diffusion_rate_immobile" format="ascii">
0.01 0.01 0.01 0.01 0.01 0.01 0.01 0.01 0.01 0.01 0.01 0.01 0.01 0.01 0.01 0.01 0.01 0.01 0.01 0.01 0.01 0.01 0.01 0.01 0.01 0.01 0.01 0.01 0.01 0.01 0.01 0.01 0.01 0.01 0.01 0.01 0.01 0.01 0.01 0.01 0.01 0.01 0.01 0.01 0.01 0.01 0.01 0.01 0.01 0.01 0.01 0.01 0.01 0.01 0.01 0.01 0.01 0.01 0.01 0.01 0.01 0.01 0.01 0.01 0.01 0.01 0.01 0.01 0.01 0.01 0.01 0.01 0.01 0.01 0.01 0.01 0.01 0.01 0.01 0.01 0.01 0.01 0.01 0.01 0.01 0.01 0.01 0.01 0.01 0.01 0.01 0.01 0.01 0.01 0.01 0.01 0.01 0.01 0.01 0.01 0.01 0.01 0.01 0.01 0.01 0.01 0.01 0.01 0.01 0.01 0.01 0.01 0.01 0.01 0.01 0.01 0.01 0.01 0.01 0.01 0.01 0.01 0.01 0.01 
</DataArray>
<DataArray type="Float64" Name="age_init_conc_immobile" format="ascii">
0 0 0 0 0 0 0 0 0 0 0 0 0 0 0 0 0 0 0 0 0 0 0 0 0 0 0 0 0 0 0 0 0 0 0 0 0 0 0 0 0 0 0 0 0 0 0 0 0 0 0 0 0 0 0 0 0 0 0 0 0 0 0 0 0 0 0 0 0 0 0 0 0 0 0 0 0 0 0 0 0 0 0 0 0 0 0 0 0 0 0 0 0 0 0 0 0 0 0 0 0 0 0 0 0 0 0 0 0 0 0 0 0 0 0 0 0 0 0 0 0 0 0 0 
</DataArray>
<DataArray type="Float64" Name="U235_init_conc_immobile" format="ascii">
0 0 0 0 0 0 0 0 0 0 0 0 0 0 0 0 0 0 0 0 0 0 0 0 0 0 0 0 0 0 0 0 0 0 0 0 0 0 0 0 0 0 0 0 0 0 0 0 0 0 0 0 0 0 0 0 0 0 0 0 0 0 0 0 0 0 0 0 0 0 0 0 0 0 0 0 0 0 0 0 0 0 0 0 0 0 0 0 0 0 0 0 0 0 0 0 0 0 0 0 0 0 0 0 0 0 0 0 0 0 0 0 0 0 0 0 0 0 0 0 0 0 0 0 
</DataArray>
<DataArray type="Float64" Name="age_conc_immobile" format="ascii">
0.0184950849117313 0.0118042461860576 0.0119363838608977 0.0125262575046686 0.0132614753621123 0.0127252059594966 0.014552498601944 0.0134397303444566 0.0145433603201039 0.0130351067522996 0.0140787451881718 0.0123963273942799 0.0122455017323424 0.0133260632199774 0.0126656124761081 0.0138750182514991 0.0130080657634469 0.0155959400734018 0.0125680537880241 0.0186565291432822 0.0159983676221719 0.0159847597712004 0.0133688701141017 0.0170808963652768 0.0173101651427998 0.0180150781066881 0.0142650441858711 0.0170876656536157 0.0138691270224606 0.0133725481375604 0.0156227670512204 0.0129418088354248 0.0141417139436208 0.0133880689588201 0.01416823409002 0.015025546413563 0.0184751300151121 0.0186374317839564 0.0188231864941537 0.0153181608726879 0.0148539406037558 0.0167455569052074 0.0162090263854347 0.016837560068938 0.0157730407343471 0.0174240392851997 0.0187048163430929 0.0182395043844355 0.0182296858668556 0.0176702775744148 0.0188073745630172 0.0189819097600179 0.0189916825841113 0.0177489445221935 0.0183294833858962 0.0186547391649215 0.0189129973412253 0.0173112110952242 0.0167449660398727 0.0167211917645989 0.0163570483376223 0.0172754326766597 0.0157547759559613 0.0148154508360304 0.0154069676169806 0.0161395430923092 0.0150598823934173 0.019158750369857 0.0192488263971373 0.0155119208359223 0.0160949139121803 0.0160348641952395 0.0165204885323265 0.0173847661430629 0.0178864984221202 0.017763733969151 0.0182023419894458 0.0187755292854817 0.0190920057850925 0.0179850738364305 0.0174313732772282 0.0183237578038225 0.0169251576950832 0.0175493020535131 0.0193335462427114 0.019415081486204 0.0180177049678169 0.0185783224986383 0.0185285666587495 0.018968058055124 0.0189843560346161 0.0185725852437814 0.0184156029533541 0.0180041045745838 0.0170834533729571 0.0169334285564599 0.0166124453714266 0.0184667744961869 0.0185071341163038 0.0179125357858506 0.0185137512407841 0.0179818749472254 0.0169426819004492 0.0163674448075334 0.017160569159041 0.0166485184490435 0.0154741950095168 0.0159216058456943 0.0142549722404753 0.0147040916197017 0.0138148824475282 0.0145824370437955 0.0156468043836898 0.015037239746601 0.015199340054366 0.0142777647428232 0.0143146240734943 0.0148953198580309 0.0162797059234213 0.01684949724007 0.0170646114882291 0.0181184097640421 0.01817252145118 0.0186263676259511 
</DataArray>
<DataArray type="Float64" Name="U235_conc_immobile" format="ascii">
0.0163365400525687 0.0100506757570629 0.0101733369431777 0.010722803874142 0.0114089732677166 0.0109079077101465 0.0126174603320505 0.0115751953947589 0.012608889976207 0.0111971981941546 0.0121733451148825 0.0106016955792858 0.0104604826717162 0.0114684237837908 0.0108518965309724 0.0119817498114037 0.0111709837696209 0.0135980613607073 0.0107609393817632 0.0164895862192544 0.0139765718385653 0.013963738797681 0.0115083643509285 0.014998097187944 0.0152148330598256 0.0158816189303911 0.0123472668360911 0.0150044952708635 0.011976173260606 0.0115118098603886 0.0136232980063338 0.0111091804460778 0.0122324393203435 0.0115263401049576 0.0122564438818886 0.0130609484147998 0.0163176397211325 0.016471497670769 0.0166475720478719 0.0133362233357623 0.0128997530634843 0.0146813174027591 0.0141751010132777 0.0147681435005787 0.0137642858775141 0.0153225142515897 0.0165354460660039 0.0160943550711233 0.0160850378204672 0.0155554022667632 0.0166325948339309 0.0167980645801322 0.0168073406289002 0.0156297846667087 0.0161796098012863 0.0164879682900004 0.0167327406859144 0.0152157244487973 0.0146807010901033 0.0146582736398895 0.0143147181948156 0.0151819265966119 0.0137470468796492 0.0128636539835379 0.0134197722411624 0.0141094931299281 0.013093184977868 0.0169660388304845 0.0170516011877791 0.013518542213086 0.0140674828245198 0.0140107542022763 0.0144689399413995 0.0152852833479107 0.0157598325537519 0.0156437324185813 0.0160590639939384 0.0166023999303189 0.016902648052344 0.0158531740187063 0.0153294418892494 0.016174143301976 0.014850777356351 0.0154409270475917 0.0171320794795694 0.0172095368685163 0.0158840495792365 0.0164155242778016 0.0163683087991014 0.0167849299816667 0.016800402056924 0.0164100933503477 0.0162612364197725 0.0158712184296251 0.0150004253533728 0.0148585392442711 0.0145557726203315 0.0163098403425632 0.016348107791101 0.0157845937802207 0.0163543792299896 0.0158502001092296 0.0148674559398182 0.0143247177159005 0.0150734103432126 0.0145898595496287 0.013483123811395 0.013904136282113 0.0123378136326209 0.0127591794700706 0.0119254444258971 0.0126450968461351 0.0136456523345849 0.0130719587357372 0.0132245952540962 0.0123592797179957 0.0123939919103379 0.0129387963322536 0.0142419669170923 0.0147795650521818 0.0149827380296414 0.0159796140514715 0.0160308923642959 0.0164611141133216 
</DataArray>
<DataArray type="UInt32" Name="age_sorption_type" format="ascii">
1 1 1 1 1 1 1 1 1 1 1 1 1 1 1 1 1 1 1 1 1 1 1 1 1 1 1 1 1 1 1 1 1 1 1 1 1 1 1 1 1 1 1 1 1 1 1 1 1 1 1 1 1 1 1 1 1 1 1 1 1 1 1 1 1 1 1 1 1 1 1 1 1 1 1 1 1 1 1 1 1 1 1 1 1 1 1 1 1 1 1 1 1 1 1 1 1 1 1 1 1 1 1 1 1 1 1 1 1 1 1 1 1 1 1 1 1 1 1 1 1 1 1 1 
</DataArray>
<DataArray type="UInt32" Name="U235_sorption_type" format="ascii">
2 2 2 2 2 2 2 2 2 2 2 2 2 2 2 2 2 2 2 2 2 2 2 2 2 2 2 2 2 2 2 2 2 2 2 2 2 2 2 2 2 2 2 2 2 2 2 2 2 2 2 2 2 2 2 2 2 2 2 2 2 2 2 2 2 2 2 2 2 2 2 2 2 2 2 2 2 2 2 2 2 2 2 2 2 2 2 2 2 2 2 2 2 2 2 2 2 2 2 2 2 2 2 2 2 2 2 2 2 2 2 2 2 2 2 2 2 2 2 2 2 2 2 2 
</DataArray>
<DataArray type="Float64" Name="age_distribution_coefficient" format="ascii">
0.02 0.02 0.02 0.02 0.02 0.02 0.02 0.02 0.02 0.02 0.02 0.02 0.02 0.02 0.02 0.02 0.02 0.02 0.02 0.02 0.02 0.02 0.02 0.02 0.02 0.02 0.02 0.02 0.02 0.02 0.02 0.02 0.02 0.02 0.02 0.02 0.02 0.02 0.02 0.02 0.02 0.02 0.02 0.02 0.02 0.02 0.02 0.02 0.02 0.02 0.02 0.02 0.02 0.02 0.02 0.02 0.02 0.02 0.02 0.02 0.02 0.02 0.02 0.02 0.02 0.02 0.02 0.02 0.02 0.02 0.02 0.02 0.02 0.02 0.02 0.02 0.02 0.02 0.02 0.02 0.02 0.02 0.02 0.02 0.02 0.02 0.02 0.02 0.02 0.02 0.02 0.02 0.02 0.02 0.02 0.02 0.02 0.02 0.02 0.02 0.02 0.02 0.02 0.02 0.02 0.02 0.02 0.02 0.02 0.02 0.02 0.02 0.02 0.02 0.02 0.02 0.02 0.02 0.02 0.02 0.02 0.02 0.02 0.02 
</DataArray>
<DataArray type="Float64" Name="U235_distribution_coefficient" format="ascii">
0.02 0.02 0.02 0.02 0.02 0.02 0.02 0.02 0.02 0.02 0.02 0.02 0.02 0.02 0.02 0.02 0.02 0.02 0.02 0.02 0.02 0.02 0.02 0.02 0.02 0.02 0.02 0.02 0.02 0.02 0.02 0.02 0.02 0.02 0.02 0.02 0.02 0.02 0.02 0.02 0.02 0.02 0.02 0.02 0.02 0.02 0.02 0.02 0.02 0.02 0.02 0.02 0.02 0.02 0.02 0.02 0.02 0.02 0.02 0.02 0.02 0.02 0.02 0.02 0.02 0.02 0.02 0.02 0.02 0.02 0.02 0.02 0.02 0.02 0.02 0.02 0.02 0.02 0.02 0.02 0.02 0.02 0.02 0.02 0.02 0.02 0.02 0.02 0.02 0.02 0.02 0.02 0.02 0.02 0.02 0.02 0.02 0.02 0.02 0.02 0.02 0.02 0.02 0.02 0.02 0.02 0.02 0.02 0.02 0.02 0.02 0.02 0.02 0.02 0.02 0.02 0.02 0.02 0.02 0.02 0.02 0.02 0.02 0.02 
</DataArray>
<DataArray type="Float64" Name="age_isotherm_other" format="ascii">
0 0 0 0 0 0 0 0 0 0 0 0 0 0 0 0 0 0 0 0 0 0 0 0 0 0 0 0 0 0 0 0 0 0 0 0 0 0 0 0 0 0 0 0 0 0 0 0 0 0 0 0 0 0 0 0 0 0 0 0 0 0 0 0 0 0 0 0 0 0 0 0 0 0 0 0 0 0 0 0 0 0 0 0 0 0 0 0 0 0 0 0 0 0 0 0 0 0 0 0 0 0 0 0 0 0 0 0 0 0 0 0 0 0 0 0 0 0 0 0 0 0 0 0 
</DataArray>
<DataArray type="Float64" Name="U235_isotherm_other" format="ascii">
0.5 0.5 0.5 0.5 0.5 0.5 0.5 0.5 0.5 0.5 0.5 0.5 0.5 0.5 0.5 0.5 0.5 0.5 0.5 0.5 0.5 0.5 0.5 0.5 0.5 0.5 0.5 0.5 0.5 0.5 0.5 0.5 0.5 0.5 0.5 0.5 0.5 0.5 0.5 0.5 0.5 0.5 0.5 0.5 0.5 0.5 0.5 0.5 0.5 0.5 0.5 0.5 0.5 0.5 0.5 0.5 0.5 0.5 0.5 0.5 0.5 0.5 0.5 0.5 0.5 0.5 0.5 0.5 0.5 0.5 0.5 0.5 0.5 0.5 0.5 0.5 0.5 0.5 0.5 0.5 0.5 0.5 0.5 0.5 0.5 0.5 0.5 0.5 0.5 0.5 0.5 0.5 0.5 0.5 0.5 0.5 0.5 0.5 0.5 0.5 0.5 0.5 0.5 0.5 0.5 0.5 0.5 0.5 0.5 0.5 0.5 0.5 0.5 0.5 0.5 0.5 0.5 0.5 0.5 0.5 0.5 0.5 0.5 0.5 
</DataArray>
<DataArray type="Float64" Name="age_init_conc_solid" format="ascii">
0 0 0 0 0 0 0 0 0 0 0 0 0 0 0 0 0 0 0 0 0 0 0 0 0 0 0 0 0 0 0 0 0 0 0 0 0 0 0 0 0 0 0 0 0 0 0 0 0 0 0 0 0 0 0 0 0 0 0 0 0 0 0 0 0 0 0 0 0 0 0 0 0 0 0 0 0 0 0 0 0 0 0 0 0 0 0 0 0 0 0 0 0 0 0 0 0 0 0 0 0 0 0 0 0 0 0 0 0 0 0 0 0 0 0 0 0 0 0 0 0 0 0 0 
</DataArray>
<DataArray type="Float64" Name="U235_init_conc_solid" format="ascii">
0 0 0 0 0 0 0 0 0 0 0 0 0 0 0 0 0 0 0 0 0 0 0 0 0 0 0 0 0 0 0 0 0 0 0 0 0 0 0 0 0 0 0 0 0 0 0 0 0 0 0 0 0 0 0 0 0 0 0 0 0 0 0 0 0 0 0 0 0 0 0 0 0 0 0 0 0 0 0 0 0 0 0 0 0 0 0 0 0 0 0 0 0 0 0 0 0 0 0 0 0 0 0 0 0 0 0 0 0 0 0 0 0 0 0 0 0 0 0 0 0 0 0 0 
</DataArray>
<DataArray type="Float64" Name="age_conc_solid" format="ascii">
0.0199803710048175 0.0198130005602816 0.0198171372954652 0.0198404724037566 0.0198571742724165 0.0198580404332184 0.0199015046951348 0.0198761638025575 0.019901272373987 0.0198529566673803 0.0198872889850175 0.0198370148296881 0.0198566850487026 0.019878194010008 0.0198650615340745 0.0198890998741184 0.0198718882498189 0.0199229149956485 0.0198631331015461 0.0199835443266727 0.0199310829563832 0.0199308080356656 0.0198790604196131 0.0199524984521414 0.0199570338569327 0.0199709194213124 0.0198968442823775 0.0199526328173706 0.0198889894820319 0.0198791273160827 0.0199234709700995 0.019870558509375 0.0198880359591339 0.0198794334130801 0.0198949252101048 0.0199119063046816 0.0199799757178857 0.0199831662543941 0.0199868196023248 0.0199177059193187 0.0199085171332099 0.019945907071236 0.019935315584486 0.0199477196851577 0.019926698408306 0.0199592827445653 0.0199844856996425 0.0199753370783336 0.0199751452899145 0.019964134185696 0.0199865068075569 0.0199899367480282 0.0199901299183203 0.0199656860295338 0.0199771116333612 0.0199835025372799 0.0199885822050345 0.0199570681098963 0.019945902030583 0.0199454325695213 0.0199382434744409 0.0199563583593915 0.0199263434579093 0.0199077525390947 0.0199194642462669 0.0199339489127468 0.019912595405383 0.0199934107156159 0.0199951795255789 0.0199215393869444 0.0199330563266565 0.0199318784045104 0.0199414682850046 0.0199585187010674 0.0199684001350423 0.0199659816847543 0.0199746134117545 0.0199858841367966 0.0199920998507185 0.0199703313568189 0.0199594285478638 0.0199770032267688 0.0199494497091 0.0199617577322695 0.019996842348155 0.019998442145139 0.0199709797449452 0.0199820012646703 0.0199810284551168 0.0199896644555611 0.0199899847514229 0.0199818875979647 0.0199788062556021 0.0199707053279975 0.019952565658367 0.0199496174502486 0.0199432750808717 0.0199798011989428 0.0199805929832102 0.0199688970902919 0.0199807230067308 0.0199702604395487 0.0199497770754486 0.0199384250262109 0.0199540796165147 0.0199439801945548 0.0199207836320496 0.0199296287690238 0.0198966467290161 0.0199055473145118 0.0198879159516903 0.0199031302838379 0.0199241832729229 0.0199121376537026 0.0199153320083464 0.0198970881793368 0.0198977960800027 0.0199093071598311 0.0199366868877703 0.0199479336996761 0.0199521755751348 0.0199729482223354 0.0199740147469982 0.0199829391273232 
</DataArray>
<DataArray type="Float64" Name="U235_conc_solid" format="ascii">
0.0199901617584589 0.0199078032712894 0.0199098055058602 0.019921006087893 0.01992927876779 0.0199292279719609 0.0199506609006805 0.0199381192986692 0.0199505474060046 0.0199271602789559 0.0199437709536929 0.0199193169904388 0.019928092857338 0.01993889425782 0.0199322985630057 0.0199443695881121 0.0199357260376044 0.0199613609523735 0.0199313291351174 0.0199917521813471 0.019965446123618 0.0199653085830128 0.0199393284472791 0.0199761862445829 0.0199784605466053 0.0199854230135006 0.0199482580116814 0.0199762535984203 0.0199443139846827 0.0199393625961165 0.0199616382735121 0.0199350592978495 0.0199441656306055 0.0199395163876901 0.019947294288931 0.019955818795362 0.0199899637575586 0.0199915627923927 0.0199933937165196 0.019958729684744 0.0199541172495502 0.0199728791849458 0.0199675659241446 0.0199737884268641 0.0199632421378177 0.019979588402504 0.0199922242095547 0.0199876379792284 0.0199875417697523 0.0199820208485962 0.0199932370172496 0.0199949560713498 0.0199950528489811 0.0199827988275933 0.019988527624723 0.0199917314251679 0.0199942771826137 0.0199784772290794 0.0199728764371123 0.0199726409807526 0.0199690349601857 0.0199781213622587 0.0199630638253143 0.0199537335853292 0.0199596122702244 0.0199668799514778 0.0199561643181314 0.0199966972333739 0.0199975837879637 0.0199606534579336 0.0199664324402893 0.0199658410909169 0.0199706527532676 0.0199792048284212 0.0199841594600536 0.019982946922565 0.0199872748891604 0.0199929248244413 0.0199960402089095 0.0199851280546888 0.019979661496452 0.0199884731363543 0.0199746560985138 0.0199808291504231 0.0199984172454678 0.0199992191284525 0.019985452961273 0.0199909789826878 0.0199904912632413 0.0199948195928735 0.0199949801226611 0.0199909220424804 0.0199893773184142 0.0199853155820305 0.0199762192121937 0.0199747400843421 0.01997155924504 0.0199898765646855 0.0199902734583819 0.0199844091283776 0.019990338627114 0.0199850927565546 0.0199748209190341 0.019969126883314 0.0199769788220387 0.0199719131354946 0.0199602746081133 0.0199647126919952 0.0199481586443286 0.0199526266427916 0.0199437746913248 0.0199514137307121 0.0199619808646189 0.0199559348937692 0.0199575388950062 0.0199483807504807 0.0199487375117224 0.0199545150078754 0.0199682549296604 0.0199738965195851 0.019976024189597 0.0199864403901299 0.0199869750957937 0.0199914492364489 
</DataArray>
<DataArray type="Float64" Name="age_conc_immobile_solid" format="ascii">
0.000369901698234624 0.000236084923721154 0.000238727677217956 0.000250525150093372 0.000265229507242245 0.000254504119189933 0.000291049972038881 0.000268794606889132 0.000290867206402077 0.000260702135045992 0.000281574903763437 0.000247926547885599 0.000244910034646848 0.000266521264399548 0.000253312249522162 0.000277500365029983 0.000260161315268938 0.000311918801468036 0.000251361075760482 0.000373130582865642 0.000319967352443438 0.000319695195424009 0.000267377402282035 0.000341617927305533 0.000346203302855995 0.00036030156213376 0.000285300883717424 0.000341753313072313 0.000277382540449214 0.000267450962751209 0.000312455341024409 0.000258836176708497 0.000282834278872417 0.000267761379176402 0.0002833646818004 0.000300510928271261 0.000369502600302241 0.000372748635679127 0.000376463729883073 0.000306363217453758 0.000297078812075116 0.000334911138104148 0.000324180527708695 0.000336751201378759 0.000315460814686943 0.000348480785703991 0.000374096326861856 0.000364790087688709 0.000364593717337111 0.000353405551488294 0.000376147491260342 0.000379638195200356 0.000379833651682225 0.00035497889044387 0.000366589667717923 0.000373094783298427 0.000378259946824505 0.000346224221904485 0.000334899320797454 0.000334423835291977 0.000327140966752447 0.000345508653533192 0.000315095519119226 0.000296309016720608 0.000308139352339612 0.000322790861846185 0.000301197647868347 0.00038317500739714 0.000384976527942744 0.000310238416718446 0.000321898278243606 0.00032069728390479 0.000330409770646531 0.000347695322861257 0.000357729968442404 0.00035527467938302 0.000364046839788915 0.000375510585709631 0.000381840115701849 0.00035970147672861 0.000348627465544565 0.000366475156076448 0.000338503153901664 0.000350986041070261 0.000386670924854228 0.000388301629724079 0.000360354099356336 0.000371566449972766 0.000370571333174989 0.000379361161102479 0.000379687120692321 0.000371451704875627 0.00036831205906708 0.000360082091491675 0.000341669067459142 0.000338668571129198 0.000332248907428534 0.000369335489923735 0.000370142682326075 0.000358250715717009 0.000370275024815679 0.000359637498944507 0.000338853638008984 0.000327348896150669 0.00034321138318082 0.000332970368980872 0.000309483900190337 0.000318432116913887 0.000285099444809507 0.000294081832394034 0.000276297648950564 0.000291648740875911 0.000312936087673798 0.000300744794932021 0.000303986801087321 0.000285555294856465 0.000286292481469886 0.000297906397160618 0.000325594118468426 0.000336989944801401 0.000341292229764582 0.000362368195280842 0.000363450429023599 0.000372527352519022 
</DataArray>
<DataArray type="Float64" Name="U235_conc_immobile_solid" format="ascii">
0.00255602178096413 0.00200473593515788 0.00201715851358295 0.00207053404930477 0.0021359023680918 0.00208844694653169 0.00224616856655424 0.0021513288650043 0.00224540340189608 0.0021162482608043 0.00220651778955836 0.00205881413854597 0.00204514866107663 0.00214141976351312 0.00208302662398322 0.00218905976500375 0.00211381539132821 0.00233188330585855 0.00207422450458361 0.00256800480268224 0.00236442483739871 0.00236335631265225 0.00214512650849705 0.00244922296820103 0.00246670672804254 0.00252040292290883 0.00222204558756167 0.00244973909201681 0.00218854222473884 0.00214544627423459 0.00233405665590464 0.00210792454305881 0.00221179374289638 0.00214679477564634 0.00221393687936168 0.00228562777479399 0.00255454194591184 0.00256658852761934 0.00258037458401343 0.00230933412511545 0.00227137176993244 0.00242310446618556 0.00238095508443731 0.00243033391671057 0.00234619836446854 0.00247539320933383 0.00257159548091672 0.00253705947726643 0.00253632996656138 0.00249417993850751 0.00257920191642025 0.00259213701222351 0.0025928430890825 0.00250018025587902 0.00254373464793708 0.00256787812403482 0.00258704301394844 0.00246677863506269 0.00242305314979607 0.00242118576031532 0.00239258010884492 0.00246405221268675 0.00234471376238002 0.0022681488302236 0.0023165292579429 0.0023754923381129 0.00228840394944362 0.00260492292291116 0.00261143578221132 0.00232503521100057 0.00237199441027649 0.00236727098289508 0.00240542116141792 0.00247238984780925 0.00251067102515141 0.00250130540024 0.002534296299635 0.00257683775275909 0.00260009772603709 0.00251817577797689 0.00247595205154145 0.00254330663865481 0.00243721430621326 0.00248494539314857 0.00261756165119998 0.00262345757426614 0.00252059323488158 0.00256220599130308 0.00255850917145486 0.00259112926764558 0.0025923149369318 0.00256178076718255 0.00255012574915365 0.00251958859721054 0.00244941077783713 0.00243786058868026 0.00241265115990983 0.00255393127970041 0.00255692749761854 0.00251266847639565 0.00255741853107618 0.00251794293044716 0.00243860302454832 0.00239341270462859 0.00245529836821761 0.00241548935919659 0.00232198502017542 0.00235824211575698 0.00222120160192866 0.00225882130557434 0.00218383425820072 0.00224863596513585 0.00233598178419046 0.00228657597059905 0.00229972084686825 0.00222311810226746 0.00222621722011885 0.00227485756794908 0.00238652257803172 0.00243128491582613 0.00244798396778638 0.00252807562513723 0.00253209055180641 0.00256577552852829 
</DataArray>
</CellData>
</Piece>
</UnstructuredGrid>