<?xml version="1.0"?>
<VTKFile type="UnstructuredGrid" version="0.1" byte_order="LittleEndian">
<UnstructuredGrid>
<Piece NumberOfPoints="69" NumberOfCells="124">
<Points>
<DataArray type="Float64" NumberOfComponents="3" format="ascii">
0 0 0 0 0.25 0 0 1 0 0.124999999999755 0 0 0.0843524221639116 0.0864517126562662 0 0 0.125000000000347 0 0.100817145298862 0.188857036972505 0 0.240388654717835 0.241888147926738 0 0.184027618128645 0.111732405146644 0 0.12499999999976 0.31249999999988 0 0.437499999999133 0 0 0.428791151854623 0.154554454279667 0 0.312500000000208 0.125000000000416 0 0.338194444444483 0.338194444444563 0 0.375000000000278 0.250000000000555 0 0.494574932893002 0.262517037765555 0 0.437500000000069 0.375000000000139 0 0.374999999999735 0.437499999999867 0 0.149291241869753 0.445827935681064 0 0.249999999999609 0.374999999999804 0 0 0.437500000000347 0 0.25 -0 0 0.139285875159121 0.573398061056774 0 0.139007895996117 0.7261831610706 0 0 0.625000000000694 0 0 0.812500000001041 0 0.187500000000521 1 0 0.127101071360123 0.870948066182034 0 0.279879602129308 0.834427414705705 0 0.375000000000694 1 0 0.449271053967154 0.855651240851559 0 0.381362046804951 0.740385922138312 0 0.275894670506865 0.660588531564357 0 0.264524437006746 0.515635315816399 0 0.413941406991218 0.605632526401004 0 0.5 0.5 -0 0.63236534182377 0.502967564063323 0 0.712597478078444 0.638466913157018 0 0.501458569330786 0.736746630465049 0 0.5625 0.625 0 0.567775120571876 0.84702246410953 0 0.562500000000867 1 0 0.738577951704336 0.777367885642847 0 0.625 0.75 0 0.857879273915174 0.753532520882502 0 0.805529844910009 0.887111228721274 0 0.906379534221801 0.902085833280573 0 0.875 1 0 1 0.833333333333565 0 1 0.666666666667361 0 0.6875 0.875 0 0.861274669778197 0.579480769787976 0 1 0.500000000001388 0 0.75 1 0 1 0.33333333333449 0 0.860872866902176 0.252065235979594 0 0.86569408477091 0.409836739167666 0 0.753384302623209 0.492944434231756 0 0.569867071784366 0.37762093650872 0 0.611084625850828 0.257505995823432 0 0.718260394928406 0.345640207172162 0 0.715089934061838 0.157159568547776 0 1 0 0 0.54475767668583 0.143183888206693 0 0.624999999998959 0 0 0.81249999999948 0 0 1 1 0 1 0.16666666666736 0 0.876989016488121 0.116063833865798 0 
</DataArray>
</Points>
<Cells>
<DataArray type="UInt32" Name="connectivity" format="ascii">
1 9 0 3 4 0 4 5 5 4 6 5 6 1 6 4 8 9 6 7 8 7 6 12 7 8 21 8 3 21 12 8 3 8 4 21 10 12 10 63 11 12 10 11 63 15 11 14 11 15 12 14 7 12 11 14 9 19 19 7 13 14 13 7 14 15 16 14 16 13 16 17 13 16 35 17 17 33 19 17 19 13 19 33 18 19 18 9 19 9 7 1 9 20 9 1 6 20 9 18 20 18 22 20 22 24 12 21 14 12 19 17 33 32 22 33 22 18 28 23 32 32 23 22 25 24 23 24 22 23 25 23 27 26 2 27 2 25 27 26 27 28 28 27 23 16 14 35 16 17 35 30 28 31 29 28 30 29 26 28 29 30 41 30 31 38 39 38 34 34 38 31 34 31 32 28 32 31 34 32 33 17 34 33 17 35 34 39 34 35 39 35 36 39 35 43 39 39 36 37 57 37 36 39 37 43 43 37 42 39 43 38 43 40 38 30 38 40 41 30 40 50 41 40 50 53 41 50 45 53 50 42 45 50 40 43 50 43 42 45 42 44 50 43 53 50 45 44 46 47 53 45 47 45 46 66 47 46 66 46 48 48 44 49 48 46 44 49 44 51 44 37 51 44 42 37 51 37 57 49 51 52 54 52 56 51 56 52 67 54 55 54 56 55 56 60 55 61 55 60 51 57 56 57 60 56 58 60 36 57 36 60 16 58 35 35 58 36 16 15 58 58 15 59 61 60 59 58 59 60 61 59 63 63 59 15 10 64 63 64 61 63 65 61 64 65 68 61 61 68 55 67 55 68 65 62 68 67 68 62 
</DataArray>
<DataArray type="UInt32" Name="offsets" format="ascii">
2 5 8 11 14 17 20 23 26 29 32 35 38 41 44 47 50 53 56 58 61 64 67 70 73 76 79 82 85 88 91 94 97 100 103 106 108 110 112 115 118 121 124 127 130 133 136 139 142 145 147 149 151 154 157 160 163 166 169 172 175 178 181 184 187 190 193 195 197 200 203 206 209 212 215 218 221 224 227 230 233 236 239 242 244 246 249 252 255 258 261 264 267 270 273 276 279 282 285 288 291 294 297 300 303 306 309 312 315 318 321 324 327 330 333 336 339 342 345 348 351 354 357 360 
</DataArray>
<DataArray type="UInt32" Name="types" format="ascii">
3 5 5 5 5 5 5 5 5 5 5 5 5 5 5 5 5 5 5 3 5 5 5 5 5 5 5 5 5 5 5 5 5 5 5 5 3 3 3 5 5 5 5 5 5 5 5 5 5 5 3 3 3 5 5 5 5 5 5 5 5 5 5 5 5 5 5 3 3 5 5 5 5 5 5 5 5 5 5 5 5 5 5 5 3 3 5 5 5 5 5 5 5 5 5 5 5 5 5 5 5 5 5 5 5 5 5 5 5 5 5 5 5 5 5 5 5 5 5 5 5 5 5 5 
</DataArray>
</Cells>
<CellData Scalars="age_conc,U235_conc,age_diffusion_rate_immobile,U235_diffusion_rate_immobile,age_init_conc_immobile,U235_init_conc_immobile,age_conc_immobile,U235_conc_immobile,age_sorption_type,U235_sorption_type,age_distribution_coefficient,U235_distribution_coefficient,age_isotherm_other,U235_isotherm_other,age_init_conc_solid,U235_init_conc_solid,age_conc_solid,U235_conc_solid,age_conc_immobile_solid,U235_conc_immobile_solid," Vectors="" Tensors="">
<DataArray type="Float64" Name="age_conc" format="ascii">
0.99898253253259 0.883124632345117 0.887697070626183 0.91478138040974 0.928381344034012 0.941400033663303 0.982630172592027 0.961405334414564 0.982284251904822 0.925807027961864 0.962198700127163 0.911317056846235 0.974221328523172 0.988073377417705 0.981849771635901 0.992009703765481 0.987874845556624 0.991713789916032 0.982899605766176 0.999154923327318 0.995134227600291 0.994978703340421 0.990671224538715 0.997338440761621 0.997739865256607 0.998499940793826 0.99373666116812 0.997377886994193 0.992421962611844 0.989840687045137 0.992061011488705 0.98595149925975 0.961929576605929 0.989709414007554 0.993649403529878 0.995114538281109 0.998905888214312 0.999100188561961 0.99933109715317 0.99576738845606 0.995173355573731 0.997270466967106 0.996725557512001 0.997358768643925 0.996251893902179 0.997946895614296 0.99921810058987 0.998756888795142 0.998747396199863 0.998192058566972 0.999301065741241 0.999488421692897 0.999501753889158 0.998270738416098 0.998846567566852 0.999168605037426 0.99942461679992 0.997836467653613 0.997272984569433 0.997249320067838 0.996884855746444 0.997800463538029 0.996265958578857 0.99493921345965 0.99584574157609 0.996664148490865 0.995457450031247 0.999667561398585 0.999757051646234 0.995991014695872 0.99659511472388 0.996555243883768 0.9970469559622 0.997909614989752 0.998407576861402 0.998285691513568 0.998720680327776 0.9992886518222 0.99960188315309 0.998504787169654 0.997955049271466 0.998841113606695 0.997450801884046 0.998072816515012 0.999840871558684 0.999921493831412 0.998537566318628 0.999092974683878 0.999043958082619 0.999479155339209 0.999495296132573 0.999087244532399 0.998931972530831 0.998523636187589 0.997606528099769 0.997460305977574 0.997132187017987 0.998981891791944 0.999020645321173 0.998431450546611 0.999024347061648 0.99849671321418 0.997431461357954 0.996774031859817 0.997677166553458 0.99714941557998 0.995861203606808 0.996391221455216 0.994061549642391 0.994912291879512 0.992725446854871 0.994416268508769 0.995817320921112 0.995251348005186 0.995005852056125 0.993474676160233 0.991326331494766 0.993885636063504 0.996394696241905 0.997209371190686 0.997483599370842 0.99862842722112 0.998678702391738 0.999134700302487 
</DataArray>
<DataArray type="Float64" Name="U235_conc" format="ascii">
0.998983727718065 0.886373140161767 0.890849907928263 0.917373639673216 0.930508001638936 0.9435243661819 0.983304790835116 0.962871796127657 0.982969097637248 0.92803708113054 0.963536594843964 0.913995993104487 0.975859970153802 0.988649905023508 0.982927979243335 0.992273456616544 0.988474912488332 0.991982135560931 0.983908940302381 0.999155197228084 0.995229007859682 0.995081692325996 0.991032070108606 0.997356752585478 0.997744900735342 0.998500867614476 0.993848106265354 0.997393446386941 0.992625792184282 0.990240095463138 0.992314247299743 0.986651455194143 0.963258182213382 0.990122285126477 0.993767035626611 0.995161056885868 0.998912681368262 0.999104232235592 0.999330523758964 0.995774010373794 0.995196951824373 0.997266998929261 0.996723139664731 0.997355859439462 0.996254507002652 0.997943932333808 0.999216840225165 0.998754937548441 0.998745396092162 0.998189321564665 0.999302147488768 0.999488140948238 0.99950102557787 0.998268022613259 0.998844689662007 0.999167252555029 0.999423650600602 0.997833123268622 0.997269048856868 0.997245362784195 0.996880841243197 0.997797135858168 0.996264201445042 0.99498148762356 0.995852669317611 0.996660515693578 0.995471224670977 0.999667046064382 0.999756634563247 0.99599373467092 0.996594932123004 0.996552266311873 0.997043196246374 0.997906355523076 0.998405018213426 0.998282966259969 0.9987185973729 0.9992874522625 0.999601202710405 0.998502431918176 0.997951963781373 0.998839206785681 0.997447281857842 0.99806979818878 0.999840593870652 0.999921355793431 0.99853521268513 0.999091494432222 0.999042375767251 0.999478275834484 0.999494442525291 0.999085759658707 0.998930220616866 0.998521311108385 0.99760342296916 0.997456602570593 0.997129422468892 0.998980305992343 0.999019301503708 0.998429188737798 0.999023388457971 0.998495041233146 0.997432926292958 0.996785329195505 0.997675018328098 0.997149259034539 0.995875817731605 0.996395130252589 0.994149014417489 0.994950417390071 0.992915051533231 0.994497675233769 0.99585645657523 0.995287580522696 0.99508507046587 0.993626204801134 0.991662044513248 0.994044358080491 0.996435186171103 0.997225122774482 0.997493022284559 0.998627403468505 0.998678101014309 0.999134044143778 
</DataArray>
<DataArray type="Float64" Name="age_diffusion_rate_immobile" format="ascii">
0.01 0.01 0.01 0.01 0.01 0.01 0.01 0.01 0.01 0.01 0.01 0.01 0.01 0.01 0.01 0.01 0.01 0.01 0.01 0.01 0.01 0.01 0.01 0.01 0.01 0.01 0.01 0.01 0.01 0.01 0.01 0.01 0.01 0.01 0.01 0.01 0.01 0.01 0.01 0.01 0.01 0.01 0.01 0.01 0.01 0.01 0.01 0.01 0.01 0.01 0.01 0.01 0.01 0.01 0.01 0.01 0.01 0.01 0.01 0.01 0.01 0.01 0.01 0.01 0.01 0.01 0.01 0.01 0.01 0.01 0.01 0.01 0.01 0.01 0.01 0.01 0.01 0.01 0.01 0.01 0.01 0.01 0.01 0.01 0.01 0.01 0.01 0.01 0.01 0.01 0.01 0.01 0.01 0.01 0.01 0.01 0.01 0.01 0.01 0.01 0.01 0.01 0.01 0.01 0.01 0.01 0.01 0.01 0.01 0.01 0.01 0.01 0.01 0.01 0.01 0.01 0.01 0.01 0.01 0.01 0.01 0.01 0.01 0.01 
</DataArray>
<DataArray type="Float64" Name="U235_diffusion_rate_immobile" format="ascii">
0.01 0.01 0.01 0.01 0.01 0.01 0.01 0.01 0.01 0.01 0.01 0.01 0.01 0.01 0.01 0.01 0.01 0.01 0.01 0.01 0.01 0.01 0.01 0.01 0.01 0.01 0.01 0.01 0.01 0.01 0.01 0.01 0.01 0.01 0.01 0.01 0.01 0.01 0.01 0.01 0.01 0.01 0.01 0.01 0.01 0.01 0.01 0.01 0.01 0.01 0.01 0.01 0.01 0.01 0.01 0.01 0.01 0.01 0.01 0.01 0.01 0.01 0.01 0.01 0.01 0.01 0.01 0.01 0.01 0.01 0.01 0.01 0.01 0.01 0.01 0.01 0.01 0.01 0.01 0.01 0.01 0.01 0.01 0.01 0.01 0.01 0.01 0.01 0.01 0.01 0.01 0.01 0.01 0.01 0.01 0.01 0.01 0.01 0.01 0.01 0.01 0.01 0.01 0.01 0.01 0.01 0.01 0.01 0.01 0.01 0.01 0.01 0.01 0.01 0.01 0.01 0.01 0.01 0.01 0.01 0.01 0.01 0.01 0.01 
</DataArray>
<DataArray type="Float64" Name="age_init_conc_immobile" format="ascii">
0 0 0 0 0 0 0 0 0 0 0 0 0 0 0 0 0 0 0 0 0 0 0 0 0 0 0 0 0 0 0 0 0 0 0 0 0 0 0 0 0 0 0 0 0 0 0 0 0 0 0 0 0 0 0 0 0 0 0 0 0 0 0 0 0 0 0 0 0 0 0 0 0 0 0 0 0 0 0 0 0 0 0 0 0 0 0 0 0 0 0 0 0 0 0 0 0 0 0 0 0 0 0 0 0 0 0 0 0 0 0 0 0 0 0 0 0 0 0 0 0 0 0 0 
</DataArray>
<DataArray type="Float64" Name="U235_init_conc_immobile" format="ascii">
0 0 0 0 0 0 0 0 0 0 0 0 0 0 0 0 0 0 0 0 0 0 0 0 0 0 0 0 0 0 0 0 0 0 0 0 0 0 0 0 0 0 0 0 0 0 0 0 0 0 0 0 0 0 0 0 0 0 0 0 0 0 0 0 0 0 0 0 0 0 0 0 0 0 0 0 0 0 0 0 0 0 0 0 0 0 0 0 0 0 0 0 0 0 0 0 0 0 0 0 0 0 0 0 0 0 0 0 0 0 0 0 0 0 0 0 0 0 0 0 0 0 0 0 
</DataArray>
<DataArray type="Float64" Name="age_conc_immobile" format="ascii">
0.010773633371456 0.00430243426542264 0.00442499398298516 0.00495554250097691 0.00566798434801063 0.00509196301551262 0.00684889139595025 0.00577094470398232 0.00684037194684093 0.00544496172698313 0.00641296412114268 0.00483236986102384 0.00454117602293547 0.00560933177740329 0.00495399330062034 0.00615516614101002 0.00529094269588745 0.00788016389672986 0.00485509574091015 0.0109350834077912 0.00827838457753628 0.00826496416022932 0.00564962930704169 0.0093595872756027 0.009588677767844 0.0102935910372351 0.00654412959836326 0.00936632394291811 0.00614898744358278 0.00565426688641761 0.00790650501453311 0.00522678120453064 0.00647722485016473 0.00566992515350582 0.00644726872473437 0.00730415810178746 0.0107537274425582 0.0109160148628484 0.011101748921184 0.00759649273763442 0.00713233973676886 0.00902392833079705 0.00848736629947779 0.00911594158630715 0.0080513801630114 0.00970246521631301 0.010983365518913 0.010518005595089 0.0105081854638583 0.00994872455051653 0.0110859471801663 0.011260489523384 0.011270260334939 0.0100273973057854 0.0106079915904564 0.0109332825783328 0.0111915666358939 0.00958962319422546 0.00902333310440996 0.00899955716432616 0.00863538903254726 0.00955384369480448 0.00803308952224453 0.00709402021289019 0.00768531577120853 0.00841787118787144 0.00733823609954706 0.0114373466098785 0.0115274325753659 0.0077902427468936 0.00837325932757971 0.0083131890918574 0.00879884192316416 0.00966318407805858 0.0101649615855319 0.0100421863278379 0.0104808364476067 0.0110540825123157 0.011370594318256 0.0102635499669089 0.00970979883222266 0.0106022637683053 0.00920354201982732 0.00982773540296076 0.0116121622940426 0.0116937072573793 0.0102961817199112 0.010856857539425 0.0108070944037287 0.0112466331616235 0.0112629328813695 0.0108511200341776 0.0106941194979126 0.0102825827458892 0.009361853459014 0.00921181108853212 0.00889081252134051 0.0107453008548345 0.0107856660675147 0.0101910082518742 0.0107922859534452 0.0102603568930226 0.00922109967146848 0.00864588418996189 0.0094389817792761 0.00892690344708243 0.00775258426868429 0.00819996272699385 0.00653372599091639 0.00698256535312097 0.00609432640179084 0.00686120064261549 0.00792538218386774 0.00731573299481301 0.00747819146727228 0.00655703603534255 0.00659607869559518 0.00717489489219582 0.0085584007199831 0.00912801564274216 0.00934309684709286 0.0103969073560801 0.0104510266276883 0.0109049143360361 
</DataArray>
<DataArray type="Float64" Name="U235_conc_immobile" format="ascii">
0.00909437535606523 0.00324493490995893 0.00335216972257701 0.00381682978838154 0.004448607078275 0.00393886138808777 0.00550785330477963 0.00454200664032307 0.00550018808892683 0.004250735146618 0.00511558656819574 0.00370913479653257 0.00345965191089416 0.00440065618623653 0.00382017858838906 0.00488625051805607 0.00411852665051936 0.00644088108592268 0.00373400321911355 0.00924345952385047 0.00680346664085596 0.00679121533011127 0.00443650625600454 0.00779211130202397 0.00800239071332768 0.00865122087985831 0.00523509358379714 0.0077982962320397 0.00488068997777197 0.00444055666860322 0.00646475029638559 0.00406155013785494 0.00517320398321289 0.00445443119397751 0.00514823896118286 0.00591939757697863 0.00907600497652557 0.00922586320511059 0.00939785236092395 0.0061840206891722 0.00576380918993906 0.00748377793784345 0.0069940400603249 0.00756828743311637 0.00659628944513125 0.00810686725740408 0.00928812754451504 0.00885843093897872 0.00884935385040841 0.0083329981451202 0.00938320301165018 0.00954512956995343 0.00955418772872949 0.00840541233821721 0.00894148071760912 0.00924187542913448 0.00948120977368172 0.00800317235424965 0.00748317413354742 0.00746134592884074 0.00712905155102155 0.00797035733170907 0.00657955487631009 0.00572911406440417 0.00626441786490343 0.00693058714754703 0.00595020690893415 0.00970920201032578 0.00979277838611036 0.00635942577784795 0.00688997731913238 0.00683510390418653 0.00727819631718312 0.00807071221429904 0.00853237376108936 0.00841902746934553 0.00882404876291732 0.0093536366465227 0.00964728251178765 0.00862348325616802 0.00811359299786362 0.00893615374363975 0.00764871108368187 0.00822184099071078 0.0098713893181239 0.00994704980007117 0.00865355811444212 0.00917130210307642 0.00912530398856564 0.00953229032760898 0.00954741036600876 0.00916601180503833 0.00902099800016348 0.00864106143386487 0.00779412908316645 0.00765626335720469 0.00736217655656332 0.00906835093198394 0.0091056310841129 0.00855655466679025 0.00911174215443243 0.00862059165996522 0.00766497084397648 0.00713880050745972 0.00786500074413323 0.00739515371189271 0.00632540189660001 0.00673189488875312 0.00522578877883757 0.00562832172685835 0.00483170095085751 0.00551950484549952 0.00648192426967299 0.00592989464340538 0.00607703297722291 0.00524671399934819 0.00528164677844455 0.00580242194883256 0.00705898557845903 0.0075795139837026 0.00777702550991126 0.0087466623093239 0.00879661704340705 0.00921572021204855 
</DataArray>
<DataArray type="UInt32" Name="age_sorption_type" format="ascii">
1 1 1 1 1 1 1 1 1 1 1 1 1 1 1 1 1 1 1 1 1 1 1 1 1 1 1 1 1 1 1 1 1 1 1 1 1 1 1 1 1 1 1 1 1 1 1 1 1 1 1 1 1 1 1 1 1 1 1 1 1 1 1 1 1 1 1 1 1 1 1 1 1 1 1 1 1 1 1 1 1 1 1 1 1 1 1 1 1 1 1 1 1 1 1 1 1 1 1 1 1 1 1 1 1 1 1 1 1 1 1 1 1 1 1 1 1 1 1 1 1 1 1 1 
</DataArray>
<DataArray type="UInt32" Name="U235_sorption_type" format="ascii">
2 2 2 2 2 2 2 2 2 2 2 2 2 2 2 2 2 2 2 2 2 2 2 2 2 2 2 2 2 2 2 2 2 2 2 2 2 2 2 2 2 2 2 2 2 2 2 2 2 2 2 2 2 2 2 2 2 2 2 2 2 2 2 2 2 2 2 2 2 2 2 2 2 2 2 2 2 2 2 2 2 2 2 2 2 2 2 2 2 2 2 2 2 2 2 2 2 2 2 2 2 2 2 2 2 2 2 2 2 2 2 2 2 2 2 2 2 2 2 2 2 2 2 2 
</DataArray>
<DataArray type="Float64" Name="age_distribution_coefficient" format="ascii">
0.02 0.02 0.02 0.02 0.02 0.02 0.02 0.02 0.02 0.02 0.02 0.02 0.02 0.02 0.02 0.02 0.02 0.02 0.02 0.02 0.02 0.02 0.02 0.02 0.02 0.02 0.02 0.02 0.02 0.02 0.02 0.02 0.02 0.02 0.02 0.02 0.02 0.02 0.02 0.02 0.02 0.02 0.02 0.02 0.02 0.02 0.02 0.02 0.02 0.02 0.02 0.02 0.02 0.02 0.02 0.02 0.02 0.02 0.02 0.02 0.02 0.02 0.02 0.02 0.02 0.02 0.02 0.02 0.02 0.02 0.02 0.02 0.02 0.02 0.02 0.02 0.02 0.02 0.02 0.02 0.02 0.02 0.02 0.02 0.02 0.02 0.02 0.02 0.02 0.02 0.02 0.02 0.02 0.02 0.02 0.02 0.02 0.02 0.02 0.02 0.02 0.02 0.02 0.02 0.02 0.02 0.02 0.02 0.02 0.02 0.02 0.02 0.02 0.02 0.02 0.02 0.02 0.02 0.02 0.02 0.02 0.02 0.02 0.02 
</DataArray>
<DataArray type="Float64" Name="U235_distribution_coefficient" format="ascii">
0.02 0.02 0.02 0.02 0.02 0.02 0.02 0.02 0.02 0.02 0.02 0.02 0.02 0.02 0.02 0.02 0.02 0.02 0.02 0.02 0.02 0.02 0.02 0.02 0.02 0.02 0.02 0.02 0.02 0.02 0.02 0.02 0.02 0.02 0.02 0.02 0.02 0.02 0.02 0.02 0.02 0.02 0.02 0.02 0.02 0.02 0.02 0.02 0.02 0.02 0.02 0.02 0.02 0.02 0.02 0.02 0.02 0.02 0.02 0.02 0.02 0.02 0.02 0.02 0.02 0.02 0.02 0.02 0.02 0.02 0.02 0.02 0.02 0.02 0.02 0.02 0.02 0.02 0.02 0.02 0.02 0.02 0.02 0.02 0.02 0.02 0.02 0.02 0.02 0.02 0.02 0.02 0.02 0.02 0.02 0.02 0.02 0.02 0.02 0.02 0.02 0.02 0.02 0.02 0.02 0.02 0.02 0.02 0.02 0.02 0.02 0.02 0.02 0.02 0.02 0.02 0.02 0.02 0.02 0.02 0.02 0.02 0.02 0.02 
</DataArray>
<DataArray type="Float64" Name="age_isotherm_other" format="ascii">
0 0 0 0 0 0 0 0 0 0 0 0 0 0 0 0 0 0 0 0 0 0 0 0 0 0 0 0 0 0 0 0 0 0 0 0 0 0 0 0 0 0 0 0 0 0 0 0 0 0 0 0 0 0 0 0 0 0 0 0 0 0 0 0 0 0 0 0 0 0 0 0 0 0 0 0 0 0 0 0 0 0 0 0 0 0 0 0 0 0 0 0 0 0 0 0 0 0 0 0 0 0 0 0 0 0 0 0 0 0 0 0 0 0 0 0 0 0 0 0 0 0 0 0 
</DataArray>
<DataArray type="Float64" Name="U235_isotherm_other" format="ascii">
0.5 0.5 0.5 0.5 0.5 0.5 0.5 0.5 0.5 0.5 0.5 0.5 0.5 0.5 0.5 0.5 0.5 0.5 0.5 0.5 0.5 0.5 0.5 0.5 0.5 0.5 0.5 0.5 0.5 0.5 0.5 0.5 0.5 0.5 0.5 0.5 0.5 0.5 0.5 0.5 0.5 0.5 0.5 0.5 0.5 0.5 0.5 0.5 0.5 0.5 0.5 0.5 0.5 0.5 0.5 0.5 0.5 0.5 0.5 0.5 0.5 0.5 0.5 0.5 0.5 0.5 0.5 0.5 0.5 0.5 0.5 0.5 0.5 0.5 0.5 0.5 0.5 0.5 0.5 0.5 0.5 0.5 0.5 0.5 0.5 0.5 0.5 0.5 0.5 0.5 0.5 0.5 0.5 0.5 0.5 0.5 0.5 0.5 0.5 0.5 0.5 0.5 0.5 0.5 0.5 0.5 0.5 0.5 0.5 0.5 0.5 0.5 0.5 0.5 0.5 0.5 0.5 0.5 0.5 0.5 0.5 0.5 0.5 0.5 
</DataArray>
<DataArray type="Float64" Name="age_init_conc_solid" format="ascii">
0 0 0 0 0 0 0 0 0 0 0 0 0 0 0 0 0 0 0 0 0 0 0 0 0 0 0 0 0 0 0 0 0 0 0 0 0 0 0 0 0 0 0 0 0 0 0 0 0 0 0 0 0 0 0 0 0 0 0 0 0 0 0 0 0 0 0 0 0 0 0 0 0 0 0 0 0 0 0 0 0 0 0 0 0 0 0 0 0 0 0 0 0 0 0 0 0 0 0 0 0 0 0 0 0 0 0 0 0 0 0 0 0 0 0 0 0 0 0 0 0 0 0 0 
</DataArray>
<DataArray type="Float64" Name="U235_init_conc_solid" format="ascii">
0 0 0 0 0 0 0 0 0 0 0 0 0 0 0 0 0 0 0 0 0 0 0 0 0 0 0 0 0 0 0 0 0 0 0 0 0 0 0 0 0 0 0 0 0 0 0 0 0 0 0 0 0 0 0 0 0 0 0 0 0 0 0 0 0 0 0 0 0 0 0 0 0 0 0 0 0 0 0 0 0 0 0 0 0 0 0 0 0 0 0 0 0 0 0 0 0 0 0 0 0 0 0 0 0 0 0 0 0 0 0 0 0 0 0 0 0 0 0 0 0 0 0 0 
</DataArray>
<DataArray type="Float64" Name="age_conc_solid" format="ascii">
0.0199796506506448 0.0176624926468965 0.0177539414125177 0.0182956276081886 0.0185676268806739 0.0188280006732596 0.0196526034518336 0.0192281066882846 0.0196456850380895 0.018516140559231 0.0192439740025366 0.0182263411369186 0.0194844265704567 0.0197614675483471 0.0196369954327111 0.0198401940753026 0.0197574969111255 0.0198342757983136 0.0196579921153166 0.0199830984665416 0.0199026845519989 0.0198995740668015 0.0198134244907674 0.0199467688152254 0.0199547973051251 0.0199699988158695 0.0198747332233554 0.0199475577398768 0.0198484392522298 0.0197968137408958 0.019841220229767 0.019719029985188 0.0192385915321119 0.0197941882801441 0.0198729880705906 0.0199022907656152 0.0199781177642793 0.0199820037712337 0.0199866219430612 0.0199153477691142 0.0199034671114677 0.0199454093393351 0.019934511150233 0.0199471753728715 0.0199250378780366 0.0199589379122789 0.0199843620117935 0.0199751377758958 0.0199749479239903 0.0199638411713324 0.0199860213148221 0.019989768433858 0.0199900350777834 0.019965414768315 0.0199769313513301 0.019983372100744 0.0199884923359975 0.0199567293530653 0.0199454596913817 0.0199449864013498 0.0199376971149219 0.0199560092707536 0.0199253191715701 0.0198987842691861 0.0199169148315148 0.0199332829698103 0.019909149000618 0.0199933512279743 0.0199951410329286 0.0199198202939104 0.0199319022944706 0.0199311048776684 0.019940939119237 0.019958192299788 0.019968151537221 0.0199657138302644 0.0199744136065486 0.0199857730364412 0.0199920376630635 0.0199700957433861 0.0199591009854224 0.0199768222721269 0.0199490160376739 0.0199614563302932 0.0199968174311788 0.0199984298766345 0.0199707513263656 0.0199818594936719 0.019980879161646 0.0199895831067841 0.0199899059226516 0.0199817448906423 0.0199786394506096 0.0199704727237448 0.0199521305619884 0.0199492061195444 0.0199426437403527 0.0199796378358319 0.0199804129064168 0.0199686290109252 0.0199804869412263 0.0199699342642766 0.0199486292271521 0.0199354806371894 0.0199535433310621 0.0199429883115926 0.0199172240721291 0.0199278244290974 0.0198812309928409 0.0198982458375833 0.0198545089370904 0.0198883253701684 0.0199163464184153 0.0199050269600968 0.0199001170411156 0.0198694935231977 0.0198265266298884 0.0198777127212632 0.0199278939248311 0.0199441874238067 0.0199496719874098 0.0199725685444154 0.0199735740478277 0.0199826940060447 
</DataArray>
<DataArray type="Float64" Name="U235_conc_solid" format="ascii">
0.0199898346778143 0.0188294776237483 0.0188769688213213 0.0191559244224486 0.019292568121011 0.0194270363010579 0.0198323445541923 0.0196252057204682 0.0198289592999349 0.0192669356871901 0.0196319797177733 0.0191206271025762 0.0197571247671731 0.0198861746757915 0.019828544646856 0.0199225841521088 0.0198844144996088 0.0199196598458994 0.0198384366755449 0.0199915498382859 0.0199522325238059 0.0199507560095899 0.0199101184626559 0.0199735494311992 0.0199774358219782 0.0199850024151721 0.0199383859416349 0.0199739168333154 0.0199261209273219 0.0199021610692846 0.0199229936125507 0.0198660656508984 0.0196291428193813 0.0199009772736271 0.0199375725612101 0.0199515514647464 0.0199891236755603 0.0199910400596215 0.0199933035464758 0.0199576949753186 0.0199519112325567 0.0199726507594369 0.0199672040342715 0.0199735404884426 0.0199625094032833 0.0199794286553056 0.0199921664239691 0.0199875450411652 0.019987449554248 0.0199818845921698 0.0199930197120944 0.0199948801165153 0.0199950089953586 0.0199826721994585 0.0199884432429057 0.0199916704220075 0.019994235050134 0.0199783191631456 0.0199726712846403 0.0199724341243331 0.0199687838445944 0.0199779588338739 0.0199626065194967 0.0199497516778405 0.019958483358226 0.019966576684837 0.0199546602146018 0.0199966696195975 0.01999756573089 0.0199598970589707 0.0199659196869628 0.0199654922727954 0.0199704099019617 0.0199790524119284 0.01998404319432 0.0199828217492458 0.0199871813638363 0.019992872722711 0.019996011019735 0.0199850180700714 0.0199795090713626 0.0199883883725648 0.019974455868933 0.0199806884520458 0.0199984055360482 0.0199992133592836 0.0199853461263229 0.0199909126494117 0.0199904213386864 0.0199947814404581 0.0199949431482038 0.0199908552871903 0.0199892992010494 0.0199852070051375 0.019976019254912 0.0199745491939485 0.0199712732547723 0.0199898004346096 0.0199901905377646 0.0199842850828528 0.019990231417631 0.0199849441071764 0.0199743121317157 0.0199678270316039 0.0199767361140362 0.0199714718713207 0.0199587153701632 0.0199639181276856 0.0199414038867615 0.0199494402663694 0.0199290245379397 0.019944900218532 0.0199585213171539 0.0199528195859265 0.0199507898680122 0.0199361596077855 0.019916445420668 0.0199403544046892 0.0199643193966784 0.0199722314682413 0.0199749138517231 0.0199862687332542 0.01998677609316 0.0199913382540093 
</DataArray>
<DataArray type="Float64" Name="age_conc_immobile_solid" format="ascii">
0.00021547266742912 8.60486853084532e-05 8.84998796597033e-05 9.91108500195382e-05 0.000113359686960213 0.000101839260310253 0.000136977827919005 0.000115418894079647 0.000136807438936819 0.000108899234539663 0.000128259282422854 9.66473972204775e-05 9.08235204587094e-05 0.000112186635548066 9.90798660124074e-05 0.000123103322820201 0.000105818853917749 0.000157603277934598 9.71019148182034e-05 0.000218701668155823 0.000165567691550726 0.000165299283204587 0.000112992586140834 0.000187191745512054 0.00019177355535688 0.000205871820744703 0.000130882591967266 0.000187326478858362 0.000122979748871656 0.000113085337728352 0.000158130100290662 0.000104535624090613 0.000129544497003295 0.000113398503070117 0.000128945374494688 0.00014608316203575 0.000215074548851164 0.000218320297256968 0.000222034978423681 0.000151929854752689 0.000142646794735378 0.00018047856661594 0.000169747325989555 0.000182318831726143 0.000161027603260228 0.00019404930432626 0.00021966731037826 0.00021036011190178 0.000210163709277167 0.000198974491010331 0.000221718943603325 0.00022520979046768 0.00022540520669878 0.000200547946115708 0.000212159831809128 0.000218665651566655 0.000223831332717877 0.000191792463884509 0.000180466662088199 0.000179991143286522 0.000172707780650945 0.00019107687389609 0.000160661790444891 0.000141880404257804 0.000153706315424171 0.000168357423757429 0.000146764721990942 0.00022874693219757 0.000230548651507318 0.000155804854937873 0.000167465186551594 0.000166263781837148 0.000175976838463284 0.000193263681561172 0.000203299231710637 0.000200843726556757 0.000209616728952134 0.000221081650246313 0.00022741188636512 0.000205270999338178 0.000194195976644453 0.000212045275366107 0.000184070840396546 0.000196554708059215 0.000232243245880852 0.000233874145147586 0.000205923634398224 0.000217137150788499 0.000216141888074574 0.00022493266323247 0.000225258657627389 0.000217022400683551 0.000213882389958253 0.000205651654917784 0.00018723706918028 0.000184236221770642 0.00017781625042681 0.000214906017096689 0.000215713321350295 0.000203820165037484 0.000215845719068904 0.000205207137860453 0.00018442199342937 0.000172917683799238 0.000188779635585523 0.000178538068941648 0.000155051685373686 0.000163999254539878 0.000130674519818328 0.00013965130706242 0.000121886528035817 0.00013722401285231 0.000158507643677355 0.00014631465989626 0.000149563829345446 0.000131140720706851 0.000131921573911904 0.000143497897843917 0.000171168014399661 0.000182560312854844 0.000186861936941857 0.000207938147121602 0.000209020532553766 0.000218098286720722 
</DataArray>
<DataArray type="Float64" Name="U235_conc_immobile_solid" format="ascii">