<?xml version="1.0"?>
<VTKFile type="UnstructuredGrid" version="0.1" byte_order="LittleEndian">
<UnstructuredGrid>
<Piece NumberOfPoints="69" NumberOfCells="124">
<Points>
<DataArray type="Float64" NumberOfComponents="3" format="ascii">
0 0 0 0 0.25 0 0 1 0 0.124999999999755 0 0 0.0843524221639116 0.0864517126562662 0 0 0.125000000000347 0 0.100817145298862 0.188857036972505 0 0.240388654717835 0.241888147926738 0 0.184027618128645 0.111732405146644 0 0.12499999999976 0.31249999999988 0 0.437499999999133 0 0 0.428791151854623 0.154554454279667 0 0.312500000000208 0.125000000000416 0 0.338194444444483 0.338194444444563 0 0.375000000000278 0.250000000000555 0 0.494574932893002 0.262517037765555 0 0.437500000000069 0.375000000000139 0 0.374999999999735 0.437499999999867 0 0.149291241869753 0.445827935681064 0 0.249999999999609 0.374999999999804 0 0 0.437500000000347 0 0.25 -0 0 0.139285875159121 0.573398061056774 0 0.139007895996117 0.7261831610706 0 0 0.625000000000694 0 0 0.812500000001041 0 0.187500000000521 1 0 0.127101071360123 0.870948066182034 0 0.279879602129308 0.834427414705705 0 0.375000000000694 1 0 0.449271053967154 0.855651240851559 0 0.381362046804951 0.740385922138312 0 0.275894670506865 0.660588531564357 0 0.264524437006746 0.515635315816399 0 0.413941406991218 0.605632526401004 0 0.5 0.5 -0 0.63236534182377 0.502967564063323 0 0.712597478078444 0.638466913157018 0 0.501458569330786 0.736746630465049 0 0.5625 0.625 0 0.567775120571876 0.84702246410953 0 0.562500000000867 1 0 0.738577951704336 0.777367885642847 0 0.625 0.75 0 0.857879273915174 0.753532520882502 0 0.805529844910009 0.887111228721274 0 0.906379534221801 0.902085833280573 0 0.875 1 0 1 0.833333333333565 0 1 0.666666666667361 0 0.6875 0.875 0 0.861274669778197 0.579480769787976 0 1 0.500000000001388 0 0.75 1 0 1 0.33333333333449 0 0.860872866902176 0.252065235979594 0 0.86569408477091 0.409836739167666 0 0.753384302623209 0.492944434231756 0 0.569867071784366 0.37762093650872 0 0.611084625850828 0.257505995823432 0 0.718260394928406 0.345640207172162 0 0.715089934061838 0.157159568547776 0 1 0 0 0.54475767668583 0.143183888206693 0 0.624999999998959 0 0 0.81249999999948 0 0 1 1 0 1 0.16666666666736 0 0.876989016488121 0.116063833865798 0 
</DataArray>
</Points>
<Cells>
<DataArray type="UInt32" Name="connectivity" format="ascii">
1 9 0 3 4 0 4 5 5 4 6 5 6 1 6 4 8 9 6 7 8 7 6 12 7 8 21 8 3 21 12 8 3 8 4 21 10 12 10 63 11 12 10 11 63 15 11 14 11 15 12 14 7 12 11 14 9 19 19 7 13 14 13 7 14 15 16 14 16 13 16 17 13 16 35 17 17 33 19 17 19 13 19 33 18 19 18 9 19 9 7 1 9 20 9 1 6 20 9 18 20 18 22 20 22 24 12 21 14 12 19 17 33 32 22 33 22 18 28 23 32 32 23 22 25 24 23 24 22 23 25 23 27 26 2 27 2 25 27 26 27 28 28 27 23 16 14 35 16 17 35 30 28 31 29 28 30 29 26 28 29 30 41 30 31 38 39 38 34 34 38 31 34 31 32 28 32 31 34 32 33 17 34 33 17 35 34 39 34 35 39 35 36 39 35 43 39 39 36 37 57 37 36 39 37 43 43 37 42 39 43 38 43 40 38 30 38 40 41 30 40 50 41 40 50 53 41 50 45 53 50 42 45 50 40 43 50 43 42 45 42 44 50 43 53 50 45 44 46 47 53 45 47 45 46 66 47 46 66 46 48 48 44 49 48 46 44 49 44 51 44 37 51 44 42 37 51 37 57 49 51 52 54 52 56 51 56 52 67 54 55 54 56 55 56 60 55 61 55 60 51 57 56 57 60 56 58 60 36 57 36 60 16 58 35 35 58 36 16 15 58 58 15 59 61 60 59 58 59 60 61 59 63 63 59 15 10 64 63 64 61 63 65 61 64 65 68 61 61 68 55 67 55 68 65 62 68 67 68 62 
</DataArray>
<DataArray type="UInt32" Name="offsets" format="ascii">
2 5 8 11 14 17 20 23 26 29 32 35 38 41 44 47 50 53 56 58 61 64 67 70 73 76 79 82 85 88 91 94 97 100 103 106 108 110 112 115 118 121 124 127 130 133 136 139 142 145 147 149 151 154 157 160 163 166 169 172 175 178 181 184 187 190 193 195 197 200 203 206 209 212 215 218 221 224 227 230 233 236 239 242 244 246 249 252 255 258 261 264 267 270 273 276 279 282 285 288 291 294 297 300 303 306 309 312 315 318 321 324 327 330 333 336 339 342 345 348 351 354 357 360 
</DataArray>
<DataArray type="UInt32" Name="types" format="ascii">
3 5 5 5 5 5 5 5 5 5 5 5 5 5 5 5 5 5 5 3 5 5 5 5 5 5 5 5 5 5 5 5 5 5 5 5 3 3 3 5 5 5 5 5 5 5 5 5 5 5 3 3 3 5 5 5 5 5 5 5 5 5 5 5 5 5 5 3 3 5 5 5 5 5 5 5 5 5 5 5 5 5 5 5 3 3 5 5 5 5 5 5 5 5 5 5 5 5 5 5 5 5 5 5 5 5 5 5 5 5 5 5 5 5 5 5 5 5 5 5 5 5 5 5 
</DataArray>
</Cells>
<CellData Scalars="age_conc,U235_conc,age_diffusion_rate_immobile,U235_diffusion_rate_immobile,age_init_conc_immobile,U235_init_conc_immobile,age_conc_immobile,U235_conc_immobile,age_sorption_type,U235_sorption_type,age_distribution_coefficient,U235_distribution_coefficient,age_isotherm_other,U235_isotherm_other,age_init_conc_solid,U235_init_conc_solid,age_conc_solid,U235_conc_solid,age_conc_immobile_solid,U235_conc_immobile_solid," Vectors="" Tensors="">
<DataArray type="Float64" Name="age_conc" format="ascii">
0.999014384604022 0.976105977377165 0.976989333625621 0.98240726296513 0.984569224951986 0.987930095089033 0.994233400237088 0.990988449559331 0.994185151693399 0.984208793646162 0.991169002371713 0.981780524473931 0.992551107734129 0.993824360460137 0.993096528951548 0.994415517232045 0.99352300168573 0.995895453006336 0.993028481876753 0.999173829498713 0.9964846002844 0.996463855652738 0.993907196354626 0.997608443383189 0.997841261391362 0.998539646381734 0.994813201102899 0.997615826534577 0.994409330829785 0.993888652220684 0.99594618681597 0.993408350190716 0.99108816869255 0.993902129543444 0.994718940419088 0.995574889583649 0.998993958787194 0.999154559014378 0.999338356891958 0.995868907998147 0.995407167939881 0.997284735558585 0.996753058016219 0.997375711414445 0.99632037310477 0.997956145456783 0.999221239168225 0.998762012452113 0.998752385602164 0.998199669965781 0.999322569252233 0.999494840765623 0.99950455405817 0.998277567103864 0.998851088356327 0.999171888060771 0.999426868122919 0.997844981117086 0.997284487978243 0.99726092322033 0.996900057488624 0.997809354679342 0.996302683016312 0.995366652207714 0.995956959191199 0.996684477443116 0.995612197368436 0.999669240337837 0.999758029294842 0.996061434427833 0.996639598301826 0.996580539186216 0.997061928145195 0.99791779494256 0.998413804100491 0.998292407453755 0.998725686882315 0.999291434776612 0.999603440892896 0.998510744706878 0.997963465875972 0.99884564634902 0.997462565951872 0.998080381706469 0.999841497066359 0.999921801188327 0.998543290819304 0.999096529743055 0.999047697828262 0.999481193059997 0.999497270721734 0.999090824187053 0.998936151887849 0.998529516697882 0.997618970643172 0.997470987295161 0.997152605751999 0.998986095081003 0.999025836794088 0.998438748615535 0.999032350754227 0.998507171720617 0.997478861417199 0.996908547955501 0.997694949647576 0.997187935139441 0.996023093807887 0.996467434092301 0.994808732321056 0.995257578603796 0.994364584798319 0.995133865807341 0.996192183631351 0.995588249863088 0.995744986008642 0.994825681386614 0.994824827570906 0.995432923017008 0.996818058751612 0.997385301562373 0.99759874539215 0.998642066524116 0.998695569273908 0.999143580445585 
</DataArray>
<DataArray type="Float64" Name="U235_conc" format="ascii">
0.99901253079281 0.977105126465819 0.977944049385563 0.983090049866974 0.985146127184647 0.988326172891824 0.99430350520712 0.991218478000435 0.994258250837422 0.984802044705491 0.991415235050217 0.982495010325434 0.992582867890669 0.993825677233796 0.993108831046876 0.994410116304557 0.993521839362853 0.995913080155127 0.993036296511426 0.999172250064326 0.99648497106139 0.996464965498885 0.993902107111019 0.997605098130951 0.9978375994833 0.998536997369583 0.994806435358734 0.997612397079803 0.994403700000488 0.993886597010906 0.995961682883037 0.993413695790372 0.991340182765766 0.993900412282395 0.994711800359781 0.995568142412651 0.998992183871149 0.999153009486268 0.999337068163348 0.995861998952408 0.995399756495905 0.997279862644073 0.996747369031188 0.997370995657979 0.996314088658446 0.997952382930038 0.999219749017385 0.998759668652254 0.998750019025281 0.998196322004327 0.999321276100966 0.99949385386141 0.999503577615115 0.998274344460411 0.998848889887257 0.999170300865335 0.99942574790463 0.997840996691288 0.997279587266974 0.997255986341268 0.996894565116629 0.997805328193422 0.996296321675536 0.995359552828231 0.995950197946185 0.996678657916447 0.99560498156549 0.999668583700871 0.999757545090938 0.996054764192772 0.996633772509896 0.996574576705114 0.997056692785281 0.997913929334228 0.998410798889044 0.998289194069048 0.998723249565997 0.999290045809361 0.999602655953485 0.99850794548281 0.99795971021475 0.998843422600118 0.997457978223304 0.998076803481205 0.999841178159204 0.999921643167272 0.998540526821388 0.999094798022833 0.999045855651095 0.999480175028145 0.999496283114458 0.999089085023029 0.998934106534215 0.998526753133875 0.997614661536918 0.99746639503355 0.997147548651622 0.998984183652366 0.999024006773365 0.998435846628255 0.999030535902269 0.998504399793543 0.997474402373119 0.99690328848942 0.99769079485915 0.997182974721755 0.996016493081065 0.996461392761974 0.994801116820177 0.995250091800322 0.994357599391528 0.995126712223688 0.996186169792085 0.995581234430063 0.995738891732007 0.994819080032302 0.994824147923165 0.995428092817834 0.996813246907221 0.997380904097311 0.997594601902803 0.998639537285816 0.998693135662688 0.999141967195823 
</DataArray>
<DataArray type="Float64" Name="age_diffusion_rate_immobile" format="ascii">
0.01 0.01 0.01 0.01 0.01 0.01 0.01 0.01 0.01 0.01 0.01 0.01 0.01 0.01 0.01 0.01 0.01 0.01 0.01 0.01 0.01 0.01 0.01 0.01 0.01 0.01 0.01 0.01 0.01 0.01 0.01 0.01 0.01 0.01 0.01 0.01 0.01 0.01 0.01 0.01 0.01 0.01 0.01 0.01 0.01 0.01 0.01 0.01 0.01 0.01 0.01 0.01 0.01 0.01 0.01 0.01 0.01 0.01 0.01 0.01 0.01 0.01 0.01 0.01 0.01 0.01 0.01 0.01 0.01 0.01 0.01 0.01 0.01 0.01 0.01 0.01 0.01 0.01 0.01 0.01 0.01 0.01 0.01 0.01 0.01 0.01 0.01 0.01 0.01 0.01 0.01 0.01 0.01 0.01 0.01 0.01 0.01 0.01 0.01 0.01 0.01 0.01 0.01 0.01 0.01 0.01 0.01 0.01 0.01 0.01 0.01 0.01 0.01 0.01 0.01 0.01 0.01 0.01 0.01 0.01 0.01 0.01 0.01 0.01 
</DataArray>
<DataArray type="Float64" Name="U235_diffusion_rate_immobile" format="ascii">
0.01 0.01 0.01 0.01 0.01 0.01 0.01 0.01 0.01 0.01 0.01 0.01 0.01 0.01 0.01 0.01 0.01 0.01 0.01 0.01 0.01 0.01 0.01 0.01 0.01 0.01 0.01 0.01 0.01 0.01 0.01 0.01 0.01 0.01 0.01 0.01 0.01 0.01 0.01 0.01 0.01 0.01 0.01 0.01 0.01 0.01 0.01 0.01 0.01 0.01 0.01 0.01 0.01 0.01 0.01 0.01 0.01 0.01 0.01 0.01 0.01 0.01 0.01 0.01 0.01 0.01 0.01 0.01 0.01 0.01 0.01 0.01 0.01 0.01 0.01 0.01 0.01 0.01 0.01 0.01 0.01 0.01 0.01 0.01 0.01 0.01 0.01 0.01 0.01 0.01 0.01 0.01 0.01 0.01 0.01 0.01 0.01 0.01 0.01 0.01 0.01 0.01 0.01 0.01 0.01 0.01 0.01 0.01 0.01 0.01 0.01 0.01 0.01 0.01 0.01 0.01 0.01 0.01 0.01 0.01 0.01 0.01 0.01 0.01 
</DataArray>
<DataArray type="Float64" Name="age_init_conc_immobile" format="ascii">
0 0 0 0 0 0 0 0 0 0 0 0 0 0 0 0 0 0 0 0 0 0 0 0 0 0 0 0 0 0 0 0 0 0 0 0 0 0 0 0 0 0 0 0 0 0 0 0 0 0 0 0 0 0 0 0 0 0 0 0 0 0 0 0 0 0 0 0 0 0 0 0 0 0 0 0 0 0 0 0 0 0 0 0 0 0 0 0 0 0 0 0 0 0 0 0 0 0 0 0 0 0 0 0 0 0 0 0 0 0 0 0 0 0 0 0 0 0 0 0 0 0 0 0 
</DataArray>
<DataArray type="Float64" Name="U235_init_conc_immobile" format="ascii">
0 0 0 0 0 0 0 0 0 0 0 0 0 0 0 0 0 0 0 0 0 0 0 0 0 0 0 0 0 0 0 0 0 0 0 0 0 0 0 0 0 0 0 0 0 0 0 0 0 0 0 0 0 0 0 0 0 0 0 0 0 0 0 0 0 0 0 0 0 0 0 0 0 0 0 0 0 0 0 0 0 0 0 0 0 0 0 0 0 0 0 0 0 0 0 0 0 0 0 0 0 0 0 0 0 0 0 0 0 0 0 0 0 0 0 0 0 0 0 0 0 0 0 0 
</DataArray>
<DataArray type="Float64" Name="age_conc_immobile" format="ascii">
0.0146419104806188 0.00797634711838775 0.00810731409805858 0.00868929148281029 0.00942252892159277 0.00887932515185251 0.0107002674019619 0.00959046759801095 0.0106911817944625 0.00919623576457918 0.0102303702383772 0.00856010378299155 0.00839230566360991 0.00947273471152561 0.00881232343225334 0.0100216678918557 0.00915471647648797 0.0117429327596635 0.00871473846519055 0.0148033643140979 0.0121451406361648 0.0121315404467188 0.0095155098748649 0.0132276579280671 0.0134569300322989 0.0141618783423668 0.0104116962332336 0.0132344268366208 0.010015776600346 0.00951920705356686 0.0117697307196078 0.00908850037468969 0.0102936128858711 0.00953472999960991 0.0103148817349158 0.0111722177686881 0.0146219553915634 0.0147842665319054 0.0149700317100963 0.0114648383628075 0.0110006030728217 0.0128922917645942 0.0123557379148236 0.0129842996445891 0.0119197354456883 0.0135708072142555 0.0148516558315418 0.0143863163557565 0.0143764970103176 0.0138170580810825 0.0149542192758367 0.0151287650496589 0.0151385382395352 0.013895728667195 0.0144762996054052 0.0148015754129572 0.0150598484714404 0.0134579716208873 0.0128916995673733 0.0128679242850085 0.0125037651418402 0.0134221923259612 0.0119014686900547 0.0109621141377054 0.0115536481000833 0.0122862506067293 0.011206551101399 0.0153056166838967 0.0153956984697547 0.0116586050209547 0.0122416218071319 0.0121815679599583 0.0126672127667928 0.0135315301520264 0.0140332888092887 0.0139105180297588 0.0143491503874732 0.0149223713564276 0.0152388678724371 0.0141318714093182 0.0135781413227598 0.0144705728654741 0.0130719009192471 0.0136960749967279 0.0154804238911745 0.0155619646032941 0.0141645031292681 0.0147251539963564 0.0146753941415493 0.0151149125029856 0.0151312114744246 0.0147194165723398 0.0145624239898732 0.0141509033116656 0.0132302052415802 0.0130801712606363 0.0127591752884815 0.0146136007526947 0.0146539631029608 0.0140593306586974 0.0146605806420088 0.014128673917268 0.0130894296260865 0.0125141671261402 0.0133073260374448 0.0127952513511334 0.0116208799756797 0.0120683075164197 0.0104016194196677 0.0108507501956644 0.00996152285609327 0.0107290949436891 0.0117934994392676 0.0111839102116383 0.0113460211648659 0.0104244181455432 0.0104613106949472 0.0110419993224906 0.012426427957775 0.0129962423716529 0.0132113665322665 0.0142652161662128 0.0143193305602395 0.0147732033128436 
</DataArray>
<DataArray type="Float64" Name="U235_conc_immobile" format="ascii">
0.0127005411780196 0.00652697321113457 0.00664648142146735 0.0071780524472579 0.00784998569984681 0.00735173717027237 0.00902732454359004 0.00800439631384196 0.00901893364774615 0.0076420656488719 0.00859349611406537 0.00706007373878965 0.00690746275347952 0.00789614295746319 0.00729070782105606 0.00840039906313694 0.00760402934815409 0.00999343196313468 0.00720161205676342 0.0128520185936574 0.0103670133827217 0.0103543479000983 0.00793534169883616 0.0113762911184212 0.0115905714291355 0.0122502877678873 0.00876046558009766 0.0113826163205658 0.00839489256314456 0.00793874025984522 0.01001829074037 0.00754322888076827 0.00865189622170338 0.00795301125404797 0.00867107286791501 0.00946358067712146 0.0126818354770986 0.01283411609797 0.0130083853918109 0.00973500112290387 0.00930429869613255 0.0110628757136574 0.0105629970252582 0.0111486169653952 0.0101570786640931 0.0116970341262545 0.012897410018204 0.0124608409645108 0.0124516190004771 0.0119272923602709 0.0129935620837733 0.0131577227645755 0.0131669116736734 0.0120008345523234 0.0125452204403714 0.0128504186049632 0.0130928990893167 0.0115914486735006 0.0110622657605863 0.0110401190656221 0.010700864759237 0.0115580335421838 0.0101400793588173 0.00926871272879978 0.00981738126352945 0.010498209719179 0.00949536285197091 0.0133241234649447 0.0134088845271956 0.00991476997228724 0.0104567279167398 0.0104007082193688 0.0108531559598465 0.0116602216938533 0.0121295679963358 0.012014623951566 0.0124259103230044 0.0129636759621912 0.013261326462293 0.0122221338589864 0.0117038832717534 0.0125398091232554 0.0112305125732742 0.0118141082960862 0.013488609351816 0.0135653417189434 0.01225269135974 0.0127787169463692 0.0127319843406702 0.0131447039735289 0.0131600384000042 0.0127733418675736 0.0126260098859233 0.0122399932508163 0.0113785845500043 0.0112382042123385 0.0109389033296636 0.0126741178074572 0.0127119932870074 0.0121541322360539 0.0127182004492103 0.0122191920569489 0.0112470459796841 0.0107107441193278 0.0114507461814435 0.0109725649760918 0.00987984897919493 0.0102952904679726 0.00875115781572429 0.00916588287052216 0.00834493367263416 0.00905360005119477 0.0100401084055562 0.00947443599607104 0.00962494149607269 0.0087722902396719 0.00880648069243322 0.00934292080620946 0.0106290323958599 0.0111599413775269 0.0113611010807448 0.012347278141092 0.0123980301043996 0.0128238408139418 
</DataArray>
<DataArray type="UInt32" Name="age_sorption_type" format="ascii">
1 1 1 1 1 1 1 1 1 1 1 1 1 1 1 1 1 1 1 1 1 1 1 1 1 1 1 1 1 1 1 1 1 1 1 1 1 1 1 1 1 1 1 1 1 1 1 1 1 1 1 1 1 1 1 1 1 1 1 1 1 1 1 1 1 1 1 1 1 1 1 1 1 1 1 1 1 1 1 1 1 1 1 1 1 1 1 1 1 1 1 1 1 1 1 1 1 1 1 1 1 1 1 1 1 1 1 1 1 1 1 1 1 1 1 1 1 1 1 1 1 1 1 1 
</DataArray>
<DataArray type="UInt32" Name="U235_sorption_type" format="ascii">
2 2 2 2 2 2 2 2 2 2 2 2 2 2 2 2 2 2 2 2 2 2 2 2 2 2 2 2 2 2 2 2 2 2 2 2 2 2 2 2 2 2 2 2 2 2 2 2 2 2 2 2 2 2 2 2 2 2 2 2 2 2 2 2 2 2 2 2 2 2 2 2 2 2 2 2 2 2 2 2 2 2 2 2 2 2 2 2 2 2 2 2 2 2 2 2 2 2 2 2 2 2 2 2 2 2 2 2 2 2 2 2 2 2 2 2 2 2 2 2 2 2 2 2 
</DataArray>
<DataArray type="Float64" Name="age_distribution_coefficient" format="ascii">
0.02 0.02 0.02 0.02 0.02 0.02 0.02 0.02 0.02 0.02 0.02 0.02 0.02 0.02 0.02 0.02 0.02 0.02 0.02 0.02 0.02 0.02 0.02 0.02 0.02 0.02 0.02 0.02 0.02 0.02 0.02 0.02 0.02 0.02 0.02 0.02 0.02 0.02 0.02 0.02 0.02 0.02 0.02 0.02 0.02 0.02 0.02 0.02 0.02 0.02 0.02 0.02 0.02 0.02 0.02 0.02 0.02 0.02 0.02 0.02 0.02 0.02 0.02 0.02 0.02 0.02 0.02 0.02 0.02 0.02 0.02 0.02 0.02 0.02 0.02 0.02 0.02 0.02 0.02 0.02 0.02 0.02 0.02 0.02 0.02 0.02 0.02 0.02 0.02 0.02 0.02 0.02 0.02 0.02 0.02 0.02 0.02 0.02 0.02 0.02 0.02 0.02 0.02 0.02 0.02 0.02 0.02 0.02 0.02 0.02 0.02 0.02 0.02 0.02 0.02 0.02 0.02 0.02 0.02 0.02 0.02 0.02 0.02 0.02 
</DataArray>
<DataArray type="Float64" Name="U235_distribution_coefficient" format="ascii">
0.02 0.02 0.02 0.02 0.02 0.02 0.02 0.02 0.02 0.02 0.02 0.02 0.02 0.02 0.02 0.02 0.02 0.02 0.02 0.02 0.02 0.02 0.02 0.02 0.02 0.02 0.02 0.02 0.02 0.02 0.02 0.02 0.02 0.02 0.02 0.02 0.02 0.02 0.02 0.02 0.02 0.02 0.02 0.02 0.02 0.02 0.02 0.02 0.02 0.02 0.02 0.02 0.02 0.02 0.02 0.02 0.02 0.02 0.02 0.02 0.02 0.02 0.02 0.02 0.02 0.02 0.02 0.02 0.02 0.02 0.02 0.02 0.02 0.02 0.02 0.02 0.02 0.02 0.02 0.02 0.02 0.02 0.02 0.02 0.02 0.02 0.02 0.02 0.02 0.02 0.02 0.02 0.02 0.02 0.02 0.02 0.02 0.02 0.02 0.02 0.02 0.02 0.02 0.02 0.02 0.02 0.02 0.02 0.02 0.02 0.02 0.02 0.02 0.02 0.02 0.02 0.02 0.02 0.02 0.02 0.02 0.02 0.02 0.02 
</DataArray>
<DataArray type="Float64" Name="age_isotherm_other" format="ascii">
0 0 0 0 0 0 0 0 0 0 0 0 0 0 0 0 0 0 0 0 0 0 0 0 0 0 0 0 0 0 0 0 0 0 0 0 0 0 0 0 0 0 0 0 0 0 0 0 0 0 0 0 0 0 0 0 0 0 0 0 0 0 0 0 0 0 0 0 0 0 0 0 0 0 0 0 0 0 0 0 0 0 0 0 0 0 0 0 0 0 0 0 0 0 0 0 0 0 0 0 0 0 0 0 0 0 0 0 0 0 0 0 0 0 0 0 0 0 0 0 0 0 0 0 
</DataArray>
<DataArray type="Float64" Name="U235_isotherm_other" format="ascii">
0.5 0.5 0.5 0.5 0.5 0.5 0.5 0.5 0.5 0.5 0.5 0.5 0.5 0.5 0.5 0.5 0.5 0.5 0.5 0.5 0.5 0.5 0.5 0.5 0.5 0.5 0.5 0.5 0.5 0.5 0.5 0.5 0.5 0.5 0.5 0.5 0.5 0.5 0.5 0.5 0.5 0.5 0.5 0.5 0.5 0.5 0.5 0.5 0.5 0.5 0.5 0.5 0.5 0.5 0.5 0.5 0.5 0.5 0.5 0.5 0.5 0.5 0.5 0.5 0.5 0.5 0.5 0.5 0.5 0.5 0.5 0.5 0.5 0.5 0.5 0.5 0.5 0.5 0.5 0.5 0.5 0.5 0.5 0.5 0.5 0.5 0.5 0.5 0.5 0.5 0.5 0.5 0.5 0.5 0.5 0.5 0.5 0.5 0.5 0.5 0.5 0.5 0.5 0.5 0.5 0.5 0.5 0.5 0.5 0.5 0.5 0.5 0.5 0.5 0.5 0.5 0.5 0.5 0.5 0.5 0.5 0.5 0.5 0.5 
</DataArray>
<DataArray type="Float64" Name="age_init_conc_solid" format="ascii">
0 0 0 0 0 0 0 0 0 0 0 0 0 0 0 0 0 0 0 0 0 0 0 0 0 0 0 0 0 0 0 0 0 0 0 0 0 0 0 0 0 0 0 0 0 0 0 0 0 0 0 0 0 0 0 0 0 0 0 0 0 0 0 0 0 0 0 0 0 0 0 0 0 0 0 0 0 0 0 0 0 0 0 0 0 0 0 0 0 0 0 0 0 0 0 0 0 0 0 0 0 0 0 0 0 0 0 0 0 0 0 0 0 0 0 0 0 0 0 0 0 0 0 0 
</DataArray>
<DataArray type="Float64" Name="U235_init_conc_solid" format="ascii">
0 0 0 0 0 0 0 0 0 0 0 0 0 0 0 0 0 0 0 0 0 0 0 0 0 0 0 0 0 0 0 0 0 0 0 0 0 0 0 0 0 0 0 0 0 0 0 0 0 0 0 0 0 0 0 0 0 0 0 0 0 0 0 0 0 0 0 0 0 0 0 0 0 0 0 0 0 0 0 0 0 0 0 0 0 0 0 0 0 0 0 0 0 0 0 0 0 0 0 0 0 0 0 0 0 0 0 0 0 0 0 0 0 0 0 0 0 0 0 0 0 0 0 0 
</DataArray>
<DataArray type="Float64" Name="age_conc_solid" format="ascii">
0.0199802876920737 0.0195221195475365 0.0195397866725056 0.0196481452592957 0.0196913844990328 0.0197586019017737 0.0198846680047348 0.0198197689911798 0.0198837030338611 0.0196841758729163 0.0198233800474274 0.0196356104894717 0.0198510221546755 0.0198764872091958 0.019861930579024 0.019888310344634 0.0198704600337076 0.0199179090601197 0.019860569637528 0.0199834765899698 0.019929692005681 0.0199292771130478 0.0198781439270856 0.0199521688676568 0.0199568252278203 0.0199707929276277 0.019896264022051 0.0199523165306846 0.0198881866165888 0.0198777730444067 0.0199189237363124 0.0198681670038073 0.0198217633738442 0.019878042590862 0.0198943788083749 0.019911497791666 0.0199798791757369 0.0199830911802828 0.019986767137837 0.0199173781599559 0.0199081433587907 0.0199456947111647 0.0199350611603174 0.0199475142282819 0.0199264074620884 0.0199591229091287 0.0199844247833607 0.0199752402490352 0.0199750477120363 0.0199639933993087 0.0199864513850423 0.0199898968153126 0.0199900910811637 0.0199655513420703 0.0199770217671196 0.0199834377612109 0.0199885373624575 0.0199568996223347 0.0199456897595578 0.0199452184643996 0.0199380011497655 0.0199561870935798 0.0199260536603192 0.0199073330441474 0.0199191391838169 0.0199336895488553 0.0199122439473618 0.0199933848067594 0.0199951605859007 0.0199212286885496 0.0199327919660295 0.0199316107837173 0.0199412385628969 0.0199583558988442 0.0199682760820028 0.0199658481490681 0.0199745137376393 0.0199858286955295 0.0199920688178596 0.0199702148941305 0.0199592693175124 0.0199769129269735 0.0199492513190304 0.0199616076341224 0.0199968299413323 0.0199984360237728 0.0199708658163791 0.0199819305948555 0.0199809539565589 0.0199896238611999 0.0199899454144348 0.0199818164837354 0.01997872303775 0.0199705903339507 0.0199523794128564 0.0199494197458962 0.0199430521150329 0.0199797219016131 0.0199805167358751 0.0199687749723037 0.019980647015078 0.0199701434344053 0.019949577228337 0.0199381709591031 0.0199538989929445 0.0199437587027819 0.0199204618761507 0.019929348681839 0.0198961746464142 0.019905151572069 0.0198872916959595 0.0199026773161399 0.01992384367262 0.0199117649972548 0.0199148997201659 0.0198965136277254 0.0198964965514112 0.0199086584603332 0.0199363611750252 0.0199477060312405 0.019951974907836 0.0199728413304753 0.0199739113854712 0.0199828716089068 
</DataArray>
<DataArray type="Float64" Name="U235_conc_solid" format="ascii">
0.0199901228135526 0.0197697250253825 0.0197782103793737 0.0198301790269154 0.0198509050048742 0.0198829183906752 0.0199429531031656 0.0199119905941204 0.0199424992973947 0.0198474384494654 0.0199139666642327 0.0198241766798595 0.0199256900495122 0.0199381609115192 0.0199309688051652 0.0199440221873576 0.0199351125110087 0.0199590888440031 0.0199302410673285 0.0199917204097244 0.0199648181277904 0.0199646177176585 0.0199389277312577 0.0199760360277172 0.0199783639819074 0.0199853639867009 0.0199479964306212 0.0199761091095226 0.0199439578453762 0.0199387721186708 0.0199595759731207 0.0199340275082717 0.0199132128992401 0.0199389107270692 0.0199470474414088 0.0199556316017989 0.0199899192929389 0.0199915279553414 0.0199933690070511 0.0199585768672951 0.0199539439033355 0.0199727795592846 0.0199674467572906 0.0199736920420699 0.0199631062756531 0.0199795132681506 0.019992195519239 0.01998759238808 0.0199874958186356 0.0199819546496519 0.019993211046536 0.019994937260078 0.0199950345221777 0.0199827354658696 0.0199884852770091 0.0199917009128107 0.0199942560284721 0.019978397996955 0.0199727768020307 0.0199725404942702 0.0199689213265215 0.0199780408608428 0.0199629282909856 0.0199535409499919 0.0199594608682208 0.0199667584285534 0.0199560008332813 0.0199966849998465 0.0199975748384669 0.0199605084356579 0.0199663087790997 0.0199657157720773 0.0199705450380543 0.0199791282458332 0.019984101044912 0.019982884074563 0.0199872279210456 0.019992898664731 0.0199960255558368 0.019985073247528 0.0199795866336729 0.0199884305626784 0.0199745629678748 0.0199807585580924 0.0199984113804096 0.0199992162337478 0.0199853993079834 0.0199909456936628 0.0199904561463152 0.0199948004371922 0.0199949615587449 0.0199908885492335 0.0199893380896903 0.0199852614666601 0.0199761317827344 0.0199746472424326 0.0199714547458587 0.0199898392406148 0.0199902376023469 0.0199843517122452 0.0199903029101288 0.0199850377637478 0.0199747274171048 0.0199690087148313 0.0199768940788876 0.0199718094546274 0.0199601250463607 0.0199645819269789 0.0199479430969098 0.0199524438439383 0.0199434955536124 0.0199512072350464 0.0199618248202135 0.0199557628204786 0.0199573429881754 0.0199481232299971 0.0199481740502414 0.0199542279126392 0.0199681067034346 0.0199737912517848 0.0199759309326799 0.0199863901634401 0.019986926553654 0.0199914175045438 
</DataArray>
<DataArray type="Float64" Name="age_conc_immobile_solid" format="ascii">
0.000292838209612375 0.000159526942367756 0.000162146281961172 0.000173785829656205 0.000188450578431856 0.00017758650303705 0.000214005348039239 0.000191809351960219 0.00021382363588925 0.000183924715291584 0.000204607404767543 0.000171202075659831 0.000167846113272198 0.000189454694230512 0.000176246468645067 0.000200433357837116 0.000183094329529759 0.00023485865519327 0.00017429476930381 0.000296067286281957 0.000242902812723296 0.000242630808934376 0.000190310197497299 0.000264553158561341 0.000269138600645979 0.000283237566847335 0.000208233924664671 0.000264688536732416 0.000200315532006922 0.000190384141071337 0.000235394614392156 0.000181770007493793 0.000205872257717423 0.000190694599992198 0.000206297634698317 0.000223444355373762 0.000292439107831268 0.000295685330638108 0.000299400634201926 0.00022929676725615 0.000220012061456434 0.000257845835291885 0.000247114758296472 0.000259685992891781 0.000238394708913767 0.00027141614428511 0.000297033116630837 0.00028772632711513 0.000287529940206353 0.000276341161621649 0.000299084385516735 0.000302575300993178 0.000302770764790703 0.0002779145733439 0.000289525992108105 0.000296031508259144 0.000301196969428807 0.000269159432417747 0.000257833991347465 0.000257358485700171 0.000250075302836803 0.000268443846519225 0.000238029373801094 0.000219242282754108 0.000231072962001666 0.000245725012134587 0.000224131022027979 0.000306112333677934 0.000307913969395095 0.000233172100419093 0.000244832436142638 0.000243631359199165 0.000253344255335856 0.000270630603040528 0.000280665776185774 0.000278210360595175 0.000286983007749465 0.000298447427128552 0.000304777357448742 0.000282637428186365 0.000271562826455196 0.000289411457309483 0.000261438018384942 0.000273921499934558 0.00030960847782349 0.000311239292065883 0.000283290062585363 0.000294503079927127 0.000293507882830986 0.000302298250059711 0.000302624229488493 0.000294388331446797 0.000291248479797464 0.000283018066233312 0.000264604104831604 0.000261603425212726 0.000255183505769631 0.000292272015053895 0.000293079262059217 0.000281186613173947 0.000293211612840176 0.00028257347834536 0.00026178859252173 0.000250283342522804 0.000266146520748896 0.000255905027022669 0.000232417599513594 0.000241366150328395 0.000208032388393354 0.000217015003913288 0.000199230457121866 0.000214581898873783 0.000235869988785352 0.000223678204232766 0.000226920423297317 0.000208488362910864 0.000209226213898944 0.000220839986449812 0.000248528559155501 0.000259924847433057 0.00026422733064533 0.000285304323324257 0.000286386611204791 0.000295464066256872 
</DataArray>
<DataArray type="Float64" Name="U235_conc_immobile_solid" format="ascii">