<?xml version="1.0"?>
<VTKFile type="UnstructuredGrid" version="0.1" byte_order="LittleEndian">
<UnstructuredGrid>
<Piece NumberOfPoints="69" NumberOfCells="124">
<Points>
<DataArray type="Float64" NumberOfComponents="3" format="ascii">
0.0000000000 1.0000000000 0.0000000000 1.0000000000 1.0000000000 0.0000000000 1.0000000000 0.0000000000 0.0000000000 0.0000000000 0.0000000000 0.0000000000 0.2500000000 -0.0000000000 0.0000000000 0.0000000000 0.2500000000 0.0000000000 0.5000000000 0.5000000000 -0.0000000000 0.7500000000 1.0000000000 0.0000000000 0.6875000000 0.8750000000 0.0000000000 0.6250000000 0.7500000000 0.0000000000 0.5625000000 0.6250000000 0.0000000000 0.1250000000 0.3125000000 0.0000000000 0.2500000000 0.3750000000 0.0000000000 0.3750000000 0.4375000000 0.0000000000 0.4375000000 0.3750000000 0.0000000000 0.3750000000 0.2500000000 0.0000000000 0.3125000000 0.1250000000 0.0000000000 1.0000000000 0.8333333333 0.0000000000 1.0000000000 0.6666666667 0.0000000000 1.0000000000 0.5000000000 0.0000000000 1.0000000000 0.3333333333 0.0000000000 1.0000000000 0.1666666667 0.0000000000 0.8750000000 1.0000000000 0.0000000000 0.5625000000 1.0000000000 0.0000000000 0.3750000000 1.0000000000 0.0000000000 0.1875000000 1.0000000000 0.0000000000 0.0000000000 0.8125000000 0.0000000000 0.0000000000 0.6250000000 0.0000000000 0.0000000000 0.4375000000 0.0000000000 0.0000000000 0.1250000000 0.0000000000 0.1250000000 0.0000000000 0.0000000000 0.4375000000 0.0000000000 0.0000000000 0.6250000000 0.0000000000 0.0000000000 0.8125000000 0.0000000000 0.0000000000 0.2798796021 0.8344274147 0.0000000000 0.2645244370 0.5156353158 0.0000000000 0.4139414070 0.6056325264 0.0000000000 0.4492710540 0.8556512409 0.0000000000 0.2758946705 0.6605885316 0.0000000000 0.1390078960 0.7261831611 0.0000000000 0.1492912419 0.4458279357 0.0000000000 0.5014585693 0.7367466305 0.0000000000 0.1392858752 0.5733980611 0.0000000000 0.3813620468 0.7403859221 0.0000000000 0.1271010714 0.8709480662 0.0000000000 0.5677751206 0.8470224641 0.0000000000 0.5698670718 0.3776209365 0.0000000000 0.7125974781 0.6384669132 0.0000000000 0.8608728669 0.2520652360 0.0000000000 0.8578792739 0.7535325209 0.0000000000 0.5447576767 0.1431838882 0.0000000000 0.7150899341 0.1571595685 0.0000000000 0.8612746698 0.5794807698 0.0000000000 0.7533843026 0.4929444342 0.0000000000 0.8055298449 0.8871112287 0.0000000000 0.8656940848 0.4098367392 0.0000000000 0.7182603949 0.3456402072 0.0000000000 0.6323653418 0.5029675641 0.0000000000 0.6110846259 0.2575059958 0.0000000000 0.4945749329 0.2625170378 0.0000000000 0.7385779517 0.7773678856 0.0000000000 0.8769890165 0.1160638339 0.0000000000 0.9063795342 0.9020858333 0.0000000000 0.4287911519 0.1545544543 0.0000000000 0.2403886547 0.2418881479 0.0000000000 0.1840276181 0.1117324051 0.0000000000 0.3381944444 0.3381944444 0.0000000000 0.1008171453 0.1888570370 0.0000000000 0.0843524222 0.0864517127 0.0000000000 
</DataArray>
</Points>
<Cells>
<DataArray type="UInt32" Name="connectivity" format="ascii">
7 8 8 9 9 10 10 6 5 11 11 12 12 13 13 6 6 14 14 15 15 16 16 4 13 36 35 13 6 36 5 11 28 8 7 23 36 38 35 34 39 38 28 40 42 24 37 23 28 42 27 24 34 37 24 25 34 34 38 43 23 37 45 8 23 45 10 36 6 28 11 40 0 26 44 13 35 12 25 0 44 26 27 39 12 40 11 38 39 42 37 34 43 34 44 39 10 41 36 25 44 34 12 35 40 35 38 42 10 9 41 36 41 43 8 45 9 9 45 41 27 42 39 36 43 38 26 39 44 35 42 40 37 41 45 37 43 41 46 56 57 53 57 56 49 47 52 4 31 16 49 60 47 52 55 19 51 48 56 52 53 55 31 32 50 54 49 62 17 62 49 17 49 18 21 20 48 32 51 50 33 51 32 18 49 52 1 62 17 53 56 55 18 52 19 52 47 53 16 31 63 51 61 48 20 19 55 14 46 6 51 56 58 10 47 9 55 56 48 8 54 7 22 7 54 20 55 48 33 61 51 33 2 61 31 50 63 6 46 57 21 61 2 10 57 47 46 58 56 51 58 50 53 47 57 14 59 46 9 47 60 10 6 57 54 60 49 8 60 54 15 59 14 1 22 62 21 48 61 8 9 60 46 59 58 16 63 15 15 63 59 50 59 63 22 54 62 50 58 59 14 6 13 11 67 64 4 65 30 4 16 65 13 12 66 15 14 66 65 64 67 16 15 64 12 11 64 15 66 64 12 64 66 11 5 67 16 64 65 14 13 66 3 68 29 3 30 68 29 67 5 30 65 68 29 68 67 67 68 65 
</DataArray>
<DataArray type="UInt32" Name="offsets" format="ascii">
2 4 6 8 10 12 14 16 18 20 22 24 27 30 33 36 39 42 45 48 51 54 57 60 63 66 69 72 75 78 81 84 87 90 93 96 99 102 105 108 111 114 117 120 123 126 129 132 135 138 141 144 147 150 153 156 159 162 165 168 171 174 177 180 183 186 189 192 195 198 201 204 207 210 213 216 219 222 225 228 231 234 237 240 243 246 249 252 255 258 261 264 267 270 273 276 279 282 285 288 291 294 297 300 303 306 309 312 315 318 321 324 327 330 333 336 339 342 345 348 351 354 357 360 
</DataArray>
<DataArray type="UInt32" Name="types" format="ascii">
3 3 3 3 3 3 3 3 3 3 3 3 5 5 5 5 5 5 5 5 5 5 5 5 5 5 5 5 5 5 5 5 5 5 5 5 5 5 5 5 5 5 5 5 5 5 5 5 5 5 5 5 5 5 5 5 5 5 5 5 5 5 5 5 5 5 5 5 5 5 5 5 5 5 5 5 5 5 5 5 5 5 5 5 5 5 5 5 5 5 5 5 5 5 5 5 5 5 5 5 5 5 5 5 5 5 5 5 5 5 5 5 5 5 5 5 5 5 5 5 5 5 5 5 
</DataArray>
</Cells>
<CellData Scalars="age_diffusion_rate_immobile,U235_diffusion_rate_immobile,age_init_conc_immobile,U235_init_conc_immobile,age_conc_immobile,U235_conc_immobile,age_sorption_type,U235_sorption_type,age_distribution_coefficient,U235_distribution_coefficient,age_isotherm_other,U235_isotherm_other,age_init_conc_solid,U235_init_conc_solid,age_conc_solid,U235_conc_solid,age_conc_immobile_solid,U235_conc_immobile_solid,age_conc,U235_conc," Vectors="" Tensors="">
<DataArray type="Float64" Name="age_diffusion_rate_immobile" format="ascii">
0.0100000000 0.0100000000 0.0100000000 0.0100000000 0.0100000000 0.0100000000 0.0100000000 0.0100000000 0.0100000000 0.0100000000 0.0100000000 0.0100000000 0.0100000000 0.0100000000 0.0100000000 0.0100000000 0.0100000000 0.0100000000 0.0100000000 0.0100000000 0.0100000000 0.0100000000 0.0100000000 0.0100000000 0.0100000000 0.0100000000 0.0100000000 0.0100000000 0.0100000000 0.0100000000 0.0100000000 0.0100000000 0.0100000000 0.0100000000 0.0100000000 0.0100000000 0.0100000000 0.0100000000 0.0100000000 0.0100000000 0.0100000000 0.0100000000 0.0100000000 0.0100000000 0.0100000000 0.0100000000 0.0100000000 0.0100000000 0.0100000000 0.0100000000 0.0100000000 0.0100000000 0.0100000000 0.0100000000 0.0100000000 0.0100000000 0.0100000000 0.0100000000 0.0100000000 0.0100000000 0.0100000000 0.0100000000 0.0100000000 0.0100000000 0.0100000000 0.0100000000 0.0100000000 0.0100000000 0.0100000000 0.0100000000 0.0100000000 0.0100000000 0.0100000000 0.0100000000 0.0100000000 0.0100000000 0.0100000000 0.0100000000 0.0100000000 0.0100000000 0.0100000000 0.0100000000 0.0100000000 0.0100000000 0.0100000000 0.0100000000 0.0100000000 0.0100000000 0.0100000000 0.0100000000 0.0100000000 0.0100000000 0.0100000000 0.0100000000 0.0100000000 0.0100000000 0.0100000000 0.0100000000 0.0100000000 0.0100000000 0.0100000000 0.0100000000 0.0100000000 0.0100000000 0.0100000000 0.0100000000 0.0100000000 0.0100000000 0.0100000000 0.0100000000 0.0100000000 0.0100000000 0.0100000000 0.0100000000 0.0100000000 0.0100000000 0.0100000000 0.0100000000 0.0100000000 0.0100000000 0.0100000000 0.0100000000 0.0100000000 0.0100000000 
</DataArray>
<DataArray type="Float64" Name="U235_diffusion_rate_immobile" format="ascii">
0.0100000000 0.0100000000 0.0100000000 0.0100000000 0.0100000000 0.0100000000 0.0100000000 0.0100000000 0.0100000000 0.0100000000 0.0100000000 0.0100000000 0.0100000000 0.0100000000 0.0100000000 0.0100000000 0.0100000000 0.0100000000 0.0100000000 0.0100000000 0.0100000000 0.0100000000 0.0100000000 0.0100000000 0.0100000000 0.0100000000 0.0100000000 0.0100000000 0.0100000000 0.0100000000 0.0100000000 0.0100000000 0.0100000000 0.0100000000 0.0100000000 0.0100000000 0.0100000000 0.0100000000 0.0100000000 0.0100000000 0.0100000000 0.0100000000 0.0100000000 0.0100000000 0.0100000000 0.0100000000 0.0100000000 0.0100000000 0.0100000000 0.0100000000 0.0100000000 0.0100000000 0.0100000000 0.0100000000 0.0100000000 0.0100000000 0.0100000000 0.0100000000 0.0100000000 0.0100000000 0.0100000000 0.0100000000 0.0100000000 0.0100000000 0.0100000000 0.0100000000 0.0100000000 0.0100000000 0.0100000000 0.0100000000 0.0100000000 0.0100000000 0.0100000000 0.0100000000 0.0100000000 0.0100000000 0.0100000000 0.0100000000 0.0100000000 0.0100000000 0.0100000000 0.0100000000 0.0100000000 0.0100000000 0.0100000000 0.0100000000 0.0100000000 0.0100000000 0.0100000000 0.0100000000 0.0100000000 0.0100000000 0.0100000000 0.0100000000 0.0100000000 0.0100000000 0.0100000000 0.0100000000 0.0100000000 0.0100000000 0.0100000000 0.0100000000 0.0100000000 0.0100000000 0.0100000000 0.0100000000 0.0100000000 0.0100000000 0.0100000000 0.0100000000 0.0100000000 0.0100000000 0.0100000000 0.0100000000 0.0100000000 0.0100000000 0.0100000000 0.0100000000 0.0100000000 0.0100000000 0.0100000000 0.0100000000 0.0100000000 0.0100000000 
</DataArray>
<DataArray type="Float64" Name="age_init_conc_immobile" format="ascii">
0.0000000000 0.0000000000 0.0000000000 0.0000000000 0.0000000000 0.0000000000 0.0000000000 0.0000000000 0.0000000000 0.0000000000 0.0000000000 0.0000000000 0.0000000000 0.0000000000 0.0000000000 0.0000000000 0.0000000000 0.0000000000 0.0000000000 0.0000000000 0.0000000000 0.0000000000 0.0000000000 0.0000000000 0.0000000000 0.0000000000 0.0000000000 0.0000000000 0.0000000000 0.0000000000 0.0000000000 0.0000000000 0.0000000000 0.0000000000 0.0000000000 0.0000000000 0.0000000000 0.0000000000 0.0000000000 0.0000000000 0.0000000000 0.0000000000 0.0000000000 0.0000000000 0.0000000000 0.0000000000 0.0000000000 0.0000000000 0.0000000000 0.0000000000 0.0000000000 0.0000000000 0.0000000000 0.0000000000 0.0000000000 0.0000000000 0.0000000000 0.0000000000 0.0000000000 0.0000000000 0.0000000000 0.0000000000 0.0000000000 0.0000000000 0.0000000000 0.0000000000 0.0000000000 0.0000000000 0.0000000000 0.0000000000 0.0000000000 0.0000000000 0.0000000000 0.0000000000 0.0000000000 0.0000000000 0.0000000000 0.0000000000 0.0000000000 0.0000000000 0.0000000000 0.0000000000 0.0000000000 0.0000000000 0.0000000000 0.0000000000 0.0000000000 0.0000000000 0.0000000000 0.0000000000 0.0000000000 0.0000000000 0.0000000000 0.0000000000 0.0000000000 0.0000000000 0.0000000000 0.0000000000 0.0000000000 0.0000000000 0.0000000000 0.0000000000 0.0000000000 0.0000000000 0.0000000000 0.0000000000 0.0000000000 0.0000000000 0.0000000000 0.0000000000 0.0000000000 0.0000000000 0.0000000000 0.0000000000 0.0000000000 0.0000000000 0.0000000000 0.0000000000 0.0000000000 0.0000000000 0.0000000000 0.0000000000 0.0000000000 0.0000000000 
</DataArray>
<DataArray type="Float64" Name="U235_init_conc_immobile" format="ascii">
0.0000000000 0.0000000000 0.0000000000 0.0000000000 0.0000000000 0.0000000000 0.0000000000 0.0000000000 0.0000000000 0.0000000000 0.0000000000 0.0000000000 0.0000000000 0.0000000000 0.0000000000 0.0000000000 0.0000000000 0.0000000000 0.0000000000 0.0000000000 0.0000000000 0.0000000000 0.0000000000 0.0000000000 0.0000000000 0.0000000000 0.0000000000 0.0000000000 0.0000000000 0.0000000000 0.0000000000 0.0000000000 0.0000000000 0.0000000000 0.0000000000 0.0000000000 0.0000000000 0.0000000000 0.0000000000 0.0000000000 0.0000000000 0.0000000000 0.0000000000 0.0000000000 0.0000000000 0.0000000000 0.0000000000 0.0000000000 0.0000000000 0.0000000000 0.0000000000 0.0000000000 0.0000000000 0.0000000000 0.0000000000 0.0000000000 0.0000000000 0.0000000000 0.0000000000 0.0000000000 0.0000000000 0.0000000000 0.0000000000 0.0000000000 0.0000000000 0.0000000000 0.0000000000 0.0000000000 0.0000000000 0.0000000000 0.0000000000 0.0000000000 0.0000000000 0.0000000000 0.0000000000 0.0000000000 0.0000000000 0.0000000000 0.0000000000 0.0000000000 0.0000000000 0.0000000000 0.0000000000 0.0000000000 0.0000000000 0.0000000000 0.0000000000 0.0000000000 0.0000000000 0.0000000000 0.0000000000 0.0000000000 0.0000000000 0.0000000000 0.0000000000 0.0000000000 0.0000000000 0.0000000000 0.0000000000 0.0000000000 0.0000000000 0.0000000000 0.0000000000 0.0000000000 0.0000000000 0.0000000000 0.0000000000 0.0000000000 0.0000000000 0.0000000000 0.0000000000 0.0000000000 0.0000000000 0.0000000000 0.0000000000 0.0000000000 0.0000000000 0.0000000000 0.0000000000 0.0000000000 0.0000000000 0.0000000000 0.0000000000 0.0000000000 
</DataArray>
<DataArray type="Float64" Name="age_conc_immobile" format="ascii">
0.0000000000 0.0000000000 0.0000000000 0.0000000000 0.0000000000 0.0000000000 0.0000000000 0.0000000000 0.0000000000 0.0000000000 0.0000000000 0.0000000000 0.0000000000 0.0000000000 0.0000000000 0.0000000000 0.0000000000 0.0000000000 0.0000000000 0.0000000000 0.0000000000 0.0000000000 0.0000000000 0.0000000000 0.0000000000 0.0000000000 0.0000000000 0.0000000000 0.0000000000 0.0000000000 0.0000000000 0.0000000000 0.0000000000 0.0000000000 0.0000000000 0.0000000000 0.0000000000 0.0000000000 0.0000000000 0.0000000000 0.0000000000 0.0000000000 0.0000000000 0.0000000000 0.0000000000 0.0000000000 0.0000000000 0.0000000000 0.0000000000 0.0000000000 0.0000000000 0.0000000000 0.0000000000 0.0000000000 0.0000000000 0.0000000000 0.0000000000 0.0000000000 0.0000000000 0.0000000000 0.0000000000 0.0000000000 0.0000000000 0.0000000000 0.0000000000 0.0000000000 0.0000000000 0.0000000000 0.0000000000 0.0000000000 0.0000000000 0.0000000000 0.0000000000 0.0000000000 0.0000000000 0.0000000000 0.0000000000 0.0000000000 0.0000000000 0.0000000000 0.0000000000 0.0000000000 0.0000000000 0.0000000000 0.0000000000 0.0000000000 0.0000000000 0.0000000000 0.0000000000 0.0000000000 0.0000000000 0.0000000000 0.0000000000 0.0000000000 0.0000000000 0.0000000000 0.0000000000 0.0000000000 0.0000000000 0.0000000000 0.0000000000 0.0000000000 0.0000000000 0.0000000000 0.0000000000 0.0000000000 0.0000000000 0.0000000000 0.0000000000 0.0000000000 0.0000000000 0.0000000000 0.0000000000 0.0000000000 0.0000000000 0.0000000000 0.0000000000 0.0000000000 0.0000000000 0.0000000000 0.0000000000 0.0000000000 0.0000000000 0.0000000000 
</DataArray>
<DataArray type="Float64" Name="U235_conc_immobile" format="ascii">
0.0000000000 0.0000000000 0.0000000000 0.0000000000 0.0000000000 0.0000000000 0.0000000000 0.0000000000 0.0000000000 0.0000000000 0.0000000000 0.0000000000 0.0000000000 0.0000000000 0.0000000000 0.0000000000 0.0000000000 0.0000000000 0.0000000000 0.0000000000 0.0000000000 0.0000000000 0.0000000000 0.0000000000 0.0000000000 0.0000000000 0.0000000000 0.0000000000 0.0000000000 0.0000000000 0.0000000000 0.0000000000 0.0000000000 0.0000000000 0.0000000000 0.0000000000 0.0000000000 0.0000000000 0.0000000000 0.0000000000 0.0000000000 0.0000000000 0.0000000000 0.0000000000 0.0000000000 0.0000000000 0.0000000000 0.0000000000 0.0000000000 0.0000000000 0.0000000000 0.0000000000 0.0000000000 0.0000000000 0.0000000000 0.0000000000 0.0000000000 0.0000000000 0.0000000000 0.0000000000 0.0000000000 0.0000000000 0.0000000000 0.0000000000 0.0000000000 0.0000000000 0.0000000000 0.0000000000 0.0000000000 0.0000000000 0.0000000000 0.0000000000 0.0000000000 0.0000000000 0.0000000000 0.0000000000 0.0000000000 0.0000000000 0.0000000000 0.0000000000 0.0000000000 0.0000000000 0.0000000000 0.0000000000 0.0000000000 0.0000000000 0.0000000000 0.0000000000 0.0000000000 0.0000000000 0.0000000000 0.0000000000 0.0000000000 0.0000000000 0.0000000000 0.0000000000 0.0000000000 0.0000000000 0.0000000000 0.0000000000 0.0000000000 0.0000000000 0.0000000000 0.0000000000 0.0000000000 0.0000000000 0.0000000000 0.0000000000 0.0000000000 0.0000000000 0.0000000000 0.0000000000 0.0000000000 0.0000000000 0.0000000000 0.0000000000 0.0000000000 0.0000000000 0.0000000000 0.0000000000 0.0000000000 0.0000000000 0.0000000000 0.0000000000 
</DataArray>
<DataArray type="UInt32" Name="age_sorption_type" format="ascii">
1 1 1 1 1 1 1 1 1 1 1 1 1 1 1 1 1 1 1 1 1 1 1 1 1 1 1 1 1 1 1 1 1 1 1 1 1 1 1 1 1 1 1 1 1 1 1 1 1 1 1 1 1 1 1 1 1 1 1 1 1 1 1 1 1 1 1 1 1 1 1 1 1 1 1 1 1 1 1 1 1 1 1 1 1 1 1 1 1 1 1 1 1 1 1 1 1 1 1 1 1 1 1 1 1 1 1 1 1 1 1 1 1 1 1 1 1 1 1 1 1 1 1 1 
</DataArray>
<DataArray type="UInt32" Name="U235_sorption_type" format="ascii">
2 2 2 2 2 2 2 2 2 2 2 2 2 2 2 2 2 2 2 2 2 2 2 2 2 2 2 2 2 2 2 2 2 2 2 2 2 2 2 2 2 2 2 2 2 2 2 2 2 2 2 2 2 2 2 2 2 2 2 2 2 2 2 2 2 2 2 2 2 2 2 2 2 2 2 2 2 2 2 2 2 2 2 2 2 2 2 2 2 2 2 2 2 2 2 2 2 2 2 2 2 2 2 2 2 2 2 2 2 2 2 2 2 2 2 2 2 2 2 2 2 2 2 2 
</DataArray>
<DataArray type="Float64" Name="age_distribution_coefficient" format="ascii">
0.0200000000 0.0200000000 0.0200000000 0.0200000000 0.0200000000 0.0200000000 0.0200000000 0.0200000000 0.0200000000 0.0200000000 0.0200000000 0.0200000000 0.0200000000 0.0200000000 0.0200000000 0.0200000000 0.0200000000 0.0200000000 0.0200000000 0.0200000000 0.0200000000 0.0200000000 0.0200000000 0.0200000000 0.0200000000 0.0200000000 0.0200000000 0.0200000000 0.0200000000 0.0200000000 0.0200000000 0.0200000000 0.0200000000 0.0200000000 0.0200000000 0.0200000000 0.0200000000 0.0200000000 0.0200000000 0.0200000000 0.0200000000 0.0200000000 0.0200000000 0.0200000000 0.0200000000 0.0200000000 0.0200000000 0.0200000000 0.0200000000 0.0200000000 0.0200000000 0.0200000000 0.0200000000 0.0200000000 0.0200000000 0.0200000000 0.0200000000 0.0200000000 0.0200000000 0.0200000000 0.0200000000 0.0200000000 0.0200000000 0.0200000000 0.0200000000 0.0200000000 0.0200000000 0.0200000000 0.0200000000 0.0200000000 0.0200000000 0.0200000000 0.0200000000 0.0200000000 0.0200000000 0.0200000000 0.0200000000 0.0200000000 0.0200000000 0.0200000000 0.0200000000 0.0200000000 0.0200000000 0.0200000000 0.0200000000 0.0200000000 0.0200000000 0.0200000000 0.0200000000 0.0200000000 0.0200000000 0.0200000000 0.0200000000 0.0200000000 0.0200000000 0.0200000000 0.0200000000 0.0200000000 0.0200000000 0.0200000000 0.0200000000 0.0200000000 0.0200000000 0.0200000000 0.0200000000 0.0200000000 0.0200000000 0.0200000000 0.0200000000 0.0200000000 0.0200000000 0.0200000000 0.0200000000 0.0200000000 0.0200000000 0.0200000000 0.0200000000 0.0200000000 0.0200000000 0.0200000000 0.0200000000 0.0200000000 0.0200000000 0.0200000000 
</DataArray>
<DataArray type="Float64" Name="U235_distribution_coefficient" format="ascii">
0.0200000000 0.0200000000 0.0200000000 0.0200000000 0.0200000000 0.0200000000 0.0200000000 0.0200000000 0.0200000000 0.0200000000 0.0200000000 0.0200000000 0.0200000000 0.0200000000 0.0200000000 0.0200000000 0.0200000000 0.0200000000 0.0200000000 0.0200000000 0.0200000000 0.0200000000 0.0200000000 0.0200000000 0.0200000000 0.0200000000 0.0200000000 0.0200000000 0.0200000000 0.0200000000 0.0200000000 0.0200000000 0.0200000000 0.0200000000 0.0200000000 0.0200000000 0.0200000000 0.0200000000 0.0200000000 0.0200000000 0.0200000000 0.0200000000 0.0200000000 0.0200000000 0.0200000000 0.0200000000 0.0200000000 0.0200000000 0.0200000000 0.0200000000 0.0200000000 0.0200000000 0.0200000000 0.0200000000 0.0200000000 0.0200000000 0.0200000000 0.0200000000 0.0200000000 0.0200000000 0.0200000000 0.0200000000 0.0200000000 0.0200000000 0.0200000000 0.0200000000 0.0200000000 0.0200000000 0.0200000000 0.0200000000 0.0200000000 0.0200000000 0.0200000000 0.0200000000 0.0200000000 0.0200000000 0.0200000000 0.0200000000 0.0200000000 0.0200000000 0.0200000000 0.0200000000 0.0200000000 0.0200000000 0.0200000000 0.0200000000 0.0200000000 0.0200000000 0.0200000000 0.0200000000 0.0200000000 0.0200000000 0.0200000000 0.0200000000 0.0200000000 0.0200000000 0.0200000000 0.0200000000 0.0200000000 0.0200000000 0.0200000000 0.0200000000 0.0200000000 0.0200000000 0.0200000000 0.0200000000 0.0200000000 0.0200000000 0.0200000000 0.0200000000 0.0200000000 0.0200000000 0.0200000000 0.0200000000 0.0200000000 0.0200000000 0.0200000000 0.0200000000 0.0200000000 0.0200000000 0.0200000000 0.0200000000 0.0200000000 0.0200000000 
</DataArray>
<DataArray type="Float64" Name="age_isotherm_other" format="ascii">
0.0000000000 0.0000000000 0.0000000000 0.0000000000 0.0000000000 0.0000000000 0.0000000000 0.0000000000 0.0000000000 0.0000000000 0.0000000000 0.0000000000 0.0000000000 0.0000000000 0.0000000000 0.0000000000 0.0000000000 0.0000000000 0.0000000000 0.0000000000 0.0000000000 0.0000000000 0.0000000000 0.0000000000 0.0000000000 0.0000000000 0.0000000000 0.0000000000 0.0000000000 0.0000000000 0.0000000000 0.0000000000 0.0000000000 0.0000000000 0.0000000000 0.0000000000 0.0000000000 0.0000000000 0.0000000000 0.0000000000 0.0000000000 0.0000000000 0.0000000000 0.0000000000 0.0000000000 0.0000000000 0.0000000000 0.0000000000 0.0000000000 0.0000000000 0.0000000000 0.0000000000 0.0000000000 0.0000000000 0.0000000000 0.0000000000 0.0000000000 0.0000000000 0.0000000000 0.0000000000 0.0000000000 0.0000000000 0.0000000000 0.0000000000 0.0000000000 0.0000000000 0.0000000000 0.0000000000 0.0000000000 0.0000000000 0.0000000000 0.0000000000 0.0000000000 0.0000000000 0.0000000000 0.0000000000 0.0000000000 0.0000000000 0.0000000000 0.0000000000 0.0000000000 0.0000000000 0.0000000000 0.0000000000 0.0000000000 0.0000000000 0.0000000000 0.0000000000 0.0000000000 0.0000000000 0.0000000000 0.0000000000 0.0000000000 0.0000000000 0.0000000000 0.0000000000 0.0000000000 0.0000000000 0.0000000000 0.0000000000 0.0000000000 0.0000000000 0.0000000000 0.0000000000 0.0000000000 0.0000000000 0.0000000000 0.0000000000 0.0000000000 0.0000000000 0.0000000000 0.0000000000 0.0000000000 0.0000000000 0.0000000000 0.0000000000 0.0000000000 0.0000000000 0.0000000000 0.0000000000 0.0000000000 0.0000000000 0.0000000000 0.0000000000 
</DataArray>
<DataArray type="Float64" Name="U235_isotherm_other" format="ascii">
0.5000000000 0.5000000000 0.5000000000 0.5000000000 0.5000000000 0.5000000000 0.5000000000 0.5000000000 0.5000000000 0.5000000000 0.5000000000 0.5000000000 0.5000000000 0.5000000000 0.5000000000 0.5000000000 0.5000000000 0.5000000000 0.5000000000 0.5000000000 0.5000000000 0.5000000000 0.5000000000 0.5000000000 0.5000000000 0.5000000000 0.5000000000 0.5000000000 0.5000000000 0.5000000000 0.5000000000 0.5000000000 0.5000000000 0.5000000000 0.5000000000 0.5000000000 0.5000000000 0.5000000000 0.5000000000 0.5000000000 0.5000000000 0.5000000000 0.5000000000 0.5000000000 0.5000000000 0.5000000000 0.5000000000 0.5000000000 0.5000000000 0.5000000000 0.5000000000 0.5000000000 0.5000000000 0.5000000000 0.5000000000 0.5000000000 0.5000000000 0.5000000000 0.5000000000 0.5000000000 0.5000000000 0.5000000000 0.5000000000 0.5000000000 0.5000000000 0.5000000000 0.5000000000 0.5000000000 0.5000000000 0.5000000000 0.5000000000 0.5000000000 0.5000000000 0.5000000000 0.5000000000 0.5000000000 0.5000000000 0.5000000000 0.5000000000 0.5000000000 0.5000000000 0.5000000000 0.5000000000 0.5000000000 0.5000000000 0.5000000000 0.5000000000 0.5000000000 0.5000000000 0.5000000000 0.5000000000 0.5000000000 0.5000000000 0.5000000000 0.5000000000 0.5000000000 0.5000000000 0.5000000000 0.5000000000 0.5000000000 0.5000000000 0.5000000000 0.5000000000 0.5000000000 0.5000000000 0.5000000000 0.5000000000 0.5000000000 0.5000000000 0.5000000000 0.5000000000 0.5000000000 0.5000000000 0.5000000000 0.5000000000 0.5000000000 0.5000000000 0.5000000000 0.5000000000 0.5000000000 0.5000000000 0.5000000000 0.5000000000 0.5000000000 
</DataArray>
<DataArray type="Float64" Name="age_init_conc_solid" format="ascii">
0.0000000000 0.0000000000 0.0000000000 0.0000000000 0.0000000000 0.0000000000 0.0000000000 0.0000000000 0.0000000000 0.0000000000 0.0000000000 0.0000000000 0.0000000000 0.0000000000 0.0000000000 0.0000000000 0.0000000000 0.0000000000 0.0000000000 0.0000000000 0.0000000000 0.0000000000 0.0000000000 0.0000000000 0.0000000000 0.0000000000 0.0000000000 0.0000000000 0.0000000000 0.0000000000 0.0000000000 0.0000000000 0.0000000000 0.0000000000 0.0000000000 0.0000000000 0.0000000000 0.0000000000 0.0000000000 0.0000000000 0.0000000000 0.0000000000 0.0000000000 0.0000000000 0.0000000000 0.0000000000 0.0000000000 0.0000000000 0.0000000000 0.0000000000 0.0000000000 0.0000000000 0.0000000000 0.0000000000 0.0000000000 0.0000000000 0.0000000000 0.0000000000 0.0000000000 0.0000000000 0.0000000000 0.0000000000 0.0000000000 0.0000000000 0.0000000000 0.0000000000 0.0000000000 0.0000000000 0.0000000000 0.0000000000 0.0000000000 0.0000000000 0.0000000000 0.0000000000 0.0000000000 0.0000000000 0.0000000000 0.0000000000 0.0000000000 0.0000000000 0.0000000000 0.0000000000 0.0000000000 0.0000000000 0.0000000000 0.0000000000 0.0000000000 0.0000000000 0.0000000000 0.0000000000 0.0000000000 0.0000000000 0.0000000000 0.0000000000 0.0000000000 0.0000000000 0.0000000000 0.0000000000 0.0000000000 0.0000000000 0.0000000000 0.0000000000 0.0000000000 0.0000000000 0.0000000000 0.0000000000 0.0000000000 0.0000000000 0.0000000000 0.0000000000 0.0000000000 0.0000000000 0.0000000000 0.0000000000 0.0000000000 0.0000000000 0.0000000000 0.0000000000 0.0000000000 0.0000000000 0.0000000000 0.0000000000 0.0000000000 0.0000000000 
</DataArray>
<DataArray type="Float64" Name="U235_init_conc_solid" format="ascii">
0.0000000000 0.0000000000 0.0000000000 0.0000000000 0.0000000000 0.0000000000 0.0000000000 0.0000000000 0.0000000000 0.0000000000 0.0000000000 0.0000000000 0.0000000000 0.0000000000 0.0000000000 0.0000000000 0.0000000000 0.0000000000 0.0000000000 0.0000000000 0.0000000000 0.0000000000 0.0000000000 0.0000000000 0.0000000000 0.0000000000 0.0000000000 0.0000000000 0.0000000000 0.0000000000 0.0000000000 0.0000000000 0.0000000000 0.0000000000 0.0000000000 0.0000000000 0.0000000000 0.0000000000 0.0000000000 0.0000000000 0.0000000000 0.0000000000 0.0000000000 0.0000000000 0.0000000000 0.0000000000 0.0000000000 0.0000000000 0.0000000000 0.0000000000 0.0000000000 0.0000000000 0.0000000000 0.0000000000 0.0000000000 0.0000000000 0.0000000000 0.0000000000 0.0000000000 0.0000000000 0.0000000000 0.0000000000 0.0000000000 0.0000000000 0.0000000000 0.0000000000 0.0000000000 0.0000000000 0.0000000000 0.0000000000 0.0000000000 0.0000000000 0.0000000000 0.0000000000 0.0000000000 0.0000000000 0.0000000000 0.0000000000 0.0000000000 0.0000000000 0.0000000000 0.0000000000 0.0000000000 0.0000000000 0.0000000000 0.0000000000 0.0000000000 0.0000000000 0.0000000000 0.0000000000 0.0000000000 0.0000000000 0.0000000000 0.0000000000 0.0000000000 0.0000000000 0.0000000000 0.0000000000 0.0000000000 0.0000000000 0.0000000000 0.0000000000 0.0000000000 0.0000000000 0.0000000000 0.0000000000 0.0000000000 0.0000000000 0.0000000000 0.0000000000 0.0000000000 0.0000000000 0.0000000000 0.0000000000 0.0000000000 0.0000000000 0.0000000000 0.0000000000 0.0000000000 0.0000000000 0.0000000000 0.0000000000 0.0000000000 0.0000000000 
</DataArray>
<DataArray type="Float64" Name="age_conc_solid" format="ascii">
0.0000000000 0.0000000000 0.0000000000 0.0000000000 0.0000000000 0.0000000000 0.0000000000 0.0000000000 0.0000000000 0.0000000000 0.0000000000 0.0000000000 0.0000000000 0.0000000000 0.0000000000 0.0000000000 0.0000000000 0.0000000000 0.0000000000 0.0000000000 0.0000000000 0.0000000000 0.0000000000 0.0000000000 0.0000000000 0.0000000000 0.0000000000 0.0000000000 0.0000000000 0.0000000000 0.0000000000 0.0000000000 0.0000000000 0.0000000000 0.0000000000 0.0000000000 0.0000000000 0.0000000000 0.0000000000 0.0000000000 0.0000000000 0.0000000000 0.0000000000 0.0000000000 0.0000000000 0.0000000000 0.0000000000 0.0000000000 0.0000000000 0.0000000000 0.0000000000 0.0000000000 0.0000000000 0.0000000000 0.0000000000 0.0000000000 0.0000000000 0.0000000000 0.0000000000 0.0000000000 0.0000000000 0.0000000000 0.0000000000 0.0000000000 0.0000000000 0.0000000000 0.0000000000 0.0000000000 0.0000000000 0.0000000000 0.0000000000 0.0000000000 0.0000000000 0.0000000000 0.0000000000 0.0000000000 0.0000000000 0.0000000000 0.0000000000 0.0000000000 0.0000000000 0.0000000000 0.0000000000 0.0000000000 0.0000000000 0.0000000000 0.0000000000 0.0000000000 0.0000000000 0.0000000000 0.0000000000 0.0000000000 0.0000000000 0.0000000000 0.0000000000 0.0000000000 0.0000000000 0.0000000000 0.0000000000 0.0000000000 0.0000000000 0.0000000000 0.0000000000 0.0000000000 0.0000000000 0.0000000000 0.0000000000 0.0000000000 0.0000000000 0.0000000000 0.0000000000 0.0000000000 0.0000000000 0.0000000000 0.0000000000 0.0000000000 0.0000000000 0.0000000000 0.0000000000 0.0000000000 0.0000000000 0.0000000000 0.0000000000 0.0000000000 
</DataArray>
<DataArray type="Float64" Name="U235_conc_solid" format="ascii">
0.0000000000 0.0000000000 0.0000000000 0.0000000000 0.0000000000 0.0000000000 0.0000000000 0.0000000000 0.0000000000 0.0000000000 0.0000000000 0.0000000000 0.0000000000 0.0000000000 0.0000000000 0.0000000000 0.0000000000 0.0000000000 0.0000000000 0.0000000000 0.0000000000 0.0000000000 0.0000000000 0.0000000000 0.0000000000 0.0000000000 0.0000000000 0.0000000000 0.0000000000 0.0000000000 0.0000000000 0.0000000000 0.0000000000 0.0000000000 0.0000000000 0.0000000000 0.0000000000 0.0000000000 0.0000000000 0.0000000000 0.0000000000 0.0000000000 0.0000000000 0.0000000000 0.0000000000 0.0000000000 0.0000000000 0.0000000000 0.0000000000 0.0000000000 0.0000000000 0.0000000000 0.0000000000 0.0000000000 0.0000000000 0.0000000000 0.0000000000 0.0000000000 0.0000000000 0.0000000000 0.0000000000 0.0000000000 0.0000000000 0.0000000000 0.0000000000 0.0000000000 0.0000000000 0.0000000000 0.0000000000 0.0000000000 0.0000000000 0.0000000000 0.0000000000 0.0000000000 0.0000000000 0.0000000000 0.0000000000 0.0000000000 0.0000000000 0.0000000000 0.0000000000 0.0000000000 0.0000000000 0.0000000000 0.0000000000 0.0000000000 0.0000000000 0.0000000000 0.0000000000 0.0000000000 0.0000000000 0.0000000000 0.0000000000 0.0000000000 0.0000000000 0.0000000000 0.0000000000 0.0000000000 0.0000000000 0.0000000000 0.0000000000 0.0000000000 0.0000000000 0.0000000000 0.0000000000 0.0000000000 0.0000000000 0.0000000000 0.0000000000 0.0000000000 0.0000000000 0.0000000000 0.0000000000 0.0000000000 0.0000000000 0.0000000000 0.0000000000 0.0000000000 0.0000000000 0.0000000000 0.0000000000 0.0000000000 0.0000000000 0.0000000000 
</DataArray>
<DataArray type="Float64" Name="age_conc_immobile_solid" format="ascii">