<?xml version="1.0"?>
<VTKFile type="UnstructuredGrid" version="0.1" byte_order="LittleEndian">
<UnstructuredGrid>
<Piece NumberOfPoints="198" NumberOfCells="67">
<Points>
<DataArray type="Float64" NumberOfComponents="3" format="ascii">
5.000000000002669e-01 4.330127018924964e-01 0.000000000000000e+00 4.375000000001656e-01 3.247595264196161e-01 0.000000000000000e+00 4.375000000001656e-01 3.247595264196161e-01 0.000000000000000e+00 5.625000000000788e-01 3.247595264192216e-01 0.000000000000000e+00 5.625000000000788e-01 3.247595264192216e-01 0.000000000000000e+00 5.000000000002669e-01 4.330127018924964e-01 0.000000000000000e+00 1.000000000000000e+00 0.000000000000000e+00 0.000000000000000e+00 9.375000000000857e-01 1.082531754729064e-01 0.000000000000000e+00 8.749999999996679e-01 0.000000000000000e+00 0.000000000000000e+00 9.375000000000857e-01 1.082531754729064e-01 0.000000000000000e+00 8.124999999998026e-01 1.082531754729207e-01 0.000000000000000e+00 8.749999999996679e-01 0.000000000000000e+00 0.000000000000000e+00 9.375000000000857e-01 1.082531754729064e-01 0.000000000000000e+00 8.750000000002003e-01 2.165063509457628e-01 0.000000000000000e+00 8.124999999998026e-01 1.082531754729207e-01 0.000000000000000e+00 8.749999999996679e-01 0.000000000000000e+00 0.000000000000000e+00 8.124999999998026e-01 1.082531754729207e-01 0.000000000000000e+00 7.499999999993359e-01 0.000000000000000e+00 0.000000000000000e+00 8.750000000002003e-01 2.165063509457628e-01 0.000000000000000e+00 7.499999999999739e-01 2.165063509458681e-01 0.000000000000000e+00 8.124999999998026e-01 1.082531754729207e-01 0.000000000000000e+00 7.499999999999739e-01 2.165063509458681e-01 0.000000000000000e+00 6.874999999995526e-01 1.082531754729882e-01 0.000000000000000e+00 8.124999999998026e-01 1.082531754729207e-01 0.000000000000000e+00 7.499999999999739e-01 2.165063509458681e-01 0.000000000000000e+00 6.249999999998230e-01 2.165063509460530e-01 0.000000000000000e+00 6.874999999995526e-01 1.082531754729882e-01 0.000000000000000e+00 8.124999999998026e-01 1.082531754729207e-01 0.000000000000000e+00 6.874999999995526e-01 1.082531754729882e-01 0.000000000000000e+00 7.499999999993359e-01 0.000000000000000e+00 0.000000000000000e+00 8.750000000002003e-01 2.165063509457628e-01 0.000000000000000e+00 8.125000000003098e-01 3.247595264186279e-01 0.000000000000000e+00 7.499999999999739e-01 2.165063509458681e-01 0.000000000000000e+00 8.125000000003098e-01 3.247595264186279e-01 0.000000000000000e+00 6.875000000001545e-01 3.247595264188601e-01 0.000000000000000e+00 7.499999999999739e-01 2.165063509458681e-01 0.000000000000000e+00 8.125000000003098e-01 3.247595264186279e-01 0.000000000000000e+00 7.500000000004792e-01 4.330127018913894e-01 0.000000000000000e+00 6.875000000001545e-01 3.247595264188601e-01 0.000000000000000e+00 7.499999999999739e-01 2.165063509458681e-01 0.000000000000000e+00 6.875000000001545e-01 3.247595264188601e-01 0.000000000000000e+00 6.249999999998230e-01 2.165063509460530e-01 0.000000000000000e+00 7.499999999993359e-01 0.000000000000000e+00 0.000000000000000e+00 6.874999999995526e-01 1.082531754729882e-01 0.000000000000000e+00 6.249999999990038e-01 0.000000000000000e+00 0.000000000000000e+00 6.874999999995526e-01 1.082531754729882e-01 0.000000000000000e+00 5.624999999993771e-01 1.082531754730905e-01 0.000000000000000e+00 6.249999999990038e-01 0.000000000000000e+00 0.000000000000000e+00 6.874999999995526e-01 1.082531754729882e-01 0.000000000000000e+00 6.249999999998230e-01 2.165063509460530e-01 0.000000000000000e+00 5.624999999993771e-01 1.082531754730905e-01 0.000000000000000e+00 6.249999999990038e-01 0.000000000000000e+00 0.000000000000000e+00 5.624999999993771e-01 1.082531754730905e-01 0.000000000000000e+00 4.999999999986717e-01 0.000000000000000e+00 0.000000000000000e+00 7.500000000004792e-01 4.330127018913894e-01 0.000000000000000e+00 6.250000000002535e-01 4.330127018920072e-01 0.000000000000000e+00 6.875000000001545e-01 3.247595264188601e-01 0.000000000000000e+00 6.250000000002535e-01 4.330127018920072e-01 0.000000000000000e+00 5.625000000000788e-01 3.247595264192216e-01 0.000000000000000e+00 6.875000000001545e-01 3.247595264188601e-01 0.000000000000000e+00 6.250000000002535e-01 4.330127018920072e-01 0.000000000000000e+00 5.000000000002669e-01 4.330127018924964e-01 0.000000000000000e+00 5.625000000000788e-01 3.247595264192216e-01 0.000000000000000e+00 6.875000000001545e-01 3.247595264188601e-01 0.000000000000000e+00 5.625000000000788e-01 3.247595264192216e-01 0.000000000000000e+00 6.249999999998230e-01 2.165063509460530e-01 0.000000000000000e+00 5.000000000002669e-01 4.330127018924964e-01 0.000000000000000e+00 4.375000000001656e-01 3.247595264196161e-01 0.000000000000000e+00 5.625000000000788e-01 3.247595264192216e-01 0.000000000000000e+00 4.375000000001656e-01 3.247595264196161e-01 0.000000000000000e+00 4.999999999998002e-01 2.165063509462916e-01 0.000000000000000e+00 5.625000000000788e-01 3.247595264192216e-01 0.000000000000000e+00 4.375000000001656e-01 3.247595264196161e-01 0.000000000000000e+00 3.749999999999418e-01 2.165063509465518e-01 0.000000000000000e+00 4.999999999998002e-01 2.165063509462916e-01 0.000000000000000e+00 5.625000000000788e-01 3.247595264192216e-01 0.000000000000000e+00 4.999999999998002e-01 2.165063509462916e-01 0.000000000000000e+00 6.249999999998230e-01 2.165063509460530e-01 0.000000000000000e+00 5.000000000002669e-01 4.330127018924964e-01 0.000000000000000e+00 3.750000000004802e-01 4.330127018930556e-01 0.000000000000000e+00 4.375000000001656e-01 3.247595264196161e-01 0.000000000000000e+00 3.750000000004802e-01 4.330127018930556e-01 0.000000000000000e+00 3.125000000004190e-01 3.247595264200667e-01 0.000000000000000e+00 4.375000000001656e-01 3.247595264196161e-01 0.000000000000000e+00 3.750000000004802e-01 4.330127018930556e-01 0.000000000000000e+00 2.500000000009974e-01 4.330127018939468e-01 0.000000000000000e+00 3.125000000004190e-01 3.247595264200667e-01 0.000000000000000e+00 4.375000000001656e-01 3.247595264196161e-01 0.000000000000000e+00 3.125000000004190e-01 3.247595264200667e-01 0.000000000000000e+00 3.749999999999418e-01 2.165063509465518e-01 0.000000000000000e+00 6.249999999998230e-01 2.165063509460530e-01 0.000000000000000e+00 4.999999999998002e-01 2.165063509462916e-01 0.000000000000000e+00 5.624999999993771e-01 1.082531754730905e-01 0.000000000000000e+00 4.999999999998002e-01 2.165063509462916e-01 0.000000000000000e+00 4.374999999994137e-01 1.082531754732118e-01 0.000000000000000e+00 5.624999999993771e-01 1.082531754730905e-01 0.000000000000000e+00 4.999999999998002e-01 2.165063509462916e-01 0.000000000000000e+00 3.749999999999418e-01 2.165063509465518e-01 0.000000000000000e+00 4.374999999994137e-01 1.082531754732118e-01 0.000000000000000e+00 5.624999999993771e-01 1.082531754730905e-01 0.000000000000000e+00 4.374999999994137e-01 1.082531754732118e-01 0.000000000000000e+00 4.999999999986717e-01 0.000000000000000e+00 0.000000000000000e+00 7.500000000004792e-01 4.330127018913894e-01 0.000000000000000e+00 6.875000000002827e-01 5.412658773647846e-01 0.000000000000000e+00 6.250000000002535e-01 4.330127018920072e-01 0.000000000000000e+00 6.875000000002827e-01 5.412658773647846e-01 0.000000000000000e+00 5.625000000002492e-01 5.412658773652879e-01 0.000000000000000e+00 6.250000000002535e-01 4.330127018920072e-01 0.000000000000000e+00 6.875000000002827e-01 5.412658773647846e-01 0.000000000000000e+00 6.250000000001095e-01 6.495190528381393e-01 0.000000000000000e+00 5.625000000002492e-01 5.412658773652879e-01 0.000000000000000e+00 6.250000000002535e-01 4.330127018920072e-01 0.000000000000000e+00 5.625000000002492e-01 5.412658773652879e-01 0.000000000000000e+00 5.000000000002669e-01 4.330127018924964e-01 0.000000000000000e+00 6.250000000001095e-01 6.495190528381393e-01 0.000000000000000e+00 5.000000000002092e-01 6.495190528385093e-01 0.000000000000000e+00 5.625000000002492e-01 5.412658773652879e-01 0.000000000000000e+00 5.000000000002092e-01 6.495190528385093e-01 0.000000000000000e+00 4.375000000003694e-01 5.412658773657841e-01 0.000000000000000e+00 5.625000000002492e-01 5.412658773652879e-01 0.000000000000000e+00 5.000000000002092e-01 6.495190528385093e-01 0.000000000000000e+00 3.750000000003548e-01 6.495190528389435e-01 0.000000000000000e+00 4.375000000003694e-01 5.412658773657841e-01 0.000000000000000e+00 5.625000000002492e-01 5.412658773652879e-01 0.000000000000000e+00 4.375000000003694e-01 5.412658773657841e-01 0.000000000000000e+00 5.000000000002669e-01 4.330127018924964e-01 0.000000000000000e+00 6.250000000001095e-01 6.495190528381393e-01 0.000000000000000e+00 5.625000000000482e-01 7.577722283113003e-01 0.000000000000000e+00 5.000000000002092e-01 6.495190528385093e-01 0.000000000000000e+00 5.625000000000482e-01 7.577722283113003e-01 0.000000000000000e+00 4.375000000001240e-01 7.577722283115986e-01 0.000000000000000e+00 5.000000000002092e-01 6.495190528385093e-01 0.000000000000000e+00 5.625000000000482e-01 7.577722283113003e-01 0.000000000000000e+00 5.000000000000000e-01 8.660254037844386e-01 0.000000000000000e+00 4.375000000001240e-01 7.577722283115986e-01 0.000000000000000e+00 5.000000000002092e-01 6.495190528385093e-01 0.000000000000000e+00 4.375000000001240e-01 7.577722283115986e-01 0.000000000000000e+00 3.750000000003548e-01 6.495190528389435e-01 0.000000000000000e+00 5.000000000002669e-01 4.330127018924964e-01 0.000000000000000e+00 4.375000000003694e-01 5.412658773657841e-01 0.000000000000000e+00 3.750000000004802e-01 4.330127018930556e-01 0.000000000000000e+00 4.375000000003694e-01 5.412658773657841e-01 0.000000000000000e+00 3.125000000006516e-01 5.412658773664026e-01 0.000000000000000e+00 3.750000000004802e-01 4.330127018930556e-01 0.000000000000000e+00 4.375000000003694e-01 5.412658773657841e-01 0.000000000000000e+00 3.750000000003548e-01 6.495190528389435e-01 0.000000000000000e+00 3.125000000006516e-01 5.412658773664026e-01 0.000000000000000e+00 3.750000000004802e-01 4.330127018930556e-01 0.000000000000000e+00 3.125000000006516e-01 5.412658773664026e-01 0.000000000000000e+00 2.500000000009974e-01 4.330127018939468e-01 0.000000000000000e+00 4.999999999986717e-01 0.000000000000000e+00 0.000000000000000e+00 4.374999999994137e-01 1.082531754732118e-01 0.000000000000000e+00 3.749999999990400e-01 0.000000000000000e+00 0.000000000000000e+00 4.374999999994137e-01 1.082531754732118e-01 0.000000000000000e+00 3.124999999996580e-01 1.082531754733300e-01 0.000000000000000e+00 3.749999999990400e-01 0.000000000000000e+00 0.000000000000000e+00 4.374999999994137e-01 1.082531754732118e-01 0.000000000000000e+00 3.749999999999418e-01 2.165063509465518e-01 0.000000000000000e+00 3.124999999996580e-01 1.082531754733300e-01 0.000000000000000e+00 3.749999999990400e-01 0.000000000000000e+00 0.000000000000000e+00 3.124999999996580e-01 1.082531754733300e-01 0.000000000000000e+00 2.499999999994083e-01 0.000000000000000e+00 0.000000000000000e+00 3.749999999999418e-01 2.165063509465518e-01 0.000000000000000e+00 2.500000000001947e-01 2.165063509467870e-01 0.000000000000000e+00 3.124999999996580e-01 1.082531754733300e-01 0.000000000000000e+00 2.500000000001947e-01 2.165063509467870e-01 0.000000000000000e+00 1.874999999999555e-01 1.082531754734159e-01 0.000000000000000e+00 3.124999999996580e-01 1.082531754733300e-01 0.000000000000000e+00 2.500000000001947e-01 2.165063509467870e-01 0.000000000000000e+00 1.250000000004645e-01 2.165063509469142e-01 0.000000000000000e+00 1.874999999999555e-01 1.082531754734159e-01 0.000000000000000e+00 3.124999999996580e-01 1.082531754733300e-01 0.000000000000000e+00 1.874999999999555e-01 1.082531754734159e-01 0.000000000000000e+00 2.499999999994083e-01 0.000000000000000e+00 0.000000000000000e+00 3.749999999999418e-01 2.165063509465518e-01 0.000000000000000e+00 3.125000000004190e-01 3.247595264200667e-01 0.000000000000000e+00 2.500000000001947e-01 2.165063509467870e-01 0.000000000000000e+00 3.125000000004190e-01 3.247595264200667e-01 0.000000000000000e+00 1.875000000007290e-01 3.247595264204271e-01 0.000000000000000e+00 2.500000000001947e-01 2.165063509467870e-01 0.000000000000000e+00 3.125000000004190e-01 3.247595264200667e-01 0.000000000000000e+00 2.500000000009974e-01 4.330127018939468e-01 0.000000000000000e+00 1.875000000007290e-01 3.247595264204271e-01 0.000000000000000e+00 2.500000000001947e-01 2.165063509467870e-01 0.000000000000000e+00 1.875000000007290e-01 3.247595264204271e-01 0.000000000000000e+00 1.250000000004645e-01 2.165063509469142e-01 0.000000000000000e+00 2.499999999994083e-01 0.000000000000000e+00 0.000000000000000e+00 1.874999999999555e-01 1.082531754734159e-01 0.000000000000000e+00 1.249999999997738e-01 0.000000000000000e+00 0.000000000000000e+00 1.874999999999555e-01 1.082531754734159e-01 0.000000000000000e+00 6.250000000023442e-02 1.082531754734609e-01 0.000000000000000e+00 1.249999999997738e-01 0.000000000000000e+00 0.000000000000000e+00 1.874999999999555e-01 1.082531754734159e-01 0.000000000000000e+00 1.250000000004645e-01 2.165063509469142e-01 0.000000000000000e+00 6.250000000023442e-02 1.082531754734609e-01 0.000000000000000e+00 1.249999999997738e-01 0.000000000000000e+00 0.000000000000000e+00 6.250000000023442e-02 1.082531754734609e-01 0.000000000000000e+00 0.000000000000000e+00 0.000000000000000e+00 0.000000000000000e+00 
</DataArray>
</Points>
<Cells>
<DataArray type="Int32" Name="connectivity" format="ascii">
0 1 2 3 4 5 6 7 8 9 10 11 12 13 14 15 16 17 18 19 20 21 22 23 24 25 26 27 28 29 30 31 32 33 34 35 36 37 38 39 40 41 42 43 44 45 46 47 48 49 50 51 52 53 54 55 56 57 58 59 60 61 62 63 64 65 66 67 68 69 70 71 72 73 74 75 76 77 78 79 80 81 82 83 84 85 86 87 88 89 90 91 92 93 94 95 96 97 98 99 100 101 102 103 104 105 106 107 108 109 110 111 112 113 114 115 116 117 118 119 120 121 122 123 124 125 126 127 128 129 130 131 132 133 134 135 136 137 138 139 140 141 142 143 144 145 146 147 148 149 150 151 152 153 154 155 156 157 158 159 160 161 162 163 164 165 166 167 168 169 170 171 172 173 174 175 176 177 178 179 180 181 182 183 184 185 186 187 188 189 190 191 192 193 194 195 196 197 
</DataArray>
<DataArray type="Int32" Name="offsets" format="ascii">
2 4 6 9 12 15 18 21 24 27 30 33 36 39 42 45 48 51 54 57 60 63 66 69 72 75 78 81 84 87 90 93 96 99 102 105 108 111 114 117 120 123 126 129 132 135 138 141 144 147 150 153 156 159 162 165 168 171 174 177 180 183 186 189 192 195 198 
</DataArray>
<DataArray type="UInt8" Name="types" format="ascii">
3 3 3 5 5 5 5 5 5 5 5 5 5 5 5 5 5 5 5 5 5 5 5 5 5 5 5 5 5 5 5 5 5 5 5 5 5 5 5 5 5 5 5 5 5 5 5 5 5 5 5 5 5 5 5 5 5 5 5 5 5 5 5 5 5 5 5 
</DataArray>
</Cells>
<PointData Scalars="A_conc," Vectors="" Tensors="">
<DataArray type="Float64" Name="A_conc" format="ascii">
2.188212052434405e-01 2.187228254923619e-01 2.187353138456112e-01 2.187348077876613e-01 2.187243570981465e-01 2.188197654944823e-01 -3.464960573614603e-05 8.716037130273197e-05 4.037752008649783e-05 7.928600098986168e-05 -2.353749844772256e-04 4.563171643255715e-05 6.290951799781236e-05 -5.064871556054167e-04 -2.175028681443354e-04 4.855816548860819e-05 -2.333930964492851e-04 -8.029787579350682e-05 -5.058380259901266e-04 2.157066264736954e-03 -2.094979109427829e-04 2.132932106637278e-03 7.878828573826012e-04 -1.983925009367757e-04 2.143539818611222e-03 -1.256436840255074e-02 9.476960643157807e-04 -2.183469487488579e-04 8.138150918898297e-04 -1.206494327047538e-04 -4.841911285675373e-04 1.542819116916179e-03 2.094582806193688e-03 1.788894091005055e-03 -1.281111496007858e-02 2.058884226491485e-03 2.407683756092092e-03 5.431423878580595e-03 -1.369688772724621e-02 1.979960136783874e-03 -1.243355675587552e-02 -1.210918817387258e-02 -1.939678419545024e-04 9.076742941827840e-04 -5.367748233565506e-04 1.024018354606077e-03 3.004719655617318e-03 -5.360197632392255e-04 1.461529110052764e-03 -1.347475552773341e-02 2.519060238915102e-03 -6.578556019492625e-04 3.211271416993355e-03 -7.847885668291517e-04 5.742539111042203e-03 -2.615190824926368e-02 -1.468922066355712e-02 -2.598049893436004e-02 1.798143936707086e-01 -1.774993401234507e-02 -3.507215188305361e-02 1.957231720982907e-01 1.956411151893762e-01 -1.419285643186003e-02 1.731236992592989e-01 -1.381764073426800e-02 2.357207630879558e-01 2.356182453659781e-01 2.356187110226823e-01 1.956773261412931e-01 -3.457078213408414e-02 1.956773983185744e-01 1.798821680119602e-01 -1.740506572655240e-02 -2.553144730254338e-02 1.798823816782112e-01 -2.553149088864240e-02 -1.740505694923633e-02 1.957237445287445e-01 -3.507214095599253e-02 1.956403769991467e-01 -2.598055292458151e-02 -1.774983310559700e-02 1.798138558804269e-01 -2.615192148448634e-02 5.742529296761080e-03 -1.468915902341774e-02 1.731233366235818e-01 -1.419283471212532e-02 -1.381758101441038e-02 -1.432794145713165e-02 -2.583915484918596e-02 2.591417635489964e-03 -2.643584252479234e-02 2.959396337281010e-03 2.959394465955373e-03 -2.583913956464031e-02 -1.432792955514728e-02 2.591413895390453e-03 3.092177456604164e-03 3.092176507436841e-03 -6.458727788422401e-04 5.950217469508097e-03 5.943321258707224e-03 -2.655330644899990e-02 5.733069534338270e-03 -1.465821973952904e-02 -2.614746725713658e-02 5.423307609779325e-03 2.410098026192220e-03 -1.366967105977717e-02 -2.597228207627722e-02 -1.771853407273862e-02 1.798834079283416e-01 1.798555400305629e-03 2.017164433789631e-03 -1.278957736115507e-02 1.919885603533033e-03 -1.240988366138927e-02 -1.240989012592203e-02 2.017169816271370e-03 1.798556449236094e-03 -1.278958749739326e-02 -1.415134987611159e-02 -1.415131272618164e-02 1.731655955937616e-01 1.550100199590864e-03 -4.428576619399045e-04 2.058538547729946e-03 -4.605928047952644e-04 -4.605929671491415e-04 2.112697607917529e-03 -4.641183740765952e-04 2.399709648568134e-04 -4.641185772686967e-04 2.058541024931339e-03 -4.428590526270691e-04 1.550102628781716e-03 1.798836929436926e-01 -1.771862531901875e-02 -2.597216767254672e-02 -1.465826641381858e-02 5.733065810357974e-03 -2.614740517438375e-02 -1.366969902183774e-02 2.410108523108327e-03 5.423296638513512e-03 -2.655328310331944e-02 5.943335997230515e-03 5.950190297825707e-03 -7.847880260651176e-04 3.211269112806383e-03 -6.578552333216482e-04 3.004716032403478e-03 1.024017273447124e-03 -5.360187794690490e-04 2.519054528901917e-03 -1.347473507129741e-02 1.461529318874806e-03 -5.367736980971980e-04 9.076727415073652e-04 -1.939678140820774e-04 -1.256433887583437e-02 2.143535511766733e-03 9.476919481929764e-04 2.132926671177391e-03 -1.983917595933359e-04 7.878802569289633e-04 2.157059912138333e-03 -5.058361468050508e-04 -2.094968939197178e-04 8.138130479199582e-04 -2.183464197852912e-04 -1.206491450423115e-04 -1.210914845362125e-02 -1.243352445352117e-02 1.979951718185451e-03 -1.281107610536670e-02 1.788888054855677e-03 2.058874475254923e-03 -1.369683893114376e-02 5.431419601239538e-03 2.407672332932260e-03 2.094575061578278e-03 1.542812957896106e-03 -4.841883753016745e-04 -8.029767206380566e-05 -2.333924979557031e-04 4.855806716925967e-05 -2.353743035717259e-04 7.928566191640176e-05 4.563159425549027e-05 -2.175020517804286e-04 -5.064853514804391e-04 6.290906613656350e-05 4.037740661775239e-05 8.716005469258527e-05 -3.464945416067748e-05 
</DataArray>
</PointData>
</Piece>
</UnstructuredGrid>
</VTKFile>
