<?xml version="1.0"?>
<VTKFile type="UnstructuredGrid" version="0.1" byte_order="LittleEndian">
<UnstructuredGrid>
<Piece NumberOfPoints="69" NumberOfCells="124">
<Points>
<DataArray type="Float64" NumberOfComponents="3" format="ascii">
0 0 0 0.084352422163911631 0.086451712656266194 0 0.1249999999997554 0 0 0 0.12500000000034689 0 0.1008171452988615 0.18885703697250469 0 0.2403886547178353 0.24188814792673841 0 0.18402761812864499 0.1117324051466445 0 0.25 -0 0 0.31250000000020822 0.12500000000041631 0 0.4287911518546233 0.15455445427966699 0 0.43749999999913258 0 0 0.43750000000006939 0.37500000000013878 0 0.49457493289300231 0.26251703776555491 0 0.37500000000027761 0.25000000000055511 0 0.33819444444448321 0.33819444444456342 0 0.37499999999973488 0.43749999999986738 0 0.14929124186975251 0.44582793568106382 0 0.24999999999960859 0.37499999999980432 0 0.1249999999997599 0.31249999999987998 0 0 0.25 0 0 0.43750000000034689 0 0 0.62500000000069389 0 0.13900789599611679 0.72618316107059999 0 0.13928587515912139 0.57339806105677438 0 0 1 0 0 0.81250000000104083 0 0.12710107136012311 0.87094806618203435 0 0.1875000000005205 1 0 0.27987960212930818 0.83442741470570525 0 0.44927105396715372 0.85565124085155886 0 0.37500000000069389 1 0 0.26452443700674649 0.51563531581639865 0 0.27589467050686478 0.66058853156435704 0 0.38136204680495073 0.74038592213831234 0 0.4139414069912184 0.60563252640100373 0 0.5 0.5 -0 0.50145856933078625 0.73674663046504862 0 0.5625 0.625 0 0.71259747807844409 0.63846691315701831 0 0.63236534182377013 0.50296756406332266 0 0.56250000000086742 1 0 0.56777512057187585 0.8470224641095303 0 0.625 0.75 0 0.73857795170433571 0.77736788564284653 0 0.6875 0.875 0 0.75 1 0 0.80552984491000901 0.88711122872127413 0 0.85787927391517405 0.753532520882502 0 1 0.83333333333356463 0 0.90637953422180084 0.90208583328057301 0 1 1 0 0.875 1 0 0.86127466977819722 0.57948076978797636 0 1 0.66666666666736052 0 1 0.50000000000138767 0 0.75338430262320943 0.49294443423175599 0 0.86569408477091048 0.40983673916766611 0 0.86087286690217635 0.25206523597959418 0 1 0.33333333333448978 0 1 0.16666666666736049 0 1 0 0 0.87698901648812122 0.1160638338657984 0 0.81249999999947953 0 0 0.71508993406183785 0.15715956854777599 0 0.62499999999895905 0 0 0.54475767668582953 0.1431838882066932 0 0.61108462585082757 0.25750599582343231 0 0.56986707178436635 0.37762093650871992 0 0.71826039492840632 0.34564020717216182 0 
</DataArray>
</Points>
<Cells>
<DataArray type="UInt32" Name="connectivity" format="ascii">
0 1 3 0 1 2 3 4 19 1 3 4 1 4 6 4 5 18 4 5 6 5 6 8 2 6 7 6 7 8 1 2 6 7 8 7 8 10 5 8 13 8 13 8 9 13 9 12 13 9 12 65 8 9 10 9 10 65 15 35 11 15 35 11 14 15 11 35 11 12 13 11 13 11 13 14 5 14 17 5 13 14 14 15 17 15 17 15 17 31 16 17 31 16 17 18 5 17 18 17 18 18 19 20 4 18 19 18 19 16 20 23 16 18 20 20 21 23 21 22 23 21 22 25 22 23 32 22 28 32 23 31 32 16 23 31 24 26 27 24 25 26 22 25 26 22 26 28 26 27 28 28 29 30 27 28 30 28 29 33 29 33 36 29 30 40 31 32 34 15 31 34 28 32 33 32 33 34 33 34 36 34 36 37 15 34 35 34 35 37 35 37 39 35 37 36 37 42 37 42 38 42 43 37 38 42 38 39 55 37 38 39 40 41 44 29 40 41 29 36 41 36 41 42 42 43 44 43 44 46 42 44 41 42 44 40 44 45 44 45 46 44 45 45 46 51 46 49 51 46 47 49 43 46 47 47 48 53 47 48 49 48 49 50 49 50 51 38 52 55 38 47 52 38 43 47 47 52 53 52 53 54 54 56 58 52 54 56 52 55 56 55 56 68 57 63 68 56 57 68 57 58 59 56 57 58 57 59 61 60 61 62 59 60 61 61 62 63 57 61 63 63 64 65 62 63 64 10 64 65 63 65 66 12 65 66 12 66 67 11 12 67 11 35 67 35 39 67 39 55 68 39 67 68 63 66 68 66 67 68 
</DataArray>
<DataArray type="UInt32" Name="offsets" format="ascii">
3 6 9 12 15 18 21 24 27 30 33 35 38 41 43 46 49 52 55 58 60 63 66 68 71 73 76 79 82 85 87 90 93 96 99 101 104 107 109 112 115 118 121 124 127 130 133 136 139 142 145 148 151 154 157 160 163 166 169 172 175 178 181 184 187 190 193 195 198 200 203 206 209 212 215 218 221 224 227 230 232 235 238 241 243 246 249 252 255 258 261 264 267 270 273 276 279 282 285 288 291 294 297 300 303 306 309 312 315 318 321 324 327 330 333 336 339 342 345 348 351 354 357 360 
</DataArray>
<DataArray type="UInt32" Name="types" format="ascii">
5 5 5 5 5 5 5 5 5 5 5 3 5 5 3 5 5 5 5 5 3 5 5 3 5 3 5 5 5 5 3 5 5 5 5 3 5 5 3 5 5 5 5 5 5 5 5 5 5 5 5 5 5 5 5 5 5 5 5 5 5 5 5 5 5 5 5 3 5 3 5 5 5 5 5 5 5 5 5 5 3 5 5 5 3 5 5 5 5 5 5 5 5 5 5 5 5 5 5 5 5 5 5 5 5 5 5 5 5 5 5 5 5 5 5 5 5 5 5 5 5 5 5 5 
</DataArray>
</Cells>
<CellData Scalars="age_conc,U235_conc," Vectors="" Tensors="">
<DataArray type="Float64" Name="age_conc" format="ascii">
44946.474475312069 44946.474475312134 44946.474475080613 44946.47447530942 44946.474475312134 44946.474475261035 44946.474475311268 44946.474475300827 44946.474475293071 44946.474474987357 44946.474475311879 44946.474467030937 44946.474475312083 44946.474475172072 44946.474474783463 44946.474475312178 44946.474475312039 44946.474475312054 44946.474475312025 44946.474475311974 44925.353324700547 44946.474474368486 44946.474475242983 44925.686559118942 44946.474475312054 44946.474503752914 44946.474476550306 44946.474475286428 44946.474475361581 44946.474474481867 44946.474452208917 44946.474475312185 44946.474475312214 44946.474475312185 44946.47447431607 44946.474443211853 44946.474475312083 44946.474471470458 44946.47438177024 44946.474475312127 44946.474475312149 44946.474475312098 44946.473967848106 44946.282712824541 44946.473346967017 44946.366342764544 44946.474475312163 44946.474475312214 39830.435585687752 44493.634006570363 44937.641371369667 44927.965228552574 44527.678772995183 44575.187683304997 40629.188556655048 44929.77848603727 44946.462820186207 39782.513144566627 44946.474475312229 44946.474475312243 44945.989945594185 44946.472961423126 44946.474475312134 44946.104544810813 44946.474475331735 44945.841674604882 44946.474475312258 44498.620337869368 44919.066902017403 42408.285085952164 44946.467400256472 44946.474475312338 44946.468432339068 44946.474475312163 44208.309771388958 44915.548065039831 44945.593642378961 44936.869704847319 44945.469708364173 44917.302519157434 35828.020923521035 44698.217277883086 38560.082722208754 44318.416832220275 21835.405956907216 38907.014179660393 44247.990852210161 44904.605123465743 44944.985548767283 40018.657489157355 44379.205290223115 37908.885585526281 38268.187667380742 44946.028884014115 44931.541941153715 44946.459779712379 44545.810586471467 39761.555022191358 39615.261037133489 44524.75393590708 44925.262306725592 44945.892962163241 44946.117685019868 44930.799303300329 39965.483867821116 44503.329774719954 44421.139407717797 44467.967857806783 39662.165285114475 44939.929190813571 44927.450228643276 44946.474002771938 44946.333891577982 44946.474475312098 44946.474475312083 44946.474475312003 44946.474475312054 44946.474475312149 44946.474475312069 44946.47447531193 44946.469666781952 44946.474475312098 44946.470500701449 44946.4744753122 
</DataArray>
<DataArray type="Float64" Name="U235_conc" format="ascii">
0 0 0 0 0 0 0 0 0 0 0 0 0 0 0 0 0 0 0 0 0.0023617901365141328 1.9032261228380266e-05 0 0.0023236324278193853 0 8.625963172731792e-05 0 0 0 0 8.7398751895525855e-05 0 0 0 0 0 0 0 0 0 0 3.8635061006582599e-10 7.1376711592837647e-08 1.5718541893258985e-05 1.5884088822068917e-07 8.9671026937382998e-06 4.6023812879097591e-10 0 0.18513626656345039 0.021824697917991465 0.00054497346087463558 0.0011296206383659925 0.020208242885018865 0.017987013261490506 0.15713053741741989 0.0010200379675310324 1.6377901248969903e-06 0.1878802320173972 1.6041269682093038e-09 0 3.9283162727777139e-05 2.077451197493675e-07 3.9012670773577417e-08 4.4955348482940366e-05 6.8896524868049042e-07 7.3324593940990619e-05 0 0.030720586741237951 0.0019782287718114744 0.1357736377335878 9.7299014792450532e-07 9.5403384980304202e-09 8.2866775805306846e-07 2.7943403242874077e-09 0.035748433996192264 0.001894800636363359 7.2727092934972052e-05 0.00072545153457268549 8.0706268562688306e-05 0.0017670445076721883 0.38746273628672601 0.014069344823239398 0.2350011879057437 0.030124157514587278 0.73759607805803751 0.21746646982770995 0.03357520622907912 0.0025409749588601845 0.00011977735574360335 0.17857660523086716 0.027353200848478181 0.25416705974129017 0.24161537855159917 3.6108335029726381e-05 0.0009120953493995679 2.0057362636345222e-06 0.019344012604435461 0.18794740756296469 0.19332128022927933 0.020364527255656063 0.0012932962853119279 4.7082285819897942e-05 2.8940919692929941e-05 0.00095628450925834768 0.18061260663961298 0.021396687442045773 0.025271495099674142 0.023026963872732068 0.19074444589540465 0.00040685089287973569 0.0011587847583057129 6.6276749096547258e-08 1.1605682685794729e-05 4.0523867894614419e-10 4.5839258414322785e-09 0 0 0 0 0 6.6225003025049273e-07 6.6417208446584683e-09 5.4650079357152944e-07 6.3224201810303625e-11 
</DataArray>
</CellData>
</Piece>
</UnstructuredGrid>
</VTKFile>
