<?xml version="1.0"?>
<VTKFile type="UnstructuredGrid" version="0.1" byte_order="LittleEndian">
<UnstructuredGrid>
<Piece NumberOfPoints="69" NumberOfCells="124">
<Points>
<DataArray type="Float64" NumberOfComponents="3" format="ascii">
0 0 0 0.084352422163911631 0.086451712656266194 0 0.1249999999997554 0 0 0 0.12500000000034689 0 0.1008171452988615 0.18885703697250469 0 0.2403886547178353 0.24188814792673841 0 0.18402761812864499 0.1117324051466445 0 0.25 -0 0 0.31250000000020822 0.12500000000041631 0 0.4287911518546233 0.15455445427966699 0 0.43749999999913258 0 0 0.43750000000006939 0.37500000000013878 0 0.49457493289300231 0.26251703776555491 0 0.37500000000027761 0.25000000000055511 0 0.33819444444448321 0.33819444444456342 0 0.37499999999973488 0.43749999999986738 0 0.14929124186975251 0.44582793568106382 0 0.24999999999960859 0.37499999999980432 0 0.1249999999997599 0.31249999999987998 0 0 0.25 0 0 0.43750000000034689 0 0 0.62500000000069389 0 0.13900789599611679 0.72618316107059999 0 0.13928587515912139 0.57339806105677438 0 0 1 0 0 0.81250000000104083 0 0.12710107136012311 0.87094806618203435 0 0.1875000000005205 1 0 0.27987960212930818 0.83442741470570525 0 0.44927105396715372 0.85565124085155886 0 0.37500000000069389 1 0 0.26452443700674649 0.51563531581639865 0 0.27589467050686478 0.66058853156435704 0 0.38136204680495073 0.74038592213831234 0 0.4139414069912184 0.60563252640100373 0 0.5 0.5 -0 0.50145856933078625 0.73674663046504862 0 0.5625 0.625 0 0.71259747807844409 0.63846691315701831 0 0.63236534182377013 0.50296756406332266 0 0.56250000000086742 1 0 0.56777512057187585 0.8470224641095303 0 0.625 0.75 0 0.73857795170433571 0.77736788564284653 0 0.6875 0.875 0 0.75 1 0 0.80552984491000901 0.88711122872127413 0 0.85787927391517405 0.753532520882502 0 1 0.83333333333356463 0 0.90637953422180084 0.90208583328057301 0 1 1 0 0.875 1 0 0.86127466977819722 0.57948076978797636 0 1 0.66666666666736052 0 1 0.50000000000138767 0 0.75338430262320943 0.49294443423175599 0 0.86569408477091048 0.40983673916766611 0 0.86087286690217635 0.25206523597959418 0 1 0.33333333333448978 0 1 0.16666666666736049 0 1 0 0 0.87698901648812122 0.1160638338657984 0 0.81249999999947953 0 0 0.71508993406183785 0.15715956854777599 0 0.62499999999895905 0 0 0.54475767668582953 0.1431838882066932 0 0.61108462585082757 0.25750599582343231 0 0.56986707178436635 0.37762093650871992 0 0.71826039492840632 0.34564020717216182 0 
</DataArray>
</Points>
<Cells>
<DataArray type="UInt32" Name="connectivity" format="ascii">
0 1 3 0 1 2 3 4 19 1 3 4 1 4 6 4 5 18 4 5 6 5 6 8 2 6 7 6 7 8 1 2 6 7 8 7 8 10 5 8 13 8 13 8 9 13 9 12 13 9 12 65 8 9 10 9 10 65 15 35 11 15 35 11 14 15 11 35 11 12 13 11 13 11 13 14 5 14 17 5 13 14 14 15 17 15 17 15 17 31 16 17 31 16 17 18 5 17 18 17 18 18 19 20 4 18 19 18 19 16 20 23 16 18 20 20 21 23 21 22 23 21 22 25 22 23 32 22 28 32 23 31 32 16 23 31 24 26 27 24 25 26 22 25 26 22 26 28 26 27 28 28 29 30 27 28 30 28 29 33 29 33 36 29 30 40 31 32 34 15 31 34 28 32 33 32 33 34 33 34 36 34 36 37 15 34 35 34 35 37 35 37 39 35 37 36 37 42 37 42 38 42 43 37 38 42 38 39 55 37 38 39 40 41 44 29 40 41 29 36 41 36 41 42 42 43 44 43 44 46 42 44 41 42 44 40 44 45 44 45 46 44 45 45 46 51 46 49 51 46 47 49 43 46 47 47 48 53 47 48 49 48 49 50 49 50 51 38 52 55 38 47 52 38 43 47 47 52 53 52 53 54 54 56 58 52 54 56 52 55 56 55 56 68 57 63 68 56 57 68 57 58 59 56 57 58 57 59 61 60 61 62 59 60 61 61 62 63 57 61 63 63 64 65 62 63 64 10 64 65 63 65 66 12 65 66 12 66 67 11 12 67 11 35 67 35 39 67 39 55 68 39 67 68 63 66 68 66 67 68 
</DataArray>
<DataArray type="UInt32" Name="offsets" format="ascii">
3 6 9 12 15 18 21 24 27 30 33 35 38 41 43 46 49 52 55 58 60 63 66 68 71 73 76 79 82 85 87 90 93 96 99 101 104 107 109 112 115 118 121 124 127 130 133 136 139 142 145 148 151 154 157 160 163 166 169 172 175 178 181 184 187 190 193 195 198 200 203 206 209 212 215 218 221 224 227 230 232 235 238 241 243 246 249 252 255 258 261 264 267 270 273 276 279 282 285 288 291 294 297 300 303 306 309 312 315 318 321 324 327 330 333 336 339 342 345 348 351 354 357 360 
</DataArray>
<DataArray type="UInt32" Name="types" format="ascii">
5 5 5 5 5 5 5 5 5 5 5 3 5 5 3 5 5 5 5 5 3 5 5 3 5 3 5 5 5 5 3 5 5 5 5 3 5 5 3 5 5 5 5 5 5 5 5 5 5 5 5 5 5 5 5 5 5 5 5 5 5 5 5 5 5 5 5 3 5 3 5 5 5 5 5 5 5 5 5 5 3 5 5 5 3 5 5 5 5 5 5 5 5 5 5 5 5 5 5 5 5 5 5 5 5 5 5 5 5 5 5 5 5 5 5 5 5 5 5 5 5 5 5 5 
</DataArray>
</Cells>
<CellData Scalars="age_conc,U235_conc," Vectors="" Tensors="">
<DataArray type="Float64" Name="age_conc" format="ascii">
186159.53820235163 186159.16752429749 185907.3351949644 186144.98945569189 186148.81594544507 185747.84474745026 186094.85526785089 185754.07452977478 185933.42504727925 185079.89290162639 186142.39253445467 175742.4165132241 186161.73127355956 184292.99283593008 168997.13840005608 186161.73153274236 186161.63536535375 186160.00365066074 186161.63084636568 186160.77080973308 143382.16488581931 172790.37013633052 182009.30467882191 144508.88426225088 186161.67132410596 159202.80491140907 180889.11166209742 185017.93944139432 185020.95592908663 180873.32573267867 158500.0132581091 186140.12161997688 186159.35481327254 186161.41427506402 184236.09245965019 168583.73398052089 186161.73526832531 184965.40123081676 175512.43112250834 186160.99254670634 186161.65971475348 186144.68269649518 186038.80689985145 184564.22667908709 185908.82293433551 185011.38581865845 186138.54693880954 186157.5692148885 109148.12609071848 152257.95231352039 179531.01645726277 175663.67015411519 153968.16961801497 155285.01319632618 116700.40859178951 176430.42210999603 184482.76432636782 105010.92444073099 186111.4224611914 186053.86634366147 183145.60679508591 185896.94075753502 185753.03526148415 181051.18988683406 185005.00238368369 182146.52988130611 186140.40300679876 116373.73752668058 170588.57032776417 92021.945612540294 185183.36807479506 185923.86179333084 185380.69727284455 186064.87081973522 133752.18703373001 169147.75761324511 180363.58056713486 171806.03961402935 181205.10597448272 172287.3686418795 64695.466182988486 150993.73404891064 87661.280077748379 143587.87006914636 32916.400688611415 99338.788023366084 137906.57701238978 166343.79906950225 178839.19585498117 110064.00669632714 144045.69466731092 85607.882627020706 88712.617284330307 183394.75639187629 177386.63644362884 184498.69562536845 154706.04658947227 107171.82313862522 104871.8334264974 153324.39584601868 174503.57460431522 182673.41244810418 183865.55079703568 177217.87579279495 109550.91407919988 151836.32000560107 148497.2411733419 151234.07139601369 108022.34478164112 180499.67762345099 175897.83652672742 186052.19485565787 184817.41251945443 186144.80783976751 186043.46892131941 186151.89447646565 186156.20290214647 186161.15833653542 186158.36685925873 186143.19231582465 185479.59348936524 185993.22654981544 185608.50448567743 186130.67472869094 
</DataArray>
<DataArray type="Float64" Name="U235_conc" format="ascii">
2.0347474541494147e-05 2.3820279436230908e-05 0.0028360243990472895 0.00017072478677469344 0.00012858636719112731 0.0047377359414152486 0.00072069481114841495 0.0046680947697254858 0.0025450427863761369 0.012677279843822477 0.00019766948530873258 0.12119824757548409 1.2039363444860052e-07 0.021772327835730354 0.18738658835241781 1.1277859730335269e-07 1.0377065742657631e-06 1.7774280135752272e-05 1.1201670432301741e-06 1.0122075576104622e-05 0.3749948605073089 0.14293009014718358 0.047535932932920633 0.36436005188359782 6.5192095892880854e-07 0.26693951294647517 0.059676341354431318 0.013220513366185554 0.013188879495477715 0.059871553711025399 0.27430340612992887 0.00024021877731736087 2.5142633120691447e-05 3.243186825742773e-06 0.022435705807145545 0.19204847512971074 8.0286893560212787e-08 0.014020255411278194 0.1238972095596179 7.6899274466302032e-06 8.0840106886528568e-07 0.00018636158035712148 0.0013691630477920252 0.017580371740433882 0.0028261980244593124 0.012713399822455812 0.00025321920044148617 4.3878141329392487e-05 0.55773541933239368 0.30089742240492801 0.068872490530703559 0.10696613873018025 0.28692840111781948 0.27835463481728956 0.51222770961564001 0.099351961566475966 0.018880961970433745 0.59270000460642436 0.00055369666773682168 0.0012219177358792318 0.032965525500214268 0.0029528081494320938 0.0045748158574881554 0.054515536927442057 0.01283648843178593 0.041121215974210645 0.00022789477068210694 0.53081662247704109 0.14744266059800953 0.65516342779092263 0.010971487823539551 0.0026492842543221007 0.0087584369127947648 0.001069299196418468 0.45641512291011788 0.17226873045644353 0.063317046359767773 0.14727877745699852 0.053777806732772132 0.13949612649696577 0.77453401560999291 0.31758741544450153 0.70582663173505245 0.37186118472840068 0.89899933385759079 0.62176271512931114 0.42169710836995322 0.19875245438330091 0.079448097933029496 0.5557939446065322 0.37262537502485749 0.71366045288054036 0.6959296944886062 0.03023870937944852 0.089681717518970278 0.018668849768491716 0.2814871776865287 0.57317370203637863 0.58963955725573747 0.29316386013006879 0.11848009272033946 0.038090061124861671 0.025117190787145728 0.091215282319984242 0.55793037760860154 0.30612323245354495 0.33184861527447501 0.30891645245084071 0.56409409224091223 0.059244077691070311 0.10417993005789286 0.0012201233984563489 0.014833207893820057 0.00018522948609054105 0.001315068799841306 0.00010559512765252461 5.7021503839048053e-05 5.6375459855221866e-06 3.4489988241264247e-05 0.00019899396608927678 0.0076481871452125866 0.001876032903548345 0.0061999126043175562 0.00033543732024124065 
</DataArray>
</CellData>
</Piece>
</UnstructuredGrid>
</VTKFile>
