<?xml version="1.0"?>
<VTKFile type="UnstructuredGrid" version="0.1" byte_order="LittleEndian">
<UnstructuredGrid>
<Piece NumberOfPoints="69" NumberOfCells="124">
<Points>
<DataArray type="Float64" NumberOfComponents="3" format="ascii">
0 0 0 0.084352422163911631 0.086451712656266194 0 0.1249999999997554 0 0 0 0.12500000000034689 0 0.1008171452988615 0.18885703697250469 0 0.2403886547178353 0.24188814792673841 0 0.18402761812864499 0.1117324051466445 0 0.25 -0 0 0.31250000000020822 0.12500000000041631 0 0.4287911518546233 0.15455445427966699 0 0.43749999999913258 0 0 0.43750000000006939 0.37500000000013878 0 0.49457493289300231 0.26251703776555491 0 0.37500000000027761 0.25000000000055511 0 0.33819444444448321 0.33819444444456342 0 0.37499999999973488 0.43749999999986738 0 0.14929124186975251 0.44582793568106382 0 0.24999999999960859 0.37499999999980432 0 0.1249999999997599 0.31249999999987998 0 0 0.25 0 0 0.43750000000034689 0 0 0.62500000000069389 0 0.13900789599611679 0.72618316107059999 0 0.13928587515912139 0.57339806105677438 0 0 1 0 0 0.81250000000104083 0 0.12710107136012311 0.87094806618203435 0 0.1875000000005205 1 0 0.27987960212930818 0.83442741470570525 0 0.44927105396715372 0.85565124085155886 0 0.37500000000069389 1 0 0.26452443700674649 0.51563531581639865 0 0.27589467050686478 0.66058853156435704 0 0.38136204680495073 0.74038592213831234 0 0.4139414069912184 0.60563252640100373 0 0.5 0.5 -0 0.50145856933078625 0.73674663046504862 0 0.5625 0.625 0 0.71259747807844409 0.63846691315701831 0 0.63236534182377013 0.50296756406332266 0 0.56250000000086742 1 0 0.56777512057187585 0.8470224641095303 0 0.625 0.75 0 0.73857795170433571 0.77736788564284653 0 0.6875 0.875 0 0.75 1 0 0.80552984491000901 0.88711122872127413 0 0.85787927391517405 0.753532520882502 0 1 0.83333333333356463 0 0.90637953422180084 0.90208583328057301 0 1 1 0 0.875 1 0 0.86127466977819722 0.57948076978797636 0 1 0.66666666666736052 0 1 0.50000000000138767 0 0.75338430262320943 0.49294443423175599 0 0.86569408477091048 0.40983673916766611 0 0.86087286690217635 0.25206523597959418 0 1 0.33333333333448978 0 1 0.16666666666736049 0 1 0 0 0.87698901648812122 0.1160638338657984 0 0.81249999999947953 0 0 0.71508993406183785 0.15715956854777599 0 0.62499999999895905 0 0 0.54475767668582953 0.1431838882066932 0 0.61108462585082757 0.25750599582343231 0 0.56986707178436635 0.37762093650871992 0 0.71826039492840632 0.34564020717216182 0 
</DataArray>
</Points>
<Cells>
<DataArray type="UInt32" Name="connectivity" format="ascii">
0 1 3 0 1 2 3 4 19 1 3 4 1 4 6 4 5 18 4 5 6 5 6 8 2 6 7 6 7 8 1 2 6 7 8 7 8 10 5 8 13 8 13 8 9 13 9 12 13 9 12 65 8 9 10 9 10 65 15 35 11 15 35 11 14 15 11 35 11 12 13 11 13 11 13 14 5 14 17 5 13 14 14 15 17 15 17 15 17 31 16 17 31 16 17 18 5 17 18 17 18 18 19 20 4 18 19 18 19 16 20 23 16 18 20 20 21 23 21 22 23 21 22 25 22 23 32 22 28 32 23 31 32 16 23 31 24 26 27 24 25 26 22 25 26 22 26 28 26 27 28 28 29 30 27 28 30 28 29 33 29 33 36 29 30 40 31 32 34 15 31 34 28 32 33 32 33 34 33 34 36 34 36 37 15 34 35 34 35 37 35 37 39 35 37 36 37 42 37 42 38 42 43 37 38 42 38 39 55 37 38 39 40 41 44 29 40 41 29 36 41 36 41 42 42 43 44 43 44 46 42 44 41 42 44 40 44 45 44 45 46 44 45 45 46 51 46 49 51 46 47 49 43 46 47 47 48 53 47 48 49 48 49 50 49 50 51 38 52 55 38 47 52 38 43 47 47 52 53 52 53 54 54 56 58 52 54 56 52 55 56 55 56 68 57 63 68 56 57 68 57 58 59 56 57 58 57 59 61 60 61 62 59 60 61 61 62 63 57 61 63 63 64 65 62 63 64 10 64 65 63 65 66 12 65 66 12 66 67 11 12 67 11 35 67 35 39 67 39 55 68 39 67 68 63 66 68 66 67 68 
</DataArray>
<DataArray type="UInt32" Name="offsets" format="ascii">
3 6 9 12 15 18 21 24 27 30 33 35 38 41 43 46 49 52 55 58 60 63 66 68 71 73 76 79 82 85 87 90 93 96 99 101 104 107 109 112 115 118 121 124 127 130 133 136 139 142 145 148 151 154 157 160 163 166 169 172 175 178 181 184 187 190 193 195 198 200 203 206 209 212 215 218 221 224 227 230 232 235 238 241 243 246 249 252 255 258 261 264 267 270 273 276 279 282 285 288 291 294 297 300 303 306 309 312 315 318 321 324 327 330 333 336 339 342 345 348 351 354 357 360 
</DataArray>
<DataArray type="UInt32" Name="types" format="ascii">
5 5 5 5 5 5 5 5 5 5 5 3 5 5 3 5 5 5 5 5 3 5 5 3 5 3 5 5 5 5 3 5 5 5 5 3 5 5 3 5 5 5 5 5 5 5 5 5 5 5 5 5 5 5 5 5 5 5 5 5 5 5 5 5 5 5 5 3 5 3 5 5 5 5 5 5 5 5 5 5 3 5 5 5 3 5 5 5 5 5 5 5 5 5 5 5 5 5 5 5 5 5 5 5 5 5 5 5 5 5 5 5 5 5 5 5 5 5 5 5 5 5 5 5 
</DataArray>
</Cells>
<CellData Scalars="age_conc,U235_conc," Vectors="" Tensors="">
<DataArray type="Float64" Name="age_conc" format="ascii">
204513.11170796712 204511.86547729454 203960.7176887902 204473.9645627398 204482.43096936442 203698.58493596222 204358.1291442246 203712.120078846 204018.02306611891 202578.65107740383 204467.06320500092 189412.54661802587 204520.80801062472 201444.19718709146 181462.53782979262 204520.80407217471 204520.48368160584 204515.8951977352 204520.50025696997 204518.22053291445 152652.2112850199 185938.71965392141 197835.63814339237 154112.60321037919 204520.56686003081 170391.55774458213 196563.64200667338 202462.1157211879 202470.98704962473 196523.69315802905 169432.13783001431 204473.78748091348 204514.59432481159 204519.82282099061 201348.08261234645 180859.70764880895 204520.81968404379 202373.50615220584 189047.75096046532 204518.72078851511 204520.56902644443 204482.28456878499 204279.65476652409 201886.40018611669 204035.5118019511 202578.185261757 204468.18831933773 204509.93190970243 114078.30632478237 161392.56468346869 194828.66899520639 189650.4476451735 163440.0803698232 164822.18901358021 122386.53709820405 190686.15096033204 201551.64242640176 109046.50354304881 204410.87146246285 204318.88033383779 199724.23422670612 204014.19864716067 203719.59396569995 196974.33109528921 202672.47424643228 198816.76009371172 204467.85604569054 122939.39957998911 183881.2660351347 96358.720117846402 202748.89928790298 204028.80355879982 203116.64121580916 204311.42568272649 138997.15153736743 180792.45666030722 195475.58820903549 184276.21536401517 196843.26084039215 185184.59039295223 67122.75556601274 159426.72766422635 89674.476523086298 150939.24969277481 33682.301372299444 102946.4857656727 143921.48921936285 177176.89411284748 193274.48737847715 114841.34833340593 151169.7977270979 87531.191124309218 90895.150202922494 200114.11391514281 192007.18121326156 201596.26687679914 164241.15860018742 111738.34774403146 109079.84438969489 162586.47931029258 188082.27427142896 199002.96870602568 200842.44420779709 191806.94266794197 114381.21284864251 160733.7539433112 156860.88598779103 160174.46893134559 112817.60510922846 196155.58997988378 190056.39326367064 204306.50867879795 202278.14254666204 204482.78189027042 204274.29412596382 204496.70326486457 204505.42928199962 204518.90918715807 204511.24125578842 204475.46042372973 203281.30316365432 204171.52671989254 203514.6125738431 204446.61683858221 
</DataArray>
<DataArray type="Float64" Name="U235_conc" format="ascii">
7.3318358836228843e-05 8.533856472164617e-05 0.006097164772989252 0.00047994587598699341 0.00038507325967894294 0.0089780602434074794 0.0017247378532334436 0.0088316735477260468 0.0054723993919953869 0.021363376616478403 0.00055201121844249644 0.15530740401469803 4.3650141554260223e-07 0.032863032362069527 0.21678209511300026 4.5655241495709314e-07 3.4937407476123623e-06 4.9381998993160548e-05 3.4247453249815631e-06 2.6459610093477628e-05 0.38788168331511941 0.17542898603761936 0.069986772084783863 0.3757817403290179 2.5753882784205235e-06 0.28728624391715196 0.080921720368953926 0.022237021065677327 0.022141161733056178 0.081392230753858985 0.29607835674177407 0.0004992805789653345 6.4136219180463788e-05 1.0056577664583878e-05 0.033896450079703988 0.22280178615672602 3.1967996355478258e-07 0.023625171365325853 0.15919242569935604 2.1175139312508018e-05 2.695144227251813e-06 0.00040212238995291228 0.0025325018415292624 0.026845479313646243 0.0051050165391155998 0.019941599536926254 0.00054917661196627406 0.00011096132588098101 0.58715628267771369 0.34309057640145324 0.091919726260611498 0.13753080455740332 0.32845745178728686 0.32154518465956489 0.54377144079692719 0.12830580411417908 0.031154465823558825 0.62446513100533141 0.0011519339328709525 0.0021398384075367654 0.048283970061809463 0.0053123283661666906 0.0084638292192533836 0.07290107896483275 0.018763292037974805 0.052707944098233685 0.00054601591662329415 0.53726111429254808 0.1751706575935158 0.6614589779419926 0.018593256926618798 0.0052027981345213782 0.014718299174753131 0.0022021123805658514 0.50782587394917167 0.21711409288881434 0.090625979602676238 0.18755731741998805 0.07638748154048855 0.17595354330111235 0.78101200314471453 0.36456565745021563 0.73355527374647744 0.41838819242965342 0.90363900605768865 0.65179758462554305 0.47256525826329349 0.2473686523461377 0.1117167865243482 0.5878576416907374 0.42227903561883889 0.74100211341569522 0.72457068862673424 0.044364476246265883 0.11626813541581717 0.030612794889158326 0.32372900179025543 0.60321823133761032 0.62001089432210732 0.33585656057410651 0.15148722500222725 0.055445921011133159 0.037101027563855055 0.11781170222917241 0.58860756110396462 0.35018270896662784 0.37583808080486325 0.35148386632597528 0.59372148616082498 0.080033676750699986 0.13313106380453005 0.0022498150610902375 0.022948495739806347 0.00039725053805639803 0.0026034167260446609 0.00024925510100081956 0.00015473621460817746 1.8480880921092893e-05 9.5801730544160796e-05 0.00046913946706359227 0.013007487008630908 0.0036925756020047742 0.010553370656044669 0.00077131324187319371 
</DataArray>
</CellData>
</Piece>
</UnstructuredGrid>
</VTKFile>
