<?xml version="1.0"?>
<VTKFile type="UnstructuredGrid" version="0.1" byte_order="LittleEndian">
<UnstructuredGrid>
<Piece NumberOfPoints="69" NumberOfCells="124">
<Points>
<DataArray type="Float64" NumberOfComponents="3" format="ascii">
0 0 0 0.084352422163911631 0.086451712656266194 0 0.1249999999997554 0 0 0 0.12500000000034689 0 0.1008171452988615 0.18885703697250469 0 0.2403886547178353 0.24188814792673841 0 0.18402761812864499 0.1117324051466445 0 0.25 -0 0 0.31250000000020822 0.12500000000041631 0 0.4287911518546233 0.15455445427966699 0 0.43749999999913258 0 0 0.43750000000006939 0.37500000000013878 0 0.49457493289300231 0.26251703776555491 0 0.37500000000027761 0.25000000000055511 0 0.33819444444448321 0.33819444444456342 0 0.37499999999973488 0.43749999999986738 0 0.14929124186975251 0.44582793568106382 0 0.24999999999960859 0.37499999999980432 0 0.1249999999997599 0.31249999999987998 0 0 0.25 0 0 0.43750000000034689 0 0 0.62500000000069389 0 0.13900789599611679 0.72618316107059999 0 0.13928587515912139 0.57339806105677438 0 0 1 0 0 0.81250000000104083 0 0.12710107136012311 0.87094806618203435 0 0.1875000000005205 1 0 0.27987960212930818 0.83442741470570525 0 0.44927105396715372 0.85565124085155886 0 0.37500000000069389 1 0 0.26452443700674649 0.51563531581639865 0 0.27589467050686478 0.66058853156435704 0 0.38136204680495073 0.74038592213831234 0 0.4139414069912184 0.60563252640100373 0 0.5 0.5 -0 0.50145856933078625 0.73674663046504862 0 0.5625 0.625 0 0.71259747807844409 0.63846691315701831 0 0.63236534182377013 0.50296756406332266 0 0.56250000000086742 1 0 0.56777512057187585 0.8470224641095303 0 0.625 0.75 0 0.73857795170433571 0.77736788564284653 0 0.6875 0.875 0 0.75 1 0 0.80552984491000901 0.88711122872127413 0 0.85787927391517405 0.753532520882502 0 1 0.83333333333356463 0 0.90637953422180084 0.90208583328057301 0 1 1 0 0.875 1 0 0.86127466977819722 0.57948076978797636 0 1 0.66666666666736052 0 1 0.50000000000138767 0 0.75338430262320943 0.49294443423175599 0 0.86569408477091048 0.40983673916766611 0 0.86087286690217635 0.25206523597959418 0 1 0.33333333333448978 0 1 0.16666666666736049 0 1 0 0 0.87698901648812122 0.1160638338657984 0 0.81249999999947953 0 0 0.71508993406183785 0.15715956854777599 0 0.62499999999895905 0 0 0.54475767668582953 0.1431838882066932 0 0.61108462585082757 0.25750599582343231 0 0.56986707178436635 0.37762093650871992 0 0.71826039492840632 0.34564020717216182 0 
</DataArray>
</Points>
<Cells>
<DataArray type="UInt32" Name="connectivity" format="ascii">
0 1 3 0 1 2 3 4 19 1 3 4 1 4 6 4 5 18 4 5 6 5 6 8 2 6 7 6 7 8 1 2 6 7 8 7 8 10 5 8 13 8 13 8 9 13 9 12 13 9 12 65 8 9 10 9 10 65 15 35 11 15 35 11 14 15 11 35 11 12 13 11 13 11 13 14 5 14 17 5 13 14 14 15 17 15 17 15 17 31 16 17 31 16 17 18 5 17 18 17 18 18 19 20 4 18 19 18 19 16 20 23 16 18 20 20 21 23 21 22 23 21 22 25 22 23 32 22 28 32 23 31 32 16 23 31 24 26 27 24 25 26 22 25 26 22 26 28 26 27 28 28 29 30 27 28 30 28 29 33 29 33 36 29 30 40 31 32 34 15 31 34 28 32 33 32 33 34 33 34 36 34 36 37 15 34 35 34 35 37 35 37 39 35 37 36 37 42 37 42 38 42 43 37 38 42 38 39 55 37 38 39 40 41 44 29 40 41 29 36 41 36 41 42 42 43 44 43 44 46 42 44 41 42 44 40 44 45 44 45 46 44 45 45 46 51 46 49 51 46 47 49 43 46 47 47 48 53 47 48 49 48 49 50 49 50 51 38 52 55 38 47 52 38 43 47 47 52 53 52 53 54 54 56 58 52 54 56 52 55 56 55 56 68 57 63 68 56 57 68 57 58 59 56 57 58 57 59 61 60 61 62 59 60 61 61 62 63 57 61 63 63 64 65 62 63 64 10 64 65 63 65 66 12 65 66 12 66 67 11 12 67 11 35 67 35 39 67 39 55 68 39 67 68 63 66 68 66 67 68 
</DataArray>
<DataArray type="UInt32" Name="offsets" format="ascii">
3 6 9 12 15 18 21 24 27 30 33 35 38 41 43 46 49 52 55 58 60 63 66 68 71 73 76 79 82 85 87 90 93 96 99 101 104 107 109 112 115 118 121 124 127 130 133 136 139 142 145 148 151 154 157 160 163 166 169 172 175 178 181 184 187 190 193 195 198 200 203 206 209 212 215 218 221 224 227 230 232 235 238 241 243 246 249 252 255 258 261 264 267 270 273 276 279 282 285 288 291 294 297 300 303 306 309 312 315 318 321 324 327 330 333 336 339 342 345 348 351 354 357 360 
</DataArray>
<DataArray type="UInt32" Name="types" format="ascii">
5 5 5 5 5 5 5 5 5 5 5 3 5 5 3 5 5 5 5 5 3 5 5 3 5 3 5 5 5 5 3 5 5 5 5 3 5 5 3 5 5 5 5 5 5 5 5 5 5 5 5 5 5 5 5 5 5 5 5 5 5 5 5 5 5 5 5 3 5 3 5 5 5 5 5 5 5 5 5 5 3 5 5 5 3 5 5 5 5 5 5 5 5 5 5 5 5 5 5 5 5 5 5 5 5 5 5 5 5 5 5 5 5 5 5 5 5 5 5 5 5 5 5 5 
</DataArray>
</Cells>
<CellData Scalars="age_conc,U235_conc," Vectors="" Tensors="">
<DataArray type="Float64" Name="age_conc" format="ascii">
82489.523095544588 82489.523095556244 82489.521943898973 82489.523095394965 82489.5230955523 82489.498942804319 82489.522911775988 82489.499100468296 82489.522062265998 82489.415435371979 82489.52309554044 82475.988759659536 82489.523095533281 82488.260795806331 82382.028634827526 82489.523095555662 82489.523095265948 82489.523052395802 82489.523093736338 82489.523004039453 79891.029506211416 82332.546284688608 82481.103961739122 79938.660772488074 82489.523095536904 81889.90467018669 82472.557337492544 82489.069034500208 82489.066224221446 82472.68547580982 81880.344566798201 82489.519883640751 82489.523059051135 82489.523095257857 82488.2304028035 82380.584007206344 82489.523095548546 82489.404520213706 82475.835078625896 82489.523049791256 82489.523094852731 82489.514462794235 82489.266068589219 82474.708914440533 82488.95246646236 82480.487778238574 82489.5122575438 82489.522684953015 65109.746464936368 79131.612280369533 82297.203402456129 82117.936116127225 79360.837961820085 79647.992265482753 67523.78940772677 82151.729122430872 82483.936167945329 64642.151406058765 82489.490747079821 82489.414402915383 82454.932200547119 82488.845592474288 82488.951174918737 82411.397524185857 82482.853675528881 82389.314403513577 82489.520278109834 72992.195861315369 81626.991071546348 62861.413119577104 82486.406560599411 82489.333547158443 82486.908652296755 82489.46317873316 76954.257034951253 81858.412181962296 82421.112131891015 82067.949944933483 82422.405743197247 81935.419044518843 47334.039505501853 79513.158157078156 60070.244230694516 77967.069544963408 26152.934040028616 62302.763173414802 77401.742667831524 81685.355851240878 82389.189988965736 65650.28988458142 78275.487875176666 58809.247108030511 59877.173221439101 82457.805941631217 82187.639739830134 82483.352836166116 79483.890772456958 64782.426741550065 64264.335491779137 79324.974605027208 82066.970238181864 82448.408979448446 82463.930412824557 82175.456276949204 65450.618692068732 79167.129632729208 78639.561390642586 78972.277746647669 64675.677793862029 82339.502798258662 82113.166925908386 82489.287526039931 82478.137548341969 82489.514172083916 82489.431515138262 82489.521601765271 82489.522909280291 82489.523093433119 82489.523014092454 82489.520360337643 82487.38763852336 82489.390486204516 82487.773848301149 82489.517176404945 
</DataArray>
<DataArray type="Float64" Name="U235_conc" format="ascii">
0 0 5.5424110589341162e-08 1.2919314741547642e-10 7.2435574385114693e-11 7.7834415431890314e-07 9.0722540196902834e-09 7.7305418032173813e-07 4.9870409666584222e-08 3.4127650863784089e-06 1.5274738773473006e-10 0.00037137414402960898 8.857056438746189e-13 3.5023500636769901e-05 0.002842151709203317 1.1638381481196937e-13 1.0551361567025683e-11 1.3000258948873995e-09 5.5380498084650494e-11 2.560449549027014e-09 0.067086106411449187 0.0041253360179769882 0.00022496413407155363 0.065853550417024884 9.8286633691392086e-13 0.015723802719048066 0.00045107535622111364 1.2732514550874086e-05 1.2809041049033136e-05 0.00044771184650971188 0.015974911459612346 9.1903905079620329e-08 1.2181963991525873e-09 1.4878957887011565e-11 3.5871964205777466e-05 0.002880587008146719 3.3429687909406093e-13 3.7589199334343626e-06 0.00037565599971246913 1.2947737447379981e-09 2.1841671800341132e-11 2.3239130344396146e-07 6.7809982187960865e-06 0.00038169564184296055 1.5050665833453915e-05 0.00023325309171143109 2.921686106522395e-07 1.1507969614297216e-08 0.31297897919344692 0.074108073886752682 0.0047366201665734907 0.0091029363757721016 0.069138215470648648 0.063050504067579255 0.27174976771814674 0.0082794519147762324 0.00014706365484400203 0.32366341039571511 8.6825609145663777e-07 2.924396099011431e-06 0.00088937236252268769 1.7842246501795239e-05 1.5219901645216325e-05 0.0020335358034361548 0.00017577471934208231 0.0025981351311004279 7.8516093291398663e-08 0.23194681021821667 0.02155234000502209 0.43241433585524736 8.1999010891352082e-05 5.0801785607922657e-06 6.8765590788625632e-05 1.6100834315402124e-06 0.12235829264920631 0.015475330513591411 0.001761817324277727 0.01068053604524543 0.0017225300297495142 0.01352180283949337 0.65764998511179606 0.069732760466754418 0.40884689308030853 0.099294045903765921 0.85405255734838137 0.36107465541985179 0.111931097563866 0.019638696026603689 0.0025755010093643539 0.30399489232874349 0.093029276416344175 0.42470028379278391 0.40661420082234379 0.00081543014931146425 0.0073989881815878988 0.00016219777529899768 0.066467153331713158 0.31956462430938259 0.32904923903883754 0.069983858944861338 0.010345896889491082 0.0010568127977672436 0.00065811923760689117 0.0076929111011774546 0.3077218889484889 0.073463243579868082 0.084792681987404001 0.077506619874810417 0.3197789648766034 0.0037064423864542127 0.009210453570582023 6.2132793361918401e-06 0.00029369554677116991 2.4009689394345499e-07 2.4550172931411226e-06 4.1494353822107796e-08 5.4854571773071876e-09 7.3544734260173523e-11 2.4570577720660151e-09 7.6048895422794958e-08 5.6193012712614072e-05 3.5546356836817965e-06 4.6024333669202733e-05 1.6318993914201636e-07 
</DataArray>
</CellData>
</Piece>
</UnstructuredGrid>
</VTKFile>
