<?xml version="1.0"?>
<VTKFile type="UnstructuredGrid" version="0.1" byte_order="LittleEndian">
<UnstructuredGrid>
<Piece NumberOfPoints="69" NumberOfCells="124">
<Points>
<DataArray type="Float64" NumberOfComponents="3" format="ascii">
0 0 0 0.084352422163911631 0.086451712656266194 0 0.1249999999997554 0 0 0 0.12500000000034689 0 0.1008171452988615 0.18885703697250469 0 0.2403886547178353 0.24188814792673841 0 0.18402761812864499 0.1117324051466445 0 0.25 -0 0 0.31250000000020822 0.12500000000041631 0 0.4287911518546233 0.15455445427966699 0 0.43749999999913258 0 0 0.43750000000006939 0.37500000000013878 0 0.49457493289300231 0.26251703776555491 0 0.37500000000027761 0.25000000000055511 0 0.33819444444448321 0.33819444444456342 0 0.37499999999973488 0.43749999999986738 0 0.14929124186975251 0.44582793568106382 0 0.24999999999960859 0.37499999999980432 0 0.1249999999997599 0.31249999999987998 0 0 0.25 0 0 0.43750000000034689 0 0 0.62500000000069389 0 0.13900789599611679 0.72618316107059999 0 0.13928587515912139 0.57339806105677438 0 0 1 0 0 0.81250000000104083 0 0.12710107136012311 0.87094806618203435 0 0.1875000000005205 1 0 0.27987960212930818 0.83442741470570525 0 0.44927105396715372 0.85565124085155886 0 0.37500000000069389 1 0 0.26452443700674649 0.51563531581639865 0 0.27589467050686478 0.66058853156435704 0 0.38136204680495073 0.74038592213831234 0 0.4139414069912184 0.60563252640100373 0 0.5 0.5 -0 0.50145856933078625 0.73674663046504862 0 0.5625 0.625 0 0.71259747807844409 0.63846691315701831 0 0.63236534182377013 0.50296756406332266 0 0.56250000000086742 1 0 0.56777512057187585 0.8470224641095303 0 0.625 0.75 0 0.73857795170433571 0.77736788564284653 0 0.6875 0.875 0 0.75 1 0 0.80552984491000901 0.88711122872127413 0 0.85787927391517405 0.753532520882502 0 1 0.83333333333356463 0 0.90637953422180084 0.90208583328057301 0 1 1 0 0.875 1 0 0.86127466977819722 0.57948076978797636 0 1 0.66666666666736052 0 1 0.50000000000138767 0 0.75338430262320943 0.49294443423175599 0 0.86569408477091048 0.40983673916766611 0 0.86087286690217635 0.25206523597959418 0 1 0.33333333333448978 0 1 0.16666666666736049 0 1 0 0 0.87698901648812122 0.1160638338657984 0 0.81249999999947953 0 0 0.71508993406183785 0.15715956854777599 0 0.62499999999895905 0 0 0.54475767668582953 0.1431838882066932 0 0.61108462585082757 0.25750599582343231 0 0.56986707178436635 0.37762093650871992 0 0.71826039492840632 0.34564020717216182 0 
</DataArray>
</Points>
<Cells>
<DataArray type="UInt32" Name="connectivity" format="ascii">
0 1 3 0 1 2 3 4 19 1 3 4 1 4 6 4 5 18 4 5 6 5 6 8 2 6 7 6 7 8 1 2 6 7 8 7 8 10 5 8 13 8 13 8 9 13 9 12 13 9 12 65 8 9 10 9 10 65 15 35 11 15 35 11 14 15 11 35 11 12 13 11 13 11 13 14 5 14 17 5 13 14 14 15 17 15 17 15 17 31 16 17 31 16 17 18 5 17 18 17 18 18 19 20 4 18 19 18 19 16 20 23 16 18 20 20 21 23 21 22 23 21 22 25 22 23 32 22 28 32 23 31 32 16 23 31 24 26 27 24 25 26 22 25 26 22 26 28 26 27 28 28 29 30 27 28 30 28 29 33 29 33 36 29 30 40 31 32 34 15 31 34 28 32 33 32 33 34 33 34 36 34 36 37 15 34 35 34 35 37 35 37 39 35 37 36 37 42 37 42 38 42 43 37 38 42 38 39 55 37 38 39 40 41 44 29 40 41 29 36 41 36 41 42 42 43 44 43 44 46 42 44 41 42 44 40 44 45 44 45 46 44 45 45 46 51 46 49 51 46 47 49 43 46 47 47 48 53 47 48 49 48 49 50 49 50 51 38 52 55 38 47 52 38 43 47 47 52 53 52 53 54 54 56 58 52 54 56 52 55 56 55 56 68 57 63 68 56 57 68 57 58 59 56 57 58 57 59 61 60 61 62 59 60 61 61 62 63 57 61 63 63 64 65 62 63 64 10 64 65 63 65 66 12 65 66 12 66 67 11 12 67 11 35 67 35 39 67 39 55 68 39 67 68 63 66 68 66 67 68 
</DataArray>
<DataArray type="UInt32" Name="offsets" format="ascii">
3 6 9 12 15 18 21 24 27 30 33 35 38 41 43 46 49 52 55 58 60 63 66 68 71 73 76 79 82 85 87 90 93 96 99 101 104 107 109 112 115 118 121 124 127 130 133 136 139 142 145 148 151 154 157 160 163 166 169 172 175 178 181 184 187 190 193 195 198 200 203 206 209 212 215 218 221 224 227 230 232 235 238 241 243 246 249 252 255 258 261 264 267 270 273 276 279 282 285 288 291 294 297 300 303 306 309 312 315 318 321 324 327 330 333 336 339 342 345 348 351 354 357 360 
</DataArray>
<DataArray type="UInt32" Name="types" format="ascii">
5 5 5 5 5 5 5 5 5 5 5 3 5 5 3 5 5 5 5 5 3 5 5 3 5 3 5 5 5 5 3 5 5 5 5 3 5 5 3 5 5 5 5 5 5 5 5 5 5 5 5 5 5 5 5 5 5 5 5 5 5 5 5 5 5 5 5 3 5 3 5 5 5 5 5 5 5 5 5 5 3 5 5 5 3 5 5 5 5 5 5 5 5 5 5 5 5 5 5 5 5 5 5 5 5 5 5 5 5 5 5 5 5 5 5 5 5 5 5 5 5 5 5 5 
</DataArray>
</Cells>
<CellData Scalars="age_conc,U235_conc," Vectors="" Tensors="">
<DataArray type="Float64" Name="age_conc" format="ascii">
165381.78581958549 165381.71515238928 165297.50339745579 165378.06607184722 165379.21664766219 165221.29670441718 165362.19090987925 165223.4591563789 165306.18424915159 164911.48193043572 165377.39600872158 159403.14289988723 165382.1875214793 164451.60060632616 154265.76168565141 165382.18790617556 165382.16689956107 165381.72676795794 165382.16274436202 165381.90786983669 132612.2728355765 156892.67535541696 163217.24499252671 133416.24498493483 165382.17732216607 146161.25726960413 162400.60101393133 164869.13481862162 164869.56178450337 162398.20132803053 145700.67068959892 165374.30243442691 165381.50029560598 165382.11450869177 164424.18826118045 154022.30146562125 165382.18849470172 164861.77909330989 159284.47072097508 165381.98511185308 165382.17173638532 165376.04970655241 165329.42257610103 164536.2201329224 165271.22773787464 164789.93768837574 165373.90213936157 165380.94237832542 102674.31469110628 140528.1211678109 161296.84319980795 158673.28573983323 141866.33166054823 143036.32088140433 109284.771549082 159187.67490038453 164577.81205582083 99498.696548418986 165363.34344512867 165334.18571000223 163718.06419894091 165264.94631458534 165208.6725854956 162300.79339048619 164752.01453028162 162816.62683707863 165375.44057172944 108752.58107561775 154518.53289589641 86895.906796395822 164924.14848369695 165288.03109270838 165013.23194580612 165345.67760116211 126257.10613799097 154339.39942252124 162124.04615057277 156199.95182618481 162562.64587115977 156336.67457950866 61716.796135477314 139881.01972305242 84625.970406068911 133776.61599917023 31899.123294145298 94356.79451231948 129513.43821010298 152348.51244226354 161187.26671542041 103669.03297637288 134388.93473130043 82683.167105919478 85446.833627311629 163857.24860744877 159812.82003720888 164578.28688577175 142493.04167902938 101099.51218810548 99204.096232903961 141423.38730852 157894.77021365691 163446.52495678831 164124.58965604068 159684.78279576593 103150.13582856586 140310.05352620219 137603.14786371673 139714.09310528164 101690.43031678609 161940.44544006605 158782.11201198105 165334.98945621806 164680.36853435836 165376.0534915569 165335.7189681977 165379.01637681393 165380.67737179756 165382.06198261862 165381.29219870342 165376.21547699542 165063.90536250203 165315.63676048708 165124.05487974765 165371.9077619531 
</DataArray>
<DataArray type="Float64" Name="U235_conc" format="ascii">
3.6916529668305561e-06 4.3441883993057279e-06 0.00096550100541643684 4.2147983975881353e-05 2.9704739161474394e-05 0.0019328750679505546 0.00022038353925274437 0.0019077962696475693 0.00086660195333764217 0.0058337129501517841 4.9090673376051783e-05 0.077689556915742405 2.4828385524815575e-08 0.011819908992598004 0.14095359976339814 1.9947530817960325e-08 2.3080309202233795e-07 4.9797524375530324e-06 2.8515700206670551e-07 3.1250112455061807e-06 0.34825782981289799 0.10424549215361242 0.027325664001045042 0.33930492030412507 1.1814610426888997e-07 0.22779363665443378 0.037826624261428826 0.0063779174892571629 0.0063751367046208096 0.037852518911806056 0.23341420716838857 9.318258706998963e-05 7.5872623790480659e-06 7.6524806934986038e-07 0.0121661370444585 0.14406149981431399 1.4783619496024419e-08 0.0064491020522049183 0.079210876835409505 2.226346203239373e-06 1.8436951635601736e-07 7.2024961150647326e-05 0.00063812485603679365 0.010271956091901886 0.0013469680159769377 0.0072017038092840376 9.7050566886866931e-05 1.392502491704325e-05 0.51977242460350714 0.25192843666280351 0.047491021009481674 0.076944273204859068 0.23916671543947818 0.22944863891308956 0.47255196971198937 0.071141161204920755 0.0098816077657474313 0.55106248735718155 0.00022310398254691809 0.00059104768066170911 0.020159324143073174 0.0014230654452960095 0.002103464894664338 0.037104030427772779 0.0077981596392297271 0.029952777370829995 7.6544544579543506e-05 0.5188921744749323 0.11821937446472676 0.64656322617157547 0.0056040307701266017 0.0011283647319548322 0.0045180107623678809 0.0004328874274982985 0.39184704156656569 0.12630566948678215 0.039536782429114653 0.10665048996712065 0.034038587409631442 0.10270510516075995 0.76723445397085643 0.26385390210817405 0.66635429473480434 0.31621622138933536 0.89350030633048871 0.58249648882013516 0.35949957530694154 0.14794247061518853 0.050680128444808958 0.51513881396527184 0.3136674785018726 0.67488050454625137 0.6559128114644428 0.018469412701425863 0.063988968480405264 0.0098689890651866771 0.23347306732392739 0.53408396931315594 0.549814591592522 0.24405101926944819 0.085728243494307077 0.0234409473111577 0.015235110446052424 0.065360929700219644 0.51850383074391271 0.25520775014074815 0.27996480701352222 0.25938172727107339 0.52606116522113733 0.040238172708323888 0.075486718693113977 0.00057105532847497996 0.0085314454240235111 7.2096005244851044e-05 0.00055602167775281933 3.619829262179637e-05 1.6383236282386532e-05 1.285684376375771e-06 9.6428110476422477e-06 6.8113832907173072e-05 0.0038927979090813527 0.00079718934917534534 0.0031564423005880039 0.00011807988716349518 
</DataArray>
</CellData>
</Piece>
</UnstructuredGrid>
</VTKFile>
