<?xml version="1.0"?>
<VTKFile type="UnstructuredGrid" version="0.1" byte_order="LittleEndian">
<UnstructuredGrid>
<Piece NumberOfPoints="77" NumberOfCells="116">
<Points>
<DataArray type="Float64" NumberOfComponents="3" format="ascii">
0 0 -0.25 0.059999999999999998 0 -0.25 0.059999999999999998 0 0 0 0 0 0.059999999999999998 0 -0.27500000000000002 0 0 -0.27500000000000002 0.01999999999994688 0 -0.25 0.039999999999945489 0 -0.25 0.059999999999999998 0 -0.23076923076915071 0.059999999999999998 0 -0.21153846153838141 0.059999999999999998 0 -0.19230769230774561 0.059999999999999998 0 -0.17307692307710981 0.059999999999999998 0 -0.1538461538464739 0.059999999999999998 0 -0.13461538461583811 0.059999999999999998 0 -0.11538461538509549 0.059999999999999998 0 -0.09615384615424627 0.059999999999999998 0 -0.076923076923397005 0.059999999999999998 0 -0.05769230769254774 0.059999999999999998 0 -0.038461538461698468 0.059999999999999998 0 -0.019230769230849269 0.040000000000054187 0 0 0.020000000000055512 0 0 0 0 -0.019230769230731699 0 0 -0.038461538461461567 0 0 -0.057692307692174753 0 0 -0.076923076922887912 0 0 -0.096153846153601091 0 0 -0.1153846153843143 0 0 -0.1346153846150808 0 0 -0.1538461538459007 0 0 -0.1730769230767206 0 0 -0.19230769230754041 0 0 -0.21153846153836031 0 0 -0.23076923076918021 0.059999999999999998 0 -0.26249999999996748 0.040000000000054187 0 -0.27500000000000002 0.020000000000055512 0 -0.27500000000000002 0 0 -0.26250000000003249 0.030099952963207589 0 -0.14223370676777949 0.030000000000125201 0 -0.10576923076895769 0.030158967975210591 0 -0.2009297921336908 0.03000000000008159 0 -0.067307692307531336 0.03000000000003487 0 -0.02963076923078414 0.030396038380718079 0 -0.17297621417413511 0.02999999999995925 0 -0.2300482380123661 0.018317067958499089 0 -0.1246054661733985 0.019622781065090009 0 -0.086538461538244515 0.01922616814353734 0 -0.048570474920871777 0.041068248217298833 0 -0.048280343911021692 0.040956288865582599 0 -0.086538461538821637 0.041567835679411552 0 -0.1244247778655352 0.018236877830026171 0 -0.15913752036903059 0.018236877830194741 0 -0.18701632578524391 0.038385933231447462 0 -0.157170062337917 0.041887725916717702 0 -0.18631655674644809 0.041771955167404007 0 -0.21671437195425999 0.01855977860511682 0 -0.21786318903885449 0.017450019600176531 0 -0.0173634049995572 0.04254998039985692 0 -0.017363404999548391 0.013459072978381739 0 -0.10576923076895769 0.01345907297835771 0 -0.06730769230753135 0.046540927021778117 0 -0.1057692307696709 0.04654092702175408 0 -0.067307692307972372 0.01370416090204795 0 -0.1434660949082327 0.046010744374813319 0 -0.14245801708670869 0.044834978020214113 0 -0.23473008594705891 0.0151822925843103 0 -0.2347898952496941 0.045668142182445651 0 -0.032401801968801082 0.01484814467754606 0 -0.033530269039811697 0.01339112488210443 0 -0.20193109216073801 0.047221641564072457 0 -0.2014299685018425 0.045855681006193992 0 -0.1704178120391891 0.01444574739594987 0 -0.17307692307716019 0.03000000000001982 0 -0.010997155849241739 0.030000000000000401 0 -0.26250000000000001 0.047693452380952413 0 -0.26249999999998852 0.01230654761904804 0 -0.26250000000001139 
</DataArray>
</Points>
<Cells>
<DataArray type="UInt32" Name="connectivity" format="ascii">
6 7 44 39 45 50 41 46 49 45 38 50 46 39 49 47 41 48 6 44 66 44 7 65 55 40 56 44 55 56 42 47 48 3 22 57 19 2 58 21 3 57 2 20 58 27 28 45 25 26 46 38 51 53 51 43 53 43 52 54 52 40 54 23 24 47 8 9 55 32 33 56 10 11 54 8 55 65 56 33 66 17 18 48 30 31 52 29 30 51 13 14 50 15 16 49 30 52 72 51 30 72 54 11 71 11 12 71 12 53 71 39 50 61 41 49 62 49 39 61 48 41 62 27 45 59 45 39 59 39 46 59 46 26 59 25 46 60 46 41 60 17 48 62 38 45 63 45 28 63 47 24 60 41 47 60 15 49 61 49 16 62 50 14 61 1 8 65 33 0 66 7 1 65 0 6 66 50 38 64 13 50 64 23 47 68 22 23 68 47 42 68 18 19 67 48 18 67 42 48 67 57 22 68 19 58 67 44 56 66 55 44 65 12 13 64 28 29 63 29 51 63 26 27 59 24 25 60 14 15 61 16 17 62 53 12 64 40 52 69 51 38 63 54 40 70 31 32 69 57 42 73 42 58 73 40 55 70 43 51 72 52 43 72 38 53 64 9 10 70 56 40 69 20 21 73 52 31 69 43 54 71 42 57 68 32 56 69 10 54 70 58 42 67 53 43 71 55 9 70 58 20 73 21 57 73 37 0 76 34 4 75 5 37 76 1 34 75 36 5 76 7 1 75 0 6 76 4 35 75 6 7 74 35 36 74 35 74 75 74 7 75 6 74 76 74 36 76 
</DataArray>
<DataArray type="UInt32" Name="offsets" format="ascii">
3 6 9 12 15 18 21 24 27 30 33 36 39 42 45 48 51 54 57 60 63 66 69 72 75 78 81 84 87 90 93 96 99 102 105 108 111 114 117 120 123 126 129 132 135 138 141 144 147 150 153 156 159 162 165 168 171 174 177 180 183 186 189 192 195 198 201 204 207 210 213 216 219 222 225 228 231 234 237 240 243 246 249 252 255 258 261 264 267 270 273 276 279 282 285 288 291 294 297 300 303 306 309 312 315 318 321 324 327 330 333 336 339 342 345 348 
</DataArray>
<DataArray type="UInt32" Name="types" format="ascii">
5 5 5 5 5 5 5 5 5 5 5 5 5 5 5 5 5 5 5 5 5 5 5 5 5 5 5 5 5 5 5 5 5 5 5 5 5 5 5 5 5 5 5 5 5 5 5 5 5 5 5 5 5 5 5 5 5 5 5 5 5 5 5 5 5 5 5 5 5 5 5 5 5 5 5 5 5 5 5 5 5 5 5 5 5 5 5 5 5 5 5 5 5 5 5 5 5 5 5 5 5 5 5 5 5 5 5 5 5 5 5 5 5 5 5 5 
</DataArray>
</Cells>
<CellData Scalars="pressure_p0,water_content,conductivity_richards," Vectors="velocity_p0," Tensors="">
<DataArray type="Float64" Name="pressure_p0" format="ascii">
1144.4566720725509 -5094.0975039180485 -5924.175828864375 -4696.6198625003362 -5707.6353827180474 -6215.4318662984588 900.37924002586715 886.8782029878455 -390.17974244496054 63.211896096867193 -6305.5510490089782 -6415.9792058212834 -6416.1966137462168 -6423.4147809667511 -6423.5566482108989 -4892.4406149709612 -5826.6739340931272 -3753.9310043743076 -3233.9860462369961 -2130.1885023467403 -1554.4432059247374 -6267.749083489196 -40.654500878360764 6.8820098540308194 -2023.632999099643 321.96566496371895 384.71177445687999 -6268.5303006350405 -2006.7679033219911 -3288.4826567904911 -4895.4841339422892 -5826.8580740387315 -2393.7513657646377 -2933.6008707099877 -2461.7326617843405 -3079.9354997697619 -3371.1409012407476 -5274.7134542195836 -6014.7992443860312 -5578.0832043064474 -6158.9032494684616 -5186.4650764488179 -5272.7187684623077 -5577.9801164949386 -5647.34783661652 -5972.9506264487936 -6014.9078876983149 -6190.6537309666692 -4457.7602575046822 -4557.9481805164232 -6189.6635370689673 -6158.1364710043927 -5647.7920755179612 -5973.2412906777627 -5188.746275434979 902.25316966889488 916.5398089781072 1217.9845850922779 1228.0808456169189 -4476.4253126439817 -4574.4577065521644 -6319.0313506739076 -6364.9963855839633 -6334.8864257608866 -6366.6737860289686 -6321.6575300415116 -6337.1364740586469 -6390.5581163922106 -6391.969077632737 364.12710226387333 303.84733562314455 -4174.1064467451924 -4158.8797819836345 -3786.545932477411 -5434.0089446847869 -6093.2918768881391 -5434.4966366339513 -6093.564015994556 -3834.4289748999345 -1237.4605208683145 -3968.8259031480993 -1263.8996901070336 -916.74077351029916 -6402.9413594239195 -6402.9130546789002 -679.55843709477404 -2946.7317721968684 -2406.9885189466017 -4017.6633581495194 -934.34937394610711 -648.46336971054973 -6427.2694861906548 -1406.3790267224672 -2472.6155670017561 -6380.0556828046047 -441.30183142311307 -1434.5850112668379 -6381.4166832699939 -3032.3650137911955 -482.21282492075051 -6421.9541641512315 -6421.9112167561098 1819.8158613579028 2019.1872394287502 2023.9807342757988 1813.7352599320943 2073.2396204203214 1658.5588959790227 1664.8269078422936 2069.4697578071964 1661.4305493305837 2072.4995819952173 2023.3625514202854 1817.8502868801379 1820.6712115041814 2025.5606463311465 
</DataArray>
<DataArray type="Float64" Name="velocity_p0" NumberOfComponents="3" format="ascii">
1.3244344981536255e-07 0 8.7780342914307176e-06 1.9130560653323303e-11 0 5.4450087754940764e-07 -4.80176975076217e-10 0 2.4666921986619283e-07 2.9339406395553361e-09 0 6.1800091977317909e-07 -4.1158342269932513e-10 0 2.8408504369747982e-07 3.7387987591457216e-11 0 1.1625471174788263e-07 6.9004686737542028e-08 0 8.6514627812590477e-06 4.9176308216587935e-08 0 8.944166910487904e-06 -5.459616409535805e-09 0 5.4768016008892013e-06 3.8425678338627445e-07 0 6.3279475505936718e-06 -2.2789358138813609e-10 0 9.7676583428934749e-08 -5.5494313192577407e-09 0 2.6959546226569407e-08 5.5453662863826975e-09 0 2.6800039832151661e-08 3.8025602562576005e-09 0 5.3755095053919582e-09 -3.6566317670907002e-09 0 5.3728357261779256e-09 -3.5217912129758238e-08 0 5.8567696689091586e-07 -1.8438831910811834e-08 0 2.6385878515862854e-07 6.3729698763925322e-09 0 1.0799916159340872e-06 2.1217752989646692e-08 0 1.2103926411659244e-06 -1.6265825476477469e-09 0 2.0567301553697629e-06 1.3243068487479839e-08 0 2.3315705312774408e-06 -9.2552176611659389e-09 0 1.0608820963183089e-07 7.0104759939110721e-07 0 6.2868907851116337e-06 -7.8396075710353779e-07 0 6.6203135340509331e-06 1.3258920407955251e-07 0 2.0821412159372522e-06 -1.1234505092314948e-06 0 8.9459397747398425e-06 2.3939674248709056e-07 0 8.7955066674190455e-06 9.0978113386987922e-09 0 1.0554675924870937e-07 -1.3590146444972088e-07 0 2.1079689941972896e-06 -7.568233190463202e-08 0 1.2277591645384309e-06 3.5386314807376477e-08 0 5.834243101833391e-07 1.7892796054721678e-08 0 2.6371177758619753e-07 1.158998095573089e-07 0 1.6798759130717926e-06 9.8470795015948922e-08 0 1.5047528885014674e-06 -1.0373402548493719e-07 0 1.6659319812567906e-06 6.4357020963895613e-08 0 1.4251816993024443e-06 -1.4214848209901888e-08 0 1.1496391837174029e-06 9.4665905097550384e-09 0 4.2364024866774101e-07 4.2428553082020406e-09 0 1.8497116605418858e-07 6.2411285597686754e-09 0 3.707305966594461e-07 3.2403587657769604e-09 0 1.5885929022345783e-07 2.455014130055323e-08 0 4.8991918983861037e-07 -9.2365355809762648e-09 0 4.2455786945278843e-07 -4.7937095504260103e-09 0 3.7132392419185451e-07 1.6556037049247073e-08 0 3.1807768635808998e-07 1.1610577422803336e-08 0 2.1771051066584403e-07 -3.349856164332383e-09 0 1.8498270072585465e-07 -8.2932100161552255e-09 0 1.3277978916529716e-07 -1.757246862745257e-08 0 7.8903774452776177e-07 3.7646077032347242e-08 0 7.0362989870061839e-07 8.3427283212718578e-09 0 1.3288515315122136e-07 -2.785067122005507e-09 0 1.5903226822117913e-07 -1.6650018875726102e-08 0 3.184417507885641e-07 -1.160063875734478e-08 0 2.1724321247541671e-07 -2.3796559339710742e-08 0 4.8910739495105943e-07 1.6331608374692275e-15 0 8.7589663463143712e-06 1.1489197248204693e-16 0 8.653876143938082e-06 -7.1764931381666107e-09 0 8.7661924854290262e-06 5.1802176430192714e-08 0 8.7057732574191217e-06 1.574958243907734e-08 0 7.7753566821162152e-07 -4.0444679538960436e-08 0 7.0120649910151809e-07 8.3576597682552055e-09 0 8.2063197438172048e-08 -5.5694435542600497e-09 0 6.3144373106765753e-08 -1.5187375522474283e-09 0 6.9307119421146814e-08 5.3493788386960124e-09 0 6.1383252578127067e-08 -7.8375424306833716e-09 0 8.1729868636173031e-08 1.7763688163013465e-09 0 6.8336745584469568e-08 4.5604984425435525e-09 0 3.9679661313745129e-08 -4.3814833087610105e-09 0 3.906184798341002e-08 4.8677325309283355e-08 0 9.0548124467801942e-06 1.1702957401828044e-06 0 9.2445750527619511e-06 3.9037897021185173e-08 0 8.5162333488434938e-07 -3.8523443291671374e-08 0 8.6253543481593149e-07 4.8714920453424649e-08 0 1.0526606174325518e-06 -1.8053643363882045e-08 0 3.9629027754783e-07 -8.9553309327398395e-09 0 1.7118355617015458e-07 1.8049888975365887e-08 0 3.9624344864319968e-07 8.9526886481131895e-09 0 1.7106060567220881e-07 -3.0182209863371514e-08 0 1.0355308919630913e-06 -6.9258406280444788e-08 0 2.9745979510264153e-06 -1.2502402568222382e-08 0 8.9062291733489217e-07 5.9548989830604385e-08 0 2.9389152679429615e-06 -2.0231309717517745e-07 0 3.3828308598570329e-06 4.1043178579357668e-09 0 3.5759706050018787e-08 -4.2465173109866856e-09 0 3.5945594947717351e-08 6.1120501720937771e-08 0 3.5476919714149243e-06 -5.1006346573855119e-08 0 1.4950681982449422e-06 -6.7240340829902422e-08 0 1.6691754689464187e-06 -2.5748928622357727e-10 0 8.7199902561995605e-07 1.8084016537234259e-07 0 3.2852693732849583e-06 7.7122627373084653e-09 0 3.6558525316046526e-06 4.6585562437120184e-11 0 3.3562032904871457e-09 1.5260942965666296e-07 0 2.5308288808344301e-06 6.5937449539679979e-08 0 1.6428290766635038e-06 -3.8845338615300333e-09 0 5.6491440738664267e-08 4.394412125365009e-07 0 5.0432578628183298e-06 -1.4058255457470148e-07 0 2.4973961253061794e-06 3.3692977708183642e-09 0 5.6061061553246529e-08 -6.8486951127834488e-09 0 1.451961160661485e-06 -2.9917589692611221e-07 0 4.6573206431322192e-06 3.9112238532506011e-09 0 2.0596337716063968e-08 -3.7759697746875624e-09 0 2.0551036971491199e-08 7.1788194486286535e-07 0 5.0850505956665923e-06 -7.1788194486284565e-07 0 3.6541789674502913e-06 7.1788194486282278e-07 0 3.6267172614833197e-06 -7.1788194486284523e-07 0 5.1125123016335402e-06 -2.5027699240733882e-07 0 7.2916666709107324e-07 2.7682264705768308e-07 0 8.0370258200052689e-06 -2.4437518989499559e-07 0 7.9766066007490315e-06 2.7731368809954911e-07 0 7.291666748929493e-07 2.6320348185466525e-08 0 8.0488676243390982e-06 2.2014982264887839e-08 0 7.2916666709176473e-07 -1.2033228750824121e-07 0 3.6555816586726229e-06 -1.2285697527798606e-07 0 5.1139150262867346e-06 1.8510200868790088e-07 0 5.1019096472871825e-06 1.5475798467051492e-07 0 3.6435763131038328e-06 
</DataArray>
<DataArray type="Float64" Name="water_content" format="ascii">
0.41999999999999998 0.21430614087557709 0.20818797652983101 0.21767670473097142 0.20967611889144444 0.20628642015414045 0.41999999999999998 0.41999999999999998 0.34877379839643052 0.41157387837663473 0.2057205896386837 0.20504034857983064 0.20503902389846518 0.204995047658729 0.20499418474841988 0.21597164063771893 0.20884869263079861 0.2273112292686148 0.23394814925508201 0.25373323722512908 0.26959965138331748 0.20595660743099217 0.39994867427675729 0.40418190793745046 0.25643455031600065 0.41999999999999998 0.41999999999999998 0.2059517044385927 0.25687424759253691 0.23322155070795816 0.21594570459353049 0.20884742504709078 0.24797719853824166 0.23844264692197212 0.2466638084777005 0.23626403895183035 0.23207410165804107 0.21287164208585788 0.20758358494904497 0.21060268687317552 0.20664702389076797 0.21356136254360183 0.21288732221384823 0.21060344380247145 0.21010231205663035 0.20786059590698217 0.20758287403533096 0.20644371826654015 0.2198906130948218 0.21893779958349394 0.20644999860061622 0.20665189228918615 0.21009914852407127 0.20785866198752098 0.21354312213978058 0.41999999999999998 0.41999999999999998 0.41999999999999998 0.41999999999999998 0.21971118424532055 0.21878357858250749 0.20563648408248772 0.20535254421029225 0.20553830034769779 0.20534221124983176 0.20562020950657156 0.20552438042888285 0.20519557267774294 0.20518692951240758 0.41999999999999998 0.41999999999999998 0.22268807254142933 0.22284588613620623 0.22691139974118016 0.21165891313492666 0.20706969883090495 0.21165527432072972 0.20706793172452223 0.22635811361232716 0.28193607727122233 0.22486250699250085 0.28085063667751903 0.29872026938151602 0.20511986726441558 0.20512004060201069 0.31477885110805487 0.23822424926139471 0.2477266559743605 0.22432447521448851 0.29756534529393902 0.31766165651409517 0.20497160929517577 0.27479401486557903 0.24646155502971248 0.20525997085584349 0.33981159162343372 0.2737645606000656 0.2052516133805935 0.23691357435783825 0.33443959278701013 0.20500394660045371 0.20500420781763071 0.41999999999999998 0.41999999999999998 0.41999999999999998 0.41999999999999998 0.41999999999999998 0.41999999999999998 0.41999999999999998 0.41999999999999998 0.41999999999999998 0.41999999999999998 0.41999999999999998 0.41999999999999998 0.41999999999999998 0.41999999999999998 
</DataArray>
<DataArray type="Float64" Name="conductivity_richards" format="ascii">
1.7780000000000002e-10 1.7110838020196605e-11 1.5369976447218177e-11 1.8123106476312434e-11 1.5781709420548573e-11 1.4854225945629547e-11 1.7780000000000002e-10 1.7780000000000002e-10 9.8344902241923477e-11 1.6659725573823075e-10 1.4703083097784546e-11 1.4522719973840988e-11 1.4522370231917e-11 1.4510760111130259e-11 1.4510532439188173e-11 1.7605836951134659e-11 1.5551777250455176e-11 2.1240356257086666e-11 2.3579924898574267e-11 3.1594213989064931e-11 3.9187425467310591e-11 1.4765989716004742e-11 1.5311791832207462e-10 1.581347096389834e-10 3.2842941061424808e-11 1.7780000000000002e-10 1.7780000000000002e-10 1.4764680259476405e-11 3.304915817947658e-11 2.3319621502871271e-11 1.7598033834716924e-11 1.5551426312313165e-11 2.9085876056301383e-11 2.526647986531224e-11 2.8541514621284483e-11 2.4450899695837891e-11 2.2901947510594309e-11 1.6690903851001343e-11 1.5204698020319531e-11 1.6042085670230031e-11 1.4951145547227922e-11 1.6891534880216716e-11 1.6695474241628445e-11 1.6042300555363651e-11 1.5900928686963686e-11 1.5280227938248554e-11 1.5204505049006195e-11 1.4896423117159097e-11 1.8811557257642806e-11 1.8512291850046518e-11 1.4898107285586398e-11 1.4952451589465487e-11 1.5900041258769162e-11 1.5279699586481137e-11 1.6886182462404266e-11 1.7780000000000002e-10 1.7780000000000002e-10 1.7780000000000002e-10 1.7780000000000002e-10 1.8754965950524784e-11 1.8464210816382252e-11 1.4680672339132501e-11 1.4605305813452968e-11 1.4654586322964638e-11 1.4602566089916327e-11 1.4676347211564866e-11 1.4650889408711577e-11 1.4563736239934639e-11 1.4561449535973771e-11 1.7780000000000002e-10 1.7780000000000002e-10 1.970266321892069e-11 1.9753926012732298e-11 2.1101721982010007e-11 1.634175180275736e-11 1.5065181567750761e-11 1.6340712350936279e-11 1.5064703340216076e-11 2.0914287281004116e-11 4.5988372134577308e-11 2.0414781791634013e-11 4.537827051153629e-11 5.6450549712044693e-11 1.4543722487192358e-11 1.4543768341594552e-11 6.7528277134273275e-11 2.5181122062961694e-11 2.8982826187720232e-11 2.0235910717433902e-11 5.5658284992615058e-11 6.9772229934271883e-11 1.4504576902098044e-11 4.1921519126345745e-11 2.8458857603257438e-11 1.4580780442587818e-11 8.8715844233796729e-11 4.1372425330304133e-11 1.457856722656085e-11 2.4685137341172568e-11 8.3736447531696366e-11 1.4513109532609972e-11 1.4513178451520047e-11 1.7780000000000002e-10 1.7780000000000002e-10 1.7780000000000002e-10 1.7780000000000002e-10 1.7780000000000002e-10 1.7780000000000002e-10 1.7780000000000002e-10 1.7780000000000002e-10 1.7780000000000002e-10 1.7780000000000002e-10 1.7780000000000002e-10 1.7780000000000002e-10 1.7780000000000002e-10 1.7780000000000002e-10 
</DataArray>
</CellData>
</Piece>
</UnstructuredGrid>
</VTKFile>
