<?xml version="1.0"?>
<VTKFile type="UnstructuredGrid" version="0.1" byte_order="LittleEndian">
<UnstructuredGrid>
<Piece NumberOfPoints="77" NumberOfCells="116">
<Points>
<DataArray type="Float64" NumberOfComponents="3" format="ascii">
0 0 -0.019230769230731699 0 0 -0.19230769230754041 0 0 -0.21153846153836031 0 0 -0.23076923076918021 0 0 -0.1730769230767206 0 0 -0.1538461538459007 0 0 -0.1346153846150808 0 0 -0.1153846153843143 0 0 -0.096153846153601091 0 0 -0.038461538461461567 0 0 -0.057692307692174753 0 0 -0.27500000000000002 0 0 -0.26250000000003249 0 0 0 0 0 -0.25 0 0 -0.076923076922887912 0.013459072978381739 0 -0.10576923076895769 0.01345907297835771 0 -0.06730769230753135 0.01370416090204795 0 -0.1434660949082327 0.0151822925843103 0 -0.2347898952496941 0.01484814467754606 0 -0.033530269039811697 0.01339112488210443 0 -0.20193109216073801 0.01444574739594987 0 -0.17307692307716019 0.01230654761904804 0 -0.26250000000001139 0.018317067958499089 0 -0.1246054661733985 0.020000000000055512 0 -0.27500000000000002 0.020000000000055512 0 0 0.019622781065090009 0 -0.086538461538244515 0.01922616814353734 0 -0.048570474920871777 0.018236877830026171 0 -0.15913752036903059 0.018236877830194741 0 -0.18701632578524391 0.01855977860511682 0 -0.21786318903885449 0.017450019600176531 0 -0.0173634049995572 0.01999999999994688 0 -0.25 0.030099952963207589 0 -0.14223370676777949 0.02999999999995925 0 -0.2300482380123661 0.030396038380718079 0 -0.17297621417413511 0.03000000000001982 0 -0.010997155849241739 0.030000000000000401 0 -0.26250000000000001 0.03000000000003487 0 -0.02963076923078414 0.03000000000008159 0 -0.067307692307531336 0.030000000000125201 0 -0.10576923076895769 0.030158967975210591 0 -0.2009297921336908 0.038385933231447462 0 -0.157170062337917 0.04254998039985692 0 -0.017363404999548391 0.041771955167404007 0 -0.21671437195425999 0.041887725916717702 0 -0.18631655674644809 0.039999999999945489 0 -0.25 0.041567835679411552 0 -0.1244247778655352 0.041068248217298833 0 -0.048280343911021692 0.040956288865582599 0 -0.086538461538821637 0.040000000000054187 0 0 0.040000000000054187 0 -0.27500000000000002 0.044834978020214113 0 -0.23473008594705891 0.046010744374813319 0 -0.14245801708670869 0.045668142182445651 0 -0.032401801968801082 0.04654092702175408 0 -0.067307692307972372 0.046540927021778117 0 -0.1057692307696709 0.047221641564072457 0 -0.2014299685018425 0.045855681006193992 0 -0.1704178120391891 0.047693452380952413 0 -0.26249999999998852 0.059999999999999998 0 -0.23076923076915071 0.059999999999999998 0 -0.21153846153838141 0.059999999999999998 0 -0.25 0.059999999999999998 0 0 0.059999999999999998 0 -0.27500000000000002 0.059999999999999998 0 -0.19230769230774561 0.059999999999999998 0 -0.17307692307710981 0.059999999999999998 0 -0.1538461538464739 0.059999999999999998 0 -0.13461538461583811 0.059999999999999998 0 -0.11538461538509549 0.059999999999999998 0 -0.09615384615424627 0.059999999999999998 0 -0.076923076923397005 0.059999999999999998 0 -0.05769230769254774 0.059999999999999998 0 -0.038461538461698468 0.059999999999999998 0 -0.019230769230849269 0.059999999999999998 0 -0.26249999999996748 
</DataArray>
</Points>
<Cells>
<DataArray type="UInt32" Name="connectivity" format="ascii">
26 13 32 6 5 18 8 7 16 2 3 31 10 15 17 9 10 28 4 1 30 5 4 29 1 2 21 15 8 27 7 6 24 13 0 32 0 9 20 3 14 19 12 14 23 11 12 23 29 4 22 15 27 17 4 30 22 9 28 20 32 0 20 14 33 19 28 10 17 7 24 16 24 6 18 27 8 16 5 29 18 31 3 19 14 33 23 25 11 23 30 1 21 2 31 21 38 25 23 33 47 35 34 24 18 33 38 23 40 28 17 26 32 37 39 32 20 28 39 20 31 42 21 30 36 22 36 29 22 35 31 19 29 34 18 42 30 21 41 24 48 30 42 46 36 30 46 27 40 17 29 36 43 39 28 49 45 42 31 33 35 19 28 40 49 27 41 50 24 34 48 41 27 16 24 41 16 40 27 50 33 47 38 32 39 37 39 44 37 34 29 43 51 26 37 35 45 31 52 25 38 64 51 44 36 46 59 38 47 60 34 43 54 52 38 60 42 45 58 44 39 55 43 36 59 44 51 37 35 47 53 46 42 58 41 48 57 49 40 56 50 41 57 48 34 54 45 35 53 40 50 56 39 49 55 47 63 53 69 48 54 45 62 58 68 43 59 43 68 54 66 46 58 46 67 59 49 74 55 47 63 60 75 44 55 65 52 60 48 70 57 50 72 56 61 45 53 71 50 57 73 49 56 63 76 60 63 61 53 67 68 59 76 65 60 74 75 55 71 72 50 75 64 44 62 66 58 69 70 48 68 69 54 73 74 49 66 67 46 61 62 45 70 71 57 72 73 56 
</DataArray>
<DataArray type="UInt32" Name="offsets" format="ascii">
3 6 9 12 15 18 21 24 27 30 33 36 39 42 45 48 51 54 57 60 63 66 69 72 75 78 81 84 87 90 93 96 99 102 105 108 111 114 117 120 123 126 129 132 135 138 141 144 147 150 153 156 159 162 165 168 171 174 177 180 183 186 189 192 195 198 201 204 207 210 213 216 219 222 225 228 231 234 237 240 243 246 249 252 255 258 261 264 267 270 273 276 279 282 285 288 291 294 297 300 303 306 309 312 315 318 321 324 327 330 333 336 339 342 345 348 
</DataArray>
<DataArray type="UInt32" Name="types" format="ascii">
5 5 5 5 5 5 5 5 5 5 5 5 5 5 5 5 5 5 5 5 5 5 5 5 5 5 5 5 5 5 5 5 5 5 5 5 5 5 5 5 5 5 5 5 5 5 5 5 5 5 5 5 5 5 5 5 5 5 5 5 5 5 5 5 5 5 5 5 5 5 5 5 5 5 5 5 5 5 5 5 5 5 5 5 5 5 5 5 5 5 5 5 5 5 5 5 5 5 5 5 5 5 5 5 5 5 5 5 5 5 5 5 5 5 5 5 
</DataArray>
</Cells>
<CellData Scalars="pressure_p0,water_content,conductivity_richards," Vectors="velocity_p0," Tensors="">
<DataArray type="Float64" Name="pressure_p0" format="ascii">
-6423.4147809025171 -4158.8797921165251 -5434.0089694538619 6.8820191986479742 -6093.2919116446337 -6267.7491157064778 -2006.7678930652728 -3288.4826546958557 -916.74076086651633 -5826.6739725168245 -4892.4406368658765 -6415.979208694509 -6364.9964070878032 916.53981169691554 1819.815865010492 2023.9807394603224 -2933.6008664656242 -5972.9506672264879 -2393.7513576980182 -6319.0313796371311 -6390.5581303311956 1228.0808472329581 -6189.6635735359159 -5186.4651009898244 -4557.9481979305974 -5647.3478710626896 -3786.5459373976018 384.71177957131056 1664.8269101807389 2073.2396260931328 -1406.3790151451096 -441.30181923801865 2025.5606485308913 1144.4566719626805 -4457.7602710429137 1820.6712121230908 -6158.1365109983572 -6421.911218227734 -6380.0556985048388 -6334.8864505822976 -648.46335734065406 -2406.9885119470255 -2946.7317685299004 364.12710657084307 -3968.825909434242 -1237.4605094833041 -5094.0975266789965 -1554.4431949544733 -2130.1884939943761 -6014.9079309312374 -3233.9860452786006 -6305.5510764288401 -390.17972891316799 900.37924033493505 -6215.4319030094321 -5707.6354217187236 -4696.6198789313166 -5577.980151903359 -5272.7187954235742 -5924.1758716477361 1661.4305487449869 -6402.9413677639122 -6402.913063381483 -3753.9310082897318 -6427.2694855275167 63.211906224599055 2072.4995832185996 -6423.5566525177837 -2472.6155616428905 1817.8502863236827 -4017.6633680302493 2023.3625511783798 -679.55842243456379 -6381.4166978136936 -3032.3650141750313 -6421.9541678050991 886.8782030181784 -1263.8996774945062 -5274.7134837154172 -6158.903292758816 -5578.0832422209487 -4476.4253298818476 303.84734392641451 -6014.7992895418938 -6337.1364985928803 1217.9845856014103 -4574.4577282071705 -482.21280831384792 -3371.140908024629 -3834.428986261195 -1434.5849985819355 -2461.7326567611694 -6321.6575584352377 1658.5588964591418 -6391.9690918038777 2069.4697564273274 -5188.746306287353 -5973.2413368747839 321.96567319440379 -5647.792117931911 -6190.6537742403098 1813.7352604977289 902.25317010983576 -3079.9355035067206 2019.1872379925585 -6366.6738058211249 -5826.8581206386516 -6416.1966218352354 -934.34935802823475 -4895.4841607795988 -4174.106462559972 -6268.5303372112339 -2023.6329894165415 -40.654487563902713 -5434.4966722777399 -6093.564060220443 
</DataArray>
<DataArray type="Float64" Name="velocity_p0" NumberOfComponents="3" format="ascii">
3.8025595497481305e-09 0 5.3755069856227378e-09 -3.8523446297330544e-08 0 8.62535444197236e-07 -1.8053634854346051e-08 0 3.962902847705584e-07 -7.8396076561131883e-07 0 6.6203134345213278e-06 -8.9553209782092332e-09 0 1.7118355343648455e-07 -9.255217169524081e-09 0 1.0608820268175128e-07 -1.3590146284037374e-07 0 2.1079690094225158e-06 -7.5682329199080408e-08 0 1.2277591770149501e-06 -2.0231310095442215e-07 0 3.3828308954389028e-06 -1.8438831238997565e-08 0 2.638587901663463e-07 -3.521791079516815e-08 0 5.8567697123949979e-07 -5.5494288288992537e-09 0 2.6959534892209302e-08 -5.5694445648677976e-09 0 6.3144358753257137e-08 -5.5057141571529522e-21 0 8.6538761425373911e-06 7.1788194364968843e-07 0 5.0850506271197082e-06 7.1788194364969373e-07 0 3.6267172954008906e-06 9.8470798603968522e-08 0 1.5047528980967574e-06 1.1610586989983956e-08 0 2.1771050759809891e-07 1.1589981171039063e-07 0 1.679875929862255e-06 8.3576596001341837e-09 0 8.2063191507589089e-08 4.5604975199263282e-09 0 3.9679645502352932e-08 5.1802227767273366e-08 0 8.7057732658647144e-06 8.3427332998675386e-09 0 1.3288514861803467e-07 2.4550146291791751e-08 0 4.8991918975951412e-07 3.7646079896243325e-08 0 7.0362990957816796e-07 1.6556046279588014e-08 0 3.1807769410586901e-07 4.8714922524732733e-08 0 1.0526606348066153e-06 2.3939673130506515e-07 0 8.7955066089631893e-06 -2.4437515546614184e-07 0 7.9766066063683209e-06 -2.5027696588183641e-07 0 7.2916673241817685e-07 1.5260943429875037e-07 0 2.5308289032341833e-06 4.3944122844732745e-07 0 5.0432579398799432e-06 1.5475803354602264e-07 0 3.6435763673438061e-06 1.3244345177851556e-07 0 8.7780342831367166e-06 -1.7572481684380696e-08 0 7.8903775506959343e-07 1.851020426445587e-07 0 5.1019096591281788e-06 -2.7850671507399847e-09 0 1.5903225956944803e-07 -3.7759671778219226e-09 0 2.0551027968735689e-08 -3.8845404589556004e-09 0 5.6491426107758132e-08 -1.5187438139248193e-09 0 6.9307107687014968e-08 7.7122503871452661e-09 0 3.6558525818269933e-06 -6.7240336613253984e-08 0 1.6691754854186316e-06 -5.1006348965101682e-08 0 1.4950682044022627e-06 4.8677377223271371e-08 0 9.0548123670326978e-06 -1.2502409232640448e-08 0 8.9062292588123109e-07 -6.9258403738876372e-08 0 2.9745979805818546e-06 1.9134273448209205e-11 0 5.445008865807769e-07 1.3243064244779051e-08 0 2.3315705502750976e-06 -1.6265827927827611e-09 0 2.0567301736702184e-06 -3.3498599908512404e-09 0 1.8498269988523758e-07 2.1217759521391181e-08 0 1.2103926508436098e-06 -2.2789215793273237e-10 0 9.7676572520221502e-08 -5.4596241729622847e-09 0 5.4768017142239063e-06 6.9004686521333904e-08 0 8.6514627595944877e-06 3.7390785705578956e-11 0 1.1625470021104787e-07 -4.1158103052581615e-10 0 2.8408504826833584e-07 2.9339467929334634e-09 0 6.1800092578558909e-07 -4.7937110380693998e-09 0 3.7132393349910611e-07 -9.2365413534553357e-09 0 4.2455787890262601e-07 -4.8017304161240777e-10 0 2.4666922149418216e-07 2.6320360291228796e-08 0 8.0488676172772998e-06 4.1043184082675284e-09 0 3.575969713665118e-08 -4.2465170336073977e-09 0 3.5945587420905052e-08 6.3729749850746728e-09 0 1.0799916272783944e-06 4.6588161496522358e-11 0 3.3561952890561004e-09 3.8425673001697499e-07 0 6.3279474294070264e-06 2.2015003745965254e-08 0 7.2916668034354935e-07 -3.6566287924987271e-09 0 5.3728333269575293e-09 6.593745087704193e-08 0 1.642829096424317e-06 -1.2285699644692379e-07 0 5.1139150218963172e-06 -2.574809695360346e-10 0 8.7199903503871255e-07 -1.2033226844222583e-07 0 3.6555816801976308e-06 6.1120488560836427e-08 0 3.5476920285172329e-06 3.3693024367872471e-09 0 5.6061048490571675e-08 -6.8486859314121488e-09 0 1.4519611745752012e-06 3.9112256708981832e-09 0 2.0596330770067471e-08 4.9176305905894972e-08 0 8.944166910720982e-06 5.9548991844832905e-08 0 2.9389153024658763e-06 9.4665980909690743e-09 0 4.2364025690998992e-07 3.2403675550417602e-09 0 1.5885928490872493e-07 6.2411366457159133e-09 0 3.7073060681366431e-07 1.574959300322092e-08 0 7.7753567758277688e-07 1.1702956167914356e-06 0 9.2445748687135078e-06 4.242858325166692e-09 0 1.8497116326320874e-07 1.776373024265504e-09 0 6.833673061995494e-08 -7.1765052055133968e-09 0 8.7661924869553745e-06 -4.0444680548535658e-08 0 7.0120650818865388e-07 -2.9917591332004421e-07 0 4.6573207371391205e-06 -1.4214845662406359e-08 0 1.1496391982574259e-06 -3.0182205436133216e-08 0 1.0355308962897851e-06 -1.405825649231425e-07 0 2.4973961554601169e-06 -1.0373402672751272e-07 0 1.6659320028521726e-06 -7.8375423698441846e-09 0 8.1729854996601394e-08 2.7682263493816965e-07 0 8.0370258141527388e-06 -4.3814803187806301e-09 0 3.9061839647045816e-08 2.7731370827536135e-07 0 7.2916665063472761e-07 -2.3796554315470468e-08 0 4.8910740214984708e-07 -1.1600637978404428e-08 0 2.1724321290548959e-07 -1.1234504353524023e-06 0 8.9459396313040895e-06 -1.6650018484132751e-08 0 3.1844175936615944e-07 -8.2932141436810794e-09 0 1.3277978275107357e-07 -7.1788195921687456e-07 0 5.1125122738018943e-06 -6.0919774236831755e-15 0 8.7589663664200721e-06 6.4357026589981199e-08 0 1.4251817185422467e-06 -7.1788192123702163e-07 0 3.654178928556047e-06 5.3493795280196702e-09 0 6.1383241256754799e-08 1.7892799926692861e-08 0 2.6371177625131018e-07 5.5453674553519445e-09 0 2.6800030322941877e-08 1.8084017188449357e-07 0 3.2852694265810531e-06 3.5386316658329999e-08 0 5.8342431770273666e-07 3.9037897647435039e-08 0 8.5162334256469495e-07 9.0978123783730911e-09 0 1.0554674476410609e-07 1.3258919919528229e-07 0 2.082141238832695e-06 7.0104758528964765e-07 0 6.2868907415831204e-06 1.8049886465307812e-08 0 3.9624345480389482e-07 8.9526855261583079e-09 0 1.7106059928058803e-07 
</DataArray>
<DataArray type="Float64" Name="water_content" format="ascii">
0.20499504765911863 0.2228458860326471 0.2116589129504701 0.40418190873181092 0.20706969860540198 0.20595660722901105 0.25687424785190283 0.23322155073885209 0.29872027017354308 0.20884869236770356 0.21597164045243769 0.20504034856229081 0.20535254407794618 0.41999999999999998 0.41999999999999998 0.41999999999999993 0.23844264699083947 0.20786059563583215 0.24797719870215534 0.20563648390273565 0.20519557259238369 0.41999999999999998 0.20644999836852629 0.21356136234981393 0.21893779942373154 0.21010231181186828 0.22691139968593149 0.41999999999999993 0.42000000000000004 0.41999999999999998 0.27479401530185221 0.33981159319711801 0.41999999999999993 0.41999999999999993 0.21989061296785059 0.41999999999999998 0.20665189203295051 0.20500420780866313 0.20525997075950364 0.20553830019405861 0.31766165760722387 0.24772665611660777 0.23822424931983127 0.42000000000000004 0.22486250692457826 0.28193607777758306 0.21430614069257639 0.26959965175186301 0.25373323742184717 0.20758287375037859 0.23394814926977839 0.20572058946797966 0.34877380041087425 0.41999999999999998 0.20628641992154512 0.20967611861762425 0.21767670458509791 0.21060344354709121 0.21288732200574784 0.20818797624266383 0.41999999999999993 0.20511986721346223 0.20512004054884836 0.22731122922451269 0.2049716092992053 0.41157387948573143 0.42000000000000004 0.20499418472222294 0.24646155513692752 0.41999999999999998 0.22432447510890219 0.41999999999999993 0.31477885234321429 0.20525161329137964 0.23691357435479599 0.20500394657821269 0.41999999999999993 0.28085063722862413 0.21287164185810925 0.20664702361353562 0.21060268659980491 0.21971118408397844 0.41999999999999993 0.20758358465139701 0.2055243802770699 0.41999999999999993 0.21878357838401691 0.33443959475095586 0.23207410156992916 0.22635811348334223 0.27376456107108132 0.24666380857935266 0.20562020933040265 0.41999999999999993 0.20518692942567646 0.41999999999999998 0.21354312189666655 0.20785866168048411 0.42000000000000004 0.2100991482225591 0.20644371799116606 0.42000000000000004 0.42000000000000004 0.23626403890189743 0.41999999999999993 0.20534221112807505 0.20884742472784903 0.20503902384917094 0.29756534628123249 0.21594570436671684 0.22268807237988125 0.20595170420926201 0.25643455056179754 0.39994867626492558 0.21165527405518178 0.20706793143756419 
</DataArray>
<DataArray type="Float64" Name="conductivity_richards" format="ascii">
1.4510760111232965e-11 1.9753925979285812e-11 1.6341751750104929e-11 1.5813471049035486e-10 1.5065181506742785e-11 1.4765989662083798e-11 3.3049158299530285e-11 2.3319621514365178e-11 5.6450550244129404e-11 1.5551777177770457e-11 1.7605836895546335e-11 1.4522719969206733e-11 1.4605305778374529e-11 1.7780000000000002e-10 1.7780000000000002e-10 1.7780000000000002e-10 2.5266479891980879e-11 1.5280227864187374e-11 2.9085876125562715e-11 1.4680672291334196e-11 1.4563736217354095e-11 1.7780000000000002e-10 1.4898107223264391e-11 1.6891534823624676e-11 1.8512291800581014e-11 1.590092861836257e-11 2.1101721963507395e-11 1.7780000000000002e-10 1.7780000000000002e-10 1.7780000000000002e-10 4.192151936223381e-11 8.8715845693644637e-11 1.7780000000000002e-10 1.7780000000000002e-10 1.8811557217986682e-11 1.7780000000000002e-10 1.4952451520481093e-11 1.4513178449152354e-11 1.4580780417082444e-11 1.4654586282152073e-11 6.9772230775309231e-11 2.898282624782576e-11 2.5181122085428153e-11 1.7780000000000002e-10 2.0414781769214426e-11 4.5988372429038975e-11 1.7110837966373446e-11 3.9187425657528786e-11 3.1594214077362112e-11 1.520450497144101e-11 2.3579924904119708e-11 1.4703083052337085e-11 9.8344904311093924e-11 1.7780000000000002e-10 1.4854225883280753e-11 1.5781709344159206e-11 1.8123106431720471e-11 1.6042300483366455e-11 1.6695474181391728e-11 1.536997636849387e-11 1.7780000000000002e-10 1.4543722473725591e-11 1.4543768327544592e-11 2.124035624229836e-11 1.4504576903160795e-11 1.6659725709074997e-10 1.7780000000000002e-10 1.4510532432276315e-11 2.8458857648275043e-11 1.7780000000000002e-10 2.0235910682738247e-11 1.7780000000000002e-10 6.752827806344726e-11 1.4578567202945054e-11 2.4685137340441705e-11 1.4513109526740202e-11 1.7780000000000002e-10 4.537827082991434e-11 1.6690903785068179e-11 1.4951145472603539e-11 1.604208559317035e-11 1.8754965900172771e-11 1.7780000000000002e-10 1.5204697939296321e-11 1.4650889368389162e-11 1.7780000000000002e-10 1.8464210754947622e-11 8.3736449271224069e-11 2.2901947479340424e-11 2.0914287237605917e-11 4.1372425583515757e-11 2.8541514664144106e-11 1.4676347164724388e-11 1.7780000000000002e-10 1.4561449513035445e-11 1.7780000000000002e-10 1.688618239146514e-11 1.5279699502633568e-11 1.7780000000000002e-10 1.5900041174247363e-11 1.4896423043217972e-11 1.7780000000000002e-10 1.7780000000000002e-10 2.4450899677994749e-11 1.7780000000000002e-10 1.4602566057650251e-11 1.5551426224099552e-11 1.4522370218901602e-11 5.5658285651881534e-11 1.7598033766702638e-11 1.9702663166754803e-11 1.4764680198251928e-11 3.2842941175304411e-11 1.531179207040404e-10 1.6340712275125047e-11 1.5064703262580209e-11 
</DataArray>
</CellData>
</Piece>
</UnstructuredGrid>
</VTKFile>
