<?xml version="1.0"?>
<VTKFile type="UnstructuredGrid" version="0.1" byte_order="LittleEndian">
<UnstructuredGrid>
<Piece NumberOfPoints="192" NumberOfCells="831">
<Points>
<DataArray type="Float64" NumberOfComponents="3" format="ascii">
0 0 0 0 1 0 0 0 0.74999999999933742 0 0 0.49999999999902173 0 0 1 0 0 0.2499999999993999 0 0.16117713264797839 0.17753274418983939 0.10884396182859379 0.10884396182859379 0.67379604618986666 0.10865999053633831 0.10865999053633831 0.32358003890491438 0.10271935629100711 0.1027193562910072 0.84084897149237237 0.1025501277357185 0.1025501277357185 0.1575259589564332 0.17168462543555879 0 0.16615070464674431 0 0.17666956530620931 0.38358055030846822 0 0.17737014741040741 0.61806541423308936 0 0.2499999999993999 1 0.37729325866038171 0 0.19117845012663931 0.16666666666630359 0.16666666666630359 1 0.16666666666630359 0.16666666666630359 0 0.20339966542638019 0.20339966542638019 0.49801768651050432 0.48977135788173931 0 0.38770592272319038 0.23809915846578791 0.23809915846578791 0.78030885436184927 0.23792456603906109 0.23792456603906109 0.21623589512422439 0.23008567404400659 0 0.38606276816302848 0.25000000000104078 0 1 0.25000000000104078 0 0 0.49998234673398478 0.24420594492696129 0 0.35000014158884629 0.1489787069412839 1 0.34998235745634898 0.14889171802055001 0 0.36539539881857508 0.36539539881857508 0.37498061819009071 0.3333333333329494 0.3333333333329494 1 0.36548931316798172 0.36548931316798172 0.62178317142263251 0.3333333333329494 0.3333333333329494 0 0 0.64023291728097598 0.2167447801926948 0.38729823090225712 0.38729823090225712 0.83031828162077648 0.38724035665579781 0.38724035665579781 0.16804493435552431 0.2165831228156235 1 0.35976298313785371 0 0.8392962971408795 0.16872566977275821 0.1686653756700168 1 0.16063942062063291 0.37652591690526288 1 0.19136730166948029 0.1489787069412844 0.35000014158793408 1 0.1489715852349735 0.34998856881609408 0 0 0.25000000000104078 0 0 0.49999999999902173 1 0 0.37720163774080312 0.25422043336465477 0 0.50000000000138778 0 0 0.5700208022812604 0.50079356368795991 0.2442059449269596 0.50001765326581149 1 0.24419508137850029 0.50000000000023559 0 0.14897158523521209 0.65001143118455595 0 0.14889171802078979 0.65001764254351591 1 0.50039223208633166 1 0.43029591542337442 0.62354342394600037 1 0.1915173582151396 0 0.64044260653081564 0.78407336830999619 0 0.74999999999933742 1 0 0.80841431232237648 0.37668003423758623 0 0.80898333075508022 0.62378103647949168 0 0.75000000000034694 0 0.83138943924633069 1 0.1606581320369872 1 0.83110220152788017 0.16060723673533911 0 1 0.49999999999902173 0.78381282184236001 1 0.35987697672063629 0 1 0.2499999999993999 0 1 1 0 1 0.74999999999933742 0.1028043779130879 0.89719562208691217 0.84109597802521618 0.1086345562064005 0.89136544379359961 0.3234086554074086 0.1089613818578917 0.89103861814210827 0.67418089138094106 0.1025606944805126 0.89743930551948736 0.1576336350373474 1 0.78318885594810983 0.35978448765189219 0.2499999999993999 1 1 0.2499999999993999 1 0 0.20341647194676379 0.79658352805323629 0.49847303913583629 1 0.62295698392899068 0.1914905052208038 0.16666666666695579 0.83333333333304416 0 0.16666666666695579 0.83333333333304416 1 0.23798279855998089 0.76201720144001905 0.21692589596410289 0.23827018944351211 0.76172981055648792 0.78092914500384736 0.35000014158822929 0.85102129305845331 0 0.35000014158822929 0.85102129305845331 1 1 0.37591984162427727 0.19197574342534451 1 0.16843002204873381 0.160859178328328 0.82555554985836233 0 0.16742271163934291 0.49999999999902173 1 0 0.49999999999902173 1 1 0.61783302218606417 0 0.1922186014161669 0.36549772605468572 0.63450227394531433 0.37566982409401428 0.36564264183904172 0.6343573581609584 0.62243729070881215 0.33333333333350679 0.66666666666649321 0 0.33333333333350679 0.66666666666649321 1 0.75919531052343436 0 0.39275792399891241 1 0.21612565810797599 0.36013001802218469 0.38732624225217888 0.61267375774782118 0.83056170616046265 0.38727290778027601 0.6127270922197241 0.16836854090733239 1 0.49944386791235917 0.43075788345212462 0.5 0.5 1 0.5 0.5 0 0.5 0.5 0.25000000000104078 0.5 0.5 0.50000000000138778 0.61279343585431756 0.61279343585431756 0.1680413733238825 0.61336343900262891 0.61336343900262891 0.83053011252176978 0.5 0.5 0.75000000000034694 1 0.49992876349559362 0.66404295826886262 1 0.2533979371710991 0.62345234192185639 0.80229546752587255 0 0.64814808338597718 0.63495714520124269 0.6349571452012428 0.37486974005184109 0.66666666666666663 0.66666666666666663 0 0.66666666666666663 0.66666666666666663 1 0.63536592005683512 0.63536592005683512 0.62202841602309944 0.57571778088746151 0 0.59576627750374866 0.50871872901916504 0.1708187460899353 0.50338131189346313 0.50001765326601466 0.75579405507294284 0 0.50001765326601466 0.75579405507294284 1 0.64160173131809883 0 0.80990711163271067 0.74999999999933742 1 1 0.8385271110361654 0 0.8413228166863107 0.74999999999933742 1 0 1 0.17716561498068689 0.83902327502405594 0.65001764254365313 0.85110828197928212 1 0.65001764254365313 0.85110828197928212 0 1 0.38282210475363931 0.82357229199563298 0.79764988417624794 0.79764988417624794 0.49837667038153471 0.83333333333333337 0.83333333333333337 1 0.76212214047386917 0.76212214047386917 0.2164093449356935 0.76370001550789046 0.76370001550789046 0.78090500390473228 0.83333333333333337 0.83333333333333337 0 1 0.61740755712671347 0.82298532424219184 1 0.74634955193602071 0.62314316593535746 1 1 1 0.89857418396823663 0.89857418396823652 0.84127978906472778 0.89144265588074367 0.89144265588074367 0.32369826736855623 0.89738981250263927 0.89738981250263927 0.15757904599311759 0.89286373508045946 0.89286373508045935 0.67436711499741131 1 1 0.75000000000034694 1 1 0.50000000000138778 1 1 0.25000000000104078 1 0.82290708505927612 0.83874492571988246 0.82314332955953196 1 0.83858313406278018 1 0.74999999999933742 0 1 0.74999999999933742 1 0.61792477745884911 1 0.82270364010549324 0.85102129305854579 0.64999985841115482 0 0.50068181507898546 1 0.66359033869675621 0.85102841476485547 0.65001143118390636 1 0.74695567592559886 1 0.62269704040861962 0.50871872901916504 0.8412812352180481 0.50338131189346313 1 0.49999999999902173 1 1 0.49999999999902173 0 0.85102841476476554 0.34998856881547169 1 0.85110828197919364 0.34998235745571749 0 0.25398525822382417 1 0.62280716976950479 0.75579405507294672 0.49998234673353259 0 0.75580491862140142 0.49999999999976907 1 0.38344191275693401 1 0.82336638415966013 0.1774543520864694 1 0.83882527467102475 0 0.83953249349003956 0.83149908132337258 0.61275410136220676 0.38724589863779318 0.16841109203953031 0.61325145573026918 0.38674854426973082 0.83079170425075444 0.66666666666649321 0.33333333333350679 1 0.63474999969368118 0.36525000030631882 0.37565745001214801 0.66666666666649321 0.33333333333350679 0 0.63533322152118321 0.36466677847881668 0.62249674172471603 0.64999985841179486 0.1489787069415259 0 0.65001764254431393 0.1488917180207868 1 0.50001765326647307 0.2442059449269561 1 0.50000000000138778 0 1 0.50000000000138778 0 0 0 0.37745512367144812 0.74715748040512409 0 0.33654450991797241 0.50094318661668413 0.75000000000034694 0 0 1 1 0 0.75000000000034694 0 1 1 0 0 0.19284887478014201 0 0.63442158489674361 0.7976652396941899 0.2023347603058101 0.49872448633774907 0.763384579344768 0.23661542065523189 0.7814854151005195 0.76211884291949139 0.23788115708050861 0.2171386250930564 0.37508549455735979 0 0.55718040386560697 0.83333333333304416 0.16666666666695579 1 0.83333333333304416 0.16666666666695579 0 1 0.2499999999993999 1 0.38570987433655568 0 0.77625993462381548 1 0.2499999999993999 0 1 0 0.49999999999902173 0.1657082279597189 0 0.83218992830322103 0.89152867244133527 0.1084713275586647 0.32376120628548988 0.8974686139699366 0.1025313860300635 0.15776582603138631 0.89845435988501832 0.1015456401149817 0.84148761182406584 0.89272021147877167 0.1072797885212283 0.67465465296580618 0 0.1614643944056941 0.82321574961646404 1 0 0.2499999999993999 1 0 1 1 0 0.74999999999933742 
</DataArray>
</Points>
<Cells>
<DataArray type="UInt32" Name="connectivity" format="ascii">
[...]
<CellData Scalars="pressure_p0,piezo_head_p0," Vectors="velocity_p0," Tensors="">
<DataArray type="Float64" Name="pressure_p0" format="ascii">
0.033703682091364581 -0.611449587689186 -0.83233513378271751 -0.32807922490986319 -0.10458886524692773 -0.86073965401115171 -0.18372014491301578 -0.69483849609527482 -0.47497748555466424 -0.35823688717378388 -0.065131643419851518 -0.11188090402714357 -0.19903349271276258 -0.13299194778272408 -0.18625178812418661 -0.14831783878044613 -0.047739422224342118 0.012545156390133797 0.027369443913594971 -0.06598164423789174 -0.032429742497888908 -0.00052814243898904119 0.033198214052563582 0.15020819353026219 0.056012515337377264 -0.039999691703673276 0.19702080586833637 0.10297829629239648 0.10096713189077097 0.055234446954175245 0.19984887809022714 0.32223277867509675 0.23263308839434263 0.27009512545865422 0.40282430219499532 0.3848385846134379 0.23428938032596008 0.33451907882836807 0.23873307532247065 0.10853536954490352 0.14831191255991968 0.020025279370854895 -0.0040668086665130452 -0.50439252248978272 -0.63727188254462774 -0.19952806855942787 -0.71987031843276927 -0.10471861006851359 -0.69575600770673129 0.041295760182389243 0.029367833426157328 0.15913158217227197 -0.029787895347351819 0.078597014825036282 -0.10021891394636137 0.12661535376273689 0.032934166299541712 -0.056773118325484352 0.089573829037864677 -0.11035166151247278 -0.15307317410591917 -0.27778860504403291 -0.38456808177736357 -0.27075410671649469 -0.3523792662098485 -0.269452581122956 -0.14704543637100348 -0.074062124279643093 -0.27412633258148872 -0.14529596517537946 -0.26828788130059461 -0.23946380186440344 -0.26771626525273434 -0.47258482088365072 -0.25694398373780825 -0.355691061468071 -0.31698827735665192 -0.37798820455114784 -0.083235143880192097 -0.20544010677950317 -0.34838510986156657 -0.3856509703179769 -0.29891895615291642 -0.14151527547523404 -0.23156588957190583 -0.11656743487216333 0.18736219963673661 -0.10760565688679692 -0.043225906617362767 0.053444324301441637 0.17316647017019984 0.2189669326402236 0.030833501860496163 0.3540756133257103 0.23178619450818264 0.41601359015193029 0.3953316515293977 0.35579922059241637 0.28206388647866387 0.24661142303753852 0.1278225533769079 0.11678309192775292 0.28731382827883711 0.21382185077211846 0.0090630610023048879 0.010752625481265595 0.13866547079857958 -0.030256585188025795 -0.076914328801660103 -0.090410623719884176 0.025911709778918747 -0.1560883036811955 0.036363265713352473 -0.42660910294326621 -0.065349208370553497 -0.27177893875782566 -0.48552513182310825 -0.58878108706502252 0.15378540661036652 0.0059828693496493017 -0.020486321754445844 -0.064864434294533826 0.13838814252946499 0.021707942950906771 -0.035089751022513362 -0.073510576903654923 0.021376128162561354 -0.077662322864338496 -0.27649465739977974 -0.28706823100663587 -0.12302480378300293 -0.46890519851192847 -0.36602864740022573 -0.27077276264763162 -0.35510154746904549 -0.2268557892520405 0.31777447444796486 -0.22848708042015231 -0.32251433108696148 0.040613959227806667 -0.42937790913587615 -0.25809108819077037 -0.56996688333562584 -0.22158246226454942 0.22123925577942799 -0.49977124819237428 -0.073491360330260172 -0.25414796681724589 -0.14213658502635951 -0.27266980451786732 -0.47211355545905515 -0.38275276552341864 -0.31891593545460556 -0.27397848969299732 -0.070049355951345565 -0.2652466772396162 -0.35043899910258458 -0.2675954332717469 -0.1432815749425278 -0.1972309474514142 -0.11137717081231323 -0.064573422784561602 -0.13077870345963161 0.029833428472021549 -0.06368201512268061 0.012475693760709101 -0.030301708797661205 -0.17461272772371411 -0.14691873874208564 0.056403894996893147 -0.048203542170570039 0.013361879128615134 0.15067943018796737 0.10291700713447494 0.19765131887593099 0.10154111386951362 0.055788956568841593 0.023761189900698417 -0.039529043197610483 0.14856115764477637 0.20023871395239051 0.32200439428351102 0.23246699033353183 0.26963440585188131 0.10746743974090293 0.33578760678687358 0.23811816832796331 0.38461018539867126 0.072861458927523687 0.036398657586925606 -0.087998226020341297 -0.18097063635368413 -0.00827451627735281 -0.096006178400883505 -0.066532161910377502 0.053117603427067131 0.10071525270289829 0.21147028873676518 0.11568524697565161 -0.14152156701819099 0.17338054045331128 -0.036217900679429808 0.2140547883502304 0.28731920335899536 0.11743055308456354 0.24631151408801083 0.28176133194735165 0.12818942178951531 0.39525721702762212 0.35570999911206219 0.60003200267021006 0.41606705693379675 0.52075325103840076 0.56027995873210978 0.52598567024072373 0.69065040718954152 0.56138367704318448 0.67974581079079155 0.70201938748554937 0.6286184127655271 0.66414606844088575 0.57302858409808077 0.39762649718199239 0.53364317315263665 0.35285181931590803 0.30060170968445482 0.48857562565722251 0.53499978171549767 0.378527507195003 0.12566304171250714 0.36622070930742107 0.2950707237504519 0.064064343076112126 0.14659022876630853 0.23351099206161721 0.28336901999678366 0.27491629568956588 0.30731958528104103 0.27408416220518023 0.31137888533475411 0.15482399747961953 0.20875332347082518 0.34743788858350916 0.17377031692514391 0.2322755531094727 0.40422038017328527 0.51966019668910846 0.4739476915405848 0.41640593230371098 0.52645166906315644 0.65927426127970012 0.58228737771501682 0.62376614470817149 0.56718534457619008 0.51213165298573882 0.61035684959011816 0.81826907400662685 0.72204744675878529 0.78508221673305345 0.73933972246842961 0.66074374801867275 0.79545580221626022 0.77807597234142145 0.676181264254896 0.71521738421314263 0.90862890645380567 0.88751459694850565 0.86871055852357637 0.9020663674950784 0.84436881648396378 0.78044576751622718 0.66550286848319162 0.74923835588583676 -0.83238652376336475 -0.35834389350770834 0.71156565175272279 -0.47522231796456016 0.596414186380686 -0.61153918288760845 -0.104623472771179 0.62928429866103985 0.55103628307716557 -0.86078786641081773 -0.32803298174842166 0.033665134208024326 -0.1837037758274695 -0.69498321089187265 0.53989211245184265 0.32909078914132933 0.43350652931603922 0.47624784108203871 0.53723560057813347 0.56814704709130781 0.44338237086080662 0.68062880090776134 0.5366159638064687 0.66025516326417877 0.51278349357288799 0.59351425626778664 0.55631088789032479 0.49434299144804394 0.37453925053432346 0.49040361577678165 -0.10493118546367917 -0.69587242366810875 0.15886791056254029 0.02908766588758235 -0.63756579618894293 -0.50478733275729881 -0.19987135597019173 -0.72005194555147034 0.78414891773767559 0.72732699331595707 0.58765377607603342 0.68350651879600066 0.76722280996637016 0.75343580867915749 0.91816031178423163 0.88008452902696421 0.86101124638789783 0.86083805514298473 0.85045439755465624 0.63523161450646759 0.73495587286663933 0.68234859095494393 0.7835792800845558 0.58924620198840161 0.76651336606017095 0.75313099677917139 0.87987155843802189 0.91803207528095765 0.90859525864480306 0.88745752014499313 0.86858949675038166 0.9019753105476257 0.7268719540277464 0.71493996169098817 0.77725424557948941 0.84427695503086952 0.66216443601399178 0.74913869274843414 0.71895888219645088 0.81820850274227197 0.7819306155968887 0.73621966928023264 0.60713924620071591 0.6728771008168114 0.77775985495956845 0.79513568371187815 0.65753275601312866 0.65930694679590585 0.41412247069494773 0.50727152848106305 0.56243373651889461 0.49329975380886287 0.58069181692834337 0.61906125769960618 0.51797929091638095 0.29680691850182866 0.50088750266885007 0.5204320940846473 0.55963113601267345 0.62848492148502766 0.70173698552174113 0.68980699490163733 0.56173817517612989 0.67907720985501308 0.39607547762768847 0.20085610288434511 0.24202778718214343 0.45193556744359203 0.12403646456128743 0.063863156726303882 -0.15672844319901089 -0.27233955987149266 -0.4270793608679988 -0.48587555576673735 -0.58893996483311861 0.15336439980504907 0.0053285807277835429 0.3065888300685593 0.19775406496703746 0.26772055531083339 0.11273881324594175 0.25171518820607319 0.15952215921512175 0.35704297245608402 0.30543857522562606 0.27368127108703882 0.29734381636458967 0.56787725176516468 0.42986408221986561 0.57890573492304587 0.52292159341673572 0.42027766128641397 0.53661622044504464 0.71142589805528722 0.62920104737189342 0.68032371318410256 0.53709885518151157 0.47602063821265311 0.040208975134313325 0.49019258690219053 -0.32271258133034936 -0.42960814834452954 0.3176050184693473 -0.5699963250274469 -0.22201246692274429 0.22107058814405928 -0.4998187914940676 -0.073745015450116608 0.49405100487349535 0.37414433621740306 0.55604421998166564 0.51234447376519898 0.59346260393432393 0.65990231094943519 0.6412012719423652 -0.12499961852022742 0.37500006835180349 0.32357323993416343 0.07468696093026872 -0.22046562483510501 0.50005924977892091 0.22387103025755331 -0.31689058556905014 0.57020132515916777 -0.038636222409999199 -0.37499981181881209 0.12500024360698794 0.43077889243509726 0.35650312110758325 0.29720540418494712 0.23591438321224573 0.24351501169809403 0.22823880630780757 0.10890244286333269 0.30778713122556056 0.41354813696450171 0.38291243492090693 0.21591590769733779 0.26325212561469064 0.27114713745406838 0.14800663004148937 0.35073251979830322 0.3216741812192529 0.27798577324742452 0.075044454608318989 0.14697591478243038 0.27291143860159306 -0.1513497650363454 0.4301229737967312 0.27554869244478347 0.062787897087744418 -0.0024327268878336526 0.072589827132014936 0.59000560575690741 0.48790928755240531 0.16027064196850715 -0.1936083652750071 -0.052784871567221003 -0.016942049503886464 0.0958922198807549 0.1959052231008242 -0.14391334914485718 -0.094123333836738488 -0.044182998076159594 0.081775493517131093 -0.059149065324183722 -0.12253780682695166 0.2331683668455688 0.31740887338410162 0.1463140182361766 0.067877701290597683 -0.158962157402949 -0.35321549199927466 -0.2170230418602675 -0.029189444972786176 -0.28067502759228369 -0.12840293786624266 -0.24520662435804086 -0.28645130045424005 -0.21236367263735029 -0.41522049998120397 -0.39487981577888698 -0.35535011357385704 -0.32075824998800634 -0.38045742865105459 -0.3895942341823308 -0.19453411718278951 -0.31777595676529741 -0.14271095196112865 -0.23317744289374107 -0.10222850495830214 -0.26497105887155487 -0.23167804848812662 -0.14877525833625319 -0.015602742301087791 0.046314707690563513 -0.055304815866755959 -0.015293539111543488 0.042341455040022326 -0.10921908627746242 -0.19539914825984944 -0.045412107429809168 0.19638690152701596 0.12885112237061688 0.0664207673794662 0.1139495700923078 0.14594104374387465 0.028034209098300771 -0.012185607551978572 -0.032292469997424494 0.061385505860937377 0.0099246163018791595 0.052160409041754577 -0.13805831166967106 -0.0086231129323772124 0.1921732072690934 0.064649055454956472 0.045792414434579126 0.11239103632996912 -0.081762730229912109 -0.047361758384260468 0.50773748025505139 0.72138137046993756 -0.047195341961202113 0.034075405018302397 0.69667718965594316 -0.027039453893019851 -0.15750716094978257 0.63974379433631112 0.10808012208675957 0.20360515395998799 0.010080674366758469 0.052392079736866173 -0.13778662633091354 -0.081464212749951082 0.11291942216486413 0.046077382315709937 -0.0080708761641416198 0.19268927100741662 0.065128621397497116 0.12342613567696983 0.35670339869637202 0.41370895992123613 0.30809420622539668 0.22871419214966648 0.24404441224059664 0.10950194254033153 0.23635560949565862 0.61235404174993646 0.47731751697277353 0.21637446703522362 0.32919566151983198 -0.032920471348973968 0.26349191779361308 0.10534897163976339 0.83287242830877628 0.86124296454835325 0.36083316506848051 0.18559502806836048 0.6962807352743472 0.14181038167898946 0.27339068794258958 0.38316774650241647 0.27262860469072814 0.066533712308389323 0.13803429016960028 0.35090048588986467 0.2639955270198075 0.12899556344444965 0.06342005570361646 0.11083033031022133 0.19663059872735045 -0.032214462112748088 -0.012099412610111396 0.028196971039973186 0.061536626351234067 0.14641102076281734 0.04671132675930087 -0.056481431684444368 -0.015267023467745779 -0.15129873633282878 -0.10257782132502118 -0.056779560059421523 -0.10232380318452113 -0.19929992106629907 0.040480827107561485 -0.033601847700786752 -0.15406873124269352 -0.32685911640656029 -0.20683761836457487 -0.23131674851698331 -0.2064828929953651 -0.1548267568744118 -0.27331391844119546 -0.32234868548619178 -0.38956769751835019 -0.41118558261617155 -0.32691935194907362 -0.015080784862205859 -0.067864601123327775 0.0087136922682911361 -0.0999499946044895 0.10749092049895025 -0.098457080848270054 0.096406511271297596 0.027001890960583998 -0.043007212833796479 -0.15423066481020095 -0.059328476618804971 0.082003579345282657 0.11756978384522286 -0.1242222608849764 0.13134137235591992 -0.1715647446408532 0.037542675833419949 -0.17238466851917289 -0.35190535082794688 -0.33127823286379021 -0.03081447751320656 -0.21223224976879879 -0.28631997486044941 -0.24428849220295215 -0.12801359685794236 -0.39500735062630438 -0.35587466993337924 -0.2310775549457646 -0.41508002430950608 -0.52013062483533523 -0.55931187431526164 -0.68928465694882424 -0.56085544495688688 -0.678493585985115 -0.70161413829818753 -0.62840325020134191 -0.56039014994132996 -0.29866164525334804 -0.48822833126127385 -0.36043920721535277 -0.29304241520221741 -0.077453115063429362 -0.27161876951784197 -0.23646811159708345 -0.2863340352953283 -0.34872484570905943 -0.35730670019970912 -0.22582239953450631 -0.11359646571467427 -0.1443815382267237 -0.37592118901315857 -0.26483578918070244 -0.52164085856083919 -0.50416562060180348 -0.39293617158827682 -0.38475210342137778 -0.50986667332068392 -0.65867869351764374 -0.62354689881479852 -0.58432681164582057 -0.56633425230534595 -0.49790264211804702 -0.60655646450463752 -0.78261914076802552 -0.81789241022460657 -0.71988545764398482 -0.73685225715923242 -0.77873936186699177 -0.65791970575138514 -0.67297664653012768 -0.77274734477647689 -0.7106431633638991 -0.71142559125986393 -0.88610164562245941 -0.90834424363399469 -0.83442035641956458 -0.86658128422384739 -0.90013541658487495 -0.77778125312876278 -0.66187264566637505 -0.84224348548715877 -0.74620609335634924 -0.31705538383167509 0.43044959994366605 0.57014739953360316 -0.038947015213603019 0.22342513510545092 0.50000280015495291 -0.70530487794024632 -0.22061169970658073 0.32331438172133897 0.074524320607692068 -0.6248337095715828 -0.53674150716657987 -0.52349332702311335 -0.58000251497294542 -0.41931277113918219 -0.53220603760419793 -0.42850506448606274 -0.56307193051579862 -0.60264128429481401 -0.71107904523630316 -0.66063863058155037 -0.60319519000684574 -0.56984088743393846 -0.5712907670410452 -0.4734343810044418 -0.56963133467318028 -0.61516030173336733 0.15968688384344057 0.42952296366463777 -0.15182905440115996 -0.0030575066657164925 0.27497401133918242 0.4873650598524209 0.58974463744625061 -0.77642158906406344 -0.67708823257059214 -0.58352926037620834 -0.71571415484009293 -0.76124859712664028 -0.75235994065221146 -0.87249215904525257 -0.91235847602664377 -0.83037744342057751 -0.85547595299448831 -0.84729062906413699 -0.76609324524101263 -0.90347921652820173 -0.86155574406685131 -0.75259299185582562 -0.75359686200633513 -0.67095886864322551 -0.62852997675817601 -0.70194606702101059 -0.69020906720749198 -0.52454221867377382 -0.56004760627757366 -0.67916825795180691 -0.55978396761157045 -0.5203070215259159 -0.59976516016036718 -0.53348401603846107 -0.38594012495881796 -0.65108576185427924 -0.51938217843703716 -0.17290792272715255 -0.44966511797577891 -0.24023491202639233 -0.36457824065671646 -0.077291075274098411 -0.50379762188410715 -0.53337186392441593 -0.53156649529535682 -0.5750469732915634 -0.55983908511285085 -0.50198197895933205 -0.47024916127523669 -0.59118888358451438 -0.64983865779510153 -0.6984912098225724 -0.56130902242454039 -0.44452444243124256 -0.54100212773052925 -0.70196469635956027 -0.59867164819568564 -0.62348814894260352 -0.55452144580501384 -0.53073423784456086 -0.33959685485347313 -0.43545369902367864 -0.35668825797817044 -0.26415518392843718 0.10753772070759449 0.20305976210162421 0.69648792441485574 0.72114094290933539 0.63948278595192798 -0.027466360832759055 -0.15783551270203805 0.50741388381328312 -0.31273894680898867 -0.18022561402140294 -0.2410729905224254 -0.14663495021466874 -0.02355598191709532 -0.27519208623003755 -0.27030060953603063 -0.25976712573557009 -0.29299141875214252 -0.38527541952133099 -0.55481497387673329 -0.40463311048461975 -0.46244759182766543 -0.50917847609983724 -0.51517018380991342 -0.65833009978641788 -0.61221054516373097 -0.57184567356766758 0.6123533543347397 0.83283443529849244 -0.033032222946833133 0.86121369645739965 0.18535919223894165 -0.72083546381453067 0.4772160098450608 0.69623964441221331 0.3605853603971737 0.10524429401236604 -0.81775795288829722 0.32906720594719396 -0.7833721431753744 -0.73764497827427833 -0.5040278442683227 -0.60714576240905072 -0.67359590951324222 -0.77882148171743137 -0.65854089431005891 -0.88404213961024658 -0.90831635245395959 -0.83276096207073036 -0.86466540664291913 -0.89817160037613086 -0.69944236194928844 -0.77105843847684385 -0.70912617861871496 -0.84019671395502038 -0.74381698629694615 -0.6635498859451302 -0.77889257534367129 
</DataArray>
<DataArray type="Float64" Name="piezo_head_p0" format="ascii">