<?xml version="1.0"?>
<VTKFile type="UnstructuredGrid" version="0.1" byte_order="LittleEndian">
<UnstructuredGrid>
<Piece NumberOfPoints="567" NumberOfCells="966">
<Points>
<DataArray type="Float64" NumberOfComponents="3" format="ascii">
0.000000000000000e+00 0.000000000000000e+00 0.000000000000000e+00 0.000000000000000e+00 1.000000000000000e+00 0.000000000000000e+00 1.600000000000000e+01 1.000000000000000e+00 0.000000000000000e+00 1.600000000000000e+01 0.000000000000000e+00 0.000000000000000e+00 0.000000000000000e+00 2.499999999993998e-01 0.000000000000000e+00 0.000000000000000e+00 4.999999999990217e-01 0.000000000000000e+00 0.000000000000000e+00 7.499999999993374e-01 0.000000000000000e+00 2.025316455691341e-01 1.000000000000000e+00 0.000000000000000e+00 4.050632911382681e-01 1.000000000000000e+00 0.000000000000000e+00 6.075949367074022e-01 1.000000000000000e+00 0.000000000000000e+00 8.101265822765362e-01 1.000000000000000e+00 0.000000000000000e+00 1.012658227845670e+00 1.000000000000000e+00 0.000000000000000e+00 1.215189873414804e+00 1.000000000000000e+00 0.000000000000000e+00 1.417721518983938e+00 1.000000000000000e+00 0.000000000000000e+00 1.620253164553072e+00 1.000000000000000e+00 0.000000000000000e+00 1.822784810122207e+00 1.000000000000000e+00 0.000000000000000e+00 2.025316455691340e+00 1.000000000000000e+00 0.000000000000000e+00 2.227848101260475e+00 1.000000000000000e+00 0.000000000000000e+00 2.430379746829609e+00 1.000000000000000e+00 0.000000000000000e+00 2.632911392398743e+00 1.000000000000000e+00 0.000000000000000e+00 2.835443037967877e+00 1.000000000000000e+00 0.000000000000000e+00 3.037974683537010e+00 1.000000000000000e+00 0.000000000000000e+00 3.240506329106145e+00 1.000000000000000e+00 0.000000000000000e+00 3.443037974675279e+00 1.000000000000000e+00 0.000000000000000e+00 3.645569620244413e+00 1.000000000000000e+00 0.000000000000000e+00 3.848101265813547e+00 1.000000000000000e+00 0.000000000000000e+00 4.050632911382726e+00 1.000000000000000e+00 0.000000000000000e+00 4.253164556952040e+00 1.000000000000000e+00 0.000000000000000e+00 4.455696202521353e+00 1.000000000000000e+00 0.000000000000000e+00 4.658227848090667e+00 1.000000000000000e+00 0.000000000000000e+00 4.860759493659981e+00 1.000000000000000e+00 0.000000000000000e+00 5.063291139229296e+00 1.000000000000000e+00 0.000000000000000e+00 5.265822784798610e+00 1.000000000000000e+00 0.000000000000000e+00 5.468354430367923e+00 1.000000000000000e+00 0.000000000000000e+00 5.670886075937237e+00 1.000000000000000e+00 0.000000000000000e+00 5.873417721506551e+00 1.000000000000000e+00 0.000000000000000e+00 6.075949367075864e+00 1.000000000000000e+00 0.000000000000000e+00 6.278481012645178e+00 1.000000000000000e+00 0.000000000000000e+00 6.481012658214492e+00 1.000000000000000e+00 0.000000000000000e+00 6.683544303783806e+00 1.000000000000000e+00 0.000000000000000e+00 6.886075949353121e+00 1.000000000000000e+00 0.000000000000000e+00 7.088607594922435e+00 1.000000000000000e+00 0.000000000000000e+00 7.291139240491749e+00 1.000000000000000e+00 0.000000000000000e+00 7.493670886061063e+00 1.000000000000000e+00 0.000000000000000e+00 7.696202531630375e+00 1.000000000000000e+00 0.000000000000000e+00 7.898734177199691e+00 1.000000000000000e+00 0.000000000000000e+00 8.101265822769285e+00 1.000000000000000e+00 0.000000000000000e+00 8.303797468339161e+00 1.000000000000000e+00 0.000000000000000e+00 8.506329113909036e+00 1.000000000000000e+00 0.000000000000000e+00 8.708860759478913e+00 1.000000000000000e+00 0.000000000000000e+00 8.911392405048788e+00 1.000000000000000e+00 0.000000000000000e+00 9.113924050618664e+00 1.000000000000000e+00 0.000000000000000e+00 9.316455696188541e+00 1.000000000000000e+00 0.000000000000000e+00 9.518987341758416e+00 1.000000000000000e+00 0.000000000000000e+00 9.721518987328292e+00 1.000000000000000e+00 0.000000000000000e+00 9.924050632898169e+00 1.000000000000000e+00 0.000000000000000e+00 1.012658227846805e+01 1.000000000000000e+00 0.000000000000000e+00 1.032911392403792e+01 1.000000000000000e+00 0.000000000000000e+00 1.053164556960780e+01 1.000000000000000e+00 0.000000000000000e+00 1.073417721517767e+01 1.000000000000000e+00 0.000000000000000e+00 1.093670886074755e+01 1.000000000000000e+00 0.000000000000000e+00 1.113924050631742e+01 1.000000000000000e+00 0.000000000000000e+00 1.134177215188730e+01 1.000000000000000e+00 0.000000000000000e+00 1.154430379745718e+01 1.000000000000000e+00 0.000000000000000e+00 1.174683544302705e+01 1.000000000000000e+00 0.000000000000000e+00 1.194936708859693e+01 1.000000000000000e+00 0.000000000000000e+00 1.215189873416701e+01 1.000000000000000e+00 0.000000000000000e+00 1.235443037973717e+01 1.000000000000000e+00 0.000000000000000e+00 1.255696202530733e+01 1.000000000000000e+00 0.000000000000000e+00 1.275949367087749e+01 1.000000000000000e+00 0.000000000000000e+00 1.296202531644764e+01 1.000000000000000e+00 0.000000000000000e+00 1.316455696201780e+01 1.000000000000000e+00 0.000000000000000e+00 1.336708860758796e+01 1.000000000000000e+00 0.000000000000000e+00 1.356962025315812e+01 1.000000000000000e+00 0.000000000000000e+00 1.377215189872827e+01 1.000000000000000e+00 0.000000000000000e+00 1.397468354429843e+01 1.000000000000000e+00 0.000000000000000e+00 1.417721518986859e+01 1.000000000000000e+00 0.000000000000000e+00 1.437974683543874e+01 1.000000000000000e+00 0.000000000000000e+00 1.458227848100890e+01 1.000000000000000e+00 0.000000000000000e+00 1.478481012657906e+01 1.000000000000000e+00 0.000000000000000e+00 1.498734177214921e+01 1.000000000000000e+00 0.000000000000000e+00 1.518987341771937e+01 1.000000000000000e+00 0.000000000000000e+00 1.539240506328953e+01 1.000000000000000e+00 0.000000000000000e+00 1.559493670885968e+01 1.000000000000000e+00 0.000000000000000e+00 1.579746835442984e+01 1.000000000000000e+00 0.000000000000000e+00 1.600000000000000e+01 7.500000000003469e-01 0.000000000000000e+00 1.600000000000000e+01 5.000000000013878e-01 0.000000000000000e+00 1.600000000000000e+01 2.500000000010407e-01 0.000000000000000e+00 1.579746835443066e+01 0.000000000000000e+00 0.000000000000000e+00 1.559493670886132e+01 0.000000000000000e+00 0.000000000000000e+00 1.539240506329198e+01 0.000000000000000e+00 0.000000000000000e+00 1.518987341772264e+01 0.000000000000000e+00 0.000000000000000e+00 1.498734177215330e+01 0.000000000000000e+00 0.000000000000000e+00 1.478481012658396e+01 0.000000000000000e+00 0.000000000000000e+00 1.458227848101463e+01 0.000000000000000e+00 0.000000000000000e+00 1.437974683544529e+01 0.000000000000000e+00 0.000000000000000e+00 1.417721518987595e+01 0.000000000000000e+00 0.000000000000000e+00 1.397468354430661e+01 0.000000000000000e+00 0.000000000000000e+00 1.377215189873727e+01 0.000000000000000e+00 0.000000000000000e+00 1.356962025316793e+01 0.000000000000000e+00 0.000000000000000e+00 1.336708860759859e+01 0.000000000000000e+00 0.000000000000000e+00 1.316455696202925e+01 0.000000000000000e+00 0.000000000000000e+00 1.296202531645991e+01 0.000000000000000e+00 0.000000000000000e+00 1.275949367089057e+01 0.000000000000000e+00 0.000000000000000e+00 1.255696202532123e+01 0.000000000000000e+00 0.000000000000000e+00 1.235443037975189e+01 0.000000000000000e+00 0.000000000000000e+00 1.215189873418256e+01 0.000000000000000e+00 0.000000000000000e+00 1.194936708861336e+01 0.000000000000000e+00 0.000000000000000e+00 1.174683544304458e+01 0.000000000000000e+00 0.000000000000000e+00 1.154430379747580e+01 0.000000000000000e+00 0.000000000000000e+00 1.134177215190703e+01 0.000000000000000e+00 0.000000000000000e+00 1.113924050633825e+01 0.000000000000000e+00 0.000000000000000e+00 1.093670886076947e+01 0.000000000000000e+00 0.000000000000000e+00 1.073417721520070e+01 0.000000000000000e+00 0.000000000000000e+00 1.053164556963192e+01 0.000000000000000e+00 0.000000000000000e+00 1.032911392406314e+01 0.000000000000000e+00 0.000000000000000e+00 1.012658227849436e+01 0.000000000000000e+00 0.000000000000000e+00 9.924050632925587e+00 0.000000000000000e+00 0.000000000000000e+00 9.721518987356809e+00 0.000000000000000e+00 0.000000000000000e+00 9.518987341788034e+00 0.000000000000000e+00 0.000000000000000e+00 9.316455696219256e+00 0.000000000000000e+00 0.000000000000000e+00 9.113924050650478e+00 0.000000000000000e+00 0.000000000000000e+00 8.911392405081703e+00 0.000000000000000e+00 0.000000000000000e+00 8.708860759512925e+00 0.000000000000000e+00 0.000000000000000e+00 8.506329113944147e+00 0.000000000000000e+00 0.000000000000000e+00 8.303797468375370e+00 0.000000000000000e+00 0.000000000000000e+00 8.101265822806592e+00 0.000000000000000e+00 0.000000000000000e+00 7.898734177237253e+00 0.000000000000000e+00 0.000000000000000e+00 7.696202531667353e+00 0.000000000000000e+00 0.000000000000000e+00 7.493670886097451e+00 0.000000000000000e+00 0.000000000000000e+00 7.291139240527549e+00 0.000000000000000e+00 0.000000000000000e+00 7.088607594957649e+00 0.000000000000000e+00 0.000000000000000e+00 6.886075949387747e+00 0.000000000000000e+00 0.000000000000000e+00 6.683544303817845e+00 0.000000000000000e+00 0.000000000000000e+00 6.481012658247945e+00 0.000000000000000e+00 0.000000000000000e+00 6.278481012678045e+00 0.000000000000000e+00 0.000000000000000e+00 6.075949367108143e+00 0.000000000000000e+00 0.000000000000000e+00 5.873417721538242e+00 0.000000000000000e+00 0.000000000000000e+00 5.670886075968340e+00 0.000000000000000e+00 0.000000000000000e+00 5.468354430398438e+00 0.000000000000000e+00 0.000000000000000e+00 5.265822784828536e+00 0.000000000000000e+00 0.000000000000000e+00 5.063291139258636e+00 0.000000000000000e+00 0.000000000000000e+00 4.860759493688734e+00 0.000000000000000e+00 0.000000000000000e+00 4.658227848118834e+00 0.000000000000000e+00 0.000000000000000e+00 4.455696202548932e+00 0.000000000000000e+00 0.000000000000000e+00 4.253164556979030e+00 0.000000000000000e+00 0.000000000000000e+00 4.050632911409130e+00 0.000000000000000e+00 0.000000000000000e+00 3.848101265838807e+00 0.000000000000000e+00 0.00000000000000
[...]
<PointData Scalars="pressure_nodes_[L]," Vectors="">
<DataArray type="Float64" Name="pressure_nodes_[L]" format="ascii">
-5.300247232844429e-02 -4.917856519136618e-02 -1.223758450113733e+01 -1.223750849325323e+01 -4.677394013442927e-02 -6.321086407802685e-02 -7.068275660667821e-02 -1.594382528934034e-01 -3.192845715891710e-01 -4.856204420371888e-01 -6.474475233231964e-01 -8.081902206585798e-01 -9.704944759782625e-01 -1.135577511989583e+00 -1.297809964229915e+00 -1.458522200912966e+00 -1.620095805056630e+00 -1.781980170227095e+00 -1.943963979267130e+00 -2.106034924231783e+00 -2.267669169022283e+00 -2.428452176412296e+00 -2.588037251835098e+00 -2.745566818956077e+00 -2.922328097159778e+00 -3.089001806274437e+00 -3.243908722472430e+00 -3.404056452892095e+00 -3.565413728755153e+00 -3.727227856162012e+00 -3.889284630661044e+00 -4.051184694709721e+00 -4.213120095760098e+00 -4.375274617282953e+00 -4.537327891264487e+00 -4.699350333077745e+00 -4.861526306862308e+00 -5.023636548276667e+00 -5.185734592333069e+00 -5.347848882005048e+00 -5.509720134783098e+00 -5.671743108424321e+00 -5.832930080946452e+00 -5.990038749067617e+00 -6.159299232075162e+00 -6.329734790691300e+00 -6.487155053321776e+00 -6.646621423901492e+00 -6.806418136185469e+00 -6.968655557064162e+00 -7.133226872761314e+00 -7.293914285841304e+00 -7.455351021352731e+00 -7.619625244729050e+00 -7.780269793042367e+00 -7.941765328800551e+00 -8.106055718821686e+00 -8.266660929161388e+00 -8.428113950437304e+00 -8.592326577725030e+00 -8.752836369843513e+00 -8.914325979201319e+00 -9.078743900903799e+00 -9.239802148613760e+00 -9.399191240446166e+00 -9.558210811782045e+00 -9.715577414876556e+00 -9.892199951121199e+00 -1.005728275803486e+01 -1.021179594488121e+01 -1.037089734742208e+01 -1.052995511166409e+01 -1.069067157043171e+01 -1.085226599287746e+01 -1.100843443872822e+01 -1.116392891285911e+01 -1.131956904187276e+01 -1.146847525530888e+01 -1.161154178916720e+01 -1.174832345510749e+01 -1.187582569230554e+01 -1.199105832269295e+01 -1.209028472745912e+01 -1.216815212981533e+01 -1.221793231120150e+01 -1.223867428087973e+01 -1.223768572670729e+01 -1.223634520063895e+01 -1.221977801930015e+01 -1.216952258553171e+01 -1.208917999987795e+01 -1.199046163461376e+01 -1.187645214388030e+01 -1.174951784527826e+01 -1.160997396654137e+01 -1.146498367069659e+01 -1.131684737931234e+01 -1.116424411957457e+01 -1.100873552863011e+01 -1.085123667116013e+01 -1.069212241862735e+01 -1.053215991859666e+01 -1.037206640425463e+01 -1.021311699693936e+01 -1.005761647075197e+01 -9.887922088951299e+00 -9.715951065354298e+00 -9.558626873617401e+00 -9.399205840732876e+00 -9.238662574306266e+00 -9.077318945753351e+00 -8.915377417892220e+00 -8.753409644493475e+00 -8.591429125632455e+00 -8.429206666020393e+00 -8.267054253917852e+00 -8.104936017258460e+00 -7.942701185471032e+00 -7.780596289509074e+00 -7.618575959256468e+00 -7.456450186979675e+00 -7.294449569598273e+00 -7.132431273026168e+00 -6.970273618230920e+00 -6.808496812605096e+00 -6.647429933163385e+00 -6.487409974216720e+00 -6.329721065334897e+00 -6.158544922090996e+00 -5.991109547735824e+00 -5.839776397322884e+00 -5.676126045912161e+00 -5.511195167485441e+00 -5.349823429895135e+00 -5.185487068719524e+00 -5.024207276343741e+00 -4.863415141712093e+00 -4.699213426979713e+00 -4.538027573158018e+00 -4.377196384883312e+00 -4.212948092224349e+00 -4.051765073120571e+00 -3.890911563967529e+00 -3.726376677028560e+00 -3.564352864872255e+00 -3.404349780678918e+00 -3.245142722809954e+00 -3.089121248689260e+00 -2.918476894102713e+00 -2.746125810545535e+00 -2.588681233245895e+00 -2.429476919187647e+00 -2.269904891778924e+00 -2.108216459044982e+00 -1.943626515037705e+00 -1.782412431960618e+00 -1.621273141031928e+00 -1.456460839633422e+00 -1.294013827630949e+00 -1.132967265927254e+00 -9.710464282827523e-01 -8.089389921084588e-01 -6.467551855224829e-01 -4.842030465826543e-01 -3.223341148489441e-01 -1.662980471533793e-01 -1.204487262797579e+01 -5.614284324353896e-01 -1.168336572007126e+01 -9.468739621802154e+00 -1.049409434844402e+00 -1.124326460531284e+01 -8.998929626730282e+00 -1.077310794359710e+01 -1.536566916993498e+00 -8.512745567163869e+00 -1.029327375085003e+01 -8.025767754487594e+00 -2.023632613685792e+00 -7.538925548501149e+00 -2.494575059897977e+00 -7.052098947057843e+00 -3.323567382204920e+00 -6.577399833569853e+00 -3.806447763890974e+00 -4.292361769461039e+00 -4.778633980539038e+00 -5.265122710015528e+00 -5.724749857987393e+00 -6.150038228706971e+00 -9.873114068754465e+00 -2.901810875369992e+00 -1.217366571632572e+01 -3.083978246353831e-01 -5.508023387215026e+00 -5.022136888086472e+00 -4.535964396619791e+00 -6.801665425699873e+00 -4.049901508407726e+00 -3.556909601209910e+00 -7.294446370075696e+00 -7.780974851225119e+00 -8.268032337987959e+00 -8.754158285506310e+00 -9.245614724562060e+00 -1.052432008895786e+01 -1.188294045372786e+01 -1.100897334531509e+01 -1.146117381350173e+01 -2.273163277847481e+00 -7.988495798597840e-01 -1.780342292166963e+00 -1.301289258469462e+00 -9.240110889634209e+00 -8.756333254580701e+00 -8.269825031583514e+00 -7.782498662929752e+00 -7.296276090760380e+00 -6.810203566583734e+00 -1.285699381456206e+00 -1.147547158477628e+01 -1.187933736063226e+01 -8.038718906391886e-01 -1.101056057779304e+01 -1.779281201361848e+00 -1.053351344648522e+01 -2.264654382800659e+00 -3.562913927289761e+00 -4.048897391582172e+00 -4.534549100957159e+00 -5.021102917452061e+00 -5.505861699640929e+00 -5.945747885787906e+00 -5.975554198753517e+00 -1.006441863946223e+01 -1.009156412380899e+01 -3.095126199618693e+00 -3.122667124470047e+00 -6.354688275099970e+00 -2.715572889800624e+00 -9.688218774881701e+00 -2.710549611848935e+00 -6.354753727867099e+00 -9.683355519565589e+00 -3.402135040138142e-01 -1.216024899011935e+01 -7.051022877572918e+00 -5.773193126010510e+00 -5.266779897410732e+00 -7.537889879545665e+00 -4.780369041087802e+00 -4.294140203042286e+00 -8.024581982941042e+00 -3.807686662379073e+00 -3.326849483852524e+00 -8.511058519056483e+00 -8.997446939704394e+00 -1.029287692967112e+01 -5.658652825918541e-01 -2.025279507342212e+00 -1.204238388462820e+01 -1.077183503814692e+01 -1.168154037247830e+01 -1.051885719187587e+00 -1.124308337444428e+01 -1.537460885151474e+00 -8.997897105438692e+00 -1.124143837991923e+01 -1.168267211757356e+01 -1.538413970875950e+00 -1.077316364323626e+01 -1.050001518511778e+00 -1.204444659030002e+01 -8.511983335977968e+00 -1.029566088684089e+01 -2.023656107172201e+00 -8.025030053743107e+00 -5.628848197795112e-01 -7.538571779949549e+00 -7.052400868356356e+00 -3.324997492669654e+00 -3.807211526486314e+00 -4.292742832353032e+00 -4.779010260758401e+00 -5.265621340277235e+00 -5.751322133687873e+00 -9.474539886057789e+00 -9.475167611449091e+00 -2.502330373450650e+00 -6.571875081109794e+00 -2.504110136778414e+00 -6.570740328009530e+00 -6.156221397185621e+00 -6.157874887947677e+00 -2.943088820620544e+00 -9.891137495661926e+00 -9.913655443310954e+00 -2.921140165639186e+00 -1.220906471465808e+01 -2.002971526728357e-01 -1.213402255092207e+01 -3.992113099691288e-01 -2.175526619904397e-01 -1.220446099368623e+01 -1.368096322267263e+00 -1.140071531459130e+01 -8.877662653347334e-01 -1.181505940056859e+01 -1.093148031342491e+01 -1.045381081285957e+01 -9.159197159739426e+00 -1.861462223027521e+00 -8.674252337828403e+00 -8.187509222217706e+00 -3.645225597609404e+00 -4.130628865964170e+00 -7.700757998408585e+00 -4.616770479137712e+00 -5.103283482861647e+00 -7.214715011242203e+00 -5.588641228745582e+00 -1.139919996250023e+01 -1.182141472734803e+01 -1.369151342093436e+00 -1.093648069463969e+01 -1.045186994621395e+01 -8.793655906727852e-01 -3.637398346487670e+00 -4.125013231464711e+00 -4.610994612457045e+00 -5.097470793143415e+00 -9.166303948549869e+00 -5.578349351966193e+00 -8.679790184673150e+00 -8.193288741068061e+00 -1.855498029923172e+00 -7.706023347117325e+00 -2.344077284912686e+00 -7.219635429101644e+00 -6.729903972319939e+00 -2.345195134273231e+00 -6.730055811987294e+00 -5.589242146530685e+00 -5.099613125942471e+00 -7.218015643589967e+00 -4.613430005256739e+00 -4.127173588309907e+00 -7.704513856064352e+00 -3.639065685855150e+00 -8.191193718271434e+00 -8.677407624996050e+00 -9.164979920401056e+00 -1.857825448724510e+00 -1.044978648815648e+01 -1.093489780734286e+01 -1.181927706832648e+01 -1.139083612092495e+01 -8.825265575752841e-01 -1.193665816671784e+01 -1.153331528967598e+01 -7.255768962378064e-01 -1.378570217387640e+00 -1.221680102634767e+00 -1.108237657275717e+01 -1.060470330278007e+01 -1.705363928324531e+00 -2.193968049545959e+00 -8.829574580859640e+00 -8.343434695190503e+00 -3.483448724310972e+00 -7.856827413036499e+00 -3.975001880001263e+00 -4.461248792954030e+00 -7.370278712653908e+00 -4.947359587369449e+00 -5.434207569844173e+00 -6.881965869798883e+00 -6.726652514103461e+00 -2.348900646411431e+00 -9.319574378395135e+00 -6.429403126867934e+00 -2.773693537193201e+00 -9.612935231024551e+00 -1.012070981849452e+01 -3.151097636458544e+00 -5.992409096299298e+00 -7.858104220170572e+00 -7.371611250695119e+00 -8.831624647936003e+00 -6.883500922872180e+00 -8.345433742253059e+00 -9.318511047304536e+00 -3.973354995089619e+00 -5.430771392228688e+00 -3.482030930676892e+00 -4.458998005125020e+00 -4.945356271832877e+00 -1.153718258730688e+01 -1.217056286702017e+00 -1.193879819086994e+01 -1.108332274988449e+01 -7.221519950619469e-01 -1.060630861078402e+01 -1.703507663049138e+00 -2.191505329908648e+00 -1.219801268190901e+01 -2.401128016019888e-01 -7.862610247590752e+00 -6.890393353089596e+00 -8.835888673062621e+00 -8.349564648351471e+00 -7.376396496013474e+00 -2.185415585739416e+00 -1.699833885116747e+00 -3.484366311259758e+00 -5.427462638502490e+00 -4.454920692816133e+00 -3.969189878946099e+00 -4.941323470568651e+00 -1.061341179820176e+01 -1.108755827715018e+01 -1.193662970623472e+01 -7.256616606742609e-01 -1.154318317764253e+01 -1.210692731343796e+00 -9.318411925278101e+00 -1.213517118101345e+01 -3.953800533806897e-01 -4.032779347703845e-01 -1.213157731073536e+01 -6.271642962152415e+00 -9.772165221615333e+00 -6.271925978342827e+00 -9.773348072753569e+00 -2.801010395491607e+00 -2.802643931602167e+00 -5.907625803815679e+00 -3.176025794657786e+00 -5.919313555536013e+00 -1.014443053732752e+01 -3.171170078073637e+00 -1.013961052590969e+01 -5.634808266935218e+00 -5.149977963721387e+00 -7.166993652688839e+00 -4.663644069661285e+00 -4.177462186775990e+00 -7.653563431649554e+00 -3.689722093421559e+00 -8.140545265350475e+00 -8.626915863631417e+00 -9.114238540298331e+00 -1.908232322837765e+00 -1.037175208686352e+01 -1.088527551065539e+01 -1.131824576435202e+01 -1.177922473221468e+01 -1.456687840926121e+00 -9.327683320851703e-01 -2.422694111244947e+00 -6.651233541615725e+00 -9.626778524322120e+00 -9.628134914755435e+00 -6.417435191082186e+00 -2.655282366067158e+00 -2.656963232935605e+00 -6.417159377776186e+00 -1.158046014983067e+01 -1.199253389442398e+01 -1.168213998197558e+00 -6.438550759524642e-01 -1.113231744616346e+01 -1.065628843847974e+01 -1.652671328199898e+00 -2.141314856276256e+00 -8.881959843005996e+00 -8.395860169842731e+00 -3.404439737650427e+00 -7.908942991379981e+00 -3.922565081455956e+00 -7.422291941778784e+00 -4.408532182118346e+00 -4.894706688600331e+00 -6.934021472607800e+00 -5.381009762187169e+00 -9.395026135467472e+00 -1.222366673706598e+01 -1.424168117071656e-01 -5.855702721199288e+00 -9.988445216292103e+00 -3.018311380842560e+00 -5.839236975902118e+00 -1.419234973807865e+00 -9.664941953280942e-01 -1.135301649752420e+01 -7.134947229806664e+00 -7.621200444044932e+00 -8.108125046703790e+00 -8.595134997024434e+00 -9.080635004553175e+00 -1.175213205519957e+01 -5.664731166503942e+00 -5.182896154964462e+00 -4.696215736000362e+00 -4.210043549957518e+00 -3.724461119273244e+00 -1.940887815409593e+00 -1.085412574124718e+01 -1.037527412339336e+01 -6.653499125067706e+00 -2.419945246141602e+00 -6.971002753353609e+00 -7.457505865041280e+00 -7.944012422213715e+00 -8.431440593632585e+00 -8.917539713057902e+00 -5.346285089842360e+00 -4.859870838597995e+00 -4.373426618231451e+00 -3.888176350638097e+00 -3.404007973170322e+00 -2.104641011398616e+00 -1.618585187191300e+00 -1.069344454941562e+01 -1.116508630406507e+01 -1.199366478727023e+01 -6.422605553517622e-01 -1.161447930181780e+01 -1.129741982003885e+00 -3.036084461691632e+00 -6.047751734714581e+00 -3.041519161550143e+00 -1.000508861994992e+01 -1.001054445041232e+01 -6.043824187351728e+00 -9.394730238753139e+00 -6.219167529645720e+00 -6.218325875582666e+00 -2.852023138143009e+00 -9.797356425639935e+00 -9.823440631242709e+00 -2.825617820036859e+00 -9.543744535632269e+00 -9.544955418925534e+00 -6.500751950578799e+00 -2.570137229794386e+00 -6.500107731223006e+00 -2.572063986822919e+00 -3.250814532206554e+00 -1.022008547459485e+01 -3.245321458730132e+00 -1.021430014293436e+01 -1.208903995598785e+01 -4.850962265806689e-01 -9.970319197419453e+00 -3.000249825149345e+00 -4.778967985897079e-01 -1.209332266803669e+01 -6.090627341945385e+00 -6.085229444801710e+00 -1.222983886045144e+01 -1.088141828450740e-01 -1.223221551523515e+01 -9.491023980716541e-02 -6.288282958754875e+00 -9.746387481024298e+00 -2.639201996829141e+00 
</DataArray>
</PointData>
<CellData Scalars="pressure_elements_[L]," Vectors="velocity_elements_[L/T],">
<DataArray type="Float64" Name="pressure_elements_[L]" format="ascii">