<?xml version="1.0"?>
<VTKFile type="UnstructuredGrid" version="0.1" byte_order="LittleEndian">
<UnstructuredGrid>
<Piece NumberOfPoints="594" NumberOfCells="198">
<Points>
<DataArray type="Float64" NumberOfComponents="3" format="ascii">
2.499999999996205e+00 0.000000000000000e+00 0.000000000000000e+00 2.999999999996966e+00 0.000000000000000e+00 0.000000000000000e+00 2.761574074072416e+00 5.243055555554663e-01 0.000000000000000e+00 9.999999999999911e-01 1.000000000000000e+00 0.000000000000000e+00 1.249999999998182e+00 4.791666666661778e-01 0.000000000000000e+00 1.499999999999992e+00 1.000000000000000e+00 0.000000000000000e+00 3.499999999997728e+00 0.000000000000000e+00 0.000000000000000e+00 3.999999999998489e+00 0.000000000000000e+00 0.000000000000000e+00 3.753637566137116e+00 5.205026455027371e-01 0.000000000000000e+00 2.499999999996205e+00 0.000000000000000e+00 0.000000000000000e+00 2.761574074072416e+00 5.243055555554663e-01 0.000000000000000e+00 2.265689300409039e+00 5.024434156380889e-01 0.000000000000000e+00 1.754629629626973e+00 4.976851851849655e-01 0.000000000000000e+00 1.499999999999992e+00 1.000000000000000e+00 0.000000000000000e+00 1.249999999998182e+00 4.791666666661778e-01 0.000000000000000e+00 7.172619047612346e-01 5.069444444443194e-01 0.000000000000000e+00 1.249999999998182e+00 4.791666666661778e-01 0.000000000000000e+00 9.999999999999911e-01 1.000000000000000e+00 0.000000000000000e+00 3.249999999999996e+00 5.000000000005678e-01 0.000000000000000e+00 3.499999999997728e+00 0.000000000000000e+00 0.000000000000000e+00 3.753637566137116e+00 5.205026455027371e-01 0.000000000000000e+00 4.282738095237837e+00 4.970238095238522e-01 0.000000000000000e+00 3.753637566137116e+00 5.205026455027371e-01 0.000000000000000e+00 3.999999999998489e+00 0.000000000000000e+00 0.000000000000000e+00 3.249999999999996e+00 5.000000000005678e-01 0.000000000000000e+00 2.761574074072416e+00 5.243055555554663e-01 0.000000000000000e+00 2.999999999996966e+00 0.000000000000000e+00 0.000000000000000e+00 1.754629629626973e+00 4.976851851849655e-01 0.000000000000000e+00 1.999999999995513e+00 0.000000000000000e+00 0.000000000000000e+00 2.265689300409039e+00 5.024434156380889e-01 0.000000000000000e+00 1.754629629626973e+00 4.976851851849655e-01 0.000000000000000e+00 2.265689300409039e+00 5.024434156380889e-01 0.000000000000000e+00 1.999999999999994e+00 1.000000000000000e+00 0.000000000000000e+00 1.999999999995513e+00 0.000000000000000e+00 0.000000000000000e+00 2.499999999996205e+00 0.000000000000000e+00 0.000000000000000e+00 2.265689300409039e+00 5.024434156380889e-01 0.000000000000000e+00 2.499999999999995e+00 1.000000000000000e+00 0.000000000000000e+00 1.999999999999994e+00 1.000000000000000e+00 0.000000000000000e+00 2.265689300409039e+00 5.024434156380889e-01 0.000000000000000e+00 1.999999999999994e+00 1.000000000000000e+00 0.000000000000000e+00 1.499999999999992e+00 1.000000000000000e+00 0.000000000000000e+00 1.754629629626973e+00 4.976851851849655e-01 0.000000000000000e+00 4.999999999995947e-01 0.000000000000000e+00 0.000000000000000e+00 9.999999999984134e-01 0.000000000000000e+00 0.000000000000000e+00 7.172619047612346e-01 5.069444444443194e-01 0.000000000000000e+00 9.999999999999911e-01 1.000000000000000e+00 0.000000000000000e+00 4.999999999999956e-01 1.000000000000000e+00 0.000000000000000e+00 7.172619047612346e-01 5.069444444443194e-01 0.000000000000000e+00 1.499999999996955e+00 0.000000000000000e+00 0.000000000000000e+00 1.999999999995513e+00 0.000000000000000e+00 0.000000000000000e+00 1.754629629626973e+00 4.976851851849655e-01 0.000000000000000e+00 3.499999999997728e+00 0.000000000000000e+00 0.000000000000000e+00 3.249999999999996e+00 5.000000000005678e-01 0.000000000000000e+00 2.999999999996966e+00 0.000000000000000e+00 0.000000000000000e+00 4.499999999999245e+00 0.000000000000000e+00 0.000000000000000e+00 4.282738095237837e+00 4.970238095238522e-01 0.000000000000000e+00 3.999999999998489e+00 0.000000000000000e+00 0.000000000000000e+00 4.499999999999999e+00 1.000000000000000e+00 0.000000000000000e+00 3.999999999999998e+00 1.000000000000000e+00 0.000000000000000e+00 4.282738095237837e+00 4.970238095238522e-01 0.000000000000000e+00 2.999999999999996e+00 1.000000000000000e+00 0.000000000000000e+00 3.249999999999996e+00 5.000000000005678e-01 0.000000000000000e+00 3.499999999999997e+00 1.000000000000000e+00 0.000000000000000e+00 7.172619047612346e-01 5.069444444443194e-01 0.000000000000000e+00 9.999999999984134e-01 0.000000000000000e+00 0.000000000000000e+00 1.249999999998182e+00 4.791666666661778e-01 0.000000000000000e+00 1.754629629626973e+00 4.976851851849655e-01 0.000000000000000e+00 1.249999999998182e+00 4.791666666661778e-01 0.000000000000000e+00 1.499999999996955e+00 0.000000000000000e+00 0.000000000000000e+00 4.282738095237837e+00 4.970238095238522e-01 0.000000000000000e+00 3.999999999999998e+00 1.000000000000000e+00 0.000000000000000e+00 3.753637566137116e+00 5.205026455027371e-01 0.000000000000000e+00 3.249999999999996e+00 5.000000000005678e-01 0.000000000000000e+00 3.753637566137116e+00 5.205026455027371e-01 0.000000000000000e+00 3.499999999999997e+00 1.000000000000000e+00 0.000000000000000e+00 3.249999999999996e+00 5.000000000005678e-01 0.000000000000000e+00 2.999999999999996e+00 1.000000000000000e+00 0.000000000000000e+00 2.761574074072416e+00 5.243055555554663e-01 0.000000000000000e+00 2.499999999999995e+00 1.000000000000000e+00 0.000000000000000e+00 2.265689300409039e+00 5.024434156380889e-01 0.000000000000000e+00 2.761574074072416e+00 5.243055555554663e-01 0.000000000000000e+00 3.499999999999997e+00 1.000000000000000e+00 0.000000000000000e+00 3.753637566137116e+00 5.205026455027371e-01 0.000000000000000e+00 3.999999999999998e+00 1.000000000000000e+00 0.000000000000000e+00 1.499999999996955e+00 0.000000000000000e+00 0.000000000000000e+00 1.249999999998182e+00 4.791666666661778e-01 0.000000000000000e+00 9.999999999984134e-01 0.000000000000000e+00 0.000000000000000e+00 2.499999999999995e+00 1.000000000000000e+00 0.000000000000000e+00 2.761574074072416e+00 5.243055555554663e-01 0.000000000000000e+00 2.999999999999996e+00 1.000000000000000e+00 0.000000000000000e+00 7.172619047612346e-01 5.069444444443194e-01 0.000000000000000e+00 4.999999999999956e-01 1.000000000000000e+00 0.000000000000000e+00 3.060515873017599e-01 6.905092592594075e-01 0.000000000000000e+00 4.282738095237837e+00 4.970238095238522e-01 0.000000000000000e+00 4.499999999999245e+00 0.000000000000000e+00 0.000000000000000e+00 4.693948412698078e+00 3.100198412695943e-01 0.000000000000000e+00 0.000000000000000e+00 0.000000000000000e+00 0.000000000000000e+00 3.281084656080592e-01 3.513271604940242e-01 0.000000000000000e+00 0.000000000000000e+00 5.000000000020591e-01 0.000000000000000e+00 5.000000000000000e+00 1.000000000000000e+00 0.000000000000000e+00 4.625000000000250e+00 6.249999999999233e-01 0.000000000000000e+00 5.000000000000000e+00 4.999999999986940e-01 0.000000000000000e+00 7.172619047612346e-01 5.069444444443194e-01 0.000000000000000e+00 3.281084656080592e-01 3.513271604940242e-01 0.000000000000000e+00 4.999999999995947e-01 0.000000000000000e+00 0.000000000000000e+00 0.000000000000000e+00 0.000000000000000e+00 0.000000000000000e+00 4.999999999995947e-01 0.000000000000000e+00 0.000000000000000e+00 3.281084656080592e-01 3.513271604940242e-01 0.000000000000000e+00 5.000000000000000e+00 1.000000000000000e+00 0.000000000000000e+00 4.499999999999999e+00 1.000000000000000e+00 0.000000000000000e+00 4.625000000000250e+00 6.249999999999233e-01 0.000000000000000e+00 4.282738095237837e+00 4.970238095238522e-01 0.000000000000000e+00 4.625000000000250e+00 6.249999999999233e-01 0.000000000000000e+00 4.499999999999999e+00 1.000000000000000e+00 0.000000000000000e+00 4.625000000000250e+00 6.249999999999233e-01 0.000000000000000e+00 4.282738095237837e+00 4.970238095238522e-01 0.000000000000000e+00 4.693948412698078e+00 3.100198412695943e-01 0.000000000000000e+00 7.172619047612346e-01 5.069444444443194e-01 0.000000000000000e+00 3.060515873017599e-01 6.905092592594075e-01 0.000000000000000e+00 3.281084656080592e-01 3.513271604940242e-01 0.000000000000000e+00 0.000000000000000e+00 1.000000000000000e+00 0.000000000000000e+00 3.060515873017599e-01 6.905092592594075e-01 0.000000000000000e+00 4.999999999999956e-01 1.000000000000000e+00 0.000000000000000e+00 5.000000000000000e+00 0.000000000000000e+00 0.000000000000000e+00 4.693948412698078e+00 3.100198412695943e-01 0.000000000000000e+00 4.499999999999245e+00 0.000000000000000e+00 0.000000000000000e+00 0.000000000000000e+00 1.000000000000000e+00 0.000000000000000e+00 0.000000000000000e+00 5.000000000020591e-01 0.000000000000000e+00 3.060515873017599e-01 6.905092592594075e-01 0.000000000000000e+00 5.000000000000000e+00 4.999999999986940e-01 0.000000000000000e+00 4.693948412698078e+00 3.100198412695943e-01 0.000000000000000e+00 5.000000000000000e+00 0.000000000000000e+00 0.000000000000000e+00 0.000000000000000e+00 5.000000000020591e-01 0.000000000000000e+00 3.281084656080592e-01 3.513271604940242e-01 0.000000000000000e+00 3.060515873017599e-01 6.905092592594075e-01 0.000000000000000e+00 4.625000000000250e+00 6.249999999999233e-01 0.000000000000000e+00 4.693948412698078e+00 3.100198412695943e-01 0.000000000000000e+00 5.000000000000000e+00 4.999999999986940e-01 0.000000000000000e+00 5.666666666666361e+00 1.000000000000000e+00 -6.666666666663608e-01 5.861111111110660e+00 4.928823381205197e-01 -8.611111111106604e-01 5.458333333332905e+00 5.000000000000361e-01 -4.583333333329067e-01 5.666666666666663e+00 0.000000000000000e+00 -6.666666666666634e-01 5.458333333332905e+00 5.000000000000361e-01 -4.583333333329067e-01 5.861111111110660e+00 4.928823381205197e-01 -8.611111111106604e-01 7.333333333333325e+00 0.000000000000000e+00 -2.333333333333325e+00 7.138888888887410e+00 4.835600907032339e-01 -2.138888888887410e+00 7.544179894178556e+00 5.093285357700812e-01 -2.544179894178557e+00 7.333333333331314e+00 1.000000000000000e+00 -2.3333
[...]
<PointData Scalars="A_conc," Vectors="" Tensors="">
<DataArray type="Float64" Name="A_conc" format="ascii">
9.999999999982204e-01 9.999999999981275e-01 1.000000000000561e+00 9.999999999995457e-01 1.000000000000236e+00 9.999999999996230e-01 9.999999999983149e-01 9.999999999972160e-01 1.000000000000039e+00 9.999999999982144e-01 1.000000000000563e+00 1.000000000000560e+00 1.000000000000269e+00 9.999999999996002e-01 1.000000000000213e+00 1.000000000000186e+00 1.000000000000238e+00 9.999999999995450e-01 1.000000000000531e+00 9.999999999980761e-01 1.000000000000040e+00 9.999999999976225e-01 1.000000000000596e+00 9.999999999973773e-01 1.000000000000442e+00 1.000000000000560e+00 9.999999999981182e-01 1.000000000000463e+00 9.999999999983153e-01 1.000000000000564e+00 1.000000000000440e+00 1.000000000000413e+00 9.999999999993820e-01 9.999999999982362e-01 9.999999999982194e-01 1.000000000000529e+00 9.999999999993014e-01 9.999999999993504e-01 1.000000000000428e+00 9.999999999994144e-01 9.999999999996085e-01 1.000000000000423e+00 9.999999999997539e-01 9.999999999997551e-01 1.000000000000150e+00 9.999999999995978e-01 9.999999999995487e-01 1.000000000000071e+00 9.999999999986644e-01 9.999999999983137e-01 1.000000000000464e+00 9.999999999980330e-01 1.000000000000465e+00 9.999999999982139e-01 9.999999999927658e-01 9.999999999976845e-01 9.999999999983195e-01 9.999999999925049e-01 9.999999999978548e-01 9.999999999974649e-01 9.999999999981273e-01 1.000000000000422e+00 9.999999999978982e-01 1.000000000000166e+00 9.999999999996746e-01 1.000000000000171e+00 1.000000000000374e+00 1.000000000000694e+00 9.999999999986477e-01 9.999999999975374e-01 9.999999999968454e-01 1.000000000000516e+00 1.000000000000533e+00 1.000000000000090e+00 9.999999999978096e-01 1.000000000000424e+00 9.999999999980806e-01 1.000000000000737e+00 9.999999999992220e-01 1.000000000000472e+00 1.000000000000449e+00 9.999999999981943e-01 9.999999999998892e-01 9.999999999967271e-01 9.999999999986076e-01 1.000000000000595e+00 9.999999999993362e-01 9.999999999999637e-01 1.000000000000618e+00 9.999999999981222e-01 9.999999999999725e-01 9.999999999996960e-01 1.000000000000035e+00 9.999999999984046e-01 9.999999999927576e-01 9.999999999896433e-01 1.000000000000001e+00 9.999999999999685e-01 1.000000000000000e+00 9.999999999748350e-01 9.999999999952280e-01 9.999999999761607e-01 1.000000000000149e+00 1.000000000000134e+00 9.999999999997556e-01 1.000000000000126e+00 9.999999999997577e-01 9.999999999999563e-01 9.999999999760332e-01 9.999999999947011e-01 9.999999999921168e-01 9.999999999984828e-01 9.999999999910018e-01 9.999999999922592e-01 9.999999999914053e-01 9.999999999994841e-01 9.999999999892786e-01 9.999999999999090e-01 1.000000000000220e+00 1.000000000000221e+00 1.000000000000069e+00 9.999999999997474e-01 9.999999999998574e-01 9.999999999754621e-01 9.999999999903366e-01 9.999999999953220e-01 9.999999999999635e-01 1.000000000000073e+00 9.999999999997998e-01 9.999999999760354e-01 9.999999999922671e-01 9.999999999749332e-01 1.000000000000185e+00 1.000000000000126e+00 1.000000000000195e+00 9.999999999927420e-01 9.999999999901339e-01 9.999999999765974e-01 9.999999997374516e-01 9.999999994929484e-01 9.999999999332619e-01 9.999999997376344e-01 9.999999999315398e-01 9.999999994903128e-01 9.999999762595314e-01 9.999999867113036e-01 9.999999616573412e-01 9.999999761810783e-01 9.999999618621100e-01 9.999999867241485e-01 9.999999999396141e-01 9.999999997328799e-01 9.999999998692272e-01 9.999999997327296e-01 9.999999999395828e-01 9.999999998685899e-01 9.999999507604970e-01 9.999999615298980e-01 9.999999785490660e-01 9.999999508657539e-01 9.999999786430712e-01 9.999999612925391e-01 9.999999760108716e-01 9.999999899248263e-01 9.999999842876527e-01 9.999999950665952e-01 9.999999983092257e-01 9.999999967506099e-01 9.999999998090418e-01 9.999999992237933e-01 9.999999994882575e-01 9.999999992240366e-01 9.999999998095109e-01 9.999999994850605e-01 9.999998219757505e-01 9.999998671930431e-01 9.999999112624538e-01 9.999999983047746e-01 9.999999950613272e-01 9.999999967729188e-01 9.999996962346592e-01 9.999994420668693e-01 9.999995700861298e-01 9.999990916187443e-01 9.999987936033757e-01 9.999984484174268e-01 9.999990935762013e-01 9.999984506977486e-01 9.999987904746770e-01 9.999996956758186e-01 9.999995707562798e-01 9.999994413758891e-01 9.999999759560610e-01 9.999999844228210e-01 9.999999898761788e-01 9.999999111768356e-01 9.999998672264153e-01 9.999998218589530e-01 9.999999992345110e-01 9.999999987213433e-01 9.999999995592423e-01 9.999999979879585e-01 9.999999967613850e-01 9.999999989498995e-01 9.999999950869475e-01 9.999999924932882e-01 9.999999971385930e-01 9.999990570667862e-01 9.999992957487231e-01 9.999987918845126e-01 9.999996800970049e-01 9.999997706157892e-01 9.999995705756507e-01 9.999994422614472e-01 9.999995866797904e-01 9.999992679753831e-01 9.999999887726558e-01 9.999999842535126e-01 9.999999932865423e-01 9.999998222915666e-01 9.999998737131965e-01 9.999997581239793e-01 9.999999950947817e-01 9.999999970692375e-01 9.999999924678292e-01 9.999996806159261e-01 9.999995699972432e-01 9.999997707511615e-01 9.999999992343825e-01 9.999999995501727e-01 9.999999987235718e-01 9.999990588681823e-01 9.999987890941243e-01 9.999992943589622e-01 9.999994429246963e-01 9.999992694115327e-01 9.999995839583249e-01 9.999999979905626e-01 9.999999989443040e-01 9.999999967429208e-01 9.999998223820777e-01 9.999997587361796e-01 9.999998732008252e-01 9.999999888120098e-01 9.999999931527607e-01 9.999999841379954e-01 9.999999050776009e-01 9.999998671370425e-01 9.999999358221547e-01 9.999999049951306e-01 9.999999331652479e-01 9.999998671611199e-01 9.999999512721960e-01 9.999999631925462e-01 9.999999289543177e-01 9.999984489749438e-01 9.999981393350399e-01 9.999988172231232e-01 9.999999979653044e-01 9.999999987291724e-01 9.999999993841600e-01 9.999990557756600e-01 9.999994658367060e-01 9.999992685442430e-01 9.999996791772207e-01 9.999998321895821e-01 9.999997583438677e-01 9.999999957074155e-01 9.999999887636856e-01 9.999999925283404e-01 9.999984458670736e-01 9.999988187552077e-01 9.999981694844068e-01 9.999999977713655e-01 9.999999924413713e-01 9.999999922512487e-01 9.999997643365675e-01 9.999997636348410e-01 9.999995766719506e-01 9.999999987074135e-01 9.999999986861435e-01 9.999999996884334e-01 9.999988054816262e-01 9.999992811345692e-01 9.999992774214750e-01 9.999996126593359e-01 9.999992601208236e-01 9.999992634455767e-01 9.999999988475777e-01 9.999999968559145e-01 9.999999988215309e-01 9.999997563290981e-01 9.999998848320721e-01 9.999997557063363e-01 9.999999845861171e-01 9.999999926857930e-01 9.999999929108310e-01 9.999999510248230e-01 9.999999310873725e-01 9.999999630927431e-01 9.999999045638304e-01 9.999999550680708e-01 9.999999288561199e-01 9.999999309417981e-01 9.999999332148186e-01 9.999998695195077e-01 9.999975033430736e-01 9.999982144012934e-01 9.999974813630800e-01 9.999975181233229e-01 9.999984905459374e-01 9.999981817891788e-01 9.999999999152666e-01 9.999999998636694e-01 9.999999999483206e-01 9.999999999151177e-01 9.999999999532208e-01 9.999999998632454e-01 9.999999999773052e-01 9.999999999431906e-01 9.999999999784871e-01 9.999999999898072e-01 9.999999999140990e-01 9.999999999406195e-01 9.999999281515726e-01 9.999999664871539e-01 9.999999301000780e-01 9.999999999779614e-01 9.999999999459660e-01 9.999999999770967e-01 9.999974776143762e-01 9.999981771005547e-01 9.999975053441963e-01 9.999999999891809e-01 9.999999999442164e-01 9.999999999139834e-01 9.999975199026780e-01 9.999981491732681e-01 9.999984950152784e-01 9.999999044309638e-01 9.999999312422330e-01 9.999999546770363e-01 9.999999993822187e-01 9.999999987345694e-01 9.999999979601994e-01 9.999999957182477e-01 9.999999924968773e-01 9.999999887762316e-01 9.999996793603820e-01 9.999997589978378e-01 9.999998322534194e-01 9.999994664697707e-01 9.999990568044895e-01 9.999992700094680e-01 9.999988626031233e-01 9.999981293913717e-01 9.999981628366463e-01 9.999999998671412e-01 9.999999999497865e-01 9.999999999455417e-01 9.999974976603436e-01 9.999981791665545e-01 9.999981432773780e-01 9.999999999841148e-01 9.999999999408139e-01 9.999999999437418e-01 1.000014016414088e+00 1.000065229327199e+00 9.999329219210833e-01 1.000015794039624e+00 9.999252217937946e-01 1.000062673074083e+00 9.029131816898649e-01 8.498554764246107e-01 9.441000965653835e-01 9.441642680647433e-01 8.502488449505903e-01 9.027365442465859e-01 1.000002651828400e+00 1.000010821964644e+00 9.999992886901303e-01 1.000003351995924e+00 9.999988505980262e-01 1.000011143722020e+00 9.067485317633059e-01 8.495343970532294e-01 8.149558985644237e-01 9.069206959275061e-01 8.151211768465318e-01 8.491517927165781e-01 9.618746123855370e-01 9.027664324357441e-01 9.382385036748780e-01 9.990155953845846e-01 9.866175497855766e-01 9.932949959661336e-01 1.000156143467994e+00 9.999321158763628e-01 9.997163193428750e-01 1.000158846835421e+00 9.997162662330471e-01 9.999232121853174e-01 7.024217030995897e-01 6.382437606812962e-01 5.737811964346203e-01 9.865519848301321e-01 9.989622297968130e-01 9.934406895046697e-01 4.430856275717460e-01 3.855308968630832e-01 3.287612606468979e-01 1.558179488356330e-01 1.938771256462935e-01 2.288733984118523e-01 2.287545918559859e-01 1.940291466007663e-01 1.557027717565410e-01 3.288387399115515e-01 3.854466570052614e-01 4.431494484976395e-01 9.025761596550949e-01 9.617007394900124e-01 9.385805226497468e-01 7.024505410821501e-01 5.738191053677433e-01 6.381397685724680e-01 9.997631514841457e-01 1.000149442411981e+00 9.989438186438548e-01 9.972870832316665e-01 1.000110310803315e+00 9.933366019809192e-01 9.866401815208143e-01 9.953732243292063e-01 9.754598480801705e-01 2.314945229404479e-01 1.939721155477567e-01 2.756348788603034e-01 3.833713169232772e-01 3.287837587769255e-01 2.782208490329381e-01 9.381180455181349e-01 9.580661450416682e-01 9.787328829462935e-01 3.854932147705238e-01 5.071989400589770e-01 4.452783751530525e-01 6.381115035192533e-01 5.736460003811876e-01 5.089260580423935e-01 9.867129484558289e-01 9.755039286763746e-01 9.950748594445931e-01 3.855747314880255e-01 4.452173544643778e-01 5.072140226255368e-01 9.997576909988971e-01 9.989626817730559e-01 1.000106714261273e+00 1.941286778951657e-01 2.313743273094241e-01 2.756888692665678e-01 3.835849077709133e-01 2.781497542926305e-01 3.287098210650531e-01 9.973305601939568e-01 9.932124775825089e-01 1.000064837194844e+00 6.382306292920809e-01 5.089244868733768e-01 5.736274338165924e-01 9.582321474927595e-01 9.377887803072714e-01 9.786077968070548e-01 6.383551981371692e-01 7.016688313373272e-01 7.599434922402546e-01 7.017025597998992e-01 6.382408608913278e-01 7.581246620935951e-01 8.153197689096267e-01 7.569415771139273e-01 8.512952468196525e-01 1.922562476338476e-01 1.337071801504553e-01 1.559233777265101e-01 2.315111675295420e-01 2.781843563793136e-01 3.261199063340294e-01 1.000386928982393e+00 9.990027001025193e-01 9.971695759444642e-01 5.727190567037732e-01 4.454314408615386e-01 5.088151799148191e-01 9.581126930110796e-01 9.895914354452133e-01 9.756244606839328e-01 1.560713512889503e-01 1.360837430128388e-01 1.922296960505798e-01 9.750425237208996e-01 9.986088004445646e-01 9.746645714958740e-01 3.847621818405403e-01 5.080300786111972e-01 5.079002731189608e-01 9.989515569936146e-01 1.000604028912514e+00 9.988271464856280e-01 1.926583068875940e-01 2.773605114457890e-01 2.771720753225745e-01 3.801048238106795e-01 2.788872222629124e-01 2.790832572126186e-01 6.375666269036467e-01 5.088841720078169e-01 5.090145558237866e-01 9.996322820091896e-01 9.994757953661880e-01 9.937895064033393e-01 9.395347074133019e-01 9.770045055490555e-01 9.766091576888116e-01 8.515212828151869e-01 7.587321136161974e-01 8.151369414074217e-01 8.178774307972073e-01 7.017998100775769e-01 7.567184085789068e-01 7.570818436460161e-01 6.391205519124873e-01 7.589162497117459e-01 1.010099936824540e-01 1.018780475950473e-01 1.343375972538825e-01 1.539882339984940e-01 1.003841005555822e-01 1.355833475332388e-01 1.000002487679128e+00 9.999987361881695e-01 9.999997502875088e-01 1.000002255861510e+00 9.999999469090242e-01 9.999989617568981e-01 1.000000001884449e+00 1.000000021873972e+00 1.000000001876057e+00 9.999998669940093e-01 1.000002223277720e+00 9.999992471162004e-01 7.559720089247541e-01 7.577646598721535e-01 8.544806025703527e-01 1.000000002009987e+00 1.000000010919475e+00 1.000000002024237e+00 1.019632614129781e-01 1.009643319153272e-01 1.323134144242931e-01 9.999998846534084e-01 9.999993577734475e-01 1.000001939903769e+00 1.537821912814116e-01 1.333307390487094e-01 1.003810464528073e-01 7.016983529547045e-01 8.176935422126927e-01 7.585198487449761e-01 1.000376025027357e+00 9.971624050236128e-01 9.990307437543285e-01 9.896629298326978e-01 9.582333080707394e-01 9.756716145277029e-01 5.727109606294020e-01 5.087896784147576e-01 4.454002841673884e-01 2.314264860731069e-01 3.260468885426406e-01 2.781063442852921e-01 1.896545351926087e-01 1.365300647412970e-01 1.343099228480029e-01 9.999999328674639e-01 1.000000370591408e+00 1.000000376426687e+00 1.358290607079449e-01 1.011661186611318e-01 1.337285391076252e-01 1.000000000167874e+00 1.000000096973504e+00 1.000000071265572e+00 
</DataArray>
</PointData>
</Piece>
</UnstructuredGrid>
</VTKFile>
