<?xml version="1.0"?>
<VTKFile type="UnstructuredGrid" version="0.1" byte_order="LittleEndian">
<UnstructuredGrid>
<Piece NumberOfPoints="192" NumberOfCells="831">
<Points>
<DataArray type="Float64" NumberOfComponents="3" format="ascii">
0 0 0 0 0 0.25 0.1025501277 0.1025501277 0.157525959 0 0.1611771326 0.1775327442 0.1666666667 0.1666666667 0 0.237924566 0.237924566 0.2162358951 0.1716846254 0 0.1661507046 0.25 0 0 0.3499823575 0.148891718 0 0.4999823467 0.2442059449 0 0.3772932587 0 0.1911784501 0.4897713579 0 0.3877059227 0.230085674 0 0.3860627682 0 0 0.5 0.1086599905 0.1086599905 0.3235800389 0 0.1766695653 0.3835805503 0.2033996654 0.2033996654 0.4980176865 0 0.3772016377 0.2542204334 0.3653953988 0.3653953988 0.3749806182 0.3872403567 0.3872403567 0.1680449344 0.3333333333 0.3333333333 0 0.1489715852 0.3499885688 0 0 0.25 0 0 0.5 0 0.1489715852 0.6500114312 0 0.2441950814 0.5 0 0 0.6402329173 0.2167447802 0.2034164719 0.7965835281 0.4984730391 0 0.8084143123 0.3766800342 0 1 0.5 0.2165831228 1 0.3597629831 0.1086345562 0.8913654438 0.3234086554 0 1 0.25 0.1025606945 0.8974393055 0.157633635 0 1 0 0 0.75 0 0 0.8392962971 0.1687256698 0.2379827986 0.7620172014 0.216925896 0.1666666667 0.8333333333 0 0.25 1 0 0.1686653757 1 0.1606394206 0.3500001416 0.8510212931 0 0.5 1 0 0.3765259169 1 0.1913673017 0.3654977261 0.6345022739 0.3756698241 0.3872729078 0.6127270922 0.1683685409 0.3333333333 0.6666666667 0 0.5 0.5 0 0.6666666667 0.6666666667 0 0.6127934359 0.6127934359 0.1680413733 0.5 0.5 0.25 0.6349571452 0.6349571452 0.3748697401 0.5003922321 1 0.4302959154 0.6235434239 1 0.1915173582 0.5000176533 0.7557940551 0 0.6500176425 0.851108282 0 0.75 1 0 0.8313894392 1 0.160658132 0.8333333333 0.8333333333 0 0.7621221405 0.7621221405 0.2164093449 1 0.8311022015 0.1606072367 1 1 0 0.8973898125 0.8973898125 0.157579046 0.8914426559 0.8914426559 0.3236982674 1 1 0.25 0.7838128218 1 0.3598769767 0.7976498842 0.7976498842 0.4983766704 1 0.7831888559 0.3597844877 1 0.6229569839 0.1914905052 0.8510212931 0.6499998584 0 1 0.75 0 1 0.5 0 0.7557940551 0.4999823467 0 1 0.3759198416 0.1919757434 0.851108282 0.3499823575 0 1 0.25 0 1 0.168430022 0.1608591783 0.897468614 0.102531386 0.157765826 1 0 0.25 1 0 0 0.75 0 0 0.8255555499 0 0.1674227116 0.7621188429 0.2378811571 0.2171386251 0.8333333333 0.1666666667 0 0.6499998584 0.1489787069 0 0.5 0 0 0.6178330222 0 0.1922186014 0.6666666667 0.3333333333 0 0.6127541014 0.3872458986 0.168411092 0.6347499997 0.3652500003 0.37565745 0.7976652397 0.2023347603 0.4987244863 0.7591953105 0 0.392757924 1 0 0.5 0.8915286724 0.1084713276 0.3237612063 1 0.2161256581 0.360130018 1 0.4994438679 0.4307578835 1 0.4999287635 0.6640429583 1 0.2533979372 0.6234523419 0.8927202115 0.1072797885 0.674654653 1 0 0.75 0.8022954675 0 0.6481480834 0.5757177809 0 0.5957662775 0.508718729 0.1708187461 0.5033813119 0.6353332215 0.3646667785 0.6224967417 0.6132514557 0.3867485443 0.8307917043 0.6666666667 0.3333333333 1 0.5000176533 0.2442059449 1 0.5 0 1 0.6416017313 0 0.8099071116 0.6500176425 0.148891718 1 0.8333333333 0.1666666667 1 0.7633845793 0.2366154207 0.7814854151 0.838527111 0 0.8413228167 0.75 0 1 1 0 1 0.8984543599 0.1015456401 0.8414876118 1 0.177165615 0.839023275 1 0.25 1 0.8510284148 0.3499885688 1 1 0.3828221048 0.823572292 0.7558049186 0.5 1 1 0.5 1 1 0.75 1 0.8510284148 0.6500114312 1 1 0.6174075571 0.8229853242 1 0.7463495519 0.6231431659 1 1 0.5 0.8928637351 0.8928637351 0.674367115 0.898574184 0.898574184 0.8412797891 1 1 0.75 1 1 1 1 0.8229070851 0.8387449257 0.7637000155 0.7637000155 0.7809050039 0.8333333333 0.8333333333 1 0.8231433296 1 0.8385831341 0.75 1 1 0.6500176425 0.851108282 1 0.5000176533 0.7557940551 1 0.6179247775 1 0.8227036401 0.5006818151 1 0.6635903387 0.7469556759 1 0.6226970404 0.508718729 0.8412812352 0.5033813119 0.6353659201 0.6353659201 0.622028416 0.5 0.5 0.5 0.613363439 0.613363439 0.8305301125 0.5 0.5 0.75 0.6666666667 0.6666666667 1 0.5 0.5 1 0.3333333333 0.6666666667 1 0.3873262423 0.6126737577 0.8305617062 0.3656426418 0.6343573582 0.6224372907 0.2539852582 1 0.6228071698 0.3834419128 1 0.8233663842 0.5 1 1 0.3500001416 0.8510212931 1 0.1774543521 1 0.8388252747 0.25 1 1 0.1666666667 0.8333333333 1 0.2382701894 0.7617298106 0.780929145 0 0.8395324935 0.8314990813 0 1 1 0.1028043779 0.8971956221 0.841095978 0 1 0.75 0.1089613819 0.8910386181 0.6741808914 0 0.8089833308 0.6237810365 0 0.5700208023 0.5007935637 0 0.6404426065 0.7840733683 0.2442059449 0.5000176533 1 0.148891718 0.6500176425 1 0 0.75 1 0 0.5 1 0.1489787069 0.3500001416 1 0.3333333333 0.3333333333 1 0.3872982309 0.3872982309 0.8303182816 0.3654893132 0.3654893132 0.6217831714 0 0.3774551237 0.7471574804 0 0.3365445099 0.5009431866 0 0.1773701474 0.6180654142 0.1928488748 0 0.6344215849 0.1088439618 0.1088439618 0.6737960462 0 0 0.75 0.3750854946 0 0.5571804039 0.3857098743 0 0.7762599346 0.3500001416 0.1489787069 1 0.25 0 1 0.165708228 0 0.8321899283 0.2380991585 0.2380991585 0.7803088544 0.1666666667 0.1666666667 1 0 0.25 1 0 0.1614643944 0.8232157496 0.1027193563 0.1027193563 0.8408489715 0 0 1 
</DataArray>
</Points>
<Cells>
<DataArray type="UInt32" Name="connectivity" format="ascii">
[...]
<CellData Scalars="porosity,A_conc,B_conc," Vectors="" Tensors="">
<DataArray type="Float64" Name="porosity" format="ascii">
0.5875 0.5875 0.5875 0.5875 0.5875 0.5875 0.5875 0.5875 0.5875 0.5875 0.5875 0.5875 0.5875 0.5875 0.5875 0.5875 0.5875 0.5875 0.5875 0.5875 0.5875 0.5875 0.5875 0.5875 0.5875 0.5875 0.5875 0.5875 0.5875 0.5875 0.5875 0.5875 0.5875 0.5875 0.5875 0.5875 0.5875 0.5875 0.5875 0.5875 0.5875 0.5875 0.5875 0.5875 0.5875 0.5875 0.5875 0.5875 0.5875 0.5875 0.5875 0.5875 0.5875 0.5875 0.5875 0.5875 0.5875 0.5875 0.5875 0.5875 0.5875 0.5875 0.5875 0.5875 0.5875 0.5875 0.5875 0.5875 0.5875 0.5875 0.5875 0.5875 0.5875 0.5875 0.5875 0.5875 0.5875 0.5875 0.5875 0.5875 0.5875 0.5875 0.5875 0.5875 0.5875 0.5875 0.5875 0.5875 0.5875 0.5875 0.5875 0.5875 0.5875 0.5875 0.5875 0.5875 0.5875 0.5875 0.5875 0.5875 0.5875 0.5875 0.5875 0.5875 0.5875 0.5875 0.5875 0.5875 0.5875 0.5875 0.5875 0.5875 0.5875 0.5875 0.5875 0.5875 0.5875 0.5875 0.5875 0.5875 0.5875 0.5875 0.5875 0.5875 0.5875 0.5875 0.5875 0.5875 0.5875 0.5875 0.5875 0.5875 0.5875 0.5875 0.5875 0.5875 0.5875 0.5875 0.5875 0.5875 0.5875 0.5875 0.5875 0.5875 0.5875 0.5875 0.5875 0.5875 0.5875 0.5875 0.5875 0.5875 0.5875 0.5875 0.5875 0.5875 0.5875 0.5875 0.5875 0.5875 0.5875 0.5875 0.5875 0.5875 0.5875 0.5875 0.5875 0.5875 0.5875 0.5875 0.5875 0.5875 0.5875 0.5875 0.5875 0.5875 0.5875 0.5875 0.5875 0.5875 0.5875 0.5875 0.5875 0.5875 0.5875 0.5875 0.5875 0.5875 0.5875 0.5875 0.5875 0.5875 0.5875 0.5875 0.5875 0.5875 0.5875 0.5875 0.5875 0.5875 0.5875 0.5875 0.5875 0.5875 0.5875 0.5875 0.5875 0.5875 0.5875 0.5875 0.5875 0.5875 0.5875 0.5875 0.5875 0.5875 0.5875 0.5875 0.5875 0.5875 0.5875 0.5875 0.5875 0.5875 0.5875 0.5875 0.5875 0.5875 0.5875 0.5875 0.5875 0.5875 0.5875 0.5875 0.5875 0.5875 0.5875 0.5875 0.5875 0.5875 0.5875 0.5875 0.5875 0.5875 0.5875 0.5875 0.5875 0.5875 0.5875 0.5875 0.5875 0.5875 0.5875 0.5875 0.5875 0.5875 0.5875 0.5875 0.5875 0.5875 0.5875 0.5875 0.5875 0.5875 0.5875 0.5875 0.5875 0.5875 0.5875 0.5875 0.5875 0.5875 0.5875 0.5875 0.5875 0.5875 0.5875 0.5875 0.5875 0.5875 0.5875 0.5875 0.5875 0.5875 0.5875 0.5875 0.5875 0.5875 0.5875 0.5875 0.5875 0.5875 0.5875 0.5875 0.5875 0.5875 0.5875 0.5875 0.5875 0.5875 0.5875 0.5875 0.5875 0.5875 0.5875 0.5875 0.5875 0.5875 0.5875 0.5875 0.5875 0.5875 0.5875 0.5875 0.5875 0.5875 0.5875 0.5875 0.5875 0.5875 0.5875 0.5875 0.5875 0.5875 0.5875 0.5875 0.5875 0.5875 0.5875 0.5875 0.5875 0.5875 0.5875 0.5875 0.5875 0.5875 0.5875 0.5875 0.5875 0.5875 0.5875 0.5875 0.5875 0.5875 0.5875 0.5875 0.5875 0.5875 0.5875 0.5875 0.5875 0.5875 0.5875 0.5875 0.5875 0.5875 0.5875 0.5875 0.5875 0.5875 0.5875 0.5875 0.5875 0.5875 0.5875 0.5875 0.5875 0.5875 0.5875 0.5875 0.5875 0.5875 0.5875 0.5875 0.5875 0.5875 0.5875 0.5875 0.5875 0.5875 0.5875 0.5875 0.5875 0.5875 0.5875 0.5875 0.5875 0.5875 0.5875 0.5875 0.5875 0.5875 0.5875 0.5875 0.5875 0.5875 0.5875 0.5875 0.5875 0.5875 0.5875 0.5875 0.5875 0.5875 0.5875 0.5875 0.5875 0.5875 0.5875 0.5875 0.5875 0.5875 0.5875 0.5875 0.5875 0.5875 0.5875 0.5875 0.5875 0.5875 0.5875 0.5875 0.5875 0.5875 0.5875 0.5875 0.5875 0.5875 0.5875 0.5875 0.5875 0.5875 0.5875 0.5875 0.5875 0.5875 0.5875 0.5875 0.5875 0.5875 0.5875 0.5875 0.5875 0.5875 0.5875 0.5875 0.5875 0.5875 0.5875 0.5875 0.5875 0.5875 0.5875 0.5875 0.5875 0.5875 0.5875 0.5875 0.5875 0.5875 0.5875 0.5875 0.5875 0.5875 0.5875 0.5875 0.5875 0.5875 0.5875 0.5875 0.5875 0.5875 0.5875 0.5875 0.5875 0.5875 0.5875 0.5875 0.5875 0.5875 0.5875 0.5875 0.5875 0.5875 0.5875 0.5875 0.5875 0.5875 0.5875 0.5875 0.5875 0.5875 0.5875 0.5875 0.5875 0.5875 0.5875 0.5875 0.5875 0.5875 0.5875 0.5875 0.5875 0.5875 0.5875 0.5875 0.5875 0.5875 0.5875 0.5875 0.5875 0.5875 0.5875 0.5875 0.5875 0.5875 0.5875 0.5875 0.5875 0.5875 0.5875 0.5875 0.5875 0.5875 0.5875 0.5875 0.5875 0.5875 0.5875 0.5875 0.5875 0.5875 0.5875 0.5875 0.5875 0.5875 0.5875 0.5875 0.5875 0.5875 0.5875 0.5875 0.5875 0.5875 0.5875 0.5875 0.5875 0.5875 0.5875 0.5875 0.5875 0.5875 0.5875 0.5875 0.5875 0.5875 0.5875 0.5875 0.5875 0.5875 0.5875 0.5875 0.5875 0.5875 0.5875 0.5875 0.5875 0.5875 0.5875 0.5875 0.5875 0.5875 0.5875 0.5875 0.5875 0.5875 0.5875 0.5875 0.5875 0.5875 0.5875 0.5875 0.5875 0.5875 0.5875 0.5875 0.5875 0.5875 0.5875 0.5875 0.5875 0.5875 0.5875 0.5875 0.5875 0.5875 0.5875 0.5875 0.5875 0.5875 0.5875 0.5875 0.5875 0.5875 0.5875 0.5875 0.5875 0.5875 0.5875 0.5875 0.5875 0.5875 0.5875 0.5875 0.5875 0.5875 0.5875 0.5875 0.5875 0.5875 0.5875 0.5875 0.5875 0.5875 0.5875 0.5875 0.5875 0.5875 0.5875 0.5875 0.5875 0.5875 0.5875 0.5875 0.5875 0.5875 0.5875 0.5875 0.5875 0.5875 0.5875 0.5875 0.5875 0.5875 0.5875 0.5875 0.5875 0.5875 0.5875 0.5875 0.5875 0.5875 0.5875 0.5875 0.5875 0.5875 0.5875 0.5875 0.5875 0.5875 0.5875 0.5875 0.5875 0.5875 0.5875 0.5875 0.5875 0.5875 0.5875 0.5875 0.5875 0.5875 0.5875 0.5875 0.5875 0.5875 0.5875 0.5875 0.5875 0.5875 0.5875 0.5875 0.5875 0.5875 0.5875 0.5875 0.5875 0.5875 0.5875 0.5875 0.5875 0.5875 0.5875 0.5875 0.5875 0.5875 0.5875 0.5875 0.5875 0.5875 0.5875 0.5875 0.5875 0.5875 0.5875 0.5875 0.5875 0.5875 0.5875 0.5875 0.5875 0.5875 0.5875 0.5875 0.5875 0.5875 0.5875 0.5875 0.5875 0.5875 0.5875 0.5875 0.5875 0.5875 0.5875 0.5875 0.5875 0.5875 0.5875 0.5875 0.5875 0.5875 0.5875 0.5875 0.5875 0.5875 0.5875 0.5875 0.5875 0.5875 0.5875 0.5875 0.5875 0.5875 0.5875 0.5875 0.5875 0.5875 0.5875 0.5875 0.5875 0.5875 0.5875 0.5875 0.5875 0.5875 0.5875 0.5875 0.5875 0.5875 0.5875 0.5875 0.5875 0.5875 0.5875 0.5875 0.5875 0.5875 0.5875 0.5875 0.5875 0.5875 0.5875 0.5875 0.5875 0.5875 0.5875 0.5875 0.5875 0.5875 0.5875 0.5875 0.5875 0.5875 0.5875 0.5875 0.5875 0.5875 0.5875 0.5875 0.5875 0.5875 0.5875 0.5875 0.5875 0.5875 0.5875 0.5875 0.5875 0.5875 0.5875 0.5875 0.5875 0.5875 0.5875 0.5875 0.5875 0.5875 0.5875 0.5875 0.5875 0.5875 0.5875 0.5875 0.5875 0.5875 0.5875 0.5875 0.5875 0.5875 0.5875 0.5875 0.5875 0.5875 0.5875 0.5875 0.5875 0.5875 0.5875 0.5875 0.5875 
</DataArray>
<DataArray type="Float64" Name="A_conc" format="ascii">
0.0001528415252 0.02883144706 0.4682063882 0.002055401182 0.00496262585 0.003115509644 0.005511088054 0.01157449625 0.2947091449 0.001139803194 0.01843394208 0.3800851661 0.01732611124 0.001757856771 0.002641942006 0.008357402423 0.002191509613 0.03554506854 7.101452945e-05 0.4934437814 0.4920419207 0.3389135882 6.22693449e-06 7.385304357e-05 0.002536104771 0.007281823872 0.01104821514 6.223015719e-05 0.0002725254109 3.777474916e-06 0.006729375094 0.009524941673 3.675169807e-05 0.01152707043 0.007387954151 0.009107465377 0.01101420759 0.0001156398838 7.203856604e-06 0.01887880181 1.695150019e-05 0.0002685451708 6.15008107e-05 1.51672374e-05 7.377123785e-07 0.01302765364 0.0009205910328 0.0006282731072 2.786986659e-06 6.398146645e-05 4.916876119e-05 4.079062188e-06 0.1654787848 3.593948449e-06 0.003930659487 0.0007497322735 0.07678490749 0.001218578928 0.1047228951 0.02457009031 0.0002327092608 0.002222462245 0.001112498119 0.02188975187 1.229356137e-05 1.297535859e-08 0.008899357368 2.227328068e-05 1.967760777e-07 0.0001539250671 0.00341313406 1.407414887e-08 4.872663916e-07 8.285296588e-09 0.2394552662 0.000840485255 3.533836805e-06 0.002196828796 0.1827455021 2.491018722e-06 2.955451069e-08 0.02275310541 0.07909723912 0.4539975678 0.4190383681 0.003014400958 8.721220283e-05 0.02246372992 1.402355151e-05 0.003863415577 6.711384763e-05 0.03727080458 0.0001786645552 0.08951983375 0.4856422993 0.007066730535 0.4955156313 0.01744604904 1.063900066e-10 0.4739593326 0.01789305183 0.04039293219 0.00133642294 0.02946012332 0.009261835451 0.004230220378 0.0001508588151 0.000263733231 0.0001289979076 1.744476203e-05 0.05593166313 7.718011932e-05 3.339452561e-06 7.625911892e-07 7.989075658e-05 9.587291342e-05 0.01381962821 0.007496339183 0.0007607325625 0.03686402325 2.144387676e-05 5.238604793e-08 2.499630068e-08 1.200231843e-10 5.907751608e-11 1.23112798e-08 9.63305493e-10 7.312529225e-12 3.441534836e-14 3.41642676e-18 1.565319974e-11 8.666277344e-19 3.07970973e-09 2.396665488e-09 5.605611496e-12 5.22683162e-07 1.146958868e-13 3.780861365e-11 9.488816638e-09 2.256394259e-21 5.15216765e-19 1.141483394e-09 9.540308335e-25 6.251319064e-22 1.550567392e-09 4.558524574e-07 2.464435076e-07 1.40671137e-07 0 0 4.725525479e-05 2.96647967e-05 0.002195941668 0.01803271153 0.005758324563 0.002224959873 0.02594105077 0.02256626757 6.497296997e-06 0.00016771467 0 0.0004203213622 0.008517288522 0.001771205052 0.04917530193 6.2521287e-18 0 0 1.126058012e-21 0 1.819747792e-16 6.377775081e-22 2.430568555e-10 5.346518531e-18 1.687687028e-12 5.103329978e-15 3.913077007e-12 2.377880373e-18 1.799185908e-15 2.822592993e-14 7.509154329e-13 4.46412271e-16 6.193710118e-14 1.010566134e-08 1.638795992e-15 6.936440717e-10 2.715061483e-16 5.940870855e-14 1.320369561e-11 5.920045887e-13 7.327264125e-12 1.050117113e-09 2.700712991e-05 0.0002133688194 1.319131882e-07 4.750332525e-06 1.413610169e-05 0.0004953352659 1.080746141e-09 8.712487136e-08 0.0006935396131 7.238628762e-07 0.004034908507 0.0125408792 8.648037441e-15 0.06809015707 0.02412197728 0.03621203247 0.001547661498 1.038036273e-11 2.751408212e-09 0.1783939157 7.318724666e-09 4.747740717e-05 0.0007268434433 1.880607312e-05 4.42227455e-08 0.1668333185 2.058043501e-07 8.814977751e-10 4.108510322e-07 7.336169703e-06 4.061669089e-06 0.0006658617572 0.02710964843 0.004421954629 0.0004043101041 0.01405892242 1.6468867e-07 1.870042419e-07 0.315288348 0.002301014025 5.762628425e-09 0.003487692545 0.006530872741 0.3439389318 1.301910574e-05 1.327837117e-06 0.0001601567079 1.281166424e-05 1.37715216e-07 8.777300459e-10 1.370030017e-05 0.0716480434 2.250264062e-09 0.04810459458 0.1433405954 0.2176385676 6.073656109e-07 3.234898259e-05 1.004393135e-09 0.0001171387489 1.050696767e-05 1.318941633e-06 0.0006925330942 1.315656983e-07 0.01134459107 0.000390370333 1.113334237e-07 0.004504684682 6.001241257e-06 3.904607676e-06 1.260105136e-10 2.557027498e-08 0.02596586269 8.814941061e-06 3.446259134e-05 5.557177487e-05 0.003175967519 0.03852111783 0.008478099885 0.1129156185 0.06981439735 0.4766997886 0.05252612322 0.1023558264 0.0004550755847 0.01316134946 0.0001489571571 0.001807936103 0.4665174534 0.4978618456 0.5002409476 0.0004415627526 0.04498615976 0.000276732852 0.003793221147 0.02439200204 0.4970541805 0.0664356422 0.008827930253 0.4967954768 0.003781888813 0.4812010929 0.001761718539 0.03041903227 9.187289745e-05 0.06019086771 0.08363938693 0.04629396011 0.4495833367 0.08995615867 0.002266761063 0.04388025674 0.4793485457 0.003779316993 0.003806112362 2.76405299e-05 0.04554017976 0.0009794322693 0.001070259431 0.03971671729 0.001856547818 1.823952669e-05 0.0003591429781 0.07854589706 2.857711145e-05 0.0001184559475 7.27112899e-07 0.003489724488 0.04377101212 4.281561144e-06 0.07598815191 0.003848659537 0.0006543870308 9.608435236e-05 4.444412996e-06 0.04481837681 0.003510084544 0.001055480486 2.827405613e-05 0.002656971162 1.934287993e-06 0.0751647846 0.06813185999 0.01583486342 0.002994819569 0.004954301623 0.08668203558 0.0348753121 6.352137296e-05 0.04714533186 0.002775848003 0.0044038574 0.02653656983 0.07678233507 0.1743236433 0.02247831233 0.01595699214 0.03749885961 0.02257926179 0.01662636092 0.0002038234233 0.002203553092 0.0006172015447 0.0002211689878 8.846373564e-05 0.0003223893902 7.70564692e-05 0.001623668053 0.0005519389353 5.416586129e-05 9.239042086e-06 0.0239062576 5.557713052e-07 0.01320563605 0.0001796786479 0.01449547106 0.01455961157 0.01072726538 2.163503662e-05 4.508212207e-09 0.02238552821 1.739272646e-10 0.04205154512 5.273934614e-06 8.353245994e-08 1.205924008e-07 0.002037469916 8.927243576e-08 2.769639628e-06 3.80068757e-11 7.766088219e-08 2.665947155e-05 2.900190891e-07 4.528413479e-07 3.088961808e-09 3.913542052e-10 1.265069826e-08 7.704726609e-07 4.714626308e-07 7.083364652e-09 0.01678887283 3.331568027e-07 0.0001887968275 0.000577740222 0.00407252447 0.01232274806 5.751134681e-06 0.0008737496784 0.0004128214175 2.351185752e-05 0.0001036786004 0.03008970763 2.517000394e-05 0.0006656997634 0.04845813896 0.00264499623 0.002642842643 0.01197875004 0.0667944586 0.1454971321 0.03782968615 0.05558601568 0.001530915502 0.001120794482 0.000658105268 0.03860954046 0.03520296279 7.450696749e-06 0.0007744603871 1.572600734e-05 0.02515885752 0.001742930825 1.57549843e-05 0.001122889948 0.0009251532494 0.03938481737 0.0006649073951 1.28689126e-05 0.03690583535 4.104449993e-06 0.001148893479 0.0001404105499 0.1468179376 0.02347252319 2.904230198e-05 0.07154045785 0.0006664146499 0.0403720844 0.058489875 0.001591492937 0.05299863818 0.01201463295 0.003222093718 0.003162534298 0.01635395499 0.0002518467965 0.01481637826 0.0001264059429 6.519669745e-06 0.0001374502234 0.001137494249 7.769847553e-06 4.997525378e-06 0.01317682015 2.141524815e-11 1.637769261e-07 9.976355259e-08 2.30131845e-07 6.097093282e-10 2.674039212e-05 7.637971586e-13 2.641040729e-08 2.095175777e-09 3.727610366e-11 7.581204715e-07 1.231014113e-08 0.002940361781 3.234156286e-08 0.001458689701 0.04098234711 1.558012039e-09 1.52154801e-09 8.528832988e-05 1.67450046e-10 2.762033812e-06 0.002102944032 1.012856057e-06 1.737090163e-06 8.283911773e-08 0.01841731209 0.00693136504 4.920475507e-05 3.123332038e-05 1.256465625e-05 3.113720086e-05 0.009814653052 0.01411987493 0.01476334285 0.0002105480397 0.02431388653 0.04863882897 8.86529921e-05 0.0003822561334 7.483681888e-05 0.07818068634 0.1756805591 0.0001754081603 0.0001825642371 0.00163301429 0.00224515741 0.01429525153 0.0002253244297 0.04398103361 0.02053813622 0.004512365067 0.02264396346 0.00468825949 0.02698839965 0.003002767777 6.837811365e-05 0.002961542049 0.00496828145 0.01248970762 0.08751329483 0.0757554337 5.038241173e-05 0.06891711812 0.0009174616252 4.941449919e-05 0.0009582541164 1.880718655e-06 0.002698952418 0.03597094282 0.003547663766 0.04565420757 0.001059784756 0.003885401808 0.001033587727 7.112387545e-05 5.98300721e-05 0.07899105926 0.04097639283 0.07651487708 4.110079815e-06 0.04411596098 0.003536292656 0.000864367765 0.001228216688 0.001261341945 1.51727505e-05 0.04294054783 0.04128389368 1.882670855e-05 0.09088753621 0.0001066614005 0.003822782438 0.08467806769 0.44932295 0.03748140191 0.02619575535 0.003169949668 0.003829932625 0.05267623468 0.4789051398 0.001774617951 0.4809754325 0.06401958423 0.1139493098 0.4966442742 0.009035729892 0.06703760394 0.03863357395 0.003050256368 0.008530265712 0.4764918107 0.1037717659 0.4969896475 0.01972462616 0.003703776826 0.0002866359252 0.0003775441127 0.5005784948 0.04323820559 0.4981331797 0.4666208665 0.0001433350074 0.001743849269 0.009755998384 0.0003243311547 0.05042813701 2.814844736e-07 7.979419719e-08 0.0002021895021 5.057938482e-06 2.410269793e-05 3.539300866e-05 2.248177096e-09 4.316472779e-05 6.444511302e-06 0.02622808471 1.608101523e-10 3.196098577e-08 1.334680311e-07 0.01508883407 0.003333945186 1.527706553e-05 8.564519507e-06 0.0006344749578 5.386674007e-07 0.0002589409299 3.692199261e-08 0.3439434073 0.0001601110865 4.446897253e-05 1.281312859e-05 0.001934654997 1.400838101e-11 0.001080246348 1.610004544e-09 1.049214148e-07 0.215942646 0.006383055679 1.297091884e-06 0.07141852751 1.569435171e-05 7.031049932e-10 3.354497551e-07 4.567804538e-08 7.560331477e-09 0.0007064020523 0.004419072052 4.787625025e-05 0.02685319164 0.3153164672 2.543656973e-06 0.01436386637 1.707483994e-06 0.0004122417506 0.1664417791 4.01772485e-06 0.1774217235 4.924955058e-06 0.003973719408 0.06770346344 7.220186646e-07 2.607518895e-09 0.001527149096 1.00568831e-11 0.03596368187 0.02390329395 0.01238876048 3.739961768e-05 0.0006372702212 6.067574342e-08 1.692343452e-05 0.000679940595 5.972150964e-07 1.350461679e-05 2.0360165e-07 4.527814123e-06 0.0004778715091 1.276773925e-11 2.347203388e-10 6.878399556e-13 4.581103969e-14 8.697957201e-12 5.389247793e-09 1.388866805e-14 6.666175017e-13 2.049930949e-09 1.507732513e-12 6.840093497e-11 4.003830298e-13 3.032803212e-15 9.044010859e-13 2.676838628e-14 1.929071265e-18 1.950780092e-15 4.868787468e-18 2.770582965e-17 2.798997566e-08 0.00221101122 0 0.02554261152 1.477793282e-30 0.002199565744 4.746711077e-05 0 0 1.406907963e-22 0 0.04873959842 0.003038744929 5.902534921e-18 0.0004159578312 6.81611873e-31 0.008432155432 6.083702141e-06 0.000113222385 0.02310426145 0.00640032618 0.0001544654569 0.01796828549 2.403178038e-07 0 2.925395426e-05 6.738955166e-25 2.943904793e-09 3.810654372e-10 5.276656991e-12 1.454624994e-30 4.618106608e-07 1.33387497e-16 1.158058295e-09 1.541710278e-09 1.490621579e-11 7.696605688e-20 4.989488333e-07 6.564849678e-20 9.103539181e-09 3.646524476e-11 6.95928824e-12 1.951970307e-09 4.991691426e-08 2.427252045e-08 9.158733794e-10 3.085422782e-08 0.007614658051 7.574962869e-07 7.912574749e-05 3.207835598e-06 9.481015e-05 7.836036612e-05 1.842768917e-06 0.03579299119 0.0007744420201 0.01391478183 0.00014902768 0.0002669733582 0.004275302458 0.0001279328296 0.009355934992 1.768358973e-05 0.0555175563 0.08910233691 0.003822688422 0.006937022141 1.226644841e-05 6.67356389e-05 0.02931201372 4.536405085e-07 0.03718818535 0.00138000291 0.04028398188 0.01854610271 0.4741348108 0.48533558 0.02232679545 0.4956376854 0.0001273528653 0.002078190042 6.480218681e-11 0.2329520873 1.233454649e-09 0.01333196438 4.732589131e-09 0.4145776433 0.4520054762 0.1772506107 0.003285550378 6.82102818e-07 2.195791758e-05 0.008731470207 1.590415975e-08 4.768692135e-07 4.166062334e-06 0.1053651286 0.002241049688 6.040804623e-05 0.1598471273 4.663143776e-05 0.022498258 2.968755585e-05 0.003742931489 1.570048107e-08 0.001283142733 0.02080165935 0.0002358050877 0.0739793335 0.001161481096 0.01696461692 0.001052416269 2.046282731e-06 7.585563678e-05 0.0008560529267 2.865654307e-07 0.01891700021 3.814322264e-06 1.668264795e-08 5.223687335e-06 0.01649820058 0.0003811686492 0.01816429701 0.01277254975 1.607706795e-08 7.989800935e-09 0.01082932532 0.0001717866114 0.0002473061337 0.007777899802 0.01163197448 0.01045102298 0.004916671014 0.3798740891 0.0001550886562 0.003150891229 0.007215534286 0.002948781865 0.005414501788 0.01835266967 0.01074369581 8.891158996e-05 0.4929575777 0.3386464785 6.613493812e-06 0.4919661291 0.03527759478 7.356804993e-05 0.008442236869 0.002578173853 0.02863084946 0.00206430361 0.002314009624 0.001755744744 0.0172236736 0.2942949769 0.01150028305 0.001086903478 0.4670496296 
</DataArray>
<DataArray type="Float64" Name="B_conc" format="ascii">