<?xml version="1.0"?>
<VTKFile type="UnstructuredGrid" version="0.1" byte_order="LittleEndian">
<UnstructuredGrid>
<Piece NumberOfPoints="3240" NumberOfCells="1080">
<Points>
<DataArray type="Float64" NumberOfComponents="3" format="ascii">
2.179690854119185e-02 1.185794897852074e-01 0.000000000000000e+00 0.000000000000000e+00 1.111111111109777e-01 0.000000000000000e+00 0.000000000000000e+00 1.333333333332549e-01 0.000000000000000e+00 9.788431651098607e-01 8.049154383573708e-02 0.000000000000000e+00 1.000000000000000e+00 8.888888888903346e-02 0.000000000000000e+00 1.000000000000000e+00 6.666666666675342e-02 0.000000000000000e+00 9.619095609780270e-01 1.469647442901770e-01 0.000000000000000e+00 9.561458207326632e-01 1.229301525610412e-01 0.000000000000000e+00 9.446844990568195e-01 1.365972544162028e-01 0.000000000000000e+00 9.561458207326632e-01 1.229301525610412e-01 0.000000000000000e+00 9.619095609780270e-01 1.469647442901770e-01 0.000000000000000e+00 9.753425766502124e-01 1.329145145357886e-01 0.000000000000000e+00 3.828765699483880e-02 5.304505000823728e-02 0.000000000000000e+00 4.409363782274157e-02 7.706114571179593e-02 0.000000000000000e+00 5.559994773146819e-02 6.339045909604388e-02 0.000000000000000e+00 4.409363782274157e-02 7.706114571179593e-02 0.000000000000000e+00 3.828765699483880e-02 5.304505000823728e-02 0.000000000000000e+00 2.477335597731323e-02 6.708142153103731e-02 0.000000000000000e+00 9.550725189111069e-01 4.829411318820009e-02 0.000000000000000e+00 9.789099483921270e-01 5.208622344314002e-02 0.000000000000000e+00 9.679759360039387e-01 3.254350244928760e-02 0.000000000000000e+00 9.852025569480262e-01 3.297143324608116e-02 0.000000000000000e+00 9.679759360039387e-01 3.254350244928760e-02 0.000000000000000e+00 9.789099483921270e-01 5.208622344314002e-02 0.000000000000000e+00 1.000000000000000e+00 4.444444444448301e-02 0.000000000000000e+00 9.852025569480262e-01 3.297143324608116e-02 0.000000000000000e+00 9.789099483921270e-01 5.208622344314002e-02 0.000000000000000e+00 2.085901357486063e-02 3.347530932066585e-02 0.000000000000000e+00 0.000000000000000e+00 2.222222222217273e-02 0.000000000000000e+00 0.000000000000000e+00 4.444444444434547e-02 0.000000000000000e+00 1.000000000000000e+00 2.222222222224152e-02 0.000000000000000e+00 9.852025569480262e-01 3.297143324608116e-02 0.000000000000000e+00 1.000000000000000e+00 4.444444444448301e-02 0.000000000000000e+00 9.792123917142351e-01 1.665277592732634e-01 0.000000000000000e+00 1.000000000000000e+00 1.777777777778356e-01 0.000000000000000e+00 1.000000000000000e+00 1.555555555556712e-01 0.000000000000000e+00 2.085901357486063e-02 3.347530932066585e-02 0.000000000000000e+00 3.828765699483880e-02 5.304505000823728e-02 0.000000000000000e+00 4.395097424174637e-02 3.288070253644709e-02 0.000000000000000e+00 9.792123917142351e-01 1.665277592732634e-01 0.000000000000000e+00 9.619095609780270e-01 1.469647442901770e-01 0.000000000000000e+00 9.562058539142814e-01 1.671301644007421e-01 0.000000000000000e+00 2.073418664683830e-02 8.645182449452284e-02 0.000000000000000e+00 4.409363782274157e-02 7.706114571179593e-02 0.000000000000000e+00 2.477335597731323e-02 6.708142153103731e-02 0.000000000000000e+00 9.793636967455461e-01 1.135425195315997e-01 0.000000000000000e+00 9.561458207326632e-01 1.229301525610412e-01 0.000000000000000e+00 9.753425766502124e-01 1.329145145357886e-01 0.000000000000000e+00 9.789099483921270e-01 5.208622344314002e-02 0.000000000000000e+00 1.000000000000000e+00 6.666666666675342e-02 0.000000000000000e+00 1.000000000000000e+00 4.444444444448301e-02 0.000000000000000e+00 1.000000000000000e+00 6.666666666675342e-02 0.000000000000000e+00 9.789099483921270e-01 5.208622344314002e-02 0.000000000000000e+00 9.788431651098607e-01 8.049154383573708e-02 0.000000000000000e+00 1.035551545049920e-01 3.618647793308308e-02 0.000000000000000e+00 9.618914270776220e-02 5.697243691702588e-02 0.000000000000000e+00 1.211119433954548e-01 4.844499445275665e-02 0.000000000000000e+00 2.070317797483978e-01 1.178091145093580e-01 0.000000000000000e+00 2.168388896782212e-01 1.000000000000000e-01 0.000000000000000e+00 1.972011010366781e-01 1.002115461984506e-01 0.000000000000000e+00 2.168388896782212e-01 1.000000000000000e-01 0.000000000000000e+00 2.021483297087887e-01 7.699474322060029e-02 0.000000000000000e+00 1.972011010366781e-01 1.002115461984506e-01 0.000000000000000e+00 6.325759310354312e-01 7.026396842973263e-02 0.000000000000000e+00 6.356681316088502e-01 4.619464755185967e-02 0.000000000000000e+00 6.137135296600879e-01 5.923923478665676e-02 0.000000000000000e+00 6.356697321454025e-01 1.538055969815540e-01 0.000000000000000e+00 6.328111874952534e-01 1.256166141791064e-01 0.000000000000000e+00 6.133213345751599e-01 1.416284482082639e-01 0.000000000000000e+00 3.676342218244493e-01 1.360641150748462e-01 0.000000000000000e+00 3.674443000888042e-01 1.527014440714697e-01 0.000000000000000e+00 3.893259863673771e-01 1.421635684244698e-01 0.000000000000000e+00 3.674465843820001e-01 4.713905381424529e-02 0.000000000000000e+00 3.676342217843908e-01 6.393588484626157e-02 0.000000000000000e+00 3.894837065875830e-01 5.924533576931833e-02 0.000000000000000e+00 5.102457943773800e-01 5.260948399200950e-02 0.000000000000000e+00 5.085295751046749e-01 2.540532046752223e-02 0.000000000000000e+00 4.894597309299598e-01 3.655092592592592e-02 0.000000000000000e+00 5.085295751029876e-01 1.745946795324778e-01 0.000000000000000e+00 5.102457943763188e-01 1.473905160079905e-01 0.000000000000000e+00 4.894597309285084e-01 1.634490740740741e-01 0.000000000000000e+00 4.741267444728235e-01 1.543553225584215e-01 0.000000000000000e+00 4.684063266565393e-01 1.750187005880394e-01 0.000000000000000e+00 4.894597309285084e-01 1.634490740740741e-01 0.000000000000000e+00 4.684063266582298e-01 2.498129941196055e-02 0.000000000000000e+00 4.741267444740512e-01 4.564467744157848e-02 0.000000000000000e+00 4.894597309299598e-01 3.655092592592592e-02 0.000000000000000e+00 1.183733259857045e-01 7.116885251089573e-02 0.000000000000000e+00 1.211119433954548e-01 4.844499445275665e-02 0.000000000000000e+00 9.618914270776220e-02 5.697243691702588e-02 0.000000000000000e+00 9.352850814676027e-01 4.287915471819994e-02 0.000000000000000e+00 9.435310768418372e-01 6.246374006343971e-02 0.000000000000000e+00 9.550725189111069e-01 4.829411318820009e-02 0.000000000000000e+00 7.942139693228059e-02 3.754246087862223e-02 0.000000000000000e+00 9.618914270776220e-02 5.697243691702588e-02 0.000000000000000e+00 1.035551545049920e-01 3.618647793308308e-02 0.000000000000000e+00 1.020569493188440e-01 1.521532026904773e-01 0.000000000000000e+00 8.277531846929394e-02 1.659099040050232e-01 0.000000000000000e+00 1.059561196782290e-01 1.726640099290462e-01 0.000000000000000e+00 4.881435964943197e-01 5.744412919386780e-02 0.000000000000000e+00 5.102457943773800e-01 5.260948399200950e-02 0.000000000000000e+00 4.894597309299598e-01 3.655092592592592e-02 0.000000000000000e+00 4.741267444740512e-01 4.564467744157848e-02 0.000000000000000e+00 4.881435964943197e-01 5.744412919386780e-02 0.000000000000000e+00 4.894597309299598e-01 3.655092592592592e-02 0.000000000000000e+00 5.102457943763188e-01 1.473905160079905e-01 0.000000000000000e+00 4.881435964933576e-01 1.425558708061322e-01 0.000000000000000e+00 4.894597309285084e-01 1.634490740740741e-01 0.000000000000000e+00 4.881435964933576e-01 1.425558708061322e-01 0.000000000000000e+00 4.741267444728235e-01 1.543553225584215e-01 0.000000000000000e+00 4.894597309285084e-01 1.634490740740741e-01 0.000000000000000e+00 9.202742311744310e-01 6.304724904173428e-02 0.000000000000000e+00 9.435310768418372e-01 6.246374006343971e-02 0.000000000000000e+00 9.352850814676027e-01 4.287915471819994e-02 0.000000000000000e+00 9.311369351563222e-01 1.216872542520513e-01 0.000000000000000e+00 9.446844990568195e-01 1.365972544162028e-01 0.000000000000000e+00 9.561458207326632e-01 1.229301525610412e-01 0.000000000000000e+00 9.440822297766122e-01 1.044866432311947e-01 0.000000000000000e+00 9.311369351563222e-01 1.216872542520513e-01 0.000000000000000e+00 9.561458207326632e-01 1.229301525610412e-01 0.000000000000000e+00 6.942865083870305e-02 7.810901213359711e-02 0.000000000000000e+00 5.559994773146819e-02 6.339045909604388e-02 0.000000000000000e+00 4.409363782274157e-02 7.706114571179593e-02 0.000000000000000e+00 5.587596540385175e-02 9.544964978545428e-02 0.000000000000000e+00 6.942865083870305e-02 7.810901213359711e-02 0.000000000000000e+00 4.409363782274157e-02 7.706114571179593e-02 0.000000000000000e+00 9.383149197178707e-01 8.083033390936589e-02 0.000000000000000e+00 9.440822297766122e-01 1.044866432311947e-01 0.000000000000000e+00 9.564339645724994e-01 8.784519757399348e-02 0.000000000000000e+00 6.437537668157559e-02 1.198167832100239e-01 0.000000000000000e+00 5.587596540385175e-02 9.544964978545428e-02 0.000000000000000e+00 4.380144473816400e-02 1.121383540808015e-01 0.000000000000000e+00 5.997194079032258e-02 4.512095697672458e-02 0.000000000000000e+00 4.395097424174637e-02 3.288070253644709e-02 0.000000000000000e+00 3.828765699483880e-02 5.304505000823728e-02 0.000000000000000e+00 5.559994773146819e-02 6.339045909604388e-02 0.000000000000000e+00 5.997194079032258e-02 4.512095697672458e-02 0.000000000000000e+00 3.828765699483880e-02 5.304505000823728e-02 0.000000000000000e+00 9.404756991568505e-01 1.549621963185481e-01 0.000000000000000e+00 9.562058539142814e-01 1.671301644007421e-01 0.000000000000000e+00 9.619095609780270e-01 1.469647442901770e-01 0.000000000000000e+00 9.446844990568195e-01 1.365972544162028e-01 0.000000000000000e+00 9.404756991568505e-01 1.549621963185481e-01 0.000000000000000e+00 9.619095609780270e-01 1.469647442901770e-01 0.000000000000000e+00 9.105972683830624e-01 1.544218397638132e-01 0.000000000000000e+00 8.927034528382922e-01 1.455120327258070e-01 0.000000000000000e+00 8.960075181349753e-01 1.728216891542547e-01 0.000000000000000e+00 7.412240007220265e-02 5.848278876839397e-02 0.000000000000
[...]
<PointData Scalars="A_conc," Vectors="" Tensors="">
<DataArray type="Float64" Name="A_conc" format="ascii">
1.272385916664551e+00 1.136915165865069e+00 1.136849999704356e+00 3.223908969107413e+01 3.986507515083876e+01 3.986507515083875e+01 2.726331313168940e+01 2.578996707550814e+01 2.301545275386204e+01 2.580711969818807e+01 2.733737732100739e+01 3.107255388300773e+01 1.390028909536406e+00 1.432283371606226e+00 1.517539425602447e+00 1.431213871268484e+00 1.389706412614908e+00 1.295244053202573e+00 2.550065414450469e+01 3.217966139515407e+01 2.900866490233279e+01 3.437997325251035e+01 2.901561620971814e+01 3.236317239450347e+01 3.971031593792061e+01 3.448831661697566e+01 3.238292240402583e+01 1.266471640939984e+00 1.137035306966203e+00 1.136841879837598e+00 3.993204076313830e+01 3.443053121553364e+01 3.993204076314035e+01 3.236319328426520e+01 3.986952526328928e+01 3.986952526328929e+01 1.268882483592117e+00 1.389338937601017e+00 1.429691834940086e+00 3.219193278732968e+01 2.733331561663504e+01 2.582979545444730e+01 1.268999939600891e+00 1.428646716877303e+00 1.295762108760871e+00 3.238802811980663e+01 2.571270778656620e+01 3.118611477979804e+01 3.226150862692544e+01 3.986588504392900e+01 3.986588504393160e+01 3.960931223336621e+01 3.239495558422158e+01 3.237358296483850e+01 1.926970392216017e+00 1.859267754953218e+00 2.092004674161417e+00 3.080769346841932e+00 3.207806271216701e+00 2.954764363065701e+00 3.207174652021906e+00 3.018096419094172e+00 2.954962274189907e+00 7.701192999726176e+00 7.690787337374951e+00 7.752374343245040e+00 7.691131489890307e+00 7.700428897914445e+00 7.753144286097857e+00 5.484054373287899e+00 5.480994397934372e+00 5.826095073769844e+00 5.481128509717229e+00 5.484002668338303e+00 5.828528597549488e+00 7.385968913126391e+00 7.370115806781970e+00 7.183819852747502e+00 7.370037766209516e+00 7.386041226681290e+00 7.183798305192779e+00 7.009730334270388e+00 6.941980810564266e+00 7.186963984536701e+00 6.942059201107207e+00 7.009710453262223e+00 7.186991724408999e+00 2.067888003605313e+00 2.094048635987632e+00 1.857865586684593e+00 2.102127568375446e+01 2.277894482184620e+01 2.539451374626665e+01 1.711373828160798e+00 1.858645191012622e+00 1.924859489315982e+00 1.912540681169075e+00 1.739747817121278e+00 1.947779132399073e+00 7.167071195742461e+00 7.392933237148817e+00 7.180852872793650e+00 7.011055628780352e+00 7.168227748615303e+00 7.182393845334839e+00 7.392979860522985e+00 7.167082850510657e+00 7.180864616152953e+00 7.168240606231717e+00 7.011065657686449e+00 7.182404484625841e+00 1.815558388017381e+01 2.264507968061768e+01 2.099452249802461e+01 2.016497177228468e+01 2.300675662554988e+01 2.560237311882162e+01 2.288045946398544e+01 2.016875469286584e+01 2.561716054645349e+01 1.625924238850563e+00 1.518713956988502e+00 1.432014342281517e+00 1.520719848948145e+00 1.626020382074018e+00 1.432217675102681e+00 2.165613539199056e+01 2.291004410696920e+01 2.574756878777317e+01 1.586469798217556e+00 1.520930435106113e+00 1.429686388515437e+00 1.550202427103933e+00 1.431341313396933e+00 1.390002932823476e+00 1.518547111189898e+00 1.551607353209379e+00 1.389177916654510e+00 2.205555511942543e+01 2.579032693333461e+01 2.722167129093404e+01 2.305865887013854e+01 2.212174314034633e+01 2.708802445722334e+01 1.650270882500396e+01 1.413986949764014e+01 1.455118460785339e+01 1.667583276882540e+00 1.856171877647240e+00 1.712083251904764e+00 1.661969215586701e+01 1.910250523413078e+01 1.632437912570652e+01 1.918873854285107e+01 1.657598893020975e+01 1.918492336466441e+01 1.729077775213639e+00 1.656825741973609e+00 1.562515793769134e+00 2.579584203931224e+01 2.867667039752434e+01 2.288109020285933e+01 2.866276688324574e+01 2.584903602387164e+01 2.289235265658230e+01 1.432166892559475e+00 1.350233627852949e+00 1.518552852428968e+00 1.350305244512576e+00 1.429750930181122e+00 1.519021328054335e+00 2.555520679628552e+01 2.635071354554562e+01 3.202401414334810e+01 2.625396569043214e+01 3.226791747212659e+01 3.228822604563390e+01 6.887860494054698e+00 7.099650800858011e+00 7.066506273287350e+00 7.298726565115092e+00 7.168816292091870e+00 7.388460477136785e+00 7.302867142024454e+00 7.097255088157092e+00 7.168059199180054e+00 7.099442722421673e+00 6.887737612782394e+00 7.066488946894548e+00 7.168837343538362e+00 7.298716154405285e+00 7.388499541366585e+00 7.097370721139905e+00 7.302930160274361e+00 7.168031730008289e+00 1.722348329372070e+00 1.741036391637971e+00 1.909907896449832e+00 1.587319841439014e+00 1.740044492849742e+00 1.721671994921614e+00 1.810856922561429e+01 1.715128485139532e+01 1.488451008679289e+01 2.085891839383030e+01 1.717744012779080e+01 1.819033127018271e+01 3.247631915039385e+01 2.901235800597341e+01 3.438414587714124e+01 6.137788254054191e+00 6.246323281950612e+00 5.990416134692251e+00 5.417733825087442e+00 5.479664824368803e+00 5.155344770336598e+00 5.479634664601043e+00 5.386965713986151e+00 5.155284304488254e+00 7.671408993995411e+00 7.698922173285081e+00 7.617665029284233e+00 7.699356380075118e+00 7.670971868304963e+00 7.618171566519625e+00 7.756814240763577e+00 7.750756472943840e+00 7.708886822665146e+00 7.749925433686386e+00 7.753354055964850e+00 7.707916215359583e+00 3.364255975609185e+00 3.209314922132099e+00 3.477468945176041e+00 3.209090277350511e+00 3.361415958151443e+00 3.017558261567713e+00 3.361791221109952e+00 3.260173398149130e+00 3.016882153371417e+00 3.209354260589384e+00 3.362588368213705e+00 3.477489095648123e+00 3.360790492466954e+00 3.209428161587603e+00 3.080775280704354e+00 3.234039031167981e+00 3.360634428398169e+00 3.080521551181564e+00 6.637422101489244e+00 6.696220980854103e+00 6.413026210794368e+00 6.636836150591925e+00 6.456983061453818e+00 6.782107619954163e+00 6.337999518585955e+00 6.456590728036302e+00 6.639322966241418e+00 6.412210504919322e+00 6.337962212855696e+00 6.640437812501636e+00 6.696351504066553e+00 6.637360886471333e+00 6.413153808449519e+00 6.507243262757718e+00 6.636432166075497e+00 6.781242538687829e+00 6.507370173508498e+00 6.338266260898355e+00 6.638728188897549e+00 6.337853641634614e+00 6.412346092147742e+00 6.640314674112599e+00 3.768743651871387e+00 3.888724471488312e+00 3.594807080230617e+00 3.888951317310237e+00 3.803176438847653e+00 3.594702835131916e+00 3.607496807771231e+00 3.803255640454871e+00 3.931257135938075e+00 8.068737853305857e+00 7.837258792907003e+00 8.397130401588548e+00 8.064744110038921e+00 8.432339777994137e+00 7.796729203865146e+00 7.839313705171508e+00 8.029191349729610e+00 8.394494019383208e+00 8.323598210543805e+00 8.025046744621825e+00 7.748196514518717e+00 8.364407962253036e+00 8.609827026361703e+00 8.023999055866188e+00 8.615351953521580e+00 8.430801796106334e+00 8.022969188459722e+00 2.524337266334122e+00 2.440197844377998e+00 2.675285499064356e+00 2.440231563412831e+00 2.530332725772549e+00 2.675513574631278e+00 7.487646941827890e+00 7.448959091354745e+00 7.559524425337797e+00 7.448880036978182e+00 7.487651675299779e+00 7.559449842063105e+00 3.238038719288029e+01 3.987013542466091e+01 3.987013542466088e+01 3.971589643896656e+01 3.249897807272090e+01 3.448931096022708e+01 3.262184379229268e+01 3.250445061934164e+01 3.962820756114611e+01 6.338531054998393e+00 6.413777998059691e+00 6.113020337196736e+00 6.338360429344521e+00 6.120315622242256e+00 6.458700682644976e+00 5.992818140525721e+00 6.119884163054722e+00 6.340894021727722e+00 6.112580182161030e+00 5.992894244500651e+00 6.340508771316141e+00 6.413911546106221e+00 6.338426958175748e+00 6.113149133415441e+00 6.166213295743741e+00 6.338184477866367e+00 6.510108067066140e+00 6.166146896515876e+00 5.989768817465305e+00 6.340262282184075e+00 5.989513599709785e+00 6.112653612884313e+00 6.340785434782537e+00 1.171271482652544e+01 1.404075532251820e+01 1.302616306953337e+01 7.765427155550151e+00 7.770448936530308e+00 7.761742915295224e+00 7.761334803013729e+00 7.765943557537536e+00 7.766564131113381e+00 7.769820828960619e+00 7.764732701016407e+00 7.761528109503723e+00 7.765971389827735e+00 7.759544587431340e+00 7.765790601581283e+00 4.295318257739666e+00 4.397351515465411e+00 4.675961114370720e+00 4.390937122692287e+00 4.295388115929040e+00 4.688339625914061e+00 1.289913712703759e+01 1.140035748579374e+01 1.091255422561445e+01 1.172238959302174e+01 1.294202865316065e+01 1.091548496398637e+01 7.304830684259467e+00 7.337834613833919e+00 7.397410765929273e+00 7.367196853866688e+00 7.338348329884498e+00 7.279768785774948e+00 7.366889040894611e+00 7.433819960125699e+00 7.336107450218281e+00 7.434555196211175e+00 7.398087497729193e+00 7.335310215666611e+00 7.336776568380849e+00 7.305633949430711e+00 7.398061851945072e+00 7.336469368449254e+00 7.367629055823398e+00 7.274699168740644e+00 7.433177620833684e+00 7.367294099143643e+00 7.334196925091055e+00 7.398811925972800e+00 7.434181062479237e+00 7.334144438168822e+00 7.312035752872839e+00 7.354968446672089e+00 7.454747796182146e+00 7.384143197405560e+00 7.298271445770457e+00 7.516735440362460e+00 7.559378520651077e+00 7.367694272084427e+00 7.382807573115120e+00 7.367616670216420e+00 7.559367330707281e+00 7.382879678805833e+00 7.298283773742377e+00 7.384102711586597e+00 7.527963472256611e+00 1.551063289518663e+01 1.773371002596505e+01 1.481064110941803e+01 1.912339897371776e+00 2.016532038500620e+00 2.107022376247779e+00 7.360185902343757e+00 7.353764700654034e+00 7.279081548391862e+00 7.267617325645642e+00 7.283148064550560e+00 7.333034960084313e+00 7.312233948627475e+00 7.331899765789152e+00 7.277737016665480e+00 7.277769394135874e+00 7.266795232586797e+00 7.301124151044367e+00 2.108602994095606e+00 2.235845025320861e+00 2.318239090908663e+00 2.108796438895271e+00 2.016619169581344e+00 2.233649910189528e+00 1.145002516522488e+01 1.155186441595997e+01 1.004563460839428e+01 1.293573779738642e+01 1.158992848519990e+01 1.148093312972346e+01 8.851379219436012e+00 8.432622619436172e+00 9.300827817580775e+00 2.236038700065360e+00 2.335504774657387e+00 2.481743365665134e+00 7.184004803023265e+00 7.391469065610452e+00 7.184610143066641e+00 7.385741465913180e+00 7.186872974836278e+00 7.370449223975828e+00 7.184315365856037e+00 7.181013882858002e+00 7.375194987810483e+00 7.186546651002233e+00 6.956114808610343e+00 7.187304198265608e+00 6.953559567497876e+00 7.191866514663976e+00 6.941800484937517e+00 7.187051422285079e+00 7.183653752678195e+00 6.944469620174750e+00 7.545163044695544e+00 7.639408405653144e+00 7.666579378289162e+00 7.682634093721970e+00 7.638817347590018e+00 7.550147759415526e+00 7.507634291285721e+00 7.434217789800815e+00 7.398147295975750e+00 7.507937576192195e+00 7.559624839409179e+00 7.434870931674521e+00 7.637502926214588e+00 7.676661947177283e+00 7.729108749190651e+00 7.613779424803838e+00 7.559821112599978e+00 7.509659978642548e+00 6.942648304489803e+00 7.012134332935240e+00 6.778886474237903e+00 6.778624557440565e+00 6.636598661684300e+00 6.947090865103644e+00 7.582012542012448e+00 7.416779429479736e+00 7.727194763664967e+00 7.751087906174162e+00 7.994275820556298e+00 7.583942317139929e+00 5.154827799035562e+00 4.909807301908411e+00 4.831068163563414e+00 7.391596444824417e+00 7.183998822216487e+00 7.184746073743931e+00 7.186868809989831e+00 7.385867166366375e+00 7.370345529360375e+00 7.180957279313102e+00 7.184262924551206e+00 7.375103446432859e+00 7.012114929359808e+00 6.942726048368341e+00 6.778877902687338e+00 6.636689138853797e+00 6.778619318323082e+00 6.947172144741499e+00 4.909301280103988e+00 5.154868245117864e+00 4.831094195600460e+00 7.501722558633015e+00 7.547621098301437e+00 7.771292997310391e+00 8.026269484032131e+00 7.794449460706378e+00 7.539646504022200e+00 6.955973780933201e+00 7.186553196847696e+00 7.187167337227457e+00 7.191892442784173e+00 6.953428487932944e+00 6.941899270268053e+00 7.183710844225256e+00 7.187103911815392e+00 6.944526842238174e+00 7.639385818027941e+00 7.545259141635289e+00 7.666650505183130e+00 7.638756859286960e+00 7.682624379127724e+00 7.550123008982615e+00 7.676652076659643e+00 7.637444118857544e+00 7.729046910502829e+00 7.434604564257763e+00 7.506981027244903e+00 7.397416954044934e+00 7.560146044173173e+00 7.507305479659085e+00 7.435277952908050e+00 7.560322939283583e+00 7.613238776166845e+00 7.509038688962611e+00 8.970541781159763e+00 9.585382435011773e+00 1.003570956109608e+01 1.859403169776076e+00 1.841306314629128e+00 2.064523246499053e+00 1.839641372450004e+00 2.053619131254148e+00 2.067307250321627e+00 1.629011800314829e+01 1.409973924265779e+01 1.657078605062432e+01 1.614698874009341e+01 1.303389044436129e+01 1.412044020386926e+01 2.629829540838839e+01 2.553075216550124e+01 2.276070946012629e+01 2.634581458430519e+01 2.591458689215667e+01 3.201585925488347e+01 2.585036490759524e+01 2.626094823376151e+01 2.158886967000951e+01 2.165574785572506e+01 2.615743487987045e+01 2.278469152883773e+01 1.420089771276811e+00 1.429030641793522e+00 1.274771323891090e+00 1.430291641610106e+00 1.421145400257174e+00 1.584418143763973e+00 1.866826878432891e+01 2.018545500391702e+01 2.274657082521855e+01 2.018595395443457e+01 1.922603008261508e+01 2.289837343862224e+01 2.009183233188045e+01 1.626882077049539e+01 1.918552504178449e+01 2.162202253488242e+01 1.863193641326428e+01 2.280999991367684e+01 1.813446234694431e+01 2.160341357841754e+01 2.266464761493939e+01 1.693260956161345e+00 1.628713876192662e+00 1.520564206425721e+00 1.629007981442099e+00 1.694841718771547e+00 1.837490322782241e+00 1.628444285060692e+00 1.666546451416035e+00 1.518552315706242e+00 1.587840741476177e+00 1.692678246726990e+00 1.521093440801387e+00 2.885243759220910e+01 3.218486602149403e+01 2.585367817275337e+01 3.229890386628679e+01 2.884269586959121e+01 2.579710059606770e+01 1.350222010446977e+00 1.275582028982330e+00 1.427992643280096e+00 1.268202399143485e+00 1.350216051567835e+00 1.430574335921404e+00 2.579000523187234e+01 2.949461996499146e+01 3.228717006661947e+01 3.243762820677217e+01 2.951167778269230e+01 2.658454936973669e+01 1.428871620793589e+00 1.334252175312206e+00 1.269474503681960e+00 1.265976151576037e+00 1.334300502278394e+00 1.406232042185819e+00 1.918473265928439e+01 2.208939508093614e+01 2.298400197725674e+01 2.205809324826449e+01 2.206944396217658e+01 1.919009081801016e+01 2.210790265085046e+01 2.209588946184619e+01 2.567837466706576e+01 1.922399802042334e+01 2.200617007976042e+01 1.922787013387642e+01 1.665476546842201e+00 1.552951875678038e+00 1.519211332362046e+00 1.554844912194963e+00 1.553090110519558e+00 1.708889975918217e+00 1.552419742945756e+00 1.554149118436084e+00 1.430852343121366e+00 1.710899386599370e+00 1.552474850626978e+00 1.667164312759792e+00 1.325392360030638e+01 1.156381568890160e+01 1.299127022390882e+01 1.759567106560410e+00 1.587503501854168e+00 1.721691334833832e+00 1.587543005976514e+00 1.759034074457278e+00 1.694844771801782e+00 1.243530108215235e+01 1.348738354780948e+01 1.472174874554799e+01 1.540171128858175e+01 1.350342186929401e+01 1.330043972602425e+01 1.348412928336208e+01 1.547162398429212e+01 1.480104521520314e+01 1.149783742110311e+01 1.031258806641624e+01 1.007932162701350e+01 2.415145819173784e+00 2.320269824066669e+00 2.544111194080557e+00 7.742877052927748e+00 7.723164484299176e+00 7.677552028183002e+00 7.723091938310887e+00 7.743749580579377e+00 7.677587867070294e+00 8.362367718274838e+00 8.168116690762719e+00 7.863568964678114e+00 1.301249219008305e+01 1.481702526129395e+01 1.328937161459845e+01 1.486831389452725e+01 1.297786349614213e+01 1.488811605965131e+01 1.487100208287175e+01 1.547657564630815e+01 1.326728751254394e+01 1.777365250276436e+01 1.653996955576589e+01 1.478679445694556e+01 1.232796222317145e+01 1.061417688312622e+01 1.239550046550987e+01 1.065554997135096e+01 1.224600996331395e+01 1.065057756999892e+01 1.766190081416091e+01 2.145639322955322e+01 1.819003727660014e+01 2.149228068602325e+01 1.766070056769492e+01 1.866678304174769e+01 6.451349117713340e+00 6.245299559951666e+00 6.137697833059404e+00 7.453927635581800e+00 7.318600050810406e+00 7.314638427262291e+00 7.308372000145550e+00 7.476813626584086e+00 7.528930221582030e+00 7.349506180466163e+00 7.460844180210551e+00 7.312917169788686e+00 7.481362262819234e+00 7.344778747344836e+00 7.564787172068197e+00 3.260504809989258e+00 3.570041887638688e+00 3.446365685214368e+00 3.569029441773051e+00 3.260936673542442e+00 3.364131080959107e+00 3.234216336316972e+00 3.543008248066682e+00 3.362478248717809e+00 8.384636169360043e+00 8.769002114921626e+00 8.172247008230334e+00 8.795947678662458e+00 8.381667975956546e+00 9.297021971872043e+00 4.055002081397687e+00 3.890022416807258e+00 4.194626094748086e+00 3.890190624344928e+00 4.054013743363828e+00 3.803593262021668e+00 3.889996677884191e+00 4.053241287842616e+00 4.194596511754770e+00 4.052034079555940e+00 3.890082015177122e+00 3.768935294321591e+00 2.054815713562216e+00 2.056317758274106e+00 2.210737161495546e+00 2.055776415454187e+00 2.158548582458124e+00 2.211918342395033e+00 7.763733494192754e+00 7.567141652103377e+00 7.855780876092939e+00 3.478949771731050e+00 3.657945186501214e+00 3.364427841492286e+00 3.657015944757350e+00 3.478975547508040e+00 3.362749250635424e+00 6.810531816562900e+00 6.694708819549996e+00 6.957550705347380e+00 6.811035407277438e+00 6.945857383815354e+00 6.637257976378005e+00 6.942362738469774e+00 6.810850464197168e+00 6.954298207303356e+00 6.694312006852248e+00 6.811903984063883e+00 6.636446901893115e+00 6.694577771623338e+00 6.810506242110160e+00 6.957419045325644e+00 6.945956469192694e+00 6.811010267995077e+00 6.637320548482457e+00 6.810825122438604e+00 6.942461690296136e+00 6.954166927922053e+00 6.811878537233197e+00 6.694181188522122e+00 6.636509310781737e+00 7.263229312790850e+00 7.264722093825296e+00 7.283437586000222e+00 1.149130099238562e+01 1.159272863264573e+01 1.319142834079272e+01 7.507253830372456e+00 7.547620720263514e+00 7.384711833877563e+00 7.368085900210318e+00 7.511272600544507e+00 7.382670352921679e+00 7.547727492150375e+00 7.507235133485134e+00 7.384836311161667e+00 7.511236057742771e+00 7.367985383907559e+00 7.382792520417873e+00 7.689830310546784e+00 7.745069172010028e+00 7.675124457785696e+00 7.745122503949506e+00 7.689765436520277e+00 7.675133765350339e+00 1.954939135412923e+01 1.785638194013520e+01 2.162108911776889e+01 7.567447865172976e+00 7.487892680541795e+00 7.648787808161455e+00 7.567852698054806e+00 7.660067596280672e+00 7.507119512393625e+00 7.487094463568202e+00 7.558103892502876e+00 7.649656047252491e+00 2.602868489739563e+00 2.546364950396901e+00 2.784395005262546e+00 7.690439434011683e+00 7.734403912764369e+00 7.651649284467397e+00 1.635578101551185e+00 1.728591524254502e+00 1.562468144429037e+00 6.167211581810163e+00 6.127256072254474e+00 5.825346028518008e+00 6.127936231719234e+00 5.985664545211274e+00 5.824666805372836e+00 9.284312102759552e+00 8.645793027774360e+00 8.479992331784212e+00 8.382318735291390e+00 8.638572974219166e+00 9.268995929556723e+00 8.628313415815651e+00 9.327064958645295e+00 9.324044693351269e+00 2.954619194576467e+00 2.805617070739596e+00 3.078779342515503e+00 7.614349959408507e+00 7.559683002242417e+00 7.490068187933582e+00 7.559551179670606e+00 7.598871351216941e+00 7.489467173092442e+00 1.916465947640536e+01 1.550930669945285e+01 1.715276575050828e+01 7.717582838639896e+00 7.663509957623782e+00 7.742104699613410e+00 7.718311588557436e+00 7.725649171056869e+00 7.640507705350164e+00 7.662215000097236e+00 7.722465006189871e+00 7.637532189112118e+00 7.663455515748613e+00 7.717571253996126e+00 7.742091204232605e+00 7.725696756205863e+00 7.718290693889538e+00 7.640528955880876e+00 7.722451425182379e+00 7.662149528796157e+00 7.637545726053970e+00 1.622717641478981e+01 1.540072373889993e+01 1.297990456690460e+01 6.896292908185579e+00 6.885859370819984e+00 7.102416479752276e+00 6.886023315662849e+00 6.896178241621896e+00 7.102431600754634e+00 7.753653047639186e+00 7.737155398644227e+00 7.773814009810072e+00 7.737153710385671e+00 7.753644128626489e+00 7.773859503089664e+00 7.533317141172548e+00 7.551084404998369e+00 7.386221104230118e+00 7.509095736986908e+00 7.53