<?xml version="1.0"?>
<VTKFile type="UnstructuredGrid" version="0.1" byte_order="LittleEndian">
<UnstructuredGrid>
<Piece NumberOfPoints="570" NumberOfCells="968">
<Points>
<DataArray type="Float64" NumberOfComponents="3" format="ascii">
0.000000000000000e+00 0.000000000000000e+00 0.000000000000000e+00 0.000000000000000e+00 1.000000000000000e+00 0.000000000000000e+00 1.600000000000000e+01 1.000000000000000e+00 0.000000000000000e+00 1.600000000000000e+01 0.000000000000000e+00 0.000000000000000e+00 0.000000000000000e+00 1.999999999995579e-01 0.000000000000000e+00 0.000000000000000e+00 3.999999999989749e-01 0.000000000000000e+00 0.000000000000000e+00 5.999999999989468e-01 0.000000000000000e+00 0.000000000000000e+00 7.999999999994734e-01 0.000000000000000e+00 1.999999999996227e-01 1.000000000000000e+00 0.000000000000000e+00 3.999999999992458e-01 1.000000000000000e+00 0.000000000000000e+00 5.999999999988365e-01 1.000000000000000e+00 0.000000000000000e+00 7.999999999983944e-01 1.000000000000000e+00 0.000000000000000e+00 9.999999999979721e-01 1.000000000000000e+00 0.000000000000000e+00 1.199999999997645e+00 1.000000000000000e+00 0.000000000000000e+00 1.399999999997340e+00 1.000000000000000e+00 0.000000000000000e+00 1.599999999997035e+00 1.000000000000000e+00 0.000000000000000e+00 1.799999999996729e+00 1.000000000000000e+00 0.000000000000000e+00 1.999999999996380e+00 1.000000000000000e+00 0.000000000000000e+00 2.199999999995840e+00 1.000000000000000e+00 0.000000000000000e+00 2.399999999995257e+00 1.000000000000000e+00 0.000000000000000e+00 2.599999999994675e+00 1.000000000000000e+00 0.000000000000000e+00 2.799999999994092e+00 1.000000000000000e+00 0.000000000000000e+00 2.999999999993509e+00 1.000000000000000e+00 0.000000000000000e+00 3.199999999992926e+00 1.000000000000000e+00 0.000000000000000e+00 3.399999999992343e+00 1.000000000000000e+00 0.000000000000000e+00 3.599999999991760e+00 1.000000000000000e+00 0.000000000000000e+00 3.799999999991177e+00 1.000000000000000e+00 0.000000000000000e+00 3.999999999990594e+00 1.000000000000000e+00 0.000000000000000e+00 4.199999999990011e+00 1.000000000000000e+00 0.000000000000000e+00 4.399999999989427e+00 1.000000000000000e+00 0.000000000000000e+00 4.599999999988845e+00 1.000000000000000e+00 0.000000000000000e+00 4.799999999988263e+00 1.000000000000000e+00 0.000000000000000e+00 4.999999999987679e+00 1.000000000000000e+00 0.000000000000000e+00 5.199999999987096e+00 1.000000000000000e+00 0.000000000000000e+00 5.399999999986513e+00 1.000000000000000e+00 0.000000000000000e+00 5.599999999985930e+00 1.000000000000000e+00 0.000000000000000e+00 5.799999999985348e+00 1.000000000000000e+00 0.000000000000000e+00 5.999999999984764e+00 1.000000000000000e+00 0.000000000000000e+00 6.199999999984182e+00 1.000000000000000e+00 0.000000000000000e+00 6.399999999983598e+00 1.000000000000000e+00 0.000000000000000e+00 6.599999999983016e+00 1.000000000000000e+00 0.000000000000000e+00 6.799999999982433e+00 1.000000000000000e+00 0.000000000000000e+00 6.999999999981850e+00 1.000000000000000e+00 0.000000000000000e+00 7.199999999981268e+00 1.000000000000000e+00 0.000000000000000e+00 7.399999999980683e+00 1.000000000000000e+00 0.000000000000000e+00 7.599999999980102e+00 1.000000000000000e+00 0.000000000000000e+00 7.799999999979519e+00 1.000000000000000e+00 0.000000000000000e+00 7.999999999979108e+00 1.000000000000000e+00 0.000000000000000e+00 8.199999999979463e+00 1.000000000000000e+00 0.000000000000000e+00 8.399999999979988e+00 1.000000000000000e+00 0.000000000000000e+00 8.599999999980515e+00 1.000000000000000e+00 0.000000000000000e+00 8.799999999981042e+00 1.000000000000000e+00 0.000000000000000e+00 8.999999999981569e+00 1.000000000000000e+00 0.000000000000000e+00 9.199999999982095e+00 1.000000000000000e+00 0.000000000000000e+00 9.399999999982622e+00 1.000000000000000e+00 0.000000000000000e+00 9.599999999983149e+00 1.000000000000000e+00 0.000000000000000e+00 9.799999999983674e+00 1.000000000000000e+00 0.000000000000000e+00 9.999999999984201e+00 1.000000000000000e+00 0.000000000000000e+00 1.019999999998473e+01 1.000000000000000e+00 0.000000000000000e+00 1.039999999998525e+01 1.000000000000000e+00 0.000000000000000e+00 1.059999999998578e+01 1.000000000000000e+00 0.000000000000000e+00 1.079999999998631e+01 1.000000000000000e+00 0.000000000000000e+00 1.099999999998684e+01 1.000000000000000e+00 0.000000000000000e+00 1.119999999998736e+01 1.000000000000000e+00 0.000000000000000e+00 1.139999999998789e+01 1.000000000000000e+00 0.000000000000000e+00 1.159999999998842e+01 1.000000000000000e+00 0.000000000000000e+00 1.179999999998894e+01 1.000000000000000e+00 0.000000000000000e+00 1.199999999998947e+01 1.000000000000000e+00 0.000000000000000e+00 1.219999999998999e+01 1.000000000000000e+00 0.000000000000000e+00 1.239999999999052e+01 1.000000000000000e+00 0.000000000000000e+00 1.259999999999105e+01 1.000000000000000e+00 0.000000000000000e+00 1.279999999999157e+01 1.000000000000000e+00 0.000000000000000e+00 1.299999999999210e+01 1.000000000000000e+00 0.000000000000000e+00 1.319999999999263e+01 1.000000000000000e+00 0.000000000000000e+00 1.339999999999315e+01 1.000000000000000e+00 0.000000000000000e+00 1.359999999999368e+01 1.000000000000000e+00 0.000000000000000e+00 1.379999999999421e+01 1.000000000000000e+00 0.000000000000000e+00 1.399999999999473e+01 1.000000000000000e+00 0.000000000000000e+00 1.419999999999526e+01 1.000000000000000e+00 0.000000000000000e+00 1.439999999999579e+01 1.000000000000000e+00 0.000000000000000e+00 1.459999999999631e+01 1.000000000000000e+00 0.000000000000000e+00 1.479999999999684e+01 1.000000000000000e+00 0.000000000000000e+00 1.499999999999737e+01 1.000000000000000e+00 0.000000000000000e+00 1.519999999999789e+01 1.000000000000000e+00 0.000000000000000e+00 1.539999999999842e+01 1.000000000000000e+00 0.000000000000000e+00 1.559999999999895e+01 1.000000000000000e+00 0.000000000000000e+00 1.579999999999947e+01 1.000000000000000e+00 0.000000000000000e+00 1.600000000000000e+01 7.999999999999998e-01 0.000000000000000e+00 1.600000000000000e+01 6.000000000013869e-01 0.000000000000000e+00 1.600000000000000e+01 4.000000000016644e-01 0.000000000000000e+00 1.600000000000000e+01 2.000000000008322e-01 0.000000000000000e+00 1.579999999999917e+01 0.000000000000000e+00 0.000000000000000e+00 1.559999999999833e+01 0.000000000000000e+00 0.000000000000000e+00 1.539999999999750e+01 0.000000000000000e+00 0.000000000000000e+00 1.519999999999667e+01 0.000000000000000e+00 0.000000000000000e+00 1.499999999999584e+01 0.000000000000000e+00 0.000000000000000e+00 1.479999999999500e+01 0.000000000000000e+00 0.000000000000000e+00 1.459999999999417e+01 0.000000000000000e+00 0.000000000000000e+00 1.439999999999334e+01 0.000000000000000e+00 0.000000000000000e+00 1.419999999999250e+01 0.000000000000000e+00 0.000000000000000e+00 1.399999999999202e+01 0.000000000000000e+00 0.000000000000000e+00 1.379999999999306e+01 0.000000000000000e+00 0.000000000000000e+00 1.359999999999445e+01 0.000000000000000e+00 0.000000000000000e+00 1.339999999999583e+01 0.000000000000000e+00 0.000000000000000e+00 1.319999999999722e+01 0.000000000000000e+00 0.000000000000000e+00 1.299999999999861e+01 0.000000000000000e+00 0.000000000000000e+00 1.280000000000000e+01 0.000000000000000e+00 0.000000000000000e+00 1.260000000000138e+01 0.000000000000000e+00 0.000000000000000e+00 1.240000000000277e+01 0.000000000000000e+00 0.000000000000000e+00 1.220000000000416e+01 0.000000000000000e+00 0.000000000000000e+00 1.200000000000555e+01 0.000000000000000e+00 0.000000000000000e+00 1.180000000000693e+01 0.000000000000000e+00 0.000000000000000e+00 1.160000000000832e+01 0.000000000000000e+00 0.000000000000000e+00 1.140000000000971e+01 0.000000000000000e+00 0.000000000000000e+00 1.120000000001109e+01 0.000000000000000e+00 0.000000000000000e+00 1.100000000001248e+01 0.000000000000000e+00 0.000000000000000e+00 1.080000000001387e+01 0.000000000000000e+00 0.000000000000000e+00 1.060000000001525e+01 0.000000000000000e+00 0.000000000000000e+00 1.040000000001664e+01 0.000000000000000e+00 0.000000000000000e+00 1.020000000001803e+01 0.000000000000000e+00 0.000000000000000e+00 1.000000000001942e+01 0.000000000000000e+00 0.000000000000000e+00 9.800000000020802e+00 0.000000000000000e+00 0.000000000000000e+00 9.600000000022190e+00 0.000000000000000e+00 0.000000000000000e+00 9.400000000023578e+00 0.000000000000000e+00 0.000000000000000e+00 9.200000000024964e+00 0.000000000000000e+00 0.000000000000000e+00 9.000000000026350e+00 0.000000000000000e+00 0.000000000000000e+00 8.800000000027737e+00 0.000000000000000e+00 0.000000000000000e+00 8.600000000029127e+00 0.000000000000000e+00 0.000000000000000e+00 8.400000000030513e+00 0.000000000000000e+00 0.000000000000000e+00 8.200000000031899e+00 0.000000000000000e+00 0.000000000000000e+00 8.000000000032939e+00 0.000000000000000e+00 0.000000000000000e+00 7.800000000032455e+00 0.000000000000000e+00 0.000000000000000e+00 7.600000000031622e+00 0.000000000000000e+00 0.000000000000000e+00 7.400000000030790e+00 0.000000000000000e+00 0.000000000000000e+00 7.200000000029958e+00 0.000000000000000e+00 0.000000000000000e+00 7.000000000029125e+00 0.000000000000000e+00 0.000000000000000e+00 6.800000000028295e+00 0.000000000000000e+00 0.000000000000000e+00 6.600000000027460e+00 0.000000000000000e+00 0.000000000000000e+00 6.400000000026630e+00 0.000000000000000e+00 0.000000000000000e+00 6.200000000025797e+00 0.000000000000000e+00 0.000000000000000e+00 6.000000000024965e+00 0.000000000000000e+00 0.000000000000000e+00 5.800000000024133e+00 0.000000000000000e+00 0.000000000000000e+00 5.600000000023302e+00 0.000000000000000e+00 0.000000000000000e+00 5.400000000022469e+00 0.000000000000000e+00 0.000000000000000e+00 5.200000000021635e+00 0.000000000000000e+00 0.000000000000000e+00 5.000000000020805e+00 0.000000000000000e+00 0.000000000000000e+00 4.800000000019972e+00 0.000000000000000e+00 0.000000000000000e+00 4.600000000019140e+00 0.000000000000000e+00 0.00000000000000
[...]
<CellData Scalars="conc_conc," Vectors="" Tensors="">
<DataArray type="Float64" Name="conc_conc" format="ascii">
4.171922510420191e-192 5.016276937563931e-04 1.344407933065684e-192 1.159086709875118e-04 5.278840542041606e-192 3.358018223890396e-04 2.187411385530281e-189 3.462778573492127e-04 6.301454591542821e-148 1.709011160768254e-52 1.288878574481946e-141 3.077644266921216e-04 3.094521486208808e-48 3.453572840150346e-03 5.675663199917425e-03 1.879433457485248e-03 2.427442887759007e-02 1.290702219812269e-02 5.352465932178875e-02 3.870473440889555e-02 7.113702483505897e-02 6.528270920065422e-02 6.263458311384672e-02 6.996710248533902e-02 1.776930654792451e-02 3.886727225110322e-02 5.138831034075451e-02 1.675986324567501e-03 2.723615959772084e-02 3.314659784638910e-03 3.617304430932639e-04 8.005507879922538e-04 6.323889718204896e-05 1.551554169926125e-04 9.071748865948419e-06 2.453258699148378e-05 1.080169628583066e-06 3.202019979217621e-06 1.082294953198301e-02 1.078034454345221e-07 3.486616417816471e-07 9.094183492083057e-09 3.196069875590190e-08 6.532056387200756e-10 6.178048954380067e-03 2.485742749735305e-09 4.020253467414895e-11 1.651498658272309e-10 2.132056237634135e-12 9.429062563464601e-12 9.790918649625295e-14 4.650530543180616e-13 3.910389345050510e-15 1.990630397816159e-14 1.363540237463699e-16 7.425318858228797e-16 4.165444481068103e-18 2.422477273318223e-17 1.118229243438594e-19 6.934805313172414e-19 2.645222327389853e-21 8.246804038612944e-190 1.747008012496844e-20 5.527281052952556e-23 3.882940985292050e-22 1.022394552317361e-24 7.631824220087892e-24 1.677324019292022e-26 1.329177764182143e-25 1.112859783900336e-185 2.444804915116892e-28 2.054988775377002e-27 3.170654424542812e-30 2.824877494847462e-29 3.663512342362548e-32 1.365571330941627e-186 3.457485933726865e-31 3.775553409184645e-34 3.772416152367913e-33 9.785371347856575e-178 2.025573540791484e-113 3.473891753150851e-36 4.096064191226713e-142 8.198498342950798e-189 3.288135199668815e-144 2.053149758052602e-68 1.146646119094972e-111 3.673084531045728e-35 2.872207887781402e-174 8.935756651364194e-70 1.097347830025933e-182 2.855982176026001e-38 6.174344542458516e-03 8.658048527952391e-92 3.311425713087528e-03 3.194321422918001e-37 8.875648607208210e-70 1.653893428145783e-148 2.099366400461941e-40 1.106764940001002e-79 1.729026622484940e-60 1.998928237201448e-113 4.851004150744986e-140 2.483024326984292e-39 5.323163545455722e-138 1.380575965825646e-42 1.726222916597570e-41 5.461071442662118e-177 8.128972095220439e-45 1.389433548646615e-180 1.277524112089413e-171 2.303387515465619e-93 5.508328928606556e-134 5.609650064966684e-175 2.328515060056371e-93 1.073846135837243e-43 3.780836745101334e-81 3.836263705139319e-167 3.279497818708096e-59 1.161719559757709e-111 5.568320605709798e-136 3.814829286406583e-81 4.279244751043688e-47 3.293247535501124e-59 2.383952871968807e-146 5.982079721718347e-46 1.056070869704217e-150 4.796580382131365e-164 2.979540506267891e-48 3.754165048282783e-71 2.066435400314549e-68 1.258122468655805e-161 3.395989616545654e-115 5.997087405124774e-95 1.264591742425126e-82 1.629870294848370e-166 4.530198179415459e-130 1.139705953744853e-111 6.071904947499458e-58 1.181358749916079e-164 1.091162052072341e-169 3.837310056587475e-128 5.395932402816026e-134 8.618174041530091e-180 2.438538316486735e-146 2.017989864091801e-49 3.150978933383391e-90 6.290773035461221e-110 2.385541993572349e-124 8.395958969104067e-52 3.364643382422616e-108 2.419826622526019e-124 8.863580986279509e-62 3.183921393713337e-90 6.337424579724571e-157 1.780779882247047e-122 4.056958647407620e-103 3.143788994598252e-78 4.440667575831798e-63 8.738151706840701e-77 8.906791218715588e-62 1.723540025241031e-106 8.750548577257387e-92 4.886432317775783e-169 1.243010710825340e-82 3.097178459376615e-126 2.966583978128555e-159 3.170405697693121e-78 5.889796915459102e-95 5.980268649330705e-58 2.033365678626685e-68 8.513162453078859e-105 4.106375753339435e-103 8.618556140054070e-105 1.745811663641193e-122 1.649283465125656e-148 3.693268586300259e-71 3.330881777270890e-115 6.073434050463686e-74 5.164180734400335e-132 4.371585832333648e-63 8.595801400763671e-92 8.458964918228847e-105 8.457300794788287e-119 8.592681341384537e-77 1.532158975852274e-72 1.014042712548823e-65 3.458524940467308e-155 5.470062642195779e-117 8.622008963756837e-52 4.643493542863528e-67 1.236532455445118e-120 2.140485244553420e-64 2.319556080413863e-75 2.207589921597562e-152 5.592850333175437e-148 3.793015990817204e-87 6.320850942445564e-153 8.292252769288674e-100 1.989278242593405e-49 1.888679473484852e-101 3.601273541646740e-98 1.122030756212349e-88 5.059519173114069e-132 3.142202653391316e-126 1.310367238670599e-50 1.253887652679395e-120 2.459375439866583e-39 2.152325896660811e-64 2.337932873114045e-75 2.801972401924835e-29 1.082078763527153e-02 3.196745154852756e-08 1.062154471906797e-150 2.410059082363416e-17 1.709350016708690e-41 2.039023040275788e-27 7.578273894818247e-24 8.519332719484033e-52 1.579782664262688e-04 3.491107073360604e-07 1.982821360873121e-14 1.648739951855966e-10 6.895579663781566e-19 3.210550488672967e-54 1.494365744889633e-96 3.739504217163305e-33 5.310174572813644e-53 5.232612176131035e-53 1.329451559098668e-50 4.005124569307961e-142 1.755838449168045e-122 1.209180023721108e-02 6.027367216819582e-74 1.736871515253252e-60 8.389863764842437e-100 5.297652493142126e-53 1.008144326431613e-65 1.745216409103403e-106 4.417667058023109e-63 1.267577905712862e-85 1.110678095196181e-88 1.116428056638466e-79 8.667107653434431e-77 3.560114662655011e-98 1.255347896307525e-85 1.866325417943652e-101 4.065867779795808e-84 6.512309176880605e-02 8.341662197092325e-119 3.830885666044430e-87 3.893711884371978e-128 1.892430650453280e-55 5.203009939421865e-02 3.637163292901456e-150 1.898336162140310e-55 7.862548233807043e-160 3.079733738853584e-126 1.710250926906563e-60 1.854104936354270e-101 1.102419378913514e-88 1.097607825754273e-79 2.937539527698784e-48 3.343778788582943e-108 1.088676449032306e-56 3.171942846319824e-54 1.730116132996121e-157 3.219361096926458e-54 1.986965864573212e-113 8.791778474783846e-70 1.346002794429434e-50 2.299258704763720e-75 1.229414646278027e-120 1.712713637330955e-106 8.237153779296602e-100 3.243158260694683e-59 3.764321969842865e-87 3.750122987876960e-81 5.453879841565182e-136 3.815815569315193e-128 2.287096974246959e-93 2.118599313360567e-64 5.213008669167157e-138 3.428353210594447e-31 3.164705433589949e-37 1.319333502527577e-25 4.635470724407240e-13 9.405585618609258e-12 2.462438865263766e-05 7.391532067264573e-16 3.209906542986379e-06 2.483822390716287e-09 1.063027193400690e-43 3.857323146359264e-22 1.736272037776624e-20 3.640006462525255e-35 1.689170606586662e-03 2.372017701594446e-124 1.228373413945658e-182 3.785327413048270e-02 5.426003011306344e-134 5.087791242419880e-132 8.769250452594789e-62 7.048834073624956e-02 3.442139568275885e-36 3.127943558812484e-90 2.764197050937695e-02 2.079097910410346e-40 2.425389190890601e-28 1.164067887887087e-185 1.015017976299499e-24 3.632088809248662e-32 4.142964758020948e-18 2.125931917771210e-12 9.099799502204899e-06 1.078829837803172e-07 8.041399725986595e-45 6.524010412827567e-10 2.628356930535312e-21 3.706405765213750e-04 3.893796279223114e-15 1.555195718854706e-183 4.030771276110941e-103 5.219027329055510e-03 6.411565893799094e-110 3.117292227199229e-78 5.296095870682790e-02 5.931074269146671e-95 6.048664395273716e-58 1.803465504563011e-02 4.700842629326233e-140 6.328603233011638e-02 5.973612844771783e-74 3.727817159545066e-71 3.350721471463481e-115 1.253006707365464e-82 2.829137842916658e-38 9.980391420251231e-66 1.664591599542176e-26 9.091529820599645e-09 3.144434074995359e-30 5.489634586623195e-23 9.755787281475018e-14 6.437266819276758e-05 1.356934856232002e-16 4.011853246840150e-11 1.366828752713524e-42 1.111625310755775e-19 1.082182677881709e-06 4.290349181724756e-04 3.742075776705260e-34 5.208320791775693e-02 8.052243752630957e-190 2.333830564934852e-02 2.212961750448777e-02 4.073372018858781e-03 7.158959912147639e-02 7.137322687374881e-02 1.324929025570281e-186 3.494309905758827e-36 3.693575202343611e-32 2.689035444450484e-21 3.802043769491301e-34 1.036225416425220e-24 3.200615206400554e-30 4.002134174304081e-15 3.940888759620363e-02 9.428974336551191e-06 4.248219263500416e-18 2.190305044183512e-12 6.737105708546182e-10 1.120698830178228e-06 4.138190186517506e-11 1.116332170282109e-07 1.393035989795524e-16 1.003921324917006e-13 1.697632543506365e-26 5.610258088349003e-23 9.398525389472899e-09 6.583072179863884e-05 1.138561396975225e-19 8.293223240245097e-119 2.107192279140044e-40 2.471084290385749e-28 2.869655139875672e-38 3.805095804127893e-04 6.420487597695276e-02 3.188474626649412e-144 6.518738985802035e-177 4.569694010362358e-67 1.026940307680367e-179 1.384166132578262e-42 4.025109029106747e-02 4.504948073691042e-130 3.222602009435564e-162 1.455639993939254e-180 1.507140735303377e-72 6.329538489231236e-110 3.536099418724473e-98 2.682541658102648e-172 1.636522783446049e-183 1.848444622409608e-02 1.759235477141142e-03 6.477465996571069e-03 8.132945711212755e-45 5.364568480382465e-117 3.374510723395576e-174 1.245683767871037e-85 3.996060223464406e-84 1.467476276523314e-96 6.283886355477177e-153 3.714298770711878e-07 1.500322473424033e-171 8.608380137184546e-52 2.665020463469967e-172 3.407607362818759e-108 1.072377062837923e-56 3.811658503895874e-167 1.084897269391698e-56 1.913047244813522e-166 1.719627652603737e-157 9.883783895517274e-178 1.084044914423355e-169 1.520967476132694e-72 1.111953798442418e-02 3.666202902335926e-02 6.476947799806763e-02 5.339654635894606e-138 4.027620135792593e-84 4.615047298433608e-67 5.737170128297673e-169 7.115924110118144e-02 1.870142525734174e-55 3.437840767568290e-155 2.377003422010298e-146 5.396198203266458e-117 1.477598531633126e-96 3.202550650653141e-162 5.298667378606911e-02 4.597520068241436e-130 2.045304864500237e-49 2.078458448008969e-27 2.523764562948943e-203 4.308219408587964e-47 1.173905463515320e-164 9.696112650773677e-12 1.346204441090920e-25 1.777343258258297e-20 4.772991412783761e-13 7.740668660877208e-24 3.306334490835858e-08 2.039206788687528e-14 3.325208748041574e-06 7.592671552329754e-16 3.614001133906224e-07 1.701637455266796e-10 2.566350121059494e-09 2.551926829161503e-05 7.066693554798667e-19 3.211335280842965e-37 3.944210854872483e-22 3.487983658631411e-31 1.616165584359600e-04 2.493600510763720e-39 3.696741115880990e-35 3.801103495640912e-33 5.664913969627663e-175 2.853386155661158e-29 2.472726553623144e-17 8.410740490913021e-04 1.731784856007888e-41 7.119781566938445e-02 2.829617876109475e-02 4.449033465767077e-04 7.814297784283331e-160 1.132982287481096e-02 5.628615294539736e-164 6.271233429545042e-02 1.076119682398749e-43 1.454360320150513e-154 5.484381012713045e-136 7.426353920456392e-157 5.545763559265589e-03 3.891049405722395e-02 3.478024194091576e-03 1.673721796535743e-03 1.475942936694089e-161 2.419661930776397e-02 3.620008199326709e-32 5.350204893304178e-02 1.234534744190377e-154 2.417478627852823e-28 5.471893655692819e-23 1.659196467821833e-26 3.134087799725329e-30 1.352320976062791e-16 4.219484442479372e-47 1.361958872819390e-42 9.720400850319402e-14 2.819341315388881e-38 2.117872040912654e-12 1.107981657953409e-19 3.995820995856100e-11 6.310703685401972e-05 3.729474277845887e-34 9.050115059490289e-09 1.076380441978007e-06 9.046310328437763e-06 6.496292556881133e-10 3.612377817718742e-04 3.479681845018842e-159 1.073517917095074e-07 2.619823584109005e-21 3.880173618573535e-15 4.129177463638989e-18 2.071792733132478e-40 3.430389897254077e-36 1.011738895948299e-24 6.017378362011680e-46 8.012460124718622e-45 3.775684813183925e-87 8.268193301666209e-100 3.021124681475950e-48 5.389311209069333e-117 2.383689856540127e-124 6.317737083984657e-110 1.472741022227316e-96 5.085831130155012e-132 8.778378038745341e-62 1.072971736840858e-56 2.304295552921826e-75 4.046671892737084e-103 3.124789859625455e-78 4.576622198173431e-67 3.137993845145972e-90 1.510111333227961e-72 4.757323109355356e-140 4.007325497359947e-84 1.872815071882894e-03 3.245742272910407e-59 2.294879224770811e-93 3.759928236294547e-81 1.719765691862667e-106 8.807130484218005e-70 7.004626462468384e-02 5.145126337206543e-02 2.121313161072021e-64 5.482996745541685e-136 3.226096803649386e-54 1.235277819683975e-120 6.530614664450812e-02 1.283739646128734e-02 2.988537900354994e-03 3.197719889119092e-144 4.757155368106907e-140 6.354736733833740e-49 5.321280171831137e-53 3.864372180520215e-02 3.835143536031804e-128 7.991551440660735e-04 3.726991117608535e-33 3.844835771799761e-22 2.792795904750665e-29 3.417014133253710e-31 1.995810314297988e-113 9.369014805924643e-12 7.366061728045471e-16 4.618298798114486e-13 2.032395787259885e-27 3.191905358384302e-06 1.059214370854659e-43 2.472906836915882e-09 2.401958753418040e-17 1.315066121345324e-25 2.447256727578491e-05 1.641953672760464e-10 1.548880211728593e-04 1.703299697855371e-41 3.181620521917152e-08 3.473186354601116e-07 1.730611756309158e-20 3.153825473985903e-37 6.872822452121834e-19 2.450796208624877e-39 1.975764899504373e-14 3.627666581414120e-35 7.553799443500568e-24 5.895514963697577e-46 3.549106775868104e-98 1.105854994885977e-88 1.754271924219739e-122 4.528080136736448e-130 9.994355331935686e-66 1.249320479717190e-85 5.986046712496581e-74 1.711822460122103e-60 1.100363415430037e-79 1.144685656648926e-111 2.036683672143435e-68 8.612431946175394e-77 1.861256253219358e-101 3.357830618584115e-108 5.424341660193509e-134 5.910385947417965e-95 4.016580889754236e-142 5.984294530135224e-58 8.624240371308115e-92 8.493068369768727e-105 1.246388585985760e-82 3.700135282899069e-71 8.332130098831001e-119 5.275234669962587e-138 4.376663107409305e-63 1.870954579733617e-55 3.345978428557657e-115 3.095116217780364e-126 1.777170426599124e-02 2.726140869596808e-02 1.323496064572764e-06 9.331507728825024e-204 2.465177585237044e-07 3.688199648462271e-203 5.986115509138477e-49 2.883545062224540e-03 1.543165386822489e-52 1.492246657545640e-141 2.887273308553605e-04 2.450754371549132e-146 2.746387675159052e-51 6.983076930939941e-04 1.043406812400557e-143 4.192713725684530e-150 6.453081154454081e-03 4.484254334103756e-47 9.320549369200962e-48 1.742070899522841e-148 4.198743263995515e-142 5.687422035718958e-03 1.343354604549739e-50 8.196122779254802e-04 1.097769673869301e-05 9.276474772146858e-200 4.736872348685548e-06 4.209289679541730e-199 9.097506722085129e-201 5.283190897567356e-08 1.481032402204676e-05 1.068458998421451e-196 8.910582036656942e-201 1.043991656084023e-196 5.280055756361689e-08 1.482000582717868e-05 2.578961683446724e-51 1.644021300043007e-148 1.182964229030702e-143 6.720194978992758e-04 9.019854759227756e-48 5.583968016708853e-03 4.287308135788509e-50 1.499188648651591e-03 7.874831684657012e-146 2.582768618882862e-152 1.128013273184959e-02 6.264369637326372e-46 2.271240085876840e-186 2.088943835934148e-03 1.694958820888078e-45 1.655881328178467e-02 6.528201384188922e-153 2.926543502208248e-61 2.968278040530950e-69 1.046652443276744e-53 3.547565051434119e-56 1.077718741482795e-58 6.172188124202370e-55 1.982865920764567e-57 7.099113457067039e-64 5.695566210281056e-60 1.537159883054309e-66 2.297767295800056e-44 1.461921754486687e-62 3.884578659440089e-42 1.282784130738736e-80 3.350824107212061e-65 5.875163430685718e-40 3.029414707133583e-43 4.844362153753594e-41 7.946222231089559e-38 6.852596377072181e-68 6.929003250670013e-39 9.605686688482490e-36 5.106249236777071e-72 1.037104047457655e-33 7.816025683563949e-75 8.860506092859954e-37 1.063066431044938e-77 7.911330667064203e-93 1.012350643649041e-34 9.992532380682929e-32 1.249131171050099e-70 8.583244337796673e-30 2.027303292478113e-73 1.032653573097530e-32 2.925681421689245e-76 6.565069142349451e-28 9.395682253083917e-31 3.748864491217557e-79 7.616910567152633e-29 4.465283229395143e-26 1.370920114822301e-83 1.295070852609786e-86 2.696529356505449e-24 5.494859083439832e-27 1.079087097121439e-89 6.999500880549697e-113 4.258191253003030e-82 3.522325762870263e-25 1.443243597642059e-22 4.279631586615765e-85 2.002981565394264e-23 6.832555496397509e-21 3.797981141896377e-88 2.854664464980501e-19 1.008512590246775e-21 1.049908004761079e-17 4.486617322664459e-20 2.969406654029882e-91 5.089746827246603e-96 2.864683690688715e-99 3.389454312705516e-16 1.759338173053558e-18 1.405740080059466e-102 9.574005569724707e-15 6.064586196855029e-17 5.991013161036596e-106 2.040069938804927e-94 1.228099040837099e-97 1.832135003670086e-15 2.357599238274221e-13 2.207752542163242e-109 6.457062747998361e-101 2.954407736933323e-104 4.834328001290329e-14 5.040625973851567e-12 9.313877016640064e-11 1.109856952691941e-12 1.171515974757190e-107 2.207313517635759e-11 1.479552601842374e-09 2.008570838014103e-08 3.784342019358703e-10 4.007047477702379e-111 2.314316400020833e-07 5.561801623026739e-09 1.898144270280902e-116 4.373332531379899e-120 6.962424346675303e-08 3.481371347289895e-162 2.245424965386322e-06 8.493789613130146e-124 3.408004138135877e-162 1.377781130598725e-127 7.369334990803529e-07 1.818612467325417e-05 2.941840029372605e-118 1.175851305814806e-114 1.207955011933600e-04 1.846267662315734e-131 6.539005991366591e-06 1.107120705757144e-125 6.229694601845613e-122 4.770220606428476e-05 2.017337937223919e-135 1.634698643169737e-129 1.981566377115316e-133 1.743717027910047e-139 2.601011703523946e-02 1.943780642693322e-137 5.121045996929730e-02 3.732461532633752e-155 3.795623569421903e-02 7.192900008549097e-02 1.867707122146504e-157 8.490788865346924e-160 6.777337315779032e-02 6.351656056623514e-02 7.375589602227796e-02 1.249679244736817e-164 3.886642380811169e-02 1.158407970407957e-02 4.059105061918102e-167 5.506810911480192e-02 1.662882328220196e-131 1.154906406942456e-169 1.816486243811761e-135 1.784527656878337e-133 2.323566371695106e-02 7.653926686767195e-124 1.241239600468674e-127 1.571506412986712e-139 1.472517060339154e-129 2.839659656786571e-172 9.975265849927537e-126 1.740286589293195e-137 5.877863683272915e-175 3.941876367043278e-120 5.614400592195520e-122 1.051273525180245e-177 1.436369475569033e-180 2.651940094613333e-118 1.711308679968550e-116 6.312132754918754e-113 3.654595237874811e-155 1.060245064634209e-114 1.828709890428882e-157 8.313057139570644e-160 3.614007303375071e-111 1.276683805975585e-164 4.147389818718665e-167 1.180106984245066e-169 2.902010004637678e-172 1.991457296052741e-109 6.001366315363549e-175 5.405481957156644e-106 1.083829760202505e-177 1.056878985784768e-107 1.268688688764086e-102 1.595403894642206e-180 2.666012388700797e-104 5.828327443213378e-101 2.586099849326250e-99 4.596066520473570e-96 1.108823323535475e-97 1.842455835848207e-94 7.146021797110058e-93 2.682551525233311e-91 9.749883534463402e-90 3.432109944292404e-88 1.170491852698554e-86 1.239433121371015e-83 3.868554735131797e-85 3.850399566144989e-82 1.160125769472613e-80 3.390964864759521e-79 9.617390914579362e-78 2.647271581918434e-76 7.073484106209859e-75 1.835031041761492e-73 4.622803246822680e-72 1.131075481893829e-70 2.688251043575619e-69 6.207312701785381e-68 1.392683599399800e-66 6.434465527725667e-64 3.036487942143743e-65 2.653661890382702e-61 1.325325116836342e-62 5.165602668852693e-60 9.776564206060802e-59 3.219622681159845e-56 1.799161933309530e-57 9.386796701733309e-54 5.521958486929233e-55 1.294052199272655e-04 1.057786875715369e-02 2.709542165760679e-02 1.946842058912862e-05 2.498549125109843e-07 3.710147887467746e-02 5.263749123619741e-02 6.691215551085697e-02 7.267528155112650e-02 2.415211796032761e-06 2.175638429380002e-08 3.929119989739920e-02 2.165240501871793e-02 5.146334045328829e-05 6.476592195440983e-02 1.607377443845151e-09 5.355630347730099e-02 7.373462318562798e-02 1.014568163484741e-10 7.941700381049625e-07 7.019238008977573e-06 7.529444827695171e-08 1.049897753968666e-14 5.504165155181772e-12 2.580123838030888e-13 1.155488311183362e-17 6.033591868350357e-09 3.723873572604558e-16 4.116934031724094e-10 2.407