<?xml version="1.0"?>
<VTKFile type="UnstructuredGrid" version="0.1" byte_order="LittleEndian">
<UnstructuredGrid>
<Piece NumberOfPoints="486" NumberOfCells="800">
<Points>
<DataArray type="Float64" NumberOfComponents="3" format="ascii">
0 0 0 0 0.199999999999558 0 0.2 0.199999999999558 0 0.2 0 0 0 0.399999999998975 0 0.2 0.399999999998975 0 0.4 0.399999999998975 0 0.4 0.199999999999558 0 0.4 0 0 0.6 0 0 0.6 0.199999999999558 0 0.6 0.399999999998975 0 0.8 0.399999999998975 0 0.8 0 0 0.8 0.199999999999558 0 0.8 0.799999999999473 0 0.8 0.599999999998947 0 0.6 0.599999999998947 0 0.6 0.799999999999473 0 0.4 0.799999999999473 0 0.4 0.599999999998947 0 0.2 0.599999999998947 0 0 0.599999999998947 0 0.2 0.799999999999473 0 0 0.799999999999473 0 0 1 0 0.2 1 0 0.4 1 0 0.6 1 0 0.8 1 0 1 1 0 1.2 1 0 1.4 1 0 1.6 1 0 1.8 1 0 1.8 0.799999999999473 0 1.6 0.799999999999473 0 1.6 0.599999999998947 0 1.8 0.599999999998947 0 1.8 0.399999999998975 0 1.8 0.199999999999558 0 1.8 0 0 1.6 0.199999999999558 0 1.6 0 0 1.6 0.399999999998975 0 1.4 0.399999999998975 0 1.4 0 0 1.4 0.199999999999558 0 1.2 0 0 1.2 0.199999999999558 0 1 0.199999999999558 0 1 0 0 1.2 0.399999999998975 0 1 0.399999999998975 0 1 0.599999999998947 0 1.2 0.599999999998947 0 1 0.799999999999473 0 1.2 0.799999999999473 0 1.4 0.799999999999473 0 1.4 0.599999999998947 0 2.6 0.599999999998947 0 2.6 0.799999999999473 0 2.8 0.799999999999473 0 3 0.799999999999473 0 2.8 0.599999999998947 0 3 0.599999999998947 0 3 0.399999999998975 0 2.8 0.399999999998975 0 3 0 0 3 0.199999999999558 0 2.8 0.199999999999558 0 2.8 0 0 2.6 0.199999999999558 0 2.6 0 0 2.6 0.399999999998975 0 2.4 0.399999999998975 0 2.4 0 0 2.4 0.199999999999558 0 2.2 0 0 2.2 0.199999999999558 0 2 0.199999999999558 0 2 0 0 2.2 0.399999999998975 0 2 0.399999999998975 0 2 0.599999999998947 0 2.2 0.599999999998947 0 2.4 0.599999999998947 0 2.4 0.799999999999473 0 2.2 0.799999999999473 0 2 0.799999999999473 0 2 1 0 2.2 1 0 2.4 1 0 2.6 1 0 2.8 1 0 3 1 0 3.2 1 0 3.4 1 0 3.6 1 0 3.8 1 0 3.8 0.799999999999473 0 3.8 0.599999999998947 0 3.6 0.599999999998947 0 3.6 0.799999999999473 0 3.4 0.799999999999473 0 3.4 0.599999999998947 0 3.2 0.599999999998947 0 3.2 0.799999999999473 0 3.2 0.199999999999558 0 3.2 0 0 3.2 0.399999999998975 0 3.4 0.399999999998975 0 3.4 0.199999999999558 0 3.4 0 0 3.6 0 0 3.6 0.199999999999558 0 3.6 0.399999999998975 0 3.8 0.399999999998975 0 3.8 0 0 3.8 0.199999999999558 0 4 0 0 4.2 0 0 4.2 0.199999999999558 0 4 0.199999999999558 0 4 0.399999999998975 0 4.2 0.399999999998975 0 4.4 0.399999999998975 0 4.4 0.199999999999558 0 4.4 0 0 4 0.799999999999473 0 4.2 0.799999999999473 0 4 0.599999999998947 0 4.2 0.599999999998947 0 4.4 0.599999999998947 0 4.4 0.799999999999473 0 4.6 0.799999999999473 0 4.6 0.599999999998947 0 4.8 0.599999999998947 0 4.8 0.799999999999473 0 4.6 0 0 4.6 0.199999999999558 0 4.6 0.399999999998975 0 4.8 0.399999999998975 0 4.8 0.199999999999558 0 4.8 0 0 5 0 0 5 0.199999999999558 0 5.2 0.199999999999558 0 5.2 0 0 5.4 0.199999999999558 0 5.4 0 0 5.4 0.399999999998975 0 5.2 0.399999999998975 0 5 0.399999999998975 0 5 0.599999999998947 0 5.2 0.599999999998947 0 5 0.799999999999473 0 5.2 0.799999999999473 0 5.4 0.799999999999473 0 5.4 0.599999999998947 0 5.6 0.599999999998947 0 5.6 0.799999999999473 0 5.8 0.799999999999473 0 5.8 0.599999999998947 0 5.8 0.399999999998975 0 5.8 0 0 5.8 0.199999999999558 0 5.6 0 0 5.6 0.199999999999558 0 5.6 0.399999999998975 0 5.8 1 0 5.6 1 0 5.4 1 0 5.2 1 0 5 1 0 4.8 1 0 4.6 1 0 4.4 1 0 4 1 0 4.2 1 0 7.8 1 0 7.8 0.799999999999473 0 7.8 0.599999999998947 0 7.6 0.599999999998947 0 7.6 0.799999999999473 0 7.6 1 0 7.8 0 0 7.8 0.199999999999558 0 7.8 0.399999999998975 0 7.6 0.399999999998975 0 7.6 0.199999999999558 0 7.6 0 0 7.4 0 0 7.4 0.199999999999558 0 7.4 0.399999999998975 0 7.2 0.399999999998975 0 7.2 0.199999999999558 0 7.2 0 0 7.4 1 0 7.4 0.799999999999473 0 7.4 0.599999999998947 0 7.2 0.599999999998947 0 7.2 0.799999999999473 0 7.2 1 0 7 1 0 6.8 1 0 6.8 0.799999999999473 0 7 0.799999999999473 0 7 0.599999999998947 0 6.8 0.599999999998947 0 6.6 0.599999999998947 0 6.6 0.799999999999473 0 6.6 1 0 6.8 0 0 7 0 0 7 0.199999999999558 0 6.8 0.199999999999558 0 7 0.399999999998975 0 6.8 0.399999999998975 0 6.6 0.399999999998975 0 6.6 0.199999999999558 0 6.6 0 0 6.4 0 0 6.4 0.199999999999558 0 6.4 0.399999999998975 0 6.2 0.399999999998975 0 6 0.399999999998975 0 6.2 0.199999999999558 0 6 0.199999999999558 0 6 0 0 6.2 0 0 6.4 1 0 6.4 0.799999999999473 0 6.4 0.599999999998947 0 6.2 0.599999999998947 0 6 0.599999999998947 0 6 0.799999999999473 0 6.2 0.799999999999473 0 6.2 1 0 6 1 0 15.2 0.199999999999558 0 15.2 0 0 15.2 0.399999999998975 0 15.4 0.399999999998975 0 15.4 0.199999999999558 0 15.4 0 0 15.6 0 0 15.6 0.199999999999558 0 15.8 0 0 15.8 0.199999999999558 0 16 0.199999999999558 0 16 0 0 16 0.399999999998975 0 15.8 0.399999999998975 0 15.6 0.399999999998975 0 15.6 0.599999999998947 0 15.8 0.599999999998947 0 16 0.599999999998947 0 16 0.799999999999473 0 15.8 0.799999999999473 0 15.6 0.799999999999473 0 15.4 0.799999999999473 0 15.4 0.599999999998947 0 15.2 0.599999999998947 0 15.2 0.799999999999473 0 15.2 1 0 15.4 1 0 15.6 1 0 15.8 1 0 16 1 0 14.2 1 0 14.4 1 0 14.6 1 0 15 1 0 14.8 1 0 14.8 0.799999999999473 0 15 0.799999999999473 0 15 0.599999999998947 0 14.8 0.599999999998947 0 14.6 0.599999999998947 0 14.6 0.799999999999473 0 14.4 0.799999999999473 0 14.2 0.799999999999473 0 14.2 0.599999999998947 0 14.4 0.599999999998947 0 14.4 0.399999999998975 0 14.2 0.399999999998975 0 14.2 0.199999999999558 0 14.2 0 0 14.4 0.199999999999558 0 14.4 0 0 14.6 0 0 14.6 0.199999999999558 0 14.6 0.399999999998975 0 14.8 0.399999999998975 0 15 0.399999999998975 0 15 0.199999999999558 0 15 0 0 14.8 0 0 14.8 0.199999999999558 0 13.2 0.199999999999558 0 13.2 0 0 13.2 0.399999999998975 0 13.4 0.399999999998975 0 13.4 0.199999999999558 0 13.4 0 0 13.6 0 0 13.6 0.199999999999558 0 13.8 0 0 13.8 0.199999999999558 0 14 0.199999999999558 0 14 0 0 14 0.399999999998975 0 13.8 0.399999999998975 0 13.6 0.399999999998975 0 13.6 0.599999999998947 0 13.8 0.599999999998947 0 14 0.599999999998947 0 14 0.799999999999473 0 13.8 0.799999999999473 0 13.6 0.799999999999473 0 13.4 0.799999999999473 0 13.4 0.599999999998947 0 13.2 0.599999999998947 0 13.2 0.799999999999473 0 13.2 1 0 13.4 1 0 13.6 1 0 13.8 1 0 14 1 0 12.2 1 0 12.4 1 0 12.6 1 0 13 1 0 12.8 1 0 12.8 0.799999999999473 0 13 0.799999999999473 0 13 0.599999999998947 0 12.8 0.599999999998947 0 12.6 0.599999999998947 0 12.6 0.799999999999473 0 12.4 0.799999999999473 0 12.2 0.799999999999473 0 12.2 0.599999999998947 0 12.4 0.599999999998947 0 12.4 0.399999999998975 0 12.2 0.399999999998975 0 12.2 0.199999999999558 0 12.2 0 0 12.4 0.199999999999558 0 12.4 0 0 12.6 0 0 12.6 0.199999999999558 0 12.6 0.399999999998975 0 12.8 0.399999999998975 0 13 0.399999999998975 0 13 0.199999999999558 0 13 0 0 12.8 0 0 12.8 0.199999999999558 0 11.2 0.199999999999558 0 11.2 0 0 11.2 0.399999999998975 0 11.4 0.399999999998975 0 11.4 0.199999999999558 0 11.4 0 0 11.6 0 0 11.6 0.199999999999558 0 11.8 0 0 11.8 0.199999999999558 0 12 0.199999999999558 0 12 0 0 12 0.399999999998975 0 11.8 0.399999999998975 0 11.6 0.399999999998975 0 11.6 0.599999999998947 0 11.8 0.599999999998947 0 12 0.599999999998947 0 12 0.799999999999473 0 11.8 0.799999999999473 0 11.6 0.799999999999473 0 11.4 0.799999999999473 0 11.4 0.599999999998947 0 11.2 0.599999999998947 0 11.2 0.799999999999473 0 11.2 1 0 11.4 1 0 11.6 1 0 11.8 1 0 12 1 0 10.2 1 0 10.4 1 0 10.6 1 0 11 1 0 10.8 1 0 10.8 0.799999999999473 0 11 0.799999999999473 0 11 0.599999999998947 0 10.8 0.599999999998947 0 10.6 0.599999999998947 0 10.6 0.799999999999473 0 10.4 0.799999999999473 0 10.2 0.799999999999473 0 10.2 0.599999999998947 0 10.4 0.599999999998947 0 10.4 0.399999999998975 0 10.2 0.399999999998975 0 10.2 0.199999999999558 0 10.2 0 0 10.4 0.199999999999558 0 10.4 0 0 10.6 0 0 10.6 0.199999999999558 0 10.6 0.399999999998975 0 10.8 0.399999999998975 0 11 0.399999999998975 0 11 0.199999999999558 0 11 0 0 10.8 0 0 10.8 0.199999999999558 0 9.2 0.199999999999558 0 9.2 0 0 9.2 0.399999999998975 0 9.4 0.399999999998975 0 9.4 0.199999999999558 0 9.4 0 0 9.6 0 0 9.6 0.199999999999558 0 9.8 0 0 9.8 0.199999999999558 0 10 0.199999999999558 0 10 0 0 10 0.399999999998975 0 9.8 0.399999999998975 0 9.6 0.399999999998975 0 9.6 0.599999999998947 0 9.8 0.599999999998947 0 10 0.599999999998947 0 10 0.799999999999473 0 9.8 0.799999999999473 0 9.6 0.799999999999473 0 9.4 0.799999999999473 0 9.4 0.599999999998947 0 9.2 0.599999999998947 0 9.2 0.799999999999473 0 9.2 1 0 9.4 1 0 9.6 1 0 9.8 1 0 10 1 0 8 1 0 8.2 1 0 8.4 1 0 8.6 1 0 9 1 0 8.8 1 0 8.8 0.799999999999473 0 9 0.799999999999473 0 9 0.599999999998947 0 8.8 0.599999999998947 0 8.6 0.599999999998947 0 8.6 0.799999999999473 0 8.4 0.799999999999473 0 8.2 0.799999999999473 0 8 0.799999999999473 0 8 0.599999999998947 0 8.2 0.599999999998947 0 8.4 0.599999999998947 0 8.4 0.399999999998975 0 8.2 0.399999999998975 0 8 0.399999999998975 0 8 0 0 8 0.199999999999558 0 8.2 0.199999999999558 0 8.2 0 0 8.4 0.199999999999558 0 8.4 0 0 8.6 0 0 8.6 0.199999999999558 0 8.6 0.399999999998975 0 8.8 0.399999999998975 0 9 0.399999999998975 0 9 0.199999999999558 0 9 0 0 8.8 0 0 8.8 0.199999999999558 0 
</DataArray>
</Points>
<Cells>
<DataArray type="UInt32" Name="connectivity" format="ascii">
[...]
<CellData Scalars="pressure_p0," Vectors="velocity_p0," Tensors="">
<DataArray type="Float64" Name="pressure_p0" format="ascii">
-0.0934114488765594 -0.186865949004251 -0.0933595693634913 -0.186745616668288 -0.186675010906772 -0.466686435089444 -0.373425003000478 -0.466824234637353 -0.653465109051473 -0.466996079552702 -0.373563867977938 -0.653644119340352 -0.747064776005539 -1.02710149323013 -0.933686979585117 -0.746868777968121 -0.746692929567798 -1.02669631566281 -1.02689323519192 -0.933487734991458 -1.21350008883995 -1.30669798276412 -1.306906441727 -1.30712113749373 -1.21370993658006 -1.21287867188111 -1.30627858718599 -1.30649052256335 -1.21329606248526 -1.21309110199179 -1.02650118956225 -0.933108242825801 -0.933298874073923 -0.746520203900437 -0.746333192628465 -1.02629792649008 -0.932904196387214 -0.65295105570053 -0.466397840415352 -0.373037975555524 -0.653303581767009 -0.653138952786367 -0.466553582577858 -0.373192944478987 -0.37331142486477 -0.186609933339924 -0.0932834407195083 -0.0933242561576599 -0.186517817358125 -0.0932033502829063 -2.70625555255687 -2.61284860949451 -2.33285002898712 -2.42625673792052 -2.14625852995116 -2.14647917794206 -2.33307141391783 -2.42647805746161 -2.33329215373717 -2.61329175792631 -2.61307033618588 -2.70647726828066 -2.70669880148261 -2.70692034002625 -2.61351309571177 -2.70714221239171 -2.61373473709689 -2.42714157946193 -2.3337339021902 -2.14714011019521 -2.42669899529097 -2.42691997353007 -2.3335127386072 -2.1469190957428 -2.14669906267884 -2.05351194952162 -1.77351021170333 -1.86691724129394 -1.86669907404433 -2.05373216316609 -1.77372874832186 -1.86713716132672 -1.58713164788414 -1.49372223288215 -1.58669875323416 -1.58691351064323 -1.49350669767813 -1.49329437074997 -1.58648453730255 -1.49308148395874 -1.49286450988014 -1.58626781054151 -1.86626185866727 -1.77285675157922 -2.05285226889668 -2.05307307124883 -2.05329260047903 -1.77329334775107 -1.77307616187979 -1.86648113720767 -3.73306825160318 -3.82647554900538 -3.73329032150867 -3.54647574892567 -3.54625363284587 -3.73284603609042 -3.82625336130186 -4.01284575775512 -4.1062530622548 -4.10647527133462 -4.01306797854156 -4.01329015776382 -4.10669750795479 -4.10691978319286 -4.01351239741089 -4.10714203193255 -4.0137346800525 -3.82714218918507 -3.73373480421698 -3.54714228945061 -3.8266976215385 -3.82691986384538 -3.73351243657636 -3.54692002389262 -3.54669776723682 -3.45351269887666 -3.26692022738248 -3.17351291575907 -3.26669812876557 -3.45373487591327 -3.17373494595182 -3.26714228410485 -2.98714231624621 -2.89373492855072 -2.98669845854751 -2.98692028745078 -2.8935130290058 -2.89329133897904 -2.89306957866887 -2.9864766765856 -3.17329093890496 -3.26647614852889 -3.17306901872652 -3.45306848293206 -3.45329047633443 -3.45284634838212 -3.26625413511029 -3.17284695868979 -2.98625470496434 -2.89284759106717 -5.50625353368789 -5.41284607292296 -5.50647582143802 -5.41306835070239 -5.41329071394729 -5.13329048135509 -5.22647565389965 -5.13306816080194 -4.94647552623039 -5.13284581807219 -5.2262533351446 -4.94625328088883 -4.85284585160559 -4.57284564044536 -4.66625313407793 -4.85306805176119 -4.85329023972593 -4.57329011833538 -4.66647531527242 -4.57306783038254 -4.38647499903602 -4.2932898897132 -4.29306758857872 -4.2928454405992 -4.38625282002114 -4.38714197479341 -4.29373451895585 -4.29351219061818 -4.38669730580198 -4.38691968792986 -4.57351240365489 -4.66691998406329 -4.66669757992142 -4.85351267557697 -4.85373516623025 -4.57373478577386 -4.66714234161948 -4.94714272252937 -5.13373551628332 -5.22714312298754 -4.94669772271872 -4.94692034106601 -5.13351299924866 -5.22692061513336 -5.22669803228328 -5.4135132682724 -5.50692086020829 -5.50669826376182 -5.41373583222144 -5.50714332171163 -5.78714330464253 -5.69373586264329 -5.69351341280978 -5.78669842700906 -5.78692096235419 -5.97351360181493 -6.06692111253562 -6.06669865474704 -6.25351372090354 -6.25373603609275 -6.06714338814594 -5.97373594054915 -5.69284612824333 -5.78625359166869 -5.7864758950199 -5.69306839095449 -5.69329081227186 -5.97329108287093 -6.25329135803163 -6.25306911404908 -6.0664762861337 -5.97306870901638 -6.06625390454555 -6.25284674366276 -5.97284633759145 -6.53284691720799 -6.34625427028526 -6.62625434924623 -6.5330693037777 -6.62647675830932 -6.34647664979978 -6.53329156723572 -6.81329170571842 -6.9064767981325 -6.81306929123416 -6.90625430393684 -6.8128468148631 -6.53373615077718 -6.62714361751355 -6.34714349512806 -6.34692115607924 -6.34669884629946 -6.62669908031624 -6.62692132345898 -6.53351381364262 -6.81351401554506 -6.90669919603298 -6.90692150995678 -6.81373620643491 -6.90714357409522 -7.09373620329391 -7.18714342734317 -7.4671427068953 -7.37373599841002 -7.65373446715402 -7.65351378197858 -7.37351488616498 -7.46692190997087 -7.46669982750522 -7.18669944032669 -7.18692185853833 -7.09351432427498 -7.09329179726265 -7.09306938079361 -7.18647690832756 -7.09284703799412 -7.18625456756978 -7.37284737997444 -7.46625489693653 -7.65284757554583 -7.37329224893314 -7.3730697248036 -7.46647730833907 -7.65306987624011 -7.65329215470148 -7.74647733697785 -8.02647739256265 -7.93307003253289 -7.93329195627585 -7.74625503220142 -8.02625531676801 -7.93284781441422 -8.21284804958852 -8.30625551686759 -8.21329208667378 -8.21307016259707 -8.30647749908645 -8.30669940079163 -8.21351384188578 -8.30692147742883 -8.30714381323005 -8.21373596972357 -7.93373443173048 -8.02714244911066 -7.74714080273727 -7.74692026749373 -7.74669931460267 -8.02669905722458 -7.93351299362703 -8.02692038702436 -11.0128486249475 -11.1062559080198 -11.1064781192088 -11.0132930168235 -11.0130708861237 -10.7330713173114 -10.8264785830146 -10.7332933501491 -10.5464788496866 -10.5462566435871 -10.7328489505217 -10.8262562919309 -11.1071449217223 -11.0137376533177 -11.0135153028804 -11.1069226128712 -11.1067002784185 -10.8267006292627 -10.5467008911199 -10.5469232681319 -10.7335155945674 -10.826922968117 -10.7337380749399 -10.5471457048843 -10.8271454176357 -10.2671456537051 -10.4537382931003 -10.1737381843449 -10.1735159800894 -10.2669232929285 -10.4535158130622 -10.2667011727204 -9.98670137173232 -9.89351606171667 -9.98692341931206 -9.89373812315763 -9.98714557570748 -10.266256907298 -10.1728496021078 -10.4528493798656 -10.4530715022945 -10.453293577159 -10.1732939383851 -10.1730717051475 -10.2664790249952 -9.98647922418978 -9.89329403115995 -9.89307179595801 -9.98625705766652 -9.89284961165401 -9.61284929487504 -9.70625680835626 -9.70647901221399 -9.61329365846138 -9.61307152903214 -9.42647870800622 -9.33307119925315 -9.33329324166846 -9.14647823291114 -9.14625615161946 -9.33284899528041 -9.42625650162443 -9.7071455023661 -9.61373808753101 -9.61351582704647 -9.7069233168887 -9.70670116552314 -9.42670078949339 -9.14670032569097 -9.14692277768481 -9.33351560444175 -9.42692317979571 -9.3337379622009 -9.14714513058154 -9.4271454756784 -8.86714467575729 -9.05373755271509 -8.77373712034502 -8.77351461750193 -8.86692220489265 -9.05351508533912 -8.86669978570695 -8.58669953637275 -8.49351429294603 -8.58692188095139 -8.49373679739197 -8.58714441902835 -8.86625588446553 -8.77284852009548 -9.05284870215839 -9.05307069159397 -9.05329270475444 -8.77329231124395 -8.77307037011465 -8.86647772316526 -8.58647748991331 -8.49329206603523 -8.4930702222838 -8.58625576278035 -8.49284835600901 -20.7194325904429 -20.6632349668823 -20.663013178301 -20.718988835818 -20.7192106833469 -20.8230256125173 -20.8701717376693 -20.8699494352071 -20.9542000877897 -20.9544223124158 -20.8232475357828 -20.870393676196 -20.9907350020969 -21.0511746000898 -21.0746285347192 -21.1071800475427 -21.1154978043828 -21.1150527026826 -21.1152752250866 -21.106957496826 -21.0741834401686 -21.0744060645472 -21.0509521258161 -20.9905125757782 -20.9902900376209 -20.9900676242029 -21.0505072109664 -21.0739610764786 -21.0507295824775 -21.1067350036434 -21.1065125802557 -21.1148302104851 -21.1146078204092 -21.106290181792 -21.0502851950656 -21.0737388011695 -20.9898455804656 -20.9535331962439 -20.8223591612325 -20.8695050375512 -20.9537552092244 -20.9539775408378 -20.8228034221959 -20.8225810899893 -20.869727083545 -20.7187666207849 -20.6627913355633 -20.6625688920442 -20.6623466472924 -20.7185443804503 -20.4783763866471 -20.5420734988006 -20.5422960753264 -20.4788212996576 -20.4785988897052 -20.2748933421867 -20.3447512931458 -20.2751155422123 -20.1299440229899 -20.1297217403627 -20.3445288605948 -20.2746709387767 -20.0548453017614 -19.9008937272607 -19.8219636522944 -19.6607727465545 -19.5785948742342 -19.5790397944855 -19.57881721793 -19.6609948967735 -19.8224082230775 -19.9011154893806 -19.8221853066581 -20.0550672209727 -20.055290058972 -20.0555124429114 -19.9015610308665 -19.8226307657806 -19.9013386699784 -19.66121764972 -19.6614399946735 -19.5792622076534 -19.5794848087366 -19.6616624367028 -19.901783053546 -19.8228530056331 -20.0557346468985 -20.1306109067902 -20.3454174817811 -20.2755597120112 -20.1303888513212 -20.1301665453768 -20.3449733924571 -20.3451954027327 -20.2753376896935 -20.4790432150229 -20.5425183052227 -20.5427401200172 -20.5429621425865 -20.4792652059495 -18.3583587593348 -18.2677942986904 -18.2675726787228 -18.3579152516919 -18.3581369434646 -18.5381989661585 -18.6278138632419 -18.6275916792823 -18.8057201471192 -18.8059423595462 -18.5384208238684 -18.6280357982017 -18.8943240774988 -19.0694398317678 -19.1562313792929 -19.3277627844808 -19.41252059839 -19.4120753195081 -19.4122979333459 -19.3275399444934 -19.1557861811107 -19.1560087321977 -19.069217220228 -18.8941015720653 -18.8938792108855 -18.8936569229574 -19.1555638452674 -19.0687725256647 -19.0689948582506 -19.3273173066684 -19.3270948580181 -19.4118527008558 -19.4116302431874 -19.3268724057866 -19.0685502721568 -19.1553414636491 -18.8934347352813 -18.805053321935 -18.5375325542941 -18.6271472637512 -18.8052755502708 -18.8054978047755 -18.5379768865229 -18.5377545983894 -18.6273694512754 -18.3576931688817 -18.2673510585265 -18.2671286135859 -18.2669063290771 -18.3574708635036 -17.9939012660863 -18.0851915752601 -18.0854141812004 -17.9943462515889 -17.994123786722 -17.7193104928615 -17.8111512050638 -17.7195327601357 -17.5353875564865 -17.5351650654525 -17.8109287522366 -17.7190880618487 -17.4429099735738 -17.2582744680239 -17.1657096808441 -16.9805432143597 -16.8877481719264 -16.8881929081692 -16.887970430388 -16.9807655661141 -17.1661545056092 -17.2584967841552 -17.1659318307561 -17.4431323122378 -17.4433549950138 -17.4435772555284 -17.2589417801354 -17.166376857638 -17.2587195602677 -16.9809882348749 -16.9812105216123 -16.8884154563661 -16.8886379666774 -16.9814331305559 -17.2591643039987 -17.1665993814502 -17.4437996097425 -17.5360543011723 -17.8118171851013 -17.7199767528194 -17.5358323863352 -17.535610059018 -17.8113734460932 -17.7197550088577 -17.8115953046153 -17.9945680637882 -18.0856364547857 -18.085857993506 -18.0860797671464 -17.9947897335502 -15.5861516560062 -15.4928585003364 -15.4926368436833 -15.5857082527074 -15.5859298667987 -15.8654994123526 -15.7722535587841 -15.8652775605614 -16.0517126868996 -16.0519347049791 -15.772475223876 -15.8657211681579 -16.1451153078983 -16.331175231502 -16.4242650045255 -16.6101136623825 -16.7030787232964 -16.7026336037623 -16.7028561529173 -16.6098910455419 -16.4238200970862 -16.4240426259703 -16.3309529282612 -16.1448930616905 -16.1446708488438 -16.144448856264 -16.3305083199646 -16.4235978484659 -16.3307305260706 -16.6096685598081 -16.6094462114906 -16.7024112161961 -16.7021887410886 -16.6092237563368 -16.3302862556395 -16.4233755850827 -16.1442268029647 -16.0510464539594 -15.7715877326084 -15.8648335608533 -16.0512687865052 -16.0514906450407 -15.7720317974896 -15.7718097693073 -15.8650557744058 -15.5854863875018 -15.4924152950775 -15.4921930898432 -15.4919709076354 -15.5852641943377 -15.212240536864 -15.3055678044648 -15.3057901784967 -15.2126851388516 -15.2124629106547 -14.9326518507648 -15.0260031847423 -14.9328740623666 -14.7461519906251 -14.7459296400354 -15.0257808133355 -14.9324294694292 -14.6525613632459 -14.4660334388114 -14.3726533763079 -14.1861056150001 -14.0927170594327 -14.0931617227563 -14.0929393352719 -14.1863279084622 -14.373098052452 -14.4662556404775 -14.3728754743288 -14.652783595562 -14.6530061511036 -14.6532284375738 -14.4667005574284 -14.3733203574998 -14.4664783190104 -14.1865504275797 -14.1867726735876 -14.0933841033756 -14.0936066390713 -14.1869952525518 -14.4669229649275 -14.3735428207766 -14.6534507890666 -14.7468187848221 -15.0266691975237 -14.9333181665736 -14.746596704909 -14.7463743987369 -15.0262253032876 -14.9330962023678 -15.0264472185328 -15.2129068336167 -15.3060122074203 -15.3062337628256 -15.3064556202598 -15.2131286330214 -12.7871274065966 -12.6937227097304 -12.6935009445034 -12.7866837923411 -12.7869055222777 -13.0668951626262 -12.9734918530188 -13.0666732324844 -13.2534783766684 -13.253700497443 -12.9737136535726 -13.0671170850055 -13.3471022212349 -13.533680583332 -13.6270793094336 -13.8136507201495 -13.9070452106529 -13.9066001703205 -13.9068226415675 -13.8134281289644 -13.6266344077928 -13.626856884913 -13.5334582191006 -13.3468798853324 -13.3466576459987 -13.3464355678863 -13.6264122098719 -13.5330137043539 -13.5332358694626 -13.8132056907366 -13.8129834114874 -13.9063778448774 -13.90615542056 -13.8127609807269 -13.5327914964664 -13.626189939136 -13.3462134147938 -13.2528119171966 -12.9728256703778 -13.0662289932878 -13.2530342661334 -13.253256276522 -12.9732700060562 -13.0664513080109 -12.9730478293806 -12.7864617680628 -12.6932792423289 -12.6930568438674 -12.692834561469 -12.7862394083593 -12.4128400476878 -12.5062459117075 -12.5064683339324 -12.4132847898516 -12.4130624492073 -12.133065918775 -12.226472372226 -12.13328823263 -11.9464749533734 -11.9462525689692 -12.2262499448706 -12.1328435035041 -11.8528458130468 -11.6662543366747 -11.5728474073214 -11.3862553872869 -11.2928481965544 -11.2932925606515 -11.2930703736972 -11.3864775431057 -11.5732918283489 -11.6664765718986 -11.5730695796017 -11.8530680981419 -11.8532905353114 -11.8535129270528 -11.5735141463742 -11.666921292943 -11.666698904969 -11.3866997584765 -11.3869220692212 -11.2935148088457 -11.2937371837033 -11.3871444180253 -11.6671435360776 -11.5737365330977 -11.8537352164464 -11.9471418236555 -12.2271388682859 -12.133732593587 -11.9469197146146 -11.9466973976297 -12.2266946340908 -12.1335104746364 -12.2269167280183 -12.4135067288697 -12.506690557818 -12.5069123500749 -12.5071342949835 -12.4137286988274 
</DataArray>
<DataArray type="Float64" Name="velocity_p0" NumberOfComponents="3" format="ascii">