<?xml version="1.0"?>
<VTKFile type="UnstructuredGrid" version="0.1" byte_order="LittleEndian">
<UnstructuredGrid>
<Piece NumberOfPoints="486" NumberOfCells="800">
<Points>
<DataArray type="Float64" NumberOfComponents="3" format="ascii">
0 0 0 0 0.199999999999558 0 0.2 0.199999999999558 0 0.2 0 0 0 0.399999999998975 0 0.2 0.399999999998975 0 0.4 0.399999999998975 0 0.4 0.199999999999558 0 0.4 0 0 0.6 0 0 0.6 0.199999999999558 0 0.6 0.399999999998975 0 0.8 0.399999999998975 0 0.8 0 0 0.8 0.199999999999558 0 0.8 0.799999999999473 0 0.8 0.599999999998947 0 0.6 0.599999999998947 0 0.6 0.799999999999473 0 0.4 0.799999999999473 0 0.4 0.599999999998947 0 0.2 0.599999999998947 0 0 0.599999999998947 0 0.2 0.799999999999473 0 0 0.799999999999473 0 0 1 0 0.2 1 0 0.4 1 0 0.6 1 0 0.8 1 0 1 1 0 1.2 1 0 1.4 1 0 1.6 1 0 1.8 1 0 1.8 0.799999999999473 0 1.6 0.799999999999473 0 1.6 0.599999999998947 0 1.8 0.599999999998947 0 1.8 0.399999999998975 0 1.8 0.199999999999558 0 1.8 0 0 1.6 0.199999999999558 0 1.6 0 0 1.6 0.399999999998975 0 1.4 0.399999999998975 0 1.4 0 0 1.4 0.199999999999558 0 1.2 0 0 1.2 0.199999999999558 0 1 0.199999999999558 0 1 0 0 1.2 0.399999999998975 0 1 0.399999999998975 0 1 0.599999999998947 0 1.2 0.599999999998947 0 1 0.799999999999473 0 1.2 0.799999999999473 0 1.4 0.799999999999473 0 1.4 0.599999999998947 0 2.6 0.599999999998947 0 2.6 0.799999999999473 0 2.8 0.799999999999473 0 3 0.799999999999473 0 2.8 0.599999999998947 0 3 0.599999999998947 0 3 0.399999999998975 0 2.8 0.399999999998975 0 3 0 0 3 0.199999999999558 0 2.8 0.199999999999558 0 2.8 0 0 2.6 0.199999999999558 0 2.6 0 0 2.6 0.399999999998975 0 2.4 0.399999999998975 0 2.4 0 0 2.4 0.199999999999558 0 2.2 0 0 2.2 0.199999999999558 0 2 0.199999999999558 0 2 0 0 2.2 0.399999999998975 0 2 0.399999999998975 0 2 0.599999999998947 0 2.2 0.599999999998947 0 2.4 0.599999999998947 0 2.4 0.799999999999473 0 2.2 0.799999999999473 0 2 0.799999999999473 0 2 1 0 2.2 1 0 2.4 1 0 2.6 1 0 2.8 1 0 3 1 0 3.2 1 0 3.4 1 0 3.6 1 0 3.8 1 0 3.8 0.799999999999473 0 3.8 0.599999999998947 0 3.6 0.599999999998947 0 3.6 0.799999999999473 0 3.4 0.799999999999473 0 3.4 0.599999999998947 0 3.2 0.599999999998947 0 3.2 0.799999999999473 0 3.2 0.199999999999558 0 3.2 0 0 3.2 0.399999999998975 0 3.4 0.399999999998975 0 3.4 0.199999999999558 0 3.4 0 0 3.6 0 0 3.6 0.199999999999558 0 3.6 0.399999999998975 0 3.8 0.399999999998975 0 3.8 0 0 3.8 0.199999999999558 0 4 0 0 4.2 0 0 4.2 0.199999999999558 0 4 0.199999999999558 0 4 0.399999999998975 0 4.2 0.399999999998975 0 4.4 0.399999999998975 0 4.4 0.199999999999558 0 4.4 0 0 4 0.799999999999473 0 4.2 0.799999999999473 0 4 0.599999999998947 0 4.2 0.599999999998947 0 4.4 0.599999999998947 0 4.4 0.799999999999473 0 4.6 0.799999999999473 0 4.6 0.599999999998947 0 4.8 0.599999999998947 0 4.8 0.799999999999473 0 4.6 0 0 4.6 0.199999999999558 0 4.6 0.399999999998975 0 4.8 0.399999999998975 0 4.8 0.199999999999558 0 4.8 0 0 5 0 0 5 0.199999999999558 0 5.2 0.199999999999558 0 5.2 0 0 5.4 0.199999999999558 0 5.4 0 0 5.4 0.399999999998975 0 5.2 0.399999999998975 0 5 0.399999999998975 0 5 0.599999999998947 0 5.2 0.599999999998947 0 5 0.799999999999473 0 5.2 0.799999999999473 0 5.4 0.799999999999473 0 5.4 0.599999999998947 0 5.6 0.599999999998947 0 5.6 0.799999999999473 0 5.8 0.799999999999473 0 5.8 0.599999999998947 0 5.8 0.399999999998975 0 5.8 0 0 5.8 0.199999999999558 0 5.6 0 0 5.6 0.199999999999558 0 5.6 0.399999999998975 0 5.8 1 0 5.6 1 0 5.4 1 0 5.2 1 0 5 1 0 4.8 1 0 4.6 1 0 4.4 1 0 4 1 0 4.2 1 0 7.8 1 0 7.8 0.799999999999473 0 7.8 0.599999999998947 0 7.6 0.599999999998947 0 7.6 0.799999999999473 0 7.6 1 0 7.8 0 0 7.8 0.199999999999558 0 7.8 0.399999999998975 0 7.6 0.399999999998975 0 7.6 0.199999999999558 0 7.6 0 0 7.4 0 0 7.4 0.199999999999558 0 7.4 0.399999999998975 0 7.2 0.399999999998975 0 7.2 0.199999999999558 0 7.2 0 0 7.4 1 0 7.4 0.799999999999473 0 7.4 0.599999999998947 0 7.2 0.599999999998947 0 7.2 0.799999999999473 0 7.2 1 0 7 1 0 6.8 1 0 6.8 0.799999999999473 0 7 0.799999999999473 0 7 0.599999999998947 0 6.8 0.599999999998947 0 6.6 0.599999999998947 0 6.6 0.799999999999473 0 6.6 1 0 6.8 0 0 7 0 0 7 0.199999999999558 0 6.8 0.199999999999558 0 7 0.399999999998975 0 6.8 0.399999999998975 0 6.6 0.399999999998975 0 6.6 0.199999999999558 0 6.6 0 0 6.4 0 0 6.4 0.199999999999558 0 6.4 0.399999999998975 0 6.2 0.399999999998975 0 6 0.399999999998975 0 6.2 0.199999999999558 0 6 0.199999999999558 0 6 0 0 6.2 0 0 6.4 1 0 6.4 0.799999999999473 0 6.4 0.599999999998947 0 6.2 0.599999999998947 0 6 0.599999999998947 0 6 0.799999999999473 0 6.2 0.799999999999473 0 6.2 1 0 6 1 0 15.2 0.199999999999558 0 15.2 0 0 15.2 0.399999999998975 0 15.4 0.399999999998975 0 15.4 0.199999999999558 0 15.4 0 0 15.6 0 0 15.6 0.199999999999558 0 15.8 0 0 15.8 0.199999999999558 0 16 0.199999999999558 0 16 0 0 16 0.399999999998975 0 15.8 0.399999999998975 0 15.6 0.399999999998975 0 15.6 0.599999999998947 0 15.8 0.599999999998947 0 16 0.599999999998947 0 16 0.799999999999473 0 15.8 0.799999999999473 0 15.6 0.799999999999473 0 15.4 0.799999999999473 0 15.4 0.599999999998947 0 15.2 0.599999999998947 0 15.2 0.799999999999473 0 15.2 1 0 15.4 1 0 15.6 1 0 15.8 1 0 16 1 0 14.2 1 0 14.4 1 0 14.6 1 0 15 1 0 14.8 1 0 14.8 0.799999999999473 0 15 0.799999999999473 0 15 0.599999999998947 0 14.8 0.599999999998947 0 14.6 0.599999999998947 0 14.6 0.799999999999473 0 14.4 0.799999999999473 0 14.2 0.799999999999473 0 14.2 0.599999999998947 0 14.4 0.599999999998947 0 14.4 0.399999999998975 0 14.2 0.399999999998975 0 14.2 0.199999999999558 0 14.2 0 0 14.4 0.199999999999558 0 14.4 0 0 14.6 0 0 14.6 0.199999999999558 0 14.6 0.399999999998975 0 14.8 0.399999999998975 0 15 0.399999999998975 0 15 0.199999999999558 0 15 0 0 14.8 0 0 14.8 0.199999999999558 0 13.2 0.199999999999558 0 13.2 0 0 13.2 0.399999999998975 0 13.4 0.399999999998975 0 13.4 0.199999999999558 0 13.4 0 0 13.6 0 0 13.6 0.199999999999558 0 13.8 0 0 13.8 0.199999999999558 0 14 0.199999999999558 0 14 0 0 14 0.399999999998975 0 13.8 0.399999999998975 0 13.6 0.399999999998975 0 13.6 0.599999999998947 0 13.8 0.599999999998947 0 14 0.599999999998947 0 14 0.799999999999473 0 13.8 0.799999999999473 0 13.6 0.799999999999473 0 13.4 0.799999999999473 0 13.4 0.599999999998947 0 13.2 0.599999999998947 0 13.2 0.799999999999473 0 13.2 1 0 13.4 1 0 13.6 1 0 13.8 1 0 14 1 0 12.2 1 0 12.4 1 0 12.6 1 0 13 1 0 12.8 1 0 12.8 0.799999999999473 0 13 0.799999999999473 0 13 0.599999999998947 0 12.8 0.599999999998947 0 12.6 0.599999999998947 0 12.6 0.799999999999473 0 12.4 0.799999999999473 0 12.2 0.799999999999473 0 12.2 0.599999999998947 0 12.4 0.599999999998947 0 12.4 0.399999999998975 0 12.2 0.399999999998975 0 12.2 0.199999999999558 0 12.2 0 0 12.4 0.199999999999558 0 12.4 0 0 12.6 0 0 12.6 0.199999999999558 0 12.6 0.399999999998975 0 12.8 0.399999999998975 0 13 0.399999999998975 0 13 0.199999999999558 0 13 0 0 12.8 0 0 12.8 0.199999999999558 0 11.2 0.199999999999558 0 11.2 0 0 11.2 0.399999999998975 0 11.4 0.399999999998975 0 11.4 0.199999999999558 0 11.4 0 0 11.6 0 0 11.6 0.199999999999558 0 11.8 0 0 11.8 0.199999999999558 0 12 0.199999999999558 0 12 0 0 12 0.399999999998975 0 11.8 0.399999999998975 0 11.6 0.399999999998975 0 11.6 0.599999999998947 0 11.8 0.599999999998947 0 12 0.599999999998947 0 12 0.799999999999473 0 11.8 0.799999999999473 0 11.6 0.799999999999473 0 11.4 0.799999999999473 0 11.4 0.599999999998947 0 11.2 0.599999999998947 0 11.2 0.799999999999473 0 11.2 1 0 11.4 1 0 11.6 1 0 11.8 1 0 12 1 0 10.2 1 0 10.4 1 0 10.6 1 0 11 1 0 10.8 1 0 10.8 0.799999999999473 0 11 0.799999999999473 0 11 0.599999999998947 0 10.8 0.599999999998947 0 10.6 0.599999999998947 0 10.6 0.799999999999473 0 10.4 0.799999999999473 0 10.2 0.799999999999473 0 10.2 0.599999999998947 0 10.4 0.599999999998947 0 10.4 0.399999999998975 0 10.2 0.399999999998975 0 10.2 0.199999999999558 0 10.2 0 0 10.4 0.199999999999558 0 10.4 0 0 10.6 0 0 10.6 0.199999999999558 0 10.6 0.399999999998975 0 10.8 0.399999999998975 0 11 0.399999999998975 0 11 0.199999999999558 0 11 0 0 10.8 0 0 10.8 0.199999999999558 0 9.2 0.199999999999558 0 9.2 0 0 9.2 0.399999999998975 0 9.4 0.399999999998975 0 9.4 0.199999999999558 0 9.4 0 0 9.6 0 0 9.6 0.199999999999558 0 9.8 0 0 9.8 0.199999999999558 0 10 0.199999999999558 0 10 0 0 10 0.399999999998975 0 9.8 0.399999999998975 0 9.6 0.399999999998975 0 9.6 0.599999999998947 0 9.8 0.599999999998947 0 10 0.599999999998947 0 10 0.799999999999473 0 9.8 0.799999999999473 0 9.6 0.799999999999473 0 9.4 0.799999999999473 0 9.4 0.599999999998947 0 9.2 0.599999999998947 0 9.2 0.799999999999473 0 9.2 1 0 9.4 1 0 9.6 1 0 9.8 1 0 10 1 0 8 1 0 8.2 1 0 8.4 1 0 8.6 1 0 9 1 0 8.8 1 0 8.8 0.799999999999473 0 9 0.799999999999473 0 9 0.599999999998947 0 8.8 0.599999999998947 0 8.6 0.599999999998947 0 8.6 0.799999999999473 0 8.4 0.799999999999473 0 8.2 0.799999999999473 0 8 0.799999999999473 0 8 0.599999999998947 0 8.2 0.599999999998947 0 8.4 0.599999999998947 0 8.4 0.399999999998975 0 8.2 0.399999999998975 0 8 0.399999999998975 0 8 0 0 8 0.199999999999558 0 8.2 0.199999999999558 0 8.2 0 0 8.4 0.199999999999558 0 8.4 0 0 8.6 0 0 8.6 0.199999999999558 0 8.6 0.399999999998975 0 8.8 0.399999999998975 0 9 0.399999999998975 0 9 0.199999999999558 0 9 0 0 8.8 0 0 8.8 0.199999999999558 0 
</DataArray>
</Points>
<Cells>
<DataArray type="UInt32" Name="connectivity" format="ascii">
[...]
<CellData Scalars="pressure_p0," Vectors="velocity_p0," Tensors="">
<DataArray type="Float64" Name="pressure_p0" format="ascii">
-0.100078086851447 -0.200199225033508 -0.100026206769318 -0.200078892398086 -0.200008284403977 -0.500019620979656 -0.400091553877582 -0.500157424481596 -0.700131574682112 -0.500329269397696 -0.400230419701365 -0.700310588301445 -0.800397885230021 -1.10043452701743 -1.00035337017198 -0.800201883711134 -0.800026030438518 -1.10002933509279 -1.10022626248281 -1.00015411813053 -1.30016639810896 -1.40003092908655 -1.4002393977909 -1.40045409984723 -1.30037625363048 -1.29954496510902 -1.39961152165921 -1.39982345820798 -1.29996236108864 -1.29975739548858 -1.09983419985643 -0.999774613167993 -0.999965249297719 -0.799853298693238 -0.799666287602197 -1.09963093652058 -0.999570566849236 -0.699617512921465 -0.499731022155218 -0.399704519285222 -0.699970041759646 -0.699805409887159 -0.499886764057762 -0.399859489334079 -0.399977970907052 -0.199943204609968 -0.0999500762327494 -0.0999908916987116 -0.199851088415113 -0.099869985551102 -2.89958822583885 -2.79951463064399 -2.49951609064269 -2.59958945461545 -2.29959128256233 -2.29981194188429 -2.49973748126423 -2.59981078048103 -2.49995823272256 -2.79995779352582 -2.7997363603478 -2.89980994745228 -2.90003149256476 -2.90025303927192 -2.80017914101225 -2.90047491775036 -2.80040079003197 -2.60047432923246 -2.50039999732372 -2.30047290429635 -2.60003172966499 -2.60025271518342 -2.50017882540177 -2.30025188470648 -2.30003184002667 -2.20017808615298 -1.90017640129763 -2.00025008234412 -2.00003190424919 -2.20039830476991 -1.90039494180785 -2.00047000183786 -1.70046454781735 -1.60038848524579 -1.7000316366493 -1.70024640528454 -1.60017294161702 -1.59996060311795 -1.69981740812213 -1.59974770478127 -1.59953072477954 -1.69960067152682 -1.99959466091953 -1.8995229066279 -2.19951836136532 -2.19973917805529 -2.19995872245553 -1.89995952460553 -1.89974232505831 -1.99981395098529 -3.99973412093492 -4.09980807898835 -3.99995619589679 -3.79980830212706 -3.79958618033124 -3.99951189731957 -4.09958588296096 -4.29951159325565 -4.39958555686483 -4.39980777466536 -4.29973382144027 -4.29995601132784 -4.40003002644568 -4.40025231875927 -4.30017826684117 -4.4004745767844 -4.30040056382665 -4.1004747564178 -4.00040070977093 -3.80047488120056 -4.10003015696722 -4.10025241554808 -4.00017832033068 -3.80025260256339 -3.80003032538937 -3.70017861770631 -3.50025284262979 -3.40017887271716 -3.50003072851239 -3.70040080610397 -3.40040090936409 -3.50047490117559 -3.20047497278324 -3.10040093213057 -3.20003110151505 -3.20025293821754 -3.10017902534556 -3.09995732851512 -3.09973555907703 -3.19980931251432 -3.39995688390433 -3.49980873953968 -3.39973495745694 -3.69973437693932 -3.69995637400408 -3.69951223761846 -3.49958672306528 -3.39951289356633 -3.19958733254001 -3.09951356479513 -5.89958606790177 -5.7995119331728 -5.89980836914641 -5.79973422154312 -5.79995660693556 -5.49995635255897 -5.59980818375435 -5.49973401278904 -5.29980804308596 -5.4995116548849 -5.59958584929012 -5.29958578728738 -5.19951168764199 -4.89951146077347 -4.99958562848146 -5.1997338929011 -5.19995609063721 -4.89995596007389 -4.99980781567047 -4.89973365513978 -4.69980747837581 -4.5999557180133 -4.59973339853981 -4.59951124885018 -4.69958529332592 -4.70047450926455 -4.60040038352025 -4.60017803822801 -4.70002980461526 -4.7002522107785 -4.90017826322761 -5.00025252596235 -5.000030096447 -5.20017855480995 -5.20040107360703 -4.90040066586628 -5.00047490001782 -5.3004753093006 -5.50040145168343 -5.60047574212099 -5.30003025085218 -5.30025290966635 -5.50017890463199 -5.60025320709259 -5.60003058630344 -5.80017919786654 -5.90025347520672 -5.90003083997184 -5.80040179513004 -5.90047596050846 -6.2004759490629 -6.10040183421399 -6.10017935927807 -6.20003102187054 -6.20025359152003 -6.40017956913713 -6.50025375992296 -6.50003127355867 -6.70017970456269 -6.70040203497705 -6.50047604601892 -6.4004019249889 -6.09951199941894 -6.19958613736506 -6.19980845524455 -6.09973427160107 -6.09995671902426 -6.39995701649801 -6.69995731919094 -6.69973506201792 -6.4998088821251 -6.39973462012703 -6.49958648050231 -6.69951267453289 -6.39951223154222 -6.99951286833133 -6.79958688029412 -7.09958697274882 -6.99973527318063 -7.09980940367207 -6.79980927969156 -6.99995755110876 -7.29995770720648 -7.39980945414755 -7.29973526750453 -7.39958693218849 -7.29951276656877 -7.00040216543202 -7.10047630685483 -6.80047616826595 -6.80025381446022 -6.80003148672827 -7.10003174510157 -7.10025400126836 -7.00017981166174 -7.30018003542284 -7.4000318767692 -7.40025420843395 -7.30040223246596 -7.40047626762832 -7.6004022361534 -7.70047611736438 -8.0004753526119 -7.90040202343154 -8.20040039066103 -8.20017980694698 -7.90018098194558 -8.00025465060805 -8.00003256799576 -7.70003214599604 -7.70025458875051 -7.60018037333482 -7.59995781303991 -7.59973537143955 -7.699809580195 -7.59951301378409 -7.69958722280439 -7.89951338866834 -7.99958758416436 -8.19951360672703 -7.89995830441175 -7.89973574819728 -7.99981001673901 -8.19973591870556 -8.199958211168 -8.29981005562862 -8.59981012359983 -8.49973609455997 -8.49995800692088 -8.29958773750854 -8.5995880508365 -8.49951387089784 -8.79951413166735 -8.89958827361611 -8.7999581551763 -8.79973624229518 -8.89981024595932 -8.90003213580199 -8.80017988811108 -8.90025421232772 -8.90047656166523 -8.80040201659882 -8.50040036068618 -8.60047509181996 -8.30047332084655 -8.30025289929843 -8.30003202637683 -8.6000317591008 -8.50017897076989 -8.60025303567594 -11.7995139202584 -11.8995877240722 -11.8998099425593 -11.7999583255375 -11.799736190329 -11.4997369679064 -11.599810801144 -11.4999589983998 -11.2998113274042 -11.29958911452 -11.4995145846215 -11.5995884969646 -11.9004767841193 -11.8004029959197 -11.800180627969 -11.9002544627584 -11.9000321090273 -11.600032846689 -11.3000333677114 -11.3002557667414 -11.500181256092 -11.6002552048377 -11.5004037630322 -11.3004782248651 -11.600477676822 -11.0004783274899 -11.2004042056359 -10.9004042250287 -10.9001820141196 -11.000255950803 -11.2001816991935 -11.0000338268569 -10.7000341409379 -10.6001821873801 -10.7002561867766 -10.6004042451239 -10.7004783442764 -10.9995895549896 -10.8995156286186 -11.1995152540546 -11.1997373754104 -11.1999594505087 -10.8999599737077 -10.8997377290414 -10.9998116731158 -10.6998119873097 -10.5999601590534 -10.5997379122202 -10.6995898169596 -10.5995157247654 -10.2995154365628 -10.3995896112716 -10.3998118215905 -10.2999598109665 -10.2997376773745 -10.0998115300349 -9.99973735153976 -9.99995939191061 -9.79981103751175 -9.79958895858747 -9.99951514323963 -10.0995893171514 -10.400478327261 -10.3004042583424 -10.3001819873664 -10.4002561385751 -10.4000339815792 -10.1000336131423 -9.80003313257607 -9.80025561190684 -10.0001817764824 -10.1002560264305 -10.0004041519299 -9.80047798006915 -10.1004783336214 -9.50047749688291 -9.70040372471854 -9.40040326260866 -9.40018073209728 -9.50025500257078 -9.70018123209104 -9.50003255859563 -9.20003228824768 -9.10018037937004 -9.20025465202363 -9.10040291120581 -9.20047721808635 -9.49958867694371 -9.39951464756635 -9.69951484103096 -9.69973681963683 -9.69995882858449 -9.39995840848178 -9.39973647674061 -9.49981049601955 -9.19981024305196 -9.09995814097887 -9.09973631371197 -9.19958854364582 -9.09951446725946 -22.1649273123787 -22.106032125273 -22.1058103581276 -22.1644835870779 -22.164705420405 -22.2733700255293 -22.3226545549184 -22.3224322340212 -22.4103819140223 -22.4106041482916 -22.2735919377062 -22.3228764813753 -22.4484665980219 -22.5114024634714 -22.5357953917169 -22.5696042746951 -22.5782365786068 -22.5777914101111 -22.5780139666693 -22.5693816911298 -22.5353502313311 -22.535572896681 -22.5111799618846 -22.4482441501497 -22.4480215771251 -22.447799136154 -22.51073498722 -22.5351278438013 -22.5109573823726 -22.5691591650727 -22.5689367144521 -22.5775688849465 -22.5773464737042 -22.5687142965512 -22.5105129782421 -22.5349055550527 -22.4475770950897 -22.4097149724227 -22.2727035555607 -22.3219878160574 -22.4099369780079 -22.4101593306999 -22.2731478242572 -22.2729254712267 -22.3222098595918 -22.1642613591813 -22.1055885291365 -22.1053660572384 -22.1051438038103 -22.1640391080074 -21.9120177052894 -21.9789359784012 -21.9791585885655 -21.9124626699535 -21.9122402346751 -21.6978869264409 -21.7714494096731 -21.6981091370452 -21.5450699604676 -21.5448476650315 -21.7712269536164 -21.6976645037593 -21.4658266226322 -21.3031717467212 -21.2197018229984 -21.0490622585981 -20.9619941781933 -20.962439149572 -20.9622165362928 -21.049284411929 -21.2201464209408 -21.3033934848216 -21.2199234434741 -21.466048526875 -21.4662714202518 -21.4664938289512 -21.3038391291666 -21.2203689995399 -21.3036167460852 -21.0495072151043 -21.0497295811272 -20.9626615892724 -20.9628842258109 -21.049952045017 -21.304061144035 -21.2205912491772 -21.4667160403599 -21.5457368918221 -21.7721155977843 -21.6985533102744 -21.5455148413297 -21.5452925168907 -21.7716715132543 -21.7718935216798 -21.6983312925591 -21.9126845775948 -21.979380832581 -21.9796026317019 -21.9798246472375 -21.9129065618829 -19.6640799468378 -19.567477861861 -19.5672562768771 -19.6636364891523 -19.6638581539253 -19.8558487203548 -19.9513421272503 -19.9511199352041 -20.1408286421488 -20.1410508623069 -19.8560705601978 -19.9515640480741 -20.2351203413731 -20.4214009323366 -20.5136541075567 -20.6958606638975 -20.7858152088676 -20.7853698522458 -20.7855925058829 -20.6956377713981 -20.5132088375627 -20.5134314237403 -20.4211782846039 -20.2348978095676 -20.2346754268664 -20.2344531223354 -20.5129864813797 -20.4207335484336 -20.4209559002359 -20.6954150915582 -20.6951926153337 -20.7851471931741 -20.7849247108025 -20.6949701408661 -20.4205112866005 -20.5127640802177 -20.2342309289751 -20.1401617767362 -19.8551822988235 -19.9506755025249 -20.1403840115088 -20.1406062791871 -19.8556266394751 -19.8554043361239 -19.9508976954411 -19.6634144050333 -19.5670346881397 -19.5668122169872 -19.5665899222002 -19.6631920860683 -19.2751986008751 -19.3726578189752 -19.3728804598356 -19.2756436414199 -19.2754211486291 -18.9818775630769 -19.0799943309699 -18.982099845014 -18.7853081087237 -18.7850855902673 -19.0797718536499 -18.9816551111176 -18.6864678936797 -18.4890313885859 -18.390034776744 -18.1919443758831 -18.0926626480472 -18.093107422329 -18.0928849148752 -18.1921667449161 -18.3904796463322 -18.4892537196545 -18.3902569275807 -18.6866902468002 -18.6869129739304 -18.6871352497691 -18.4896987793724 -18.3907020204532 -18.4894765477699 -18.192389457921 -18.1926117614339 -18.0933300065565 -18.0935525459792 -18.1928344041557 -18.4899213307337 -18.3909245740835 -18.6873576215105 -18.7859748889523 -19.0806602912791 -18.9825438257225 -18.785752990023 -18.7855306435457 -19.0802165853469 -18.98232210781 -19.0804384291331 -19.2758654358545 -19.3731027483534 -19.3733242490826 -19.3735459965778 -19.2760870740715 -16.6990675404954 -16.5991504611578 -16.5989288374006 -16.6986241955443 -16.6988457765104 -16.9982588206468 -16.8984040614784 -16.9980369846735 -17.1976723882839 -17.1978943997535 -16.8986256946462 -16.9984805492459 -17.2976641539963 -17.4968793265778 -17.5965323885938 -17.7954776388944 -17.8949724638159 -17.8945272776213 -17.8947498619636 -17.795254985105 -17.5960874301889 -17.5963099922319 -17.4966570090963 -17.2974418999956 -17.2972196768504 -17.2969976888061 -17.4962123660832 -17.5958651677013 -17.4964345822242 -17.7950324682709 -17.7948100995878 -17.8943048660213 -17.8940823648867 -17.7945876218256 -17.4959903068271 -17.595642893186 -17.29677563945 -17.1970061577719 -16.8977382677345 -16.997592997566 -17.1972285040464 -17.1974503476604 -16.8981823219313 -16.8979602970609 -16.9978152182846 -16.6984023447296 -16.5987073258757 -16.598485111438 -16.5982629262583 -16.6981801459839 -16.2986367599362 -16.3985992855518 -16.3988216781286 -16.2990813897396 -16.2988591504143 -15.9991243718562 -16.0991194263675 -15.9993465938326 -15.7993300190641 -15.7991076511282 -16.0988970364439 -15.9989019732729 -15.6990893798031 -15.4992562565128 -15.3992215808798 -15.1993607452829 -15.0993141753212 -15.099758871382 -15.0995364607546 -15.199583051844 -15.3996662910201 -15.4994784649223 -15.3994436760999 -15.6993116189625 -15.6995342096154 -15.699756512793 -15.4999234393407 -15.3998886145151 -15.499701188245 -15.1998056044419 -15.200027864092 -15.0999812760219 -15.1002038424856 -15.2002504746342 -15.5001458660877 -15.4001111031886 -15.6999788814348 -15.7999968513917 -16.0997854208996 -15.9997906932938 -15.7997747759244 -15.799552452488 -16.0993415493344 -15.9995687399245 -16.0995634534655 -16.2993030582999 -16.3990437046615 -16.3992652228843 -16.3994870598951 -16.299524835064 -13.7004478781316 -13.6003780289834 -13.6001562884371 -13.7000043063246 -13.7002260119212 -14.0002099024475 -13.900142098695 -13.9999879820362 -14.2001213340324 -14.2003434556944 -13.9003638773675 -14.0004318097061 -14.300408774825 -14.5003131782468 -14.6003741986691 -14.8002686195727 -14.9003236027208 -14.8998785014506 -14.9001010022564 -14.8000459932638 -14.599929246315 -14.6001517530206 -14.5000907953473 -14.3001864246121 -14.2999641728715 -14.2997420927499 -14.5997070379861 -14.4996462520473 -14.4998684245784 -14.7998235273814 -14.7996012326509 -14.8996561564929 -14.8994337096515 -14.7993787808674 -14.4994240388835 -14.5994847554013 -14.2995199361371 -14.1994548595662 -13.8994759214149 -13.99954373721 -14.1996772238169 -14.1998992306157 -13.8999202668114 -13.9997660669032 -13.8996980821722 -13.6997822844222 -13.5999346118186 -13.5997121896605 -13.5994898967899 -13.6995599067247 -13.2994988848062 -13.399570384167 -13.3997928287132 -13.299943665431 -13.2997213052531 -12.999727183465 -13.0997995990409 -12.9999495151124 -12.7998040557215 -12.7995816514668 -13.0995771488738 -12.9995047482225 -12.6995087149486 -12.4995847081452 -12.3995114467865 -12.1995866277235 -12.099512989678 -12.0999573652508 -12.099735169727 -12.1998087869141 -12.3999558835983 -12.4998069525236 -12.3997336216076 -12.6997310108388 -12.6999534746046 -12.7001758905541 -12.4001782206063 -12.5002517167656 -12.5000293056604 -12.200031013793 -12.2002533421533 -12.1001796273258 -12.100402021359 -12.2004757061965 -12.5004739675924 -12.4004006272451 -12.700398192976 -12.8004709701961 -13.1004661125073 -13.0003938905212 -12.8002488629228 -12.8000265278255 -13.1000218756562 -13.0001717705424 -13.1002439718393 -13.3001655962523 -13.4000150646883 -13.4002368374217 -13.4004587687156 -13.3003875565318 
</DataArray>
<DataArray type="Float64" Name="velocity_p0" NumberOfComponents="3" format="ascii">