<?xml version="1.0"?>
<VTKFile type="UnstructuredGrid" version="0.1" byte_order="LittleEndian">
<UnstructuredGrid>
<Piece NumberOfPoints="486" NumberOfCells="800">
<Points>
<DataArray type="Float64" NumberOfComponents="3" format="ascii">
0 0 0 0 0.199999999999558 0 0.2 0.199999999999558 0 0.2 0 0 0 0.399999999998975 0 0.2 0.399999999998975 0 0.4 0.399999999998975 0 0.4 0.199999999999558 0 0.4 0 0 0.6 0 0 0.6 0.199999999999558 0 0.6 0.399999999998975 0 0.8 0.399999999998975 0 0.8 0 0 0.8 0.199999999999558 0 0.8 0.799999999999473 0 0.8 0.599999999998947 0 0.6 0.599999999998947 0 0.6 0.799999999999473 0 0.4 0.799999999999473 0 0.4 0.599999999998947 0 0.2 0.599999999998947 0 0 0.599999999998947 0 0.2 0.799999999999473 0 0 0.799999999999473 0 0 1 0 0.2 1 0 0.4 1 0 0.6 1 0 0.8 1 0 1 1 0 1.2 1 0 1.4 1 0 1.6 1 0 1.8 1 0 1.8 0.799999999999473 0 1.6 0.799999999999473 0 1.6 0.599999999998947 0 1.8 0.599999999998947 0 1.8 0.399999999998975 0 1.8 0.199999999999558 0 1.8 0 0 1.6 0.199999999999558 0 1.6 0 0 1.6 0.399999999998975 0 1.4 0.399999999998975 0 1.4 0 0 1.4 0.199999999999558 0 1.2 0 0 1.2 0.199999999999558 0 1 0.199999999999558 0 1 0 0 1.2 0.399999999998975 0 1 0.399999999998975 0 1 0.599999999998947 0 1.2 0.599999999998947 0 1 0.799999999999473 0 1.2 0.799999999999473 0 1.4 0.799999999999473 0 1.4 0.599999999998947 0 2.6 0.599999999998947 0 2.6 0.799999999999473 0 2.8 0.799999999999473 0 3 0.799999999999473 0 2.8 0.599999999998947 0 3 0.599999999998947 0 3 0.399999999998975 0 2.8 0.399999999998975 0 3 0 0 3 0.199999999999558 0 2.8 0.199999999999558 0 2.8 0 0 2.6 0.199999999999558 0 2.6 0 0 2.6 0.399999999998975 0 2.4 0.399999999998975 0 2.4 0 0 2.4 0.199999999999558 0 2.2 0 0 2.2 0.199999999999558 0 2 0.199999999999558 0 2 0 0 2.2 0.399999999998975 0 2 0.399999999998975 0 2 0.599999999998947 0 2.2 0.599999999998947 0 2.4 0.599999999998947 0 2.4 0.799999999999473 0 2.2 0.799999999999473 0 2 0.799999999999473 0 2 1 0 2.2 1 0 2.4 1 0 2.6 1 0 2.8 1 0 3 1 0 3.2 1 0 3.4 1 0 3.6 1 0 3.8 1 0 3.8 0.799999999999473 0 3.8 0.599999999998947 0 3.6 0.599999999998947 0 3.6 0.799999999999473 0 3.4 0.799999999999473 0 3.4 0.599999999998947 0 3.2 0.599999999998947 0 3.2 0.799999999999473 0 3.2 0.199999999999558 0 3.2 0 0 3.2 0.399999999998975 0 3.4 0.399999999998975 0 3.4 0.199999999999558 0 3.4 0 0 3.6 0 0 3.6 0.199999999999558 0 3.6 0.399999999998975 0 3.8 0.399999999998975 0 3.8 0 0 3.8 0.199999999999558 0 4 0 0 4.2 0 0 4.2 0.199999999999558 0 4 0.199999999999558 0 4 0.399999999998975 0 4.2 0.399999999998975 0 4.4 0.399999999998975 0 4.4 0.199999999999558 0 4.4 0 0 4 0.799999999999473 0 4.2 0.799999999999473 0 4 0.599999999998947 0 4.2 0.599999999998947 0 4.4 0.599999999998947 0 4.4 0.799999999999473 0 4.6 0.799999999999473 0 4.6 0.599999999998947 0 4.8 0.599999999998947 0 4.8 0.799999999999473 0 4.6 0 0 4.6 0.199999999999558 0 4.6 0.399999999998975 0 4.8 0.399999999998975 0 4.8 0.199999999999558 0 4.8 0 0 5 0 0 5 0.199999999999558 0 5.2 0.199999999999558 0 5.2 0 0 5.4 0.199999999999558 0 5.4 0 0 5.4 0.399999999998975 0 5.2 0.399999999998975 0 5 0.399999999998975 0 5 0.599999999998947 0 5.2 0.599999999998947 0 5 0.799999999999473 0 5.2 0.799999999999473 0 5.4 0.799999999999473 0 5.4 0.599999999998947 0 5.6 0.599999999998947 0 5.6 0.799999999999473 0 5.8 0.799999999999473 0 5.8 0.599999999998947 0 5.8 0.399999999998975 0 5.8 0 0 5.8 0.199999999999558 0 5.6 0 0 5.6 0.199999999999558 0 5.6 0.399999999998975 0 5.8 1 0 5.6 1 0 5.4 1 0 5.2 1 0 5 1 0 4.8 1 0 4.6 1 0 4.4 1 0 4 1 0 4.2 1 0 7.8 1 0 7.8 0.799999999999473 0 7.8 0.599999999998947 0 7.6 0.599999999998947 0 7.6 0.799999999999473 0 7.6 1 0 7.8 0 0 7.8 0.199999999999558 0 7.8 0.399999999998975 0 7.6 0.399999999998975 0 7.6 0.199999999999558 0 7.6 0 0 7.4 0 0 7.4 0.199999999999558 0 7.4 0.399999999998975 0 7.2 0.399999999998975 0 7.2 0.199999999999558 0 7.2 0 0 7.4 1 0 7.4 0.799999999999473 0 7.4 0.599999999998947 0 7.2 0.599999999998947 0 7.2 0.799999999999473 0 7.2 1 0 7 1 0 6.8 1 0 6.8 0.799999999999473 0 7 0.799999999999473 0 7 0.599999999998947 0 6.8 0.599999999998947 0 6.6 0.599999999998947 0 6.6 0.799999999999473 0 6.6 1 0 6.8 0 0 7 0 0 7 0.199999999999558 0 6.8 0.199999999999558 0 7 0.399999999998975 0 6.8 0.399999999998975 0 6.6 0.399999999998975 0 6.6 0.199999999999558 0 6.6 0 0 6.4 0 0 6.4 0.199999999999558 0 6.4 0.399999999998975 0 6.2 0.399999999998975 0 6 0.399999999998975 0 6.2 0.199999999999558 0 6 0.199999999999558 0 6 0 0 6.2 0 0 6.4 1 0 6.4 0.799999999999473 0 6.4 0.599999999998947 0 6.2 0.599999999998947 0 6 0.599999999998947 0 6 0.799999999999473 0 6.2 0.799999999999473 0 6.2 1 0 6 1 0 15.2 0.199999999999558 0 15.2 0 0 15.2 0.399999999998975 0 15.4 0.399999999998975 0 15.4 0.199999999999558 0 15.4 0 0 15.6 0 0 15.6 0.199999999999558 0 15.8 0 0 15.8 0.199999999999558 0 16 0.199999999999558 0 16 0 0 16 0.399999999998975 0 15.8 0.399999999998975 0 15.6 0.399999999998975 0 15.6 0.599999999998947 0 15.8 0.599999999998947 0 16 0.599999999998947 0 16 0.799999999999473 0 15.8 0.799999999999473 0 15.6 0.799999999999473 0 15.4 0.799999999999473 0 15.4 0.599999999998947 0 15.2 0.599999999998947 0 15.2 0.799999999999473 0 15.2 1 0 15.4 1 0 15.6 1 0 15.8 1 0 16 1 0 14.2 1 0 14.4 1 0 14.6 1 0 15 1 0 14.8 1 0 14.8 0.799999999999473 0 15 0.799999999999473 0 15 0.599999999998947 0 14.8 0.599999999998947 0 14.6 0.599999999998947 0 14.6 0.799999999999473 0 14.4 0.799999999999473 0 14.2 0.799999999999473 0 14.2 0.599999999998947 0 14.4 0.599999999998947 0 14.4 0.399999999998975 0 14.2 0.399999999998975 0 14.2 0.199999999999558 0 14.2 0 0 14.4 0.199999999999558 0 14.4 0 0 14.6 0 0 14.6 0.199999999999558 0 14.6 0.399999999998975 0 14.8 0.399999999998975 0 15 0.399999999998975 0 15 0.199999999999558 0 15 0 0 14.8 0 0 14.8 0.199999999999558 0 13.2 0.199999999999558 0 13.2 0 0 13.2 0.399999999998975 0 13.4 0.399999999998975 0 13.4 0.199999999999558 0 13.4 0 0 13.6 0 0 13.6 0.199999999999558 0 13.8 0 0 13.8 0.199999999999558 0 14 0.199999999999558 0 14 0 0 14 0.399999999998975 0 13.8 0.399999999998975 0 13.6 0.399999999998975 0 13.6 0.599999999998947 0 13.8 0.599999999998947 0 14 0.599999999998947 0 14 0.799999999999473 0 13.8 0.799999999999473 0 13.6 0.799999999999473 0 13.4 0.799999999999473 0 13.4 0.599999999998947 0 13.2 0.599999999998947 0 13.2 0.799999999999473 0 13.2 1 0 13.4 1 0 13.6 1 0 13.8 1 0 14 1 0 12.2 1 0 12.4 1 0 12.6 1 0 13 1 0 12.8 1 0 12.8 0.799999999999473 0 13 0.799999999999473 0 13 0.599999999998947 0 12.8 0.599999999998947 0 12.6 0.599999999998947 0 12.6 0.799999999999473 0 12.4 0.799999999999473 0 12.2 0.799999999999473 0 12.2 0.599999999998947 0 12.4 0.599999999998947 0 12.4 0.399999999998975 0 12.2 0.399999999998975 0 12.2 0.199999999999558 0 12.2 0 0 12.4 0.199999999999558 0 12.4 0 0 12.6 0 0 12.6 0.199999999999558 0 12.6 0.399999999998975 0 12.8 0.399999999998975 0 13 0.399999999998975 0 13 0.199999999999558 0 13 0 0 12.8 0 0 12.8 0.199999999999558 0 11.2 0.199999999999558 0 11.2 0 0 11.2 0.399999999998975 0 11.4 0.399999999998975 0 11.4 0.199999999999558 0 11.4 0 0 11.6 0 0 11.6 0.199999999999558 0 11.8 0 0 11.8 0.199999999999558 0 12 0.199999999999558 0 12 0 0 12 0.399999999998975 0 11.8 0.399999999998975 0 11.6 0.399999999998975 0 11.6 0.599999999998947 0 11.8 0.599999999998947 0 12 0.599999999998947 0 12 0.799999999999473 0 11.8 0.799999999999473 0 11.6 0.799999999999473 0 11.4 0.799999999999473 0 11.4 0.599999999998947 0 11.2 0.599999999998947 0 11.2 0.799999999999473 0 11.2 1 0 11.4 1 0 11.6 1 0 11.8 1 0 12 1 0 10.2 1 0 10.4 1 0 10.6 1 0 11 1 0 10.8 1 0 10.8 0.799999999999473 0 11 0.799999999999473 0 11 0.599999999998947 0 10.8 0.599999999998947 0 10.6 0.599999999998947 0 10.6 0.799999999999473 0 10.4 0.799999999999473 0 10.2 0.799999999999473 0 10.2 0.599999999998947 0 10.4 0.599999999998947 0 10.4 0.399999999998975 0 10.2 0.399999999998975 0 10.2 0.199999999999558 0 10.2 0 0 10.4 0.199999999999558 0 10.4 0 0 10.6 0 0 10.6 0.199999999999558 0 10.6 0.399999999998975 0 10.8 0.399999999998975 0 11 0.399999999998975 0 11 0.199999999999558 0 11 0 0 10.8 0 0 10.8 0.199999999999558 0 9.2 0.199999999999558 0 9.2 0 0 9.2 0.399999999998975 0 9.4 0.399999999998975 0 9.4 0.199999999999558 0 9.4 0 0 9.6 0 0 9.6 0.199999999999558 0 9.8 0 0 9.8 0.199999999999558 0 10 0.199999999999558 0 10 0 0 10 0.399999999998975 0 9.8 0.399999999998975 0 9.6 0.399999999998975 0 9.6 0.599999999998947 0 9.8 0.599999999998947 0 10 0.599999999998947 0 10 0.799999999999473 0 9.8 0.799999999999473 0 9.6 0.799999999999473 0 9.4 0.799999999999473 0 9.4 0.599999999998947 0 9.2 0.599999999998947 0 9.2 0.799999999999473 0 9.2 1 0 9.4 1 0 9.6 1 0 9.8 1 0 10 1 0 8 1 0 8.2 1 0 8.4 1 0 8.6 1 0 9 1 0 8.8 1 0 8.8 0.799999999999473 0 9 0.799999999999473 0 9 0.599999999998947 0 8.8 0.599999999998947 0 8.6 0.599999999998947 0 8.6 0.799999999999473 0 8.4 0.799999999999473 0 8.2 0.799999999999473 0 8 0.799999999999473 0 8 0.599999999998947 0 8.2 0.599999999998947 0 8.4 0.599999999998947 0 8.4 0.399999999998975 0 8.2 0.399999999998975 0 8 0.399999999998975 0 8 0 0 8 0.199999999999558 0 8.2 0.199999999999558 0 8.2 0 0 8.4 0.199999999999558 0 8.4 0 0 8.6 0 0 8.6 0.199999999999558 0 8.6 0.399999999998975 0 8.8 0.399999999998975 0 9 0.399999999998975 0 9 0.199999999999558 0 9 0 0 8.8 0 0 8.8 0.199999999999558 0 
</DataArray>
</Points>
<Cells>
<DataArray type="UInt32" Name="connectivity" format="ascii">
[...]
<CellData Scalars="pressure_p0," Vectors="velocity_p0," Tensors="">
<DataArray type="Float64" Name="pressure_p0" format="ascii">
-0.0200739921469748 -0.0401901462732996 -0.0200242557711305 -0.0400730370330648 -0.0400080344228334 -0.100018701164596 -0.0800833196162822 -0.100143343926704 -0.140118089211495 -0.10030779731813 -0.0802142351462559 -0.14028423974873 -0.160366361422833 -0.220395566076271 -0.200319285968517 -0.160181181527121 -0.160024659149578 -0.220027761911267 -0.220200694304211 -0.200136697581278 -0.260146235839265 -0.28002932408873 -0.280210512457157 -0.280410041848727 -0.260336733308287 -0.259593491900908 -0.279658932646025 -0.279850946385764 -0.259970250431737 -0.259791467708226 -0.219858202197256 -0.199803712110619 -0.19997188915346 -0.15987250534071 -0.159699583550894 -0.219672446512446 -0.199612047685121 -0.139649341019042 -0.0997536064796992 -0.0797240595704889 -0.139975091500389 -0.139827729125342 -0.0998998070187802 -0.079873228839521 -0.079981143895565 -0.0399488360208533 -0.0199537666109092 -0.0199919105675283 -0.0398606938967034 -0.0198750640648167 -0.579646285941789 -0.559576065558498 -0.499576567205337 -0.519646659920984 -0.459647394935133 -0.45984469720614 -0.499780150853645 -0.519844291297379 -0.499968732154034 -0.55996867807125 -0.55977980443914 -0.579844079920922 -0.580030767053842 -0.580219694673428 -0.560155294265686 -0.580423482765044 -0.560353054744398 -0.520423114221272 -0.500352588019814 -0.460422310313224 -0.520030737567987 -0.520219439760645 -0.50015503280775 -0.460218898791285 -0.460030648962546 -0.440154497757811 -0.380153363340978 -0.400217758887694 -0.400030480396692 -0.440351607212519 -0.380349564764177 -0.400420623448352 -0.340417164206729 -0.320345351771852 -0.340030097675949 -0.340215377204125 -0.320151006038889 -0.319969430774063 -0.339847335507391 -0.319785334392205 -0.319584290186789 -0.339652241052433 -0.399648975064315 -0.37957979382583 -0.439577574918689 -0.43978084083589 -0.439968821366994 -0.379969032259227 -0.379782324402674 -0.399845559686095 -0.79977942087117 -0.819843815596918 -0.799968523409868 -0.759843829694383 -0.759645904346621 -0.79957552545233 -0.819645874789475 -0.85957548998305 -0.879645831788396 -0.879843775757283 -0.859779385603321 -0.859968510137945 -0.88003067683958 -0.880219820053874 -0.86015541202525 -0.880423719677663 -0.860353370569454 -0.82042373843164 -0.800353377780465 -0.760423731914357 -0.820030683190785 -0.820219821431599 -0.800155399891855 -0.760219827576033 -0.760030686096342 -0.740155423762576 -0.700219829194919 -0.680155424097222 -0.700030725511079 -0.740353359998295 -0.680353324525372 -0.700423686494959 -0.640423624641213 -0.620353239892859 -0.640030749182052 -0.640219780441307 -0.620155382518986 -0.619968628282514 -0.619779622537709 -0.639843963925384 -0.679968585004024 -0.699843881344066 -0.67977952274342 -0.739779439553798 -0.739968524837272 -0.73957556235942 -0.69964598131004 -0.679575665720099 -0.639646083649585 -0.619575793782813 -1.17964588017419 -1.15957552039012 -1.17984383440198 -1.15977942307675 -1.15996857738782 -1.09996855252525 -1.11984382369765 -1.09977940625992 -1.05984381775526 -1.09957548886546 -1.11964586218603 -1.05964587025934 -1.03957551368225 -0.979575479571758 -0.999645852796979 -1.03977940170185 -1.03996852178585 -0.979968510157493 -0.999843787955532 -0.979779366603347 -0.939843726244891 -0.919968464170523 -0.919779315772752 -0.919575436824312 -0.939645790141233 -0.940423709227764 -0.920353342711868 -0.920155376263208 -0.940030639581226 -0.940219802933021 -0.98015541621607 -1.00021985565546 -1.00003069026048 -1.04015545773518 -1.04035345489231 -0.980353392233702 -1.00042377559918 -1.06042383537647 -1.1003535047618 -1.12042389492847 -1.06003070298635 -1.06021991189602 -1.10015550360155 -1.12021994539083 -1.12003074591516 -1.16015553547638 -1.1802199718016 -1.18003076977225 -1.16035354618305 -1.18042391152059 -1.24042388333282 -1.22035352745527 -1.22015554049416 -1.24003077841558 -1.24021996832811 -1.28015555590513 -1.30021997659488 -1.30003080102614 -1.34015555807374 -1.34035351964907 -1.30042387837263 -1.28035352048786 -1.21957550612296 -1.23964586570065 -1.23984382319438 -1.21977940544024 -1.21996857217117 -1.27996860310399 -1.3399686364555 -1.33977950489307 -1.29984387896502 -1.27977944531187 -1.299645904234 -1.33957558218751 -1.2795755225767 -1.39957559617941 -1.35964595626416 -1.41964595145642 -1.39977952246455 -1.41984393334258 -1.35984393112114 -1.39996865943042 -1.45996867075256 -1.47984392362042 -1.45977950087078 -1.47964592249037 -1.45957555480738 -1.40035352624736 -1.42042389135414 -1.3604238812404 -1.36021996407364 -1.36003081800912 -1.42003084823965 -1.42021998230683 -1.40015555799242 -1.46015558523242 -1.4800308560437 -1.4802200082457 -1.46035352471821 -1.48042387109502 -1.52035351635477 -1.54042383525269 -1.60042368295202 -1.5803534719516 -1.64035314615737 -1.64015551201023 -1.58015575260906 -1.60022008252734 -1.60003096613974 -1.54003089400215 -1.54022007402803 -1.52015563904925 -1.51996867402122 -1.51977950147605 -1.53984392926417 -1.519575582426 -1.53964595882468 -1.57957563387875 -1.59964600789959 -1.63957565417376 -1.57996875653518 -1.57977955574724 -1.59984399724116 -1.63977956963208 -1.63996872473448 -1.65984398623074 -1.71984397537728 -1.69977958125355 -1.69996866440994 -1.65964601565379 -1.71964605134781 -1.69957568189171 -1.75957570140735 -1.77964606213194 -1.75996866281571 -1.75977958047689 -1.77984396690769 -1.78003080913928 -1.76015547535331 -1.78021992236807 -1.78042384774649 -1.76035341142679 -1.70035312168645 -1.72042360167883 -1.66042327327059 -1.66021972673909 -1.66003084665375 -1.7200307707318 -1.70015532783325 -1.72021972992708 -2.35957574609165 -2.3796461126187 -2.37984405662338 -2.35996876319427 -2.35977964950041 -2.29977966829293 -2.31984406745469 -2.29996876138494 -2.25984407412699 -2.25964612971232 -2.29957574218524 -2.31964610633489 -2.38042400764604 -2.3603536452211 -2.36015567396043 -2.38022009609137 -2.38003094116487 -2.32003092833506 -2.26003093496393 -2.2602201008654 -2.3001556642415 -2.3202200853895 -2.30035366395884 -2.26042404071326 -2.32042402711571 -2.20042400877237 -2.2403536726868 -2.18035363538722 -2.18015569186617 -2.20022008401282 -2.24015567190254 -2.20003097168647 -2.14003100988624 -2.12015571241254 -2.1402201086311 -2.12035362656882 -2.14042399128214 -2.19964615996685 -2.17957581975824 -2.23957579129709 -2.23977966624531 -2.23996877027921 -2.1799688298477 -2.17977969133304 -2.19984408610852 -2.13984412433248 -2.11996885188437 -2.11977971299889 -2.13964618741458 -2.11957582405417 -2.05957577709331 -2.07964614937384 -2.07984409431471 -2.05996879308025 -2.05977967691729 -2.01984405996899 -1.99977964062927 -1.99996873871164 -1.95984399826825 -1.95964607756883 -1.9995757460391 -2.01964611358799 -2.08042398985403 -2.06035363801487 -2.06015568181786 -2.08022010114494 -2.08003098050402 -2.02003093063441 -1.96003087258282 -1.96022005531256 -2.00015566783274 -2.02022010029198 -2.00035364306073 -1.96042397820747 -2.02042401116418 -1.90042392925133 -1.94035359959547 -1.88035355670995 -1.8801555489853 -1.90021998032839 -1.94015560045653 -1.90003080295106 -1.8400307958716 -1.82015552751027 -1.8402199607048 -1.82035353919396 -1.84042392582643 -1.89964606250568 -1.87957572670277 -1.93957572360101 -1.93977957317881 -1.93996866655014 -1.87996862832821 -1.87977954818468 -1.89984393307626 -1.83984392655842 -1.81996861973279 -1.81977955772885 -1.8396460778484 -1.81957573166733 -4.52140942372976 -4.50421879618581 -4.50402094235982 -4.52101654417073 -4.52120559662111 -4.55399789702343 -4.56949825287242 -4.56930910801667 -4.59817348872502 -4.59837142928145 -4.55419577478086 -4.56970208162404 -4.61130572480284 -4.63373908915755 -4.64282509282821 -4.65601859869744 -4.65948456625997 -4.65909141827112 -4.65928060313763 -4.65582059228116 -4.64243194362861 -4.64262115256711 -4.63354109786058 -4.61110179176129 -4.6109125995524 -4.61072567020749 -4.63316498610372 -4.6422450263328 -4.63335414113087 -4.65563364843723 -4.65544448367612 -4.65890447463086 -4.65870650003755 -4.65524055616244 -4.63296114158741 -4.64204707644007 -4.61052776869825 -4.59759353455545 -4.55341803043156 -4.56892428500632 -4.5977973810074 -4.59798652878719 -4.55381100883437 -4.55362185837377 -4.56912218813087 -4.52082965101767 -4.50383412560004 -4.5036449499486 -4.5034410533253 -4.52063170511956 -4.44971177700811 -4.46798654637494 -4.46818456639191 -4.45010490001724 -4.4499157299897 -4.39379687043662 -4.41275320996265 -4.39398599338229 -4.35556313652689 -4.35536518104665 -4.4125552217569 -4.39359293906306 -4.33597243553483 -4.29707848965564 -4.27741923521514 -4.23811518719934 -4.21829239613237 -4.21868551431561 -4.21849631493343 -4.23831311338104 -4.27781227789239 -4.29727633275091 -4.27762300586677 -4.33617626299114 -4.33636552051181 -4.33655244419296 -4.29765257882525 -4.27799923316845 -4.29746342568441 -4.23850011412405 -4.23868926169849 -4.21887244116059 -4.21907046052152 -4.23889319888037 -4.29785642813072 -4.27819717759268 -4.3367503829467 -4.35614309257056 -4.4133330231038 -4.39437077075802 -4.35593923553198 -4.35575009181161 -4.4129400777966 -4.41312916032183 -4.39417287064694 -4.45029172851976 -4.4683714616831 -4.46856050487563 -4.46876435733093 -4.4504896235865 -3.94031703920909 -3.92026476714599 -3.92006694301101 -3.93992420027991 -3.94011322616237 -3.98000272080397 -4.000036333813 -3.99984720653656 -4.03989347585435 -4.04009141798208 -3.98020059276208 -4.00024016871337 -4.06010959541342 -4.09990634506462 -4.11988850888266 -4.15959414308973 -4.17951627269932 -4.17912308473575 -4.17931228987347 -4.15939607356998 -4.11949533481126 -4.11968452919531 -4.09970832185189 -4.05990564225952 -4.05971648434748 -4.059529575581 -4.11930841998415 -4.09933225057878 -4.09952140152942 -4.15920909728555 -4.15901992433157 -4.17893611169633 -4.17873811972133 -4.15881598303806 -4.09912835114168 -4.11911044379804 -4.05933163866717 -4.03931352010308 -3.97942284255079 -3.99946236623057 -4.0395174159151 -4.03970655443605 -3.9798158492825 -3.9796267002363 -3.99966030568391 -3.93973732816495 -3.91988016704304 -3.91969098341267 -3.91948707481716 -3.93953936279654 -3.8595245691956 -3.8795844033782 -3.8797824320053 -3.85991771291309 -3.85972852708444 -3.79975032320618 -3.81980863108431 -3.79993946218565 -3.75982379560256 -3.75962579616171 -3.8196106377413 -3.79954638576613 -3.73955897208706 -3.69963459195704 -3.67956631263999 -3.63963970774199 -3.61957054226227 -3.61996362340063 -3.61977444295789 -3.63983767736901 -3.67995941049252 -3.69983255317393 -3.67977018880744 -3.73976288867039 -3.73995211358603 -3.74013901420667 -3.70020868682141 -3.6801463275865 -3.70001956139139 -3.64002466230658 -3.64021379969029 -3.62015058171832 -3.6203485830467 -3.64041777300662 -3.70041264375294 -3.68034433319664 -3.74033698719782 -3.76040373059717 -3.82038841572383 -3.80032421262869 -3.7601999003778 -3.7600107481679 -3.81999553194603 -3.80012636552156 -3.82018459000415 -3.86010452899473 -3.87996934437619 -3.88015833846912 -3.88036214340808 -3.86030236359296 -3.34042374429188 -3.32035346877442 -3.32015563261132 -3.34003091759021 -3.34021993360151 -3.40021966792728 -3.38015539733689 -3.40003060460502 -3.44015503397705 -3.44035294106375 -3.38035323316554 -3.40042346866681 -3.4604231560365 -3.50035231065178 -3.52042233704067 -3.56035103096738 -3.58042073025622 -3.58002757132144 -3.58021676613765 -3.56015300644192 -3.52002921629879 -3.52021841179602 -3.50015434869004 -3.46021925394826 -3.46003011969157 -3.45984326724797 -3.49977828331941 -3.51984231454196 -3.49996741278589 -3.5599660582744 -3.55977690304934 -3.57984064433148 -3.57964264715287 -3.55957295992693 -3.49957442201522 -3.51964436052857 -3.45964535501279 -3.4395751875536 -3.37957562731952 -3.39964584168441 -3.43977910870477 -3.43996816862361 -3.37996858618203 -3.37977948632638 -3.39984379079915 -3.33984408523645 -3.31996886539943 -3.31977972766298 -3.31957583787872 -3.33964613982562 -3.25957587488637 -3.27964623411536 -3.27984421661373 -3.25996894385405 -3.25977980416038 -3.19977978521233 -3.21984420901061 -3.19996891686572 -3.15984417060276 -3.15964619827117 -3.21964622940217 -3.19957585561278 -3.13957583852031 -3.09964621795355 -3.07957589797715 -3.03964628114272 -3.01957593956596 -3.01996900843297 -3.01977984501651 -3.03984424017609 -3.07996896904779 -3.0998441573063 -3.07977976494207 -3.13977973461099 -3.13996893580337 -3.14015584566081 -3.10022028043044 -3.08015587909986 -3.10003114799506 -3.04003119580162 -3.04022032703789 -3.0201559332411 -3.0203539416381 -3.0404242952743 -3.10042421368016 -3.08035387372819 -3.14035381977883 -3.16042412450848 -3.22042400966073 -3.2003536966349 -3.16022025774154 -3.16003110686175 -3.22003108821662 -3.20015580040235 -3.22022016180563 -3.26015573842406 -3.28003108128852 -3.28022008322268 -3.2804239079728 -3.26035360305326 -2.7404241453742 -2.72035379440867 -2.72015593951365 -2.7400312823334 -2.7402203176328 -2.80022034604809 -2.78015595302204 -2.80003127052386 -2.84015600186364 -2.84035392843483 -2.78035381395948 -2.80042417982538 -2.86042434692954 -2.90035401360117 -2.92042439715352 -2.96035402125515 -2.98042437431506 -2.98003123013677 -2.98022040987287 -2.96015600174775 -2.92003127829639 -2.9202204624817 -2.90015603954892 -2.86022042728503 -2.86003128969475 -2.85984442211171 -2.91984438775304 -2.89977999663261 -2.89996911583278 -2.95996906249995 -2.95977992119722 -2.97984431473085 -2.97964632777024 -2.95957598329055 -2.89957610553176 -2.91964643294043 -2.85964649095131 -2.83957611663625 -2.77957612065535 -2.79964646540092 -2.83978003891878 -2.83996912745652 -2.77996912888918 -2.79984443225653 -2.7797800027321 -2.73984442209167 -2.71996914551967 -2.71977997241514 -2.71957606431772 -2.73964644543512 -2.65957595155429 -2.67964635258019 -2.6798443419369 -2.65996904367258 -2.65977988437354 -2.59977979154514 -2.61984423774938 -2.59996894278229 -2.55984416640469 -2.5596461874432 -2.61964624880218 -2.59957585656689 -2.5395758153594 -2.49964617068778 -2.47957581888441 -2.43964615066443 -2.41957578030589 -2.41996879056486 -2.41977966561304 -2.43984408244995 -2.47996883942144 -2.49984411847516 -2.47977970288378 -2.53977972224655 -2.53996889886013 -2.54015583099292 -2.48015575532723 -2.50022020368582 -2.5000310376095 -2.44003097764449 -2.44022012717238 -2.42015569224182 -2.42035366898184 -2.44042404771589 -2.50042410219037 -2.48035373516061 -2.54035379087251 -2.56042413256875 -2.62042413046485 -2.60035377035407 -2.56022026194808 -2.56003110998011 -2.62003114445881 -2.60015584546582 -2.62022025130097 -2.66015588471339 -2.68003124262448 -2.68022028882076 -2.68042412825891 -2.66035378047239 
</DataArray>
<DataArray type="Float64" Name="velocity_p0" NumberOfComponents="3" format="ascii">