<?xml version="1.0"?>
<VTKFile type="UnstructuredGrid" version="0.1" byte_order="LittleEndian">
<UnstructuredGrid>
<Piece NumberOfPoints="486" NumberOfCells="800">
<Points>
<DataArray type="Float64" NumberOfComponents="3" format="ascii">
0 0 0 0 0.199999999999558 0 0.2 0.199999999999558 0 0.2 0 0 0.4 0 0 0.4 0.199999999999558 0 0.4 0.399999999998975 0 0.2 0.399999999998975 0 0 0.399999999998975 0 0 0.599999999998947 0 0.2 0.599999999998947 0 0 0.799999999999473 0 0.2 0.799999999999473 0 0.4 0.799999999999473 0 0.4 0.599999999998947 0 0.6 0.599999999998947 0 0.6 0.799999999999473 0 0.8 0.799999999999473 0 0.8 0.599999999998947 0 0.8 0.399999999998975 0 0.6 0.399999999998975 0 0.6 0.199999999999558 0 0.6 0 0 0.8 0 0 0.8 0.199999999999558 0 1 0 0 1.2 0 0 1.2 0.199999999999558 0 1 0.199999999999558 0 1 0.399999999998975 0 1.2 0.399999999998975 0 1.4 0.399999999998975 0 1.4 0.199999999999558 0 1.4 0 0 1.6 0 0 1.6 0.199999999999558 0 1.8 0 0 1.8 0.199999999999558 0 1.8 0.399999999998975 0 1.6 0.399999999998975 0 1.6 0.599999999998947 0 1.8 0.599999999998947 0 1.8 0.799999999999473 0 1.6 0.799999999999473 0 1.4 0.799999999999473 0 1.4 0.599999999998947 0 1.2 0.599999999998947 0 1 0.599999999998947 0 1 0.799999999999473 0 1.2 0.799999999999473 0 1 1 0 1.2 1 0 1.4 1 0 1.6 1 0 1.8 1 0 0.8 1 0 0.6 1 0 0.4 1 0 0.2 1 0 0 1 0 3 1 0 2.8 1 0 2.8 0.799999999999473 0 3 0.799999999999473 0 3 0.599999999998947 0 2.8 0.599999999998947 0 2.6 0.599999999998947 0 2.6 0.799999999999473 0 2.6 1 0 2.4 1 0 2.4 0.799999999999473 0 2.2 1 0 2 1 0 2 0.799999999999473 0 2.2 0.799999999999473 0 2 0.599999999998947 0 2.2 0.599999999998947 0 2.4 0.599999999998947 0 2.4 0.399999999998975 0 2.2 0.399999999998975 0 2 0.399999999998975 0 2.2 0.199999999999558 0 2 0.199999999999558 0 2 0 0 2.2 0 0 2.4 0.199999999999558 0 2.4 0 0 2.6 0 0 2.6 0.199999999999558 0 2.6 0.399999999998975 0 2.8 0.399999999998975 0 3 0.399999999998975 0 3 0.199999999999558 0 2.8 0.199999999999558 0 2.8 0 0 3 0 0 3.2 0.199999999999558 0 3.2 0 0 3.4 0 0 3.4 0.199999999999558 0 3.4 0.399999999998975 0 3.2 0.399999999998975 0 3.2 0.599999999998947 0 3.2 1 0 3.2 0.799999999999473 0 3.4 1 0 3.4 0.799999999999473 0 3.4 0.599999999998947 0 3.6 0.599999999998947 0 3.6 0.799999999999473 0 3.6 1 0 3.8 0.799999999999473 0 3.8 1 0 3.8 0.599999999998947 0 3.8 0.399999999998975 0 3.6 0.399999999998975 0 3.6 0.199999999999558 0 3.6 0 0 3.8 0 0 3.8 0.199999999999558 0 4 0 0 4.2 0 0 4.2 0.199999999999558 0 4 0.199999999999558 0 4 0.399999999998975 0 4.2 0.399999999998975 0 4.4 0.399999999998975 0 4.4 0.199999999999558 0 4.4 0 0 4.6 0 0 4.6 0.199999999999558 0 4.8 0 0 4.8 0.199999999999558 0 4.8 0.399999999998975 0 4.6 0.399999999998975 0 4.6 0.599999999998947 0 4.8 0.599999999998947 0 4.8 0.799999999999473 0 4.6 0.799999999999473 0 4.4 0.799999999999473 0 4.4 0.599999999998947 0 4.2 0.599999999998947 0 4 0.599999999998947 0 4 0.799999999999473 0 4.2 0.799999999999473 0 4 1 0 4.2 1 0 4.4 1 0 4.6 1 0 4.8 1 0 5 1 0 5.2 1 0 5.4 1 0 5.6 1 0 5.8 1 0 5.8 0.799999999999473 0 5.8 0.599999999998947 0 5.6 0.599999999998947 0 5.6 0.799999999999473 0 5.4 0.799999999999473 0 5 0.799999999999473 0 5.2 0.799999999999473 0 5 0.599999999998947 0 5.2 0.599999999998947 0 5.4 0.599999999998947 0 5.4 0.399999999998975 0 5.2 0.399999999998975 0 5 0.399999999998975 0 5.2 0.199999999999558 0 5 0.199999999999558 0 5 0 0 5.2 0 0 5.4 0.199999999999558 0 5.4 0 0 5.6 0 0 5.6 0.199999999999558 0 5.6 0.399999999998975 0 5.8 0.399999999998975 0 5.8 0.199999999999558 0 5.8 0 0 6 0 0 6 0.199999999999558 0 6.2 0.199999999999558 0 6.2 0 0 6.4 0 0 6.4 0.199999999999558 0 6.4 0.399999999998975 0 6.2 0.399999999998975 0 6 0.399999999998975 0 6 0.599999999998947 0 6.2 0.599999999998947 0 6 0.799999999999473 0 6.2 0.799999999999473 0 6.4 0.799999999999473 0 6.4 0.599999999998947 0 6.6 0.599999999998947 0 6.6 0.799999999999473 0 6.8 0.799999999999473 0 6.8 0.599999999998947 0 6.8 0.399999999998975 0 6.6 0.399999999998975 0 6.6 0.199999999999558 0 6.6 0 0 6.8 0 0 6.8 0.199999999999558 0 7 0 0 7.2 0 0 7.2 0.199999999999558 0 7 0.199999999999558 0 7 0.399999999998975 0 7.2 0.399999999998975 0 7.4 0.399999999998975 0 7.4 0.199999999999558 0 7.4 0 0 7.6 0 0 7.6 0.199999999999558 0 7.8 0 0 7.8 0.199999999999558 0 7.8 0.399999999998975 0 7.6 0.399999999998975 0 7.6 0.599999999998947 0 7.8 0.599999999998947 0 7.8 0.799999999999473 0 7.6 0.799999999999473 0 7.4 0.799999999999473 0 7.4 0.599999999998947 0 7.2 0.599999999998947 0 7 0.599999999998947 0 7 0.799999999999473 0 7.2 0.799999999999473 0 7 1 0 7.2 1 0 7.4 1 0 7.6 1 0 7.8 1 0 6.8 1 0 6.6 1 0 6.4 1 0 6.2 1 0 6 1 0 9 1 0 8.8 1 0 8.8 0.799999999999473 0 9 0.799999999999473 0 9 0.599999999998947 0 8.8 0.599999999998947 0 8.6 0.599999999998947 0 8.6 0.799999999999473 0 8.6 1 0 8.4 1 0 8.4 0.799999999999473 0 8.2 1 0 8 1 0 8 0.799999999999473 0 8.2 0.799999999999473 0 8 0.599999999998947 0 8.2 0.599999999998947 0 8.4 0.599999999998947 0 8.4 0.399999999998975 0 8.2 0.399999999998975 0 8 0.399999999998975 0 8.2 0.199999999999558 0 8 0.199999999999558 0 8 0 0 8.2 0 0 8.4 0.199999999999558 0 8.4 0 0 8.6 0 0 8.6 0.199999999999558 0 8.6 0.399999999998975 0 8.8 0.399999999998975 0 9 0.399999999998975 0 9 0.199999999999558 0 8.8 0.199999999999558 0 8.8 0 0 9 0 0 9.2 0.199999999999558 0 9.2 0 0 9.4 0 0 9.4 0.199999999999558 0 9.4 0.399999999998975 0 9.2 0.399999999998975 0 9.2 0.599999999998947 0 9.2 1 0 9.2 0.799999999999473 0 9.4 1 0 9.4 0.799999999999473 0 9.4 0.599999999998947 0 9.6 0.599999999998947 0 9.6 0.799999999999473 0 9.6 1 0 9.8 0.799999999999473 0 9.8 1 0 10 1 0 10 0.799999999999473 0 9.8 0.599999999998947 0 10 0.599999999998947 0 10 0.399999999998975 0 9.8 0.399999999998975 0 9.6 0.399999999998975 0 9.6 0.199999999999558 0 9.6 0 0 9.8 0 0 9.8 0.199999999999558 0 10 0.199999999999558 0 10 0 0 10.2 0 0 10.2 0.199999999999558 0 10.2 0.399999999998975 0 10.4 0.399999999998975 0 10.4 0.199999999999558 0 10.4 0 0 10.6 0 0 10.6 0.199999999999558 0 10.8 0 0 10.8 0.199999999999558 0 10.8 0.399999999998975 0 10.6 0.399999999998975 0 10.6 0.599999999998947 0 10.8 0.599999999998947 0 10.8 0.799999999999473 0 10.6 0.799999999999473 0 10.4 0.799999999999473 0 10.4 0.599999999998947 0 10.2 0.599999999998947 0 10.2 0.799999999999473 0 10.2 1 0 10.4 1 0 10.6 1 0 10.8 1 0 11 1 0 11.2 1 0 11.4 1 0 11.6 1 0 11.8 1 0 12 1 0 11.8 0.799999999999473 0 12 0.799999999999473 0 12 0.599999999998947 0 11.8 0.599999999998947 0 11.6 0.599999999998947 0 11.6 0.799999999999473 0 11.4 0.799999999999473 0 11 0.799999999999473 0 11.2 0.799999999999473 0 11 0.599999999998947 0 11.2 0.599999999998947 0 11.4 0.599999999998947 0 11.4 0.399999999998975 0 11.2 0.399999999998975 0 11 0.399999999998975 0 11.2 0.199999999999558 0 11 0.199999999999558 0 11 0 0 11.2 0 0 11.4 0.199999999999558 0 11.4 0 0 11.6 0 0 11.6 0.199999999999558 0 11.6 0.399999999998975 0 11.8 0.399999999998975 0 12 0.399999999998975 0 12 0.199999999999558 0 11.8 0.199999999999558 0 11.8 0 0 12 0 0 12.2 0.199999999999558 0 12.2 0 0 12.4 0 0 12.4 0.199999999999558 0 12.4 0.399999999998975 0 12.2 0.399999999998975 0 12.2 0.599999999998947 0 12.2 0.799999999999473 0 12.4 0.799999999999473 0 12.4 0.599999999998947 0 12.6 0.599999999998947 0 12.6 0.799999999999473 0 12.8 0.799999999999473 0 12.8 0.599999999998947 0 12.8 0.399999999998975 0 12.6 0.399999999998975 0 12.6 0.199999999999558 0 12.6 0 0 12.8 0 0 12.8 0.199999999999558 0 13 0 0 13.2 0 0 13.2 0.199999999999558 0 13 0.199999999999558 0 13 0.399999999998975 0 13.2 0.399999999998975 0 13.4 0.399999999998975 0 13.4 0.199999999999558 0 13.4 0 0 13.6 0 0 13.6 0.199999999999558 0 13.8 0 0 13.8 0.199999999999558 0 13.8 0.399999999998975 0 13.6 0.399999999998975 0 13.6 0.599999999998947 0 13.8 0.599999999998947 0 13.8 0.799999999999473 0 13.6 0.799999999999473 0 13.4 0.799999999999473 0 13.4 0.599999999998947 0 13.2 0.599999999998947 0 13 0.599999999998947 0 13 0.799999999999473 0 13.2 0.799999999999473 0 13 1 0 13.2 1 0 13.4 1 0 13.6 1 0 13.8 1 0 12.8 1 0 12.6 1 0 12.4 1 0 12.2 1 0 15 1 0 14.8 1 0 14.8 0.799999999999473 0 15 0.799999999999473 0 15 0.599999999998947 0 14.8 0.599999999998947 0 14.6 0.599999999998947 0 14.6 0.799999999999473 0 14.6 1 0 14.4 1 0 14.4 0.799999999999473 0 14.2 1 0 14 1 0 14 0.799999999999473 0 14.2 0.799999999999473 0 14 0.599999999998947 0 14.2 0.599999999998947 0 14.4 0.599999999998947 0 14.4 0.399999999998975 0 14.2 0.399999999998975 0 14 0.399999999998975 0 14.2 0.199999999999558 0 14 0.199999999999558 0 14 0 0 14.2 0 0 14.4 0.199999999999558 0 14.4 0 0 14.6 0 0 14.6 0.199999999999558 0 14.6 0.399999999998975 0 14.8 0.399999999998975 0 15 0.399999999998975 0 15 0.199999999999558 0 14.8 0.199999999999558 0 14.8 0 0 15 0 0 15.2 0.199999999999558 0 15.2 0 0 15.4 0 0 15.4 0.199999999999558 0 15.4 0.399999999998975 0 15.2 0.399999999998975 0 15.2 0.599999999998947 0 15.2 1 0 15.2 0.799999999999473 0 15.4 1 0 15.4 0.799999999999473 0 15.4 0.599999999998947 0 15.6 0.599999999998947 0 15.6 0.799999999999473 0 15.6 1 0 15.8 0.799999999999473 0 15.8 1 0 16 1 0 16 0.799999999999473 0 15.8 0.599999999998947 0 16 0.599999999998947 0 16 0.399999999998975 0 15.8 0.399999999998975 0 15.6 0.399999999998975 0 15.6 0.199999999999558 0 15.6 0 0 15.8 0 0 15.8 0.199999999999558 0 16 0.199999999999558 0 16 0 0 
</DataArray>
</Points>
<Cells>
<DataArray type="UInt32" Name="connectivity" format="ascii">
[...]
<CellData Scalars="pressure_p0," Vectors="velocity_p0," Tensors="">
<DataArray type="Float64" Name="pressure_p0" format="ascii">
-0.0934116897699898 -0.186866434370549 -0.466997306705936 -0.653645795394934 -0.373564844711216 -0.466825441908644 -0.373425972978766 -0.653466801902107 -0.466687673919913 -0.186675514532475 -0.186746096621994 -0.0933598129428041 -0.0933245231468897 -0.18661045838719 -0.0932837029545937 -0.0932036138507226 -0.186518336550451 -0.466399085030094 -0.373038990091142 -0.652952763245563 -0.653140686102063 -0.373193957945004 -0.466554854897272 -0.373312444365083 -0.653305315607667 -0.933301321317306 -0.933110702416655 -1.02650387861072 -0.746522193265817 -0.746335143335124 -0.932906625303148 -1.02630056969552 -1.21288166684085 -1.30628178267658 -1.30649377723187 -1.21309414961576 -1.21329911338705 -1.30670116119454 -1.30690955122612 -1.21350305128232 -1.02669894566175 -0.746694881371925 -0.746870703192219 -1.02689580104467 -0.933490129216544 -0.933689300369621 -0.747066678534398 -1.02710399676142 -1.21371283354012 -1.3071241856433 -1.58713510375395 -1.49372557339448 -1.49351012759612 -1.58670235007182 -1.5869170201247 -1.86692102278147 -1.77351391845449 -1.86670292249855 -2.05351591828258 -2.05373611771679 -1.7737324418735 -1.8671409789256 -2.14714412313835 -2.33373808541281 -2.42714581976781 -2.70714668724027 -2.61373912253229 -2.61351749647869 -2.70692482705484 -2.70670329117944 -2.42670327159803 -2.33351695649555 -2.42692425228462 -2.14692313407332 -2.14670318184904 -2.14648337847628 -2.33307569990452 -2.42648237785373 -2.33329637444271 -2.61329617745848 -2.70648180758757 -2.61307480590092 -2.7062601098804 -2.61285308632119 -2.33285435447588 -2.42626108931079 -2.14626281792715 -2.05285660629418 -1.77286068207922 -1.86626591443704 -2.05307727201068 -2.05329668404425 -1.77329714109417 -1.77308004559632 -1.86648512403502 -1.58648821055691 -1.49329787324816 -1.49308506134462 -1.58627154346201 -1.49286810925314 -4.01285137183117 -4.10625879853608 -4.10648101928875 -4.0132957928228 -4.01307360658171 -3.73307361017404 -3.82648100312736 -3.73329579381067 -3.54648108411394 -3.54625890664796 -3.82625874900252 -3.73285134362079 -3.45285158917039 -3.26625918197464 -3.17285192834364 -2.8928523802761 -2.98625956262774 -2.98648147917184 -2.89307431232685 -2.89329603828049 -3.17329594515096 -3.26648125835379 -3.17307399972206 -3.45307375867239 -3.45329584946995 -3.45351794593399 -3.26692527124322 -3.17351788945665 -3.26670324808041 -2.98670326760389 -2.89351774669761 -2.98692510511694 -2.89373963631424 -2.9871471258781 -3.26714740367467 -3.17373993888534 -3.45374009712419 -3.54714752515503 -3.82714760661879 -3.73374016881208 -3.54692534188653 -3.54670320250158 -3.826703180966 -3.73351796274632 -3.82692536895331 -4.0135179733645 -4.10670318579154 -4.10692537872857 -4.01374020717989 -4.10714761953398 -4.29374020993958 -4.38714762977683 -4.66714767063941 -4.85374026993915 -4.57374024257723 -4.57351802302069 -4.66692543523145 -4.85351807418211 -4.66670328579255 -4.38670322133558 -4.38692538154416 -4.29351797322303 -4.29329581455439 -4.38648104629135 -4.29307363679199 -4.29285142793709 -4.38625884780449 -4.6662589119529 -4.57285148393396 -4.85285155825267 -4.85307376007676 -4.66648111443537 -4.57307369490341 -4.57329588138349 -4.85329592701794 -5.13329602237505 -5.22648126393691 -5.13307385113991 -4.94648118224564 -4.94625899457971 -5.13285165829448 -5.22625906949727 -5.41285166280759 -5.50625907146514 -5.50648131274314 -5.41307390204396 -5.41329609919727 -5.50670347487744 -5.50692565706579 -5.4135182417134 -5.22670344855197 -4.94670333813034 -4.94692548566591 -5.13351816593155 -5.22692557888881 -5.13374033350279 -4.947147671356 -5.22714776517158 -5.4137404223964 -5.50714783173335 -5.78714782183958 -5.69374043484652 -5.6935182802473 -5.78670346528265 -5.78692565729955 -5.97351823750387 -6.06692561488471 -6.06670340595585 -6.25351818235874 -6.2537403053883 -5.97374039080442 -6.06714775212729 -6.34714765155924 -6.53374021723663 -6.62714754715215 -6.90714737797148 -6.81374005825232 -6.81351799730813 -6.90692527149592 -6.90670318233021 -6.62670333358082 -6.62692547718403 -6.53351815263733 -6.34692555584334 -6.34670338190411 -6.34648114924885 -6.5330737067438 -6.62648109839942 -6.53329595195193 -6.81329586783994 -6.90648100824862 -6.81307363667327 -6.90625881612291 -6.81285144164075 -6.53285149407136 -6.62625888052457 -6.34625893254218 -6.25285153769313 -5.97285158954241 -6.06625897477916 -6.25307376837848 -6.2532959824905 -5.97329601068593 -5.97307380297632 -6.06648119576065 -5.78648123876527 -5.69329605909401 -5.69307386721244 -5.78625903623315 -5.69285164582179 -8.21285074641117 -8.30625822153251 -8.30648052580675 -8.21329535128498 -8.21307306338374 -8.02648046375442 -7.93307299735847 -7.93329536762761 -7.7464805455626 -7.74625823295254 -8.02625805582172 -7.93285059646978 -7.65285089632641 -7.46625849181046 -7.37285118799544 -7.09285136846361 -7.18625870890386 -7.18648083743873 -7.09307351263414 -7.09329562946127 -7.37329554696646 -7.37307337168652 -7.46648071399509 -7.65307316940556 -7.65329545764894 -7.65351778541562 -7.3735177581324 -7.46692520118645 -7.46670293435928 -7.18670294338539 -7.09351773738537 -7.18692510848693 -7.09373991076711 -7.18714732602253 -7.46714744685696 -7.37374001397484 -7.65374006440568 -7.74714744045488 -8.02714739126 -7.93373998098906 -7.74692523217542 -7.74670288118974 -8.02670280208289 -8.02692510674644 -7.93351772709635 -8.21351761804721 -8.30670275756334 -8.30692500538987 -8.2137399027554 -8.30714728517697 -8.49373980054272 -8.58714719817457 -8.86714716862928 -9.05373970132902 -8.77373975939106 -8.77351753019288 -8.86692492174478 -9.05351752681787 -8.86670280026061 -8.58670275258834 -8.5869249194776 -8.49351752573095 -8.49329534310057 -8.58648054285326 -8.49307312358046 -8.49285088209871 -8.58625832063267 -8.86625840944772 -8.77285097067733 -9.05285106828498 -9.05307327261597 -8.77307319691973 -8.86648062513613 -8.77329540447444 -9.05329542144615 -9.33329552675951 -9.42648078232452 -9.33307338114447 -9.14648069731327 -9.14625851364324 -9.33285118868921 -9.42625859015157 -9.61285114005138 -9.70625852549501 -9.70648079167077 -9.61307340389951 -9.61329559164517 -9.70670291600113 -9.70692507246091 -9.61351767713721 -9.42670294570506 -9.14670281773977 -9.14692490941542 -9.33351760771254 -9.42692500762229 -9.33373973377979 -9.14714705618017 -9.42714716475424 -9.61373982951669 -9.70714721787207 -9.98714711312524 -9.89373977137978 -9.89351764984726 -9.98670279677479 -9.98692497700872 -10.2669247810462 -10.1735174700621 -10.2667025816768 -10.4535172183897 -10.4537392887683 -10.1737395826016 -10.2671468681502 -10.547146525008 -10.7337388816055 -10.8271460386738 -11.1071452252709 -11.0137381691107 -11.0135161946292 -11.1069231790007 -11.10670115871 -10.8267019421993 -10.8269240524354 -10.7335169031298 -10.5469244983975 -10.5467023460012 -10.5464801082224 -10.7330724424178 -10.8264796924732 -10.7332947032799 -11.0132941073098 -11.106479006453 -11.0130718687513 -11.1062568349344 -11.0128496916632 -10.7328502359983 -10.8262574787177 -10.5462578950059 -10.4528505856882 -10.1728508307421 -10.2662581584874 -10.4530728236014 -10.4532950298342 -10.1732952416223 -10.1730730422274 -10.2664803806122 -9.98648056159193 -9.89329542305024 -9.89307324710014 -9.98625836712797 -9.89285101851476 -12.4128378769142 -12.5062435249094 -12.5064658966824 -12.4132825987666 -12.4130602534315 -12.2264706581961 -12.133064401661 -12.1332868424084 -11.9464739921925 -11.9462516316052 -12.2262481586432 -12.1328419189083 -11.852845144511 -11.6662541174511 -11.5728473964764 -11.2928488425315 -11.3862558069407 -11.3864778751963 -11.2930709352156 -11.2932929905424 -11.5732916950939 -11.5730695488258 -11.6664763317407 -11.8530674375858 -11.8532897613514 -11.8535121261832 -11.5735138950718 -11.6669208273181 -11.6666985488857 -11.3866999146878 -11.2935150370293 -11.3869220471396 -11.2937371837622 -11.3871442600822 -11.6671430773051 -11.5737361618765 -11.8537344196168 -11.9471409658817 -12.2271376936605 -12.1337315129114 -11.946918781301 -11.9466963826162 -12.2266930615801 -12.2269153966929 -12.1335092680507 -12.413504902265 -12.5066881640648 -12.5069104269026 -12.4137271965855 -12.5071327140163 -12.6937207265411 -12.7871253477998 -13.0671145499245 -13.253697208965 -12.973711237114 -12.9734890094361 -13.0668922980467 -13.2534750630885 -13.0666701768466 -12.7866808910884 -12.7869030698107 -12.6934984470768 -12.6932762472709 -12.7864586564086 -12.6930540031778 -12.6928317320714 -12.7862364136894 -13.0662257495005 -12.9728223999539 -13.2528085898095 -13.2530308294801 -12.9730446481238 -13.066447992089 -12.9732668701117 -13.2532529872706 -13.5332326620595 -13.5330105338573 -13.6264091210967 -13.3464322598809 -13.3462100193043 -13.5327882670125 -13.6261868556125 -13.8127582615882 -13.9061527515738 -13.9063751028104 -13.8129806242113 -13.8132027792571 -13.9065971676118 -13.9068192477911 -13.8134247776518 -13.6266312310271 -13.3466543614383 -13.3468763988945 -13.5334546801809 -13.6268532201922 -13.533676753061 -13.3470984974742 -13.627075337838 -13.8136468793312 -13.9070413404664 -14.1869916144689 -14.0936030808695 -14.093381057503 -14.1865474943224 -14.1867695519323 -14.3733173245493 -14.4666973889177 -14.4664753505529 -14.6532252324097 -14.6534473321544 -14.3735393303062 -14.4669194314753 -14.7468154981204 -14.9333151024178 -15.0266663245345 -15.3064526681305 -15.2131256163916 -15.2129032981038 -15.3062303284558 -15.3060081222374 -15.0262217861758 -14.9330928405724 -15.0264439652915 -14.7465933125966 -14.7463712714672 -14.7461492083801 -15.0259996581547 -14.9326486600937 -14.9328707184062 -15.2126811034662 -15.3057859864642 -15.2124589990577 -15.3055639769896 -15.2122370038325 -14.9324265904088 -15.0257776585792 -14.7459270721029 -14.6525588853205 -14.3726507943283 -14.4660309992944 -14.6527811537157 -14.6530032172557 -14.3730952795632 -14.3728730947503 -14.4662533197526 -14.1863253026313 -14.0931589088585 -14.0929367316731 -14.1861030137196 -14.0927144097534 -16.6092191496739 -16.7021842653995 -16.70240665898 -16.609663855318 -16.6094415228135 -16.4235930196705 -16.3305034500942 -16.3307257570444 -16.1444440545912 -16.1442217472904 -16.4233705826413 -16.3302810227048 -16.0510416323055 -15.8648290615487 -15.7715832920218 -15.4919668735562 -15.5852600007673 -15.5854819977386 -15.4921888721934 -15.4924108797622 -15.7720274542532 -15.8650512243986 -15.771805393159 -16.0512638796145 -16.0514860621669 -16.0517082646534 -15.7722496077411 -15.8654955157062 -15.8652733300394 -15.5857040150099 -15.4926329987118 -15.5859261856274 -15.4928552460627 -15.5861484073527 -15.8657177954204 -15.7724718389301 -16.0519305493159 -16.1451107756781 -16.4242599824569 -16.3311703499622 -16.14488849409 -16.1446662676356 -16.4238153215231 -16.3309480292972 -16.4240375963489 -16.6098861324056 -16.7026289449989 -16.7028511802581 -16.6101084597356 -16.7030734792599 -16.8886330453552 -16.9814282352224 -17.2591600124262 -17.4437956663262 -17.1665949293514 -17.1663727278316 -17.2589377441311 -17.4435734993199 -17.2587156259889 -16.9809838185029 -16.9812059966971 -16.8884107944506 -16.8881886027638 -16.9807615535943 -16.8879663138468 -16.8877440144765 -16.9805392533373 -17.2582710553272 -17.1657059659443 -17.4429068880293 -17.4431291776474 -17.2584933799435 -17.1659282805176 -17.1661505733974 -17.4433514184048 -17.7195298418343 -17.719307675062 -17.811148502053 -17.5353844506487 -17.5351621536155 -17.7190854091217 -17.8109261962646 -17.9938991138601 -18.0851896399628 -18.0854121111924 -17.9941215735865 -17.9943437788394 -18.085634158469 -18.0858561961527 -17.9945657065176 -17.8113706873143 -17.5356066078323 -17.5358286500785 -17.8115926108788 -17.7197518997897 -17.7199739370137 -17.5360507870859 -17.8118147137261 -17.9947877848706 -18.0860782393809 -18.3583585156558 -18.2677936318067 -18.2675717284009 -18.3579145662648 -18.358136537566 -18.5381992602082 -18.6278145139184 -18.627592497033 -18.8057215678258 -18.8059436193879 -18.5384212169165 -18.6280365264983 -18.8943255160045 -19.0694422917091 -19.1562342836855 -19.4125248282725 -19.3277666267669 -19.3275442522249 -19.4123024169095 -19.412080190173 -19.1557896678495 -19.069220010902 -19.1560118643811 -18.8941033449865 -18.8938813511336 -18.8936592339203 -19.068775784978 -19.1555675196122 -19.0689978860395 -19.3273220548378 -19.4118580525387 -19.3270999239142 -19.411636022318 -19.3268779325861 -19.0685537228391 -19.1553455138849 -18.8934370393811 -18.8050550881161 -18.5375325691644 -18.6271479862311 -18.8052774726492 -18.8054995849595 -18.5379772571535 -18.6273704806284 -18.5377549812883 -18.3576923648068 -18.2673496266907 -18.2671273952392 -18.3574699387678 -18.2669049590494 -20.4783765130701 -20.5420732806539 -20.5422957695858 -20.4788213872313 -20.4785989799478 -20.2748949532262 -20.3447523549858 -20.2751173247878 -20.1299472072954 -20.1297248047865 -20.3445297676033 -20.2746723485646 -20.0548490264266 -19.9008986990546 -19.8219689176581 -19.5786009321204 -19.6607785477827 -19.6610005369734 -19.5788229172941 -19.5790449386313 -19.8224131101408 -19.8221910239768 -19.9011208934041 -20.0550713286358 -20.0552935618894 -20.0555158201195 -19.8226353046686 -19.9015652656033 -19.9013430376944 -19.6612225817444 -19.5792670846624 -19.6614447807419 -19.5794893605124 -19.661667012308 -19.9017875912815 -19.8228575676172 -20.0557381609248 -20.1306140817627 -20.3454195736609 -20.2755620806402 -20.1303917559755 -20.1301694631694 -20.3449747134892 -20.2753396791556 -20.345197089127 -20.479043786729 -20.5425181478029 -20.5427404957285 -20.4792662380681 -20.5429629254342 -20.6632353745041 -20.7194329668505 -20.8703936655858 -20.9544216385148 -20.8232475038342 -20.8701710933005 -20.8230250043154 -20.9541991116077 -20.8699487050663 -20.7189882054791 -20.7192105171392 -20.6630129299464 -20.6627906362078 -20.7187658409438 -20.6625682668751 -20.6623458737128 -20.7185434808029 -20.8695040424944 -20.8223580094931 -20.9535321253166 -20.9537544508359 -20.8225803336475 -20.8697263751804 -20.8228026714437 -20.9539767271642 -21.0507285846056 -21.0505063189619 -21.0739601544042 -20.9900668609178 -20.9898444883971 -21.0502838868939 -21.0737377694046 -21.1062894539095 -21.1146071707762 -21.1148296465344 -21.1065118644527 -21.1067342118795 -21.1150519508024 -21.1152744599867 -21.1069566192398 -21.0741824137654 -20.9902891251138 -20.9905115460038 -21.0509509128207 -21.0744048644687 -21.0511734659153 -20.9907340317946 -21.0746273348952 -21.1071790826974 -21.1154967847813 
</DataArray>
<DataArray type="Float64" Name="velocity_p0" NumberOfComponents="3" format="ascii">