<?xml version="1.0"?>
<VTKFile type="UnstructuredGrid" version="0.1" byte_order="LittleEndian">
<UnstructuredGrid>
<Piece NumberOfPoints="486" NumberOfCells="800">
<Points>
<DataArray type="Float64" NumberOfComponents="3" format="ascii">
0 0 0 0 1 0 16 0 0 16 1 0 0 0.199999999999558 0 0 0.399999999998975 0 0 0.599999999998947 0 0 0.799999999999473 0 16 0.199999999999558 0 16 0.399999999998975 0 16 0.599999999998947 0 16 0.799999999999473 0 0.2 0 0 0.4 0 0 0.6 0 0 0.8 0 0 1 0 0 1.2 0 0 1.4 0 0 1.6 0 0 1.8 0 0 2 0 0 2.2 0 0 2.4 0 0 2.6 0 0 2.8 0 0 3 0 0 3.2 0 0 3.4 0 0 3.6 0 0 3.8 0 0 4 0 0 4.2 0 0 4.4 0 0 4.6 0 0 4.8 0 0 5 0 0 5.2 0 0 5.4 0 0 5.6 0 0 5.8 0 0 6 0 0 6.2 0 0 6.4 0 0 6.6 0 0 6.8 0 0 7 0 0 7.2 0 0 7.4 0 0 7.6 0 0 7.8 0 0 8 0 0 8.2 0 0 8.4 0 0 8.6 0 0 8.8 0 0 9 0 0 9.2 0 0 9.4 0 0 9.6 0 0 9.8 0 0 10 0 0 10.2 0 0 10.4 0 0 10.6 0 0 10.8 0 0 11 0 0 11.2 0 0 11.4 0 0 11.6 0 0 11.8 0 0 12 0 0 12.2 0 0 12.4 0 0 12.6 0 0 12.8 0 0 13 0 0 13.2 0 0 13.4 0 0 13.6 0 0 13.8 0 0 14 0 0 14.2 0 0 14.4 0 0 14.6 0 0 14.8 0 0 15 0 0 15.2 0 0 15.4 0 0 15.6 0 0 15.8 0 0 0.2 1 0 0.4 1 0 0.6 1 0 0.8 1 0 1 1 0 1.2 1 0 1.4 1 0 1.6 1 0 1.8 1 0 2 1 0 2.2 1 0 2.4 1 0 2.6 1 0 2.8 1 0 3 1 0 3.2 1 0 3.4 1 0 3.6 1 0 3.8 1 0 4 1 0 4.2 1 0 4.4 1 0 4.6 1 0 4.8 1 0 5 1 0 5.2 1 0 5.4 1 0 5.6 1 0 5.8 1 0 6 1 0 6.2 1 0 6.4 1 0 6.6 1 0 6.8 1 0 7 1 0 7.2 1 0 7.4 1 0 7.6 1 0 7.8 1 0 8 1 0 8.2 1 0 8.4 1 0 8.6 1 0 8.8 1 0 9 1 0 9.2 1 0 9.4 1 0 9.6 1 0 9.8 1 0 10 1 0 10.2 1 0 10.4 1 0 10.6 1 0 10.8 1 0 11 1 0 11.2 1 0 11.4 1 0 11.6 1 0 11.8 1 0 12 1 0 12.2 1 0 12.4 1 0 12.6 1 0 12.8 1 0 13 1 0 13.2 1 0 13.4 1 0 13.6 1 0 13.8 1 0 14 1 0 14.2 1 0 14.4 1 0 14.6 1 0 14.8 1 0 15 1 0 15.2 1 0 15.4 1 0 15.6 1 0 15.8 1 0 0.2 0.199999999999558 0 0.4 0.199999999999558 0 0.6 0.199999999999558 0 0.8 0.199999999999558 0 1 0.199999999999558 0 1.2 0.199999999999558 0 1.4 0.199999999999558 0 1.6 0.199999999999558 0 1.8 0.199999999999558 0 2 0.199999999999558 0 2.2 0.199999999999558 0 2.4 0.199999999999558 0 2.6 0.199999999999558 0 2.8 0.199999999999558 0 3 0.199999999999558 0 3.2 0.199999999999558 0 3.4 0.199999999999558 0 3.6 0.199999999999558 0 3.8 0.199999999999558 0 4 0.199999999999558 0 4.2 0.199999999999558 0 4.4 0.199999999999558 0 4.6 0.199999999999558 0 4.8 0.199999999999558 0 5 0.199999999999558 0 5.2 0.199999999999558 0 5.4 0.199999999999558 0 5.6 0.199999999999558 0 5.8 0.199999999999558 0 6 0.199999999999558 0 6.2 0.199999999999558 0 6.4 0.199999999999558 0 6.6 0.199999999999558 0 6.8 0.199999999999558 0 7 0.199999999999558 0 7.2 0.199999999999558 0 7.4 0.199999999999558 0 7.6 0.199999999999558 0 7.8 0.199999999999558 0 8 0.199999999999558 0 8.2 0.199999999999558 0 8.4 0.199999999999558 0 8.6 0.199999999999558 0 8.8 0.199999999999558 0 9 0.199999999999558 0 9.2 0.199999999999558 0 9.4 0.199999999999558 0 9.6 0.199999999999558 0 9.8 0.199999999999558 0 10 0.199999999999558 0 10.2 0.199999999999558 0 10.4 0.199999999999558 0 10.6 0.199999999999558 0 10.8 0.199999999999558 0 11 0.199999999999558 0 11.2 0.199999999999558 0 11.4 0.199999999999558 0 11.6 0.199999999999558 0 11.8 0.199999999999558 0 12 0.199999999999558 0 12.2 0.199999999999558 0 12.4 0.199999999999558 0 12.6 0.199999999999558 0 12.8 0.199999999999558 0 13 0.199999999999558 0 13.2 0.199999999999558 0 13.4 0.199999999999558 0 13.6 0.199999999999558 0 13.8 0.199999999999558 0 14 0.199999999999558 0 14.2 0.199999999999558 0 14.4 0.199999999999558 0 14.6 0.199999999999558 0 14.8 0.199999999999558 0 15 0.199999999999558 0 15.2 0.199999999999558 0 15.4 0.199999999999558 0 15.6 0.199999999999558 0 15.8 0.199999999999558 0 0.2 0.399999999998975 0 0.4 0.399999999998975 0 0.6 0.399999999998975 0 0.8 0.399999999998975 0 1 0.399999999998975 0 1.2 0.399999999998975 0 1.4 0.399999999998975 0 1.6 0.399999999998975 0 1.8 0.399999999998975 0 2 0.399999999998975 0 2.2 0.399999999998975 0 2.4 0.399999999998975 0 2.6 0.399999999998975 0 2.8 0.399999999998975 0 3 0.399999999998975 0 3.2 0.399999999998975 0 3.4 0.399999999998975 0 3.6 0.399999999998975 0 3.8 0.399999999998975 0 4 0.399999999998975 0 4.2 0.399999999998975 0 4.4 0.399999999998975 0 4.6 0.399999999998975 0 4.8 0.399999999998975 0 5 0.399999999998975 0 5.2 0.399999999998975 0 5.4 0.399999999998975 0 5.6 0.399999999998975 0 5.8 0.399999999998975 0 6 0.399999999998975 0 6.2 0.399999999998975 0 6.4 0.399999999998975 0 6.6 0.399999999998975 0 6.8 0.399999999998975 0 7 0.399999999998975 0 7.2 0.399999999998975 0 7.4 0.399999999998975 0 7.6 0.399999999998975 0 7.8 0.399999999998975 0 8 0.399999999998975 0 8.2 0.399999999998975 0 8.4 0.399999999998975 0 8.6 0.399999999998975 0 8.8 0.399999999998975 0 9 0.399999999998975 0 9.2 0.399999999998975 0 9.4 0.399999999998975 0 9.6 0.399999999998975 0 9.8 0.399999999998975 0 10 0.399999999998975 0 10.2 0.399999999998975 0 10.4 0.399999999998975 0 10.6 0.399999999998975 0 10.8 0.399999999998975 0 11 0.399999999998975 0 11.2 0.399999999998975 0 11.4 0.399999999998975 0 11.6 0.399999999998975 0 11.8 0.399999999998975 0 12 0.399999999998975 0 12.2 0.399999999998975 0 12.4 0.399999999998975 0 12.6 0.399999999998975 0 12.8 0.399999999998975 0 13 0.399999999998975 0 13.2 0.399999999998975 0 13.4 0.399999999998975 0 13.6 0.399999999998975 0 13.8 0.399999999998975 0 14 0.399999999998975 0 14.2 0.399999999998975 0 14.4 0.399999999998975 0 14.6 0.399999999998975 0 14.8 0.399999999998975 0 15 0.399999999998975 0 15.2 0.399999999998975 0 15.4 0.399999999998975 0 15.6 0.399999999998975 0 15.8 0.399999999998975 0 0.2 0.599999999998947 0 0.4 0.599999999998947 0 0.6 0.599999999998947 0 0.8 0.599999999998947 0 1 0.599999999998947 0 1.2 0.599999999998947 0 1.4 0.599999999998947 0 1.6 0.599999999998947 0 1.8 0.599999999998947 0 2 0.599999999998947 0 2.2 0.599999999998947 0 2.4 0.599999999998947 0 2.6 0.599999999998947 0 2.8 0.599999999998947 0 3 0.599999999998947 0 3.2 0.599999999998947 0 3.4 0.599999999998947 0 3.6 0.599999999998947 0 3.8 0.599999999998947 0 4 0.599999999998947 0 4.2 0.599999999998947 0 4.4 0.599999999998947 0 4.6 0.599999999998947 0 4.8 0.599999999998947 0 5 0.599999999998947 0 5.2 0.599999999998947 0 5.4 0.599999999998947 0 5.6 0.599999999998947 0 5.8 0.599999999998947 0 6 0.599999999998947 0 6.2 0.599999999998947 0 6.4 0.599999999998947 0 6.6 0.599999999998947 0 6.8 0.599999999998947 0 7 0.599999999998947 0 7.2 0.599999999998947 0 7.4 0.599999999998947 0 7.6 0.599999999998947 0 7.8 0.599999999998947 0 8 0.599999999998947 0 8.2 0.599999999998947 0 8.4 0.599999999998947 0 8.6 0.599999999998947 0 8.8 0.599999999998947 0 9 0.599999999998947 0 9.2 0.599999999998947 0 9.4 0.599999999998947 0 9.6 0.599999999998947 0 9.8 0.599999999998947 0 10 0.599999999998947 0 10.2 0.599999999998947 0 10.4 0.599999999998947 0 10.6 0.599999999998947 0 10.8 0.599999999998947 0 11 0.599999999998947 0 11.2 0.599999999998947 0 11.4 0.599999999998947 0 11.6 0.599999999998947 0 11.8 0.599999999998947 0 12 0.599999999998947 0 12.2 0.599999999998947 0 12.4 0.599999999998947 0 12.6 0.599999999998947 0 12.8 0.599999999998947 0 13 0.599999999998947 0 13.2 0.599999999998947 0 13.4 0.599999999998947 0 13.6 0.599999999998947 0 13.8 0.599999999998947 0 14 0.599999999998947 0 14.2 0.599999999998947 0 14.4 0.599999999998947 0 14.6 0.599999999998947 0 14.8 0.599999999998947 0 15 0.599999999998947 0 15.2 0.599999999998947 0 15.4 0.599999999998947 0 15.6 0.599999999998947 0 15.8 0.599999999998947 0 0.2 0.799999999999473 0 0.4 0.799999999999473 0 0.6 0.799999999999473 0 0.8 0.799999999999473 0 1 0.799999999999473 0 1.2 0.799999999999473 0 1.4 0.799999999999473 0 1.6 0.799999999999473 0 1.8 0.799999999999473 0 2 0.799999999999473 0 2.2 0.799999999999473 0 2.4 0.799999999999473 0 2.6 0.799999999999473 0 2.8 0.799999999999473 0 3 0.799999999999473 0 3.2 0.799999999999473 0 3.4 0.799999999999473 0 3.6 0.799999999999473 0 3.8 0.799999999999473 0 4 0.799999999999473 0 4.2 0.799999999999473 0 4.4 0.799999999999473 0 4.6 0.799999999999473 0 4.8 0.799999999999473 0 5 0.799999999999473 0 5.2 0.799999999999473 0 5.4 0.799999999999473 0 5.6 0.799999999999473 0 5.8 0.799999999999473 0 6 0.799999999999473 0 6.2 0.799999999999473 0 6.4 0.799999999999473 0 6.6 0.799999999999473 0 6.8 0.799999999999473 0 7 0.799999999999473 0 7.2 0.799999999999473 0 7.4 0.799999999999473 0 7.6 0.799999999999473 0 7.8 0.799999999999473 0 8 0.799999999999473 0 8.2 0.799999999999473 0 8.4 0.799999999999473 0 8.6 0.799999999999473 0 8.8 0.799999999999473 0 9 0.799999999999473 0 9.2 0.799999999999473 0 9.4 0.799999999999473 0 9.6 0.799999999999473 0 9.8 0.799999999999473 0 10 0.799999999999473 0 10.2 0.799999999999473 0 10.4 0.799999999999473 0 10.6 0.799999999999473 0 10.8 0.799999999999473 0 11 0.799999999999473 0 11.2 0.799999999999473 0 11.4 0.799999999999473 0 11.6 0.799999999999473 0 11.8 0.799999999999473 0 12 0.799999999999473 0 12.2 0.799999999999473 0 12.4 0.799999999999473 0 12.6 0.799999999999473 0 12.8 0.799999999999473 0 13 0.799999999999473 0 13.2 0.799999999999473 0 13.4 0.799999999999473 0 13.6 0.799999999999473 0 13.8 0.799999999999473 0 14 0.799999999999473 0 14.2 0.799999999999473 0 14.4 0.799999999999473 0 14.6 0.799999999999473 0 14.8 0.799999999999473 0 15 0.799999999999473 0 15.2 0.799999999999473 0 15.4 0.799999999999473 0 15.6 0.799999999999473 0 15.8 0.799999999999473 0 
</DataArray>
</Points>
<Cells>
<DataArray type="UInt32" Name="connectivity" format="ascii">
[...]
<CellData Scalars="pressure_p0," Vectors="velocity_p0," Tensors="">
<DataArray type="Float64" Name="pressure_p0" format="ascii">
-0.0267430604174918 -0.0535287606477711 -0.106890312499702 -0.133653523252418 -0.18696604908916 -0.213717656837399 -0.267005309065245 -0.293750825279129 -0.347025621221389 -0.373767933766258 -0.427036066726319 -0.453776703071914 -0.507041397524993 -0.533781163774448 -0.587044096221192 -0.613783414776109 -0.667045451524853 -0.693784541792481 -0.74704612694046 -0.773785101834777 -0.827046461090247 -0.853785378167128 -0.907046625257882 -0.933785513576965 -0.98704670534446 -1.01378557945152 -1.06704674410233 -1.09378561122766 -1.1470467626703 -1.17378562638791 -1.22704677143839 -1.25378563350515 -1.30704677548146 -1.33378563675476 -1.38704677726031 -1.41378563815475 -1.46704677795891 -1.49378563867299 -1.54704677814297 -1.57378563877101 -1.6270467780817 -1.65378563866846 -1.70704677790331 -1.73378563847012 -1.7870467776691 -1.81378563822629 -1.86704677740859 -1.89378563796119 -1.94704677713599 -1.97378563768647 -2.02704677685808 -2.05378563740762 -2.107046776578 -2.13378563712716 -2.18704677629714 -2.21378563684613 -2.26704677601603 -2.29378563656493 -2.34704677573481 -2.37378563628361 -2.42704677545344 -2.4537856360021 -2.50704677517178 -2.53378563572023 -2.58704677488956 -2.61378563543768 -2.66704677460637 -2.69378563515393 -2.7470467743214 -2.77378563486802 -2.8270467740333 -2.85378563457829 -2.9070467737396 -2.93378563428176 -2.98704677343596 -3.01378563397312 -3.06704677311465 -3.09378563364299 -3.14704677276195 -3.17378563327469 -3.22704677235362 -3.2537856328388 -3.30704677184688 -3.33378563228345 -3.38704677116642 -3.41378563151737 -3.46704677017994 -3.49378563038035 -3.54704676865559 -3.57378562859192 -3.627046766188 -3.65378562566215 -3.70704676207023 -3.73378562073738 -3.78704675507247 -3.81378561233401 -3.86704674306075 -3.89378559788016 -3.94704672234192 -3.97378557292914 -4.02704668654135 -4.05378552981322 -4.1070466246857 -4.13378545534613 -4.18704651793723 -4.21378532691383 -4.26704633404814 -4.29378510584325 -4.34704601797323 -4.37378472619006 -4.42704547603253 -4.45378407584583 -4.50704454928815 -4.5337829648201 -4.5870429689613 -4.61378107220196 -4.66704028208512 -4.69377785784981 -4.74703572808192 -4.77377241603661 -4.82702803487598 -4.85376323412383 -4.90701508388114 -4.93374779682092 -4.98699336272936 -5.01372194110615 -5.06695707691998 -5.09367881158222 -5.14689671783052 -5.17360718091994 -5.22679677208345 -5.25348877095244 -5.30663208859425 -5.33329401759519 -5.3863621715489 -5.41297544198022 -5.46592231125977 -5.4924573906713 -5.54520996793914 -5.57162035719774 -5.62406415617694 -5.65027736941119 -5.70223472722609 -5.72813902046347 -5.77933744259101 -5.80476269024331 -5.85478969542334 -5.87948051224954 -5.9277209407118 -5.95130003199783 -5.9968518516568 -6.01877188190567 -6.06033774257659 -6.07982108192023 -6.11557599725204 -6.13154392773678 -6.15898527507219 -6.16998187302019 -6.18577658231366 -6.18989721135952 -0.0266921422654473 -0.053409868070466 -0.106755045315021 -0.133485026290636 -0.186792985236386 -0.213526688576665 -0.266813946688421 -0.293548932902339 -0.346825087353529 -0.373560564949203 -0.426830884031035 -0.453566562930774 -0.506833857995834 -0.533569622010165 -0.586835367264214 -0.613571167518034 -0.666836126100448 -0.693571941676547 -0.74683650443829 -0.773572326405841 -0.826836691615668 -0.853572516200371 -0.90683678353853 -0.933572609162537 -0.986836828332161 -1.01357265434595 -1.06683684995134 -1.09357267609726 -1.14683686024226 -1.17357268642619 -1.22683686503074 -1.25357269122331 -1.3068368671652 -1.33357269335959 -1.38683686802828 -1.41357269422375 -1.46683686828537 -1.49357269448204 -1.54683686825409 -1.57357269445194 -1.62683686808525 -1.65357269428426 -1.70683686785058 -1.73357269405083 -1.78683686758441 -1.81357269378609 -1.86683686730333 -1.89357269350669 -1.94683686701545 -1.97357269322067 -2.02683686672464 -2.05357269293186 -2.10683686643272 -2.13357269264199 -2.18683686614047 -2.21357269235179 -2.26683686584815 -2.29357269206151 -2.34683686555581 -2.37357269177115 -2.42683686526335 -2.45357269148063 -2.50683686497062 -2.53357269118976 -2.58683686467736 -2.61357269089822 -2.66683686438312 -2.69357269060548 -2.74683686408712 -2.7735726903106 -2.82683686378799 -2.85357269001191 -2.90683686348329 -2.93357268970642 -2.98683686316867 -3.01357268938888 -3.06683686283642 -3.09357268904987 -3.14683686247286 -3.17357268867279 -3.2268368620538 -3.25357268822828 -3.30683686153658 -3.33357268766455 -3.38683686084603 -3.41357268689053 -3.46683685985013 -3.49357268574628 -3.54683685831743 -3.57357268395177 -3.62683685584321 -3.65357268101772 -3.70683685172145 -3.73357267609143 -3.78683684472363 -3.81357266769057 -3.86683683271751 -3.89357265324492 -3.94683681201199 -3.97357262830976 -4.02683677623474 -4.05357258521937 -4.10683671441449 -4.13357251078916 -4.18683660771473 -4.21357238240586 -4.26683642388738 -4.29357216139553 -4.34683610788461 -4.37357178181097 -4.42683556602169 -4.45357113153911 -4.50683463935478 -4.53357002058454 -4.5868330591009 -4.61356812803375 -4.66683037229428 -4.69356491374752 -4.74682581836542 -4.77355947200623 -4.82681812525007 -4.85355029017759 -4.90680517436329 -4.93353485296255 -4.9867834533081 -5.01350899730164 -5.0667471675148 -5.09346586773341 -5.14668680828116 -5.17339423688319 -5.22658686223068 -5.2532758266483 -5.30642217848064 -5.33308107319744 -5.38615226163759 -5.41276249803756 -5.46571240238672 -5.49224444789366 -5.5450000607012 -5.57140741575479 -5.62385424990539 -5.650064428116 -5.70202481951898 -5.72792607685493 -5.77912753066112 -5.8045497423941 -5.85457977908378 -5.8792675614254 -5.92751102427485 -5.95108708334857 -5.99664194166725 -6.01855894116019 -6.06012784211622 -6.07960815010125 -6.11536610219185 -6.13133099841311 -6.15877537500712 -6.16976893727935 -6.18556667799312 -6.18968427168279 -0.0266581838552349 -0.0533418158495937 -0.106646711736148 -0.133353287460198 -0.186640104407424 -0.213359894229688 -0.266636522563515 -0.293363475359076 -0.346634637093987 -0.373365360114193 -0.42663366184714 -0.453366334824779 -0.506633163636445 -0.533366832622217 -0.586632911580319 -0.613367084206762 -0.666632785047475 -0.693367210133223 -0.746632721925007 -0.773367272583306 -0.826632690591995 -0.853367303271705 -0.906632675082707 -0.93336731819362 -0.986632667386741 -1.01336732533348 -1.0666326635136 -1.09336732864829 -1.14663266149515 -1.17336733009247 -1.22663266037217 -1.25336733062937 -1.30663265968163 -1.33336733073128 -1.38663265920049 -1.41336733062693 -1.4666326588206 -1.49336733042514 -1.54663265848906 -1.57336733017691 -1.62663265817993 -1.65336732990604 -1.7066326578808 -1.73336732962387 -1.78663265758599 -1.81336732933608 -1.8666326572931 -1.89336732904565 -1.9466326570012 -1.97336732875413 -2.02663265670994 -2.05336732846232 -2.10663265641917 -2.13336732817058 -2.18663265612877 -2.21336732787899 -2.26663265583862 -2.29336732758753 -2.34663265554857 -2.37336732729609 -2.42663265525847 -2.45336732700452 -2.50663265496813 -2.53336732671263 -2.58663265467727 -2.61336732642009 -2.66663265438545 -2.69336732612636 -2.74663265409188 -2.77336732583049 -2.82663265379519 -2.85336732553083 -2.90663265349294 -2.93336732522439 -2.98663265318079 -3.0133673249059 -3.06663265285104 -3.093367324566 -3.14663265249002 -3.1733673241881 -3.22663265207359 -3.25336732374287 -3.30663265155913 -3.33336732317863 -3.38663265087157 -3.41336732240441 -3.46663264987904 -3.49336732126052 -3.54663264835032 -3.57336731946723 -3.62663264588104 -3.65336731653575 -3.70663264176568 -3.73336731161407 -3.78663263477635 -3.81336730322074 -3.86663262278161 -3.89336728878667 -3.94663260209121 -3.97336726386829 -4.02663256633348 -4.05336722080087 -4.10663250453727 -4.13336714640018 -4.18663239786509 -4.21336701805197 -4.266632214066 -4.29336679707939 -4.34663189808719 -4.37336641752995 -4.42663135623675 -4.45336576728353 -4.50663042956323 -4.53336465633784 -4.58662884927874 -4.61336276377639 -4.66662616242005 -4.69335954946536 -4.74662160843149 -4.7733541077007 -4.82661391527223 -4.85334492587059 -4.90660096437807 -4.93332948868464 -4.98657924334603 -5.01330363305591 -5.06654295754941 -5.09326050344643 -5.146482598183 -5.17318887238676 -5.22638265178972 -5.25307046175926 -5.30621796755941 -5.3328757079249 -5.38594805042328 -5.41255713280915 -5.46550819152942 -5.49203908351701 -5.54479585102092 -5.57120205284764 -5.62365004160346 -5.64985906619441 -5.70182061146904 -5.72772071396227 -5.77892332072373 -5.80434437618499 -5.85437556562191 -5.87906219128755 -5.92730680764175 -5.9508817115863 -5.99643772431646 -6.01835357166854 -6.05992362694954 -6.07940278540632 -6.11516189136472 -6.13112563844086 -6.15857116946651 -6.16956357914722 -6.1853624742011 -6.1894789133588 -0.0266185689214818 -0.053279420158363 -0.106533051836487 -0.133226874965547 -0.186483498634506 -0.213196824858339 -0.266456531658809 -0.293180584655497 -0.346442292390438 -0.373172049816311 -0.426434906790349 -0.453167639712926 -0.506431124171489 -0.533165388474973 -0.586429206426325 -0.61316425049982 -0.666428242615697 -0.693163680098984 -0.74642776198713 -0.773163396320816 -0.826427523985591 -0.853163256077369 -0.906427406861283 -0.933163187162104 -0.986427349516636 -1.01316315343474 -1.06642732153076 -1.09316313694599 -1.14642730786984 -1.17316312884865 -1.22642730115751 -1.25316312481365 -1.30642729779857 -1.3331631227364 -1.38642729605082 -1.4131631215989 -1.46642729507388 -1.49316312091052 -1.54642729446393 -1.57316312043556 -1.62642729402768 -1.65316312006121 -1.70642729367309 -1.73316311973393 -1.78642729335667 -1.81316311942853 -1.86642729305807 -1.89316311913337 -1.94642729276786 -1.97316311884307 -2.02642729248167 -2.0531631185552 -2.1064272921975 -2.1331631182686 -2.18642729191437 -2.21316311798269 -2.26642729163178 -2.29316311769714 -2.34642729134942 -2.37316311741171 -2.42642729106707 -2.45316311712621 -2.50642729078451 -2.5331631168404 -2.58642729050145 -2.61316311655396 -2.66642729021743 -2.69316311626634 -2.74642728993168 -2.7731631159766 -2.82642728964281 -2.85316311568307 -2.90642728934839 -2.93316311538277 -2.98642728904408 -3.01316311507043 -3.06642728872218 -3.09316311473671 -3.14642728836905 -3.17316311436502 -3.22642728796055 -3.25316311392608 -3.3064272874541 -3.33316311336824 -3.38642728677467 -3.4131631126006 -3.46642728579048 -3.49316311146359 -3.54642728427041 -3.57316310967764 -3.62642728181027 -3.65316310675423 -3.70642727770477 -3.73316310184165 -3.78642727072629 -3.81316309345886 -3.86642725874365 -3.89316307903719 -3.94642723806681 -3.97316305413335 -4.02642720232398 -4.05316301108257 -4.1064271405433 -4.13316293669978 -4.18642703388544 -4.21316280836859 -4.26642685009615 -4.29316258740825 -4.3464265341173 -4.37316220786027 -4.42642599225004 -4.45316155759708 -4.50642506553568 -4.53316044660947 -4.58642348518184 -4.61315855397824 -4.66642079822819 -4.69315533957599 -4.74641624413376 -4.77314989771755 -4.82640855088469 -4.85314071581953 -4.90639559994678 -4.93312527861488 -4.98637387892763 -5.0130994230086 -5.06633759316199 -5.09305629339797 -5.14627723374344 -5.17298466219888 -5.22617728709056 -5.25286625120185 -5.30601260235797 -5.33267149683112 -5.38574268466388 -5.41235292132474 -5.46530282557099 -5.49183487223491 -5.54459048560143 -5.57099784254835 -5.62344467737218 -5.64965485717634 -5.70161524833669 -5.7275165054658 -5.7787179576036 -5.80414016657491 -5.85417020086423 -5.87885797902025 -5.92710143993218 -5.95067749628003 -5.99623235376851 -6.01814935474204 -6.05971825585281 -6.07919856979482 -6.11495652341365 -6.13092142737404 -6.15836580773355 -6.16935937378216 -6.18515711586104 -6.1892747097501 -0.0265390964957883 -0.0531890818888684 -0.106380702242289 -0.133075460443631 -0.186299959436726 -0.21301633199975 -0.266258275483888 -0.292985586238713 -0.346236749897723 -0.372969689914908 -0.426225690475887 -0.45296153355964 -0.506220049025741 -0.532957382695157 -0.586217193667583 -0.612955287375601 -0.666215759627396 -0.692954237872806 -0.746215044732374 -0.772953716019075 -0.826214690803845 -0.85295345827334 -0.906214516684647 -0.932953331736898 -0.986214431492529 -1.01295326992622 -1.06621438998282 -1.09295323983246 -1.14621436979418 -1.17295322518399 -1.22621435995097 -1.25295321801418 -1.30621435510073 -1.3329532144471 -1.38621435264859 -1.41295321260759 -1.46621435134309 -1.49295321159285 -1.54621435058343 -1.57295321097005 -1.62621435008235 -1.65295321053256 -1.70621434970318 -1.73295321018223 -1.7862143493812 -1.8129532098727 -1.86621434908599 -1.89295320958227 -1.94621434880332 -1.97295320930081 -2.0262143485266 -2.05295320902364 -2.10621434825274 -2.13295320874857 -2.18621434798029 -2.21295320847455 -2.26621434770854 -2.29295320820104 -2.34621434743709 -2.37295320792772 -2.42621434716568 -2.45295320765435 -2.50621434689407 -2.53295320738069 -2.58621434662197 -2.61295320710641 -2.66621434634892 -2.69295320683097 -2.74621434607415 -2.77295320655341 -2.82621434579626 -2.85295320627205 -2.90621434551282 -2.93295320598394 -2.98621434521949 -3.0129532056838 -3.06621434490859 -3.09295320536229 -3.14621434456647 -3.17295320500283 -3.22621434416899 -3.25295320457614 -3.30621434367359 -3.33295320403061 -3.38621434300527 -3.41295320327536 -3.46621434203224 -3.49295320215087 -3.54621434052347 -3.57295320037764 -3.62621433807479 -3.65295319746722 -3.70621433398097 -3.73295319256803 -3.78621432701446 -3.8129531841991 -3.86621431504407 -3.89295316979176 -3.94621429437963 -3.97295314490256 -4.02621425864897 -4.05295310186613 -4.10621419687936 -4.13295302749611 -4.18621409022983 -4.21295289917372 -4.26621390644341 -4.29295267821432 -4.3462135904579 -4.37295229865391 -4.42621304856929 -4.45295164835826 -4.50621212181347 -4.53295053731202 -4.58621054139457 -4.61294864459367 -4.66620785435408 -4.69294543008175 -4.74620330016198 -4.7729399881094 -4.8261956068261 -4.85293080612332 -4.90618265583999 -4.9329153688877 -4.98616093482975 -5.01288951331597 -5.06612464911475 -5.09284638376053 -5.14606428971843 -5.17277475252578 -5.22596434294472 -5.25265634126433 -5.30579965785666 -5.33246158634862 -5.38552973961659 -5.41214301018527 -5.46508988004023 -5.49162496073499 -5.54437754002728 -5.57078793141375 -5.62323173243742 -5.64944494719657 -5.70140230455626 -5.72730659686621 -5.77850501480831 -5.80393025850258 -5.85395725788111 -5.87864806960065 -5.92688849495157 -5.95046758365133 -5.99601940573447 -6.01793943890348 -6.05950530611068 -6.07898865371154 -6.11474357549344 -6.13071151538331 -6.15815286489021 -6.16914946799761 -6.18494417676605 -6.18906480716411 
</DataArray>
<DataArray type="Float64" Name="velocity_p0" NumberOfComponents="3" format="ascii">