<?xml version="1.0"?>
<VTKFile type="UnstructuredGrid" version="0.1" byte_order="LittleEndian">
<UnstructuredGrid>
<Piece NumberOfPoints="486" NumberOfCells="800">
<Points>
<DataArray type="Float64" NumberOfComponents="3" format="ascii">
0 0 0 0 0.199999999999558 0 0.2 0.199999999999558 0 0.2 0 0 0 0.399999999998975 0 0.2 0.399999999998975 0 0.4 0.399999999998975 0 0.4 0.199999999999558 0 0.4 0 0 0.6 0 0 0.6 0.199999999999558 0 0.6 0.399999999998975 0 0.8 0.399999999998975 0 0.8 0 0 0.8 0.199999999999558 0 0.8 0.799999999999473 0 0.8 0.599999999998947 0 0.6 0.599999999998947 0 0.6 0.799999999999473 0 0.4 0.799999999999473 0 0.4 0.599999999998947 0 0.2 0.599999999998947 0 0 0.599999999998947 0 0.2 0.799999999999473 0 0 0.799999999999473 0 0 1 0 0.2 1 0 0.4 1 0 0.6 1 0 0.8 1 0 1 1 0 1.2 1 0 1.4 1 0 1.6 1 0 1.8 1 0 1.8 0.799999999999473 0 1.6 0.799999999999473 0 1.6 0.599999999998947 0 1.8 0.599999999998947 0 1.8 0.399999999998975 0 1.8 0.199999999999558 0 1.8 0 0 1.6 0.199999999999558 0 1.6 0 0 1.6 0.399999999998975 0 1.4 0.399999999998975 0 1.4 0 0 1.4 0.199999999999558 0 1.2 0 0 1.2 0.199999999999558 0 1 0.199999999999558 0 1 0 0 1.2 0.399999999998975 0 1 0.399999999998975 0 1 0.599999999998947 0 1.2 0.599999999998947 0 1 0.799999999999473 0 1.2 0.799999999999473 0 1.4 0.799999999999473 0 1.4 0.599999999998947 0 2.6 0.599999999998947 0 2.6 0.799999999999473 0 2.8 0.799999999999473 0 3 0.799999999999473 0 2.8 0.599999999998947 0 3 0.599999999998947 0 3 0.399999999998975 0 2.8 0.399999999998975 0 3 0 0 3 0.199999999999558 0 2.8 0.199999999999558 0 2.8 0 0 2.6 0.199999999999558 0 2.6 0 0 2.6 0.399999999998975 0 2.4 0.399999999998975 0 2.4 0 0 2.4 0.199999999999558 0 2.2 0 0 2.2 0.199999999999558 0 2 0.199999999999558 0 2 0 0 2.2 0.399999999998975 0 2 0.399999999998975 0 2 0.599999999998947 0 2.2 0.599999999998947 0 2.4 0.599999999998947 0 2.4 0.799999999999473 0 2.2 0.799999999999473 0 2 0.799999999999473 0 2 1 0 2.2 1 0 2.4 1 0 2.6 1 0 2.8 1 0 3 1 0 3.2 1 0 3.4 1 0 3.6 1 0 3.8 1 0 3.8 0.799999999999473 0 3.8 0.599999999998947 0 3.6 0.599999999998947 0 3.6 0.799999999999473 0 3.4 0.799999999999473 0 3.4 0.599999999998947 0 3.2 0.599999999998947 0 3.2 0.799999999999473 0 3.2 0.199999999999558 0 3.2 0 0 3.2 0.399999999998975 0 3.4 0.399999999998975 0 3.4 0.199999999999558 0 3.4 0 0 3.6 0 0 3.6 0.199999999999558 0 3.6 0.399999999998975 0 3.8 0.399999999998975 0 3.8 0 0 3.8 0.199999999999558 0 4 0 0 4.2 0 0 4.2 0.199999999999558 0 4 0.199999999999558 0 4 0.399999999998975 0 4.2 0.399999999998975 0 4.4 0.399999999998975 0 4.4 0.199999999999558 0 4.4 0 0 4 0.799999999999473 0 4.2 0.799999999999473 0 4 0.599999999998947 0 4.2 0.599999999998947 0 4.4 0.599999999998947 0 4.4 0.799999999999473 0 4.6 0.799999999999473 0 4.6 0.599999999998947 0 4.8 0.599999999998947 0 4.8 0.799999999999473 0 4.6 0 0 4.6 0.199999999999558 0 4.6 0.399999999998975 0 4.8 0.399999999998975 0 4.8 0.199999999999558 0 4.8 0 0 5 0 0 5 0.199999999999558 0 5.2 0.199999999999558 0 5.2 0 0 5.4 0.199999999999558 0 5.4 0 0 5.4 0.399999999998975 0 5.2 0.399999999998975 0 5 0.399999999998975 0 5 0.599999999998947 0 5.2 0.599999999998947 0 5 0.799999999999473 0 5.2 0.799999999999473 0 5.4 0.799999999999473 0 5.4 0.599999999998947 0 5.6 0.599999999998947 0 5.6 0.799999999999473 0 5.8 0.799999999999473 0 5.8 0.599999999998947 0 5.8 0.399999999998975 0 5.8 0 0 5.8 0.199999999999558 0 5.6 0 0 5.6 0.199999999999558 0 5.6 0.399999999998975 0 5.8 1 0 5.6 1 0 5.4 1 0 5.2 1 0 5 1 0 4.8 1 0 4.6 1 0 4.4 1 0 4 1 0 4.2 1 0 7.8 1 0 7.8 0.799999999999473 0 7.8 0.599999999998947 0 7.6 0.599999999998947 0 7.6 0.799999999999473 0 7.6 1 0 7.8 0 0 7.8 0.199999999999558 0 7.8 0.399999999998975 0 7.6 0.399999999998975 0 7.6 0.199999999999558 0 7.6 0 0 7.4 0 0 7.4 0.199999999999558 0 7.4 0.399999999998975 0 7.2 0.399999999998975 0 7.2 0.199999999999558 0 7.2 0 0 7.4 1 0 7.4 0.799999999999473 0 7.4 0.599999999998947 0 7.2 0.599999999998947 0 7.2 0.799999999999473 0 7.2 1 0 7 1 0 6.8 1 0 6.8 0.799999999999473 0 7 0.799999999999473 0 7 0.599999999998947 0 6.8 0.599999999998947 0 6.6 0.599999999998947 0 6.6 0.799999999999473 0 6.6 1 0 6.8 0 0 7 0 0 7 0.199999999999558 0 6.8 0.199999999999558 0 7 0.399999999998975 0 6.8 0.399999999998975 0 6.6 0.399999999998975 0 6.6 0.199999999999558 0 6.6 0 0 6.4 0 0 6.4 0.199999999999558 0 6.4 0.399999999998975 0 6.2 0.399999999998975 0 6 0.399999999998975 0 6.2 0.199999999999558 0 6 0.199999999999558 0 6 0 0 6.2 0 0 6.4 1 0 6.4 0.799999999999473 0 6.4 0.599999999998947 0 6.2 0.599999999998947 0 6 0.599999999998947 0 6 0.799999999999473 0 6.2 0.799999999999473 0 6.2 1 0 6 1 0 15.2 0.199999999999558 0 15.2 0 0 15.2 0.399999999998975 0 15.4 0.399999999998975 0 15.4 0.199999999999558 0 15.4 0 0 15.6 0 0 15.6 0.199999999999558 0 15.8 0 0 15.8 0.199999999999558 0 16 0.199999999999558 0 16 0 0 16 0.399999999998975 0 15.8 0.399999999998975 0 15.6 0.399999999998975 0 15.6 0.599999999998947 0 15.8 0.599999999998947 0 16 0.599999999998947 0 16 0.799999999999473 0 15.8 0.799999999999473 0 15.6 0.799999999999473 0 15.4 0.799999999999473 0 15.4 0.599999999998947 0 15.2 0.599999999998947 0 15.2 0.799999999999473 0 15.2 1 0 15.4 1 0 15.6 1 0 15.8 1 0 16 1 0 14.2 1 0 14.4 1 0 14.6 1 0 15 1 0 14.8 1 0 14.8 0.799999999999473 0 15 0.799999999999473 0 15 0.599999999998947 0 14.8 0.599999999998947 0 14.6 0.599999999998947 0 14.6 0.799999999999473 0 14.4 0.799999999999473 0 14.2 0.799999999999473 0 14.2 0.599999999998947 0 14.4 0.599999999998947 0 14.4 0.399999999998975 0 14.2 0.399999999998975 0 14.2 0.199999999999558 0 14.2 0 0 14.4 0.199999999999558 0 14.4 0 0 14.6 0 0 14.6 0.199999999999558 0 14.6 0.399999999998975 0 14.8 0.399999999998975 0 15 0.399999999998975 0 15 0.199999999999558 0 15 0 0 14.8 0 0 14.8 0.199999999999558 0 13.2 0.199999999999558 0 13.2 0 0 13.2 0.399999999998975 0 13.4 0.399999999998975 0 13.4 0.199999999999558 0 13.4 0 0 13.6 0 0 13.6 0.199999999999558 0 13.8 0 0 13.8 0.199999999999558 0 14 0.199999999999558 0 14 0 0 14 0.399999999998975 0 13.8 0.399999999998975 0 13.6 0.399999999998975 0 13.6 0.599999999998947 0 13.8 0.599999999998947 0 14 0.599999999998947 0 14 0.799999999999473 0 13.8 0.799999999999473 0 13.6 0.799999999999473 0 13.4 0.799999999999473 0 13.4 0.599999999998947 0 13.2 0.599999999998947 0 13.2 0.799999999999473 0 13.2 1 0 13.4 1 0 13.6 1 0 13.8 1 0 14 1 0 12.2 1 0 12.4 1 0 12.6 1 0 13 1 0 12.8 1 0 12.8 0.799999999999473 0 13 0.799999999999473 0 13 0.599999999998947 0 12.8 0.599999999998947 0 12.6 0.599999999998947 0 12.6 0.799999999999473 0 12.4 0.799999999999473 0 12.2 0.799999999999473 0 12.2 0.599999999998947 0 12.4 0.599999999998947 0 12.4 0.399999999998975 0 12.2 0.399999999998975 0 12.2 0.199999999999558 0 12.2 0 0 12.4 0.199999999999558 0 12.4 0 0 12.6 0 0 12.6 0.199999999999558 0 12.6 0.399999999998975 0 12.8 0.399999999998975 0 13 0.399999999998975 0 13 0.199999999999558 0 13 0 0 12.8 0 0 12.8 0.199999999999558 0 11.2 0.199999999999558 0 11.2 0 0 11.2 0.399999999998975 0 11.4 0.399999999998975 0 11.4 0.199999999999558 0 11.4 0 0 11.6 0 0 11.6 0.199999999999558 0 11.8 0 0 11.8 0.199999999999558 0 12 0.199999999999558 0 12 0 0 12 0.399999999998975 0 11.8 0.399999999998975 0 11.6 0.399999999998975 0 11.6 0.599999999998947 0 11.8 0.599999999998947 0 12 0.599999999998947 0 12 0.799999999999473 0 11.8 0.799999999999473 0 11.6 0.799999999999473 0 11.4 0.799999999999473 0 11.4 0.599999999998947 0 11.2 0.599999999998947 0 11.2 0.799999999999473 0 11.2 1 0 11.4 1 0 11.6 1 0 11.8 1 0 12 1 0 10.2 1 0 10.4 1 0 10.6 1 0 11 1 0 10.8 1 0 10.8 0.799999999999473 0 11 0.799999999999473 0 11 0.599999999998947 0 10.8 0.599999999998947 0 10.6 0.599999999998947 0 10.6 0.799999999999473 0 10.4 0.799999999999473 0 10.2 0.799999999999473 0 10.2 0.599999999998947 0 10.4 0.599999999998947 0 10.4 0.399999999998975 0 10.2 0.399999999998975 0 10.2 0.199999999999558 0 10.2 0 0 10.4 0.199999999999558 0 10.4 0 0 10.6 0 0 10.6 0.199999999999558 0 10.6 0.399999999998975 0 10.8 0.399999999998975 0 11 0.399999999998975 0 11 0.199999999999558 0 11 0 0 10.8 0 0 10.8 0.199999999999558 0 9.2 0.199999999999558 0 9.2 0 0 9.2 0.399999999998975 0 9.4 0.399999999998975 0 9.4 0.199999999999558 0 9.4 0 0 9.6 0 0 9.6 0.199999999999558 0 9.8 0 0 9.8 0.199999999999558 0 10 0.199999999999558 0 10 0 0 10 0.399999999998975 0 9.8 0.399999999998975 0 9.6 0.399999999998975 0 9.6 0.599999999998947 0 9.8 0.599999999998947 0 10 0.599999999998947 0 10 0.799999999999473 0 9.8 0.799999999999473 0 9.6 0.799999999999473 0 9.4 0.799999999999473 0 9.4 0.599999999998947 0 9.2 0.599999999998947 0 9.2 0.799999999999473 0 9.2 1 0 9.4 1 0 9.6 1 0 9.8 1 0 10 1 0 8 1 0 8.2 1 0 8.4 1 0 8.6 1 0 9 1 0 8.8 1 0 8.8 0.799999999999473 0 9 0.799999999999473 0 9 0.599999999998947 0 8.8 0.599999999998947 0 8.6 0.599999999998947 0 8.6 0.799999999999473 0 8.4 0.799999999999473 0 8.2 0.799999999999473 0 8 0.799999999999473 0 8 0.599999999998947 0 8.2 0.599999999998947 0 8.4 0.599999999998947 0 8.4 0.399999999998975 0 8.2 0.399999999998975 0 8 0.399999999998975 0 8 0 0 8 0.199999999999558 0 8.2 0.199999999999558 0 8.2 0 0 8.4 0.199999999999558 0 8.4 0 0 8.6 0 0 8.6 0.199999999999558 0 8.6 0.399999999998975 0 8.8 0.399999999998975 0 9 0.399999999998975 0 9 0.199999999999558 0 9 0 0 8.8 0 0 8.8 0.199999999999558 0 
</DataArray>
</Points>
<Cells>
<DataArray type="UInt32" Name="connectivity" format="ascii">
[...]
<CellData Scalars="pressure_p0," Vectors="velocity_p0," Tensors="">
<DataArray type="Float64" Name="pressure_p0" format="ascii">
-0.126744623131699 -0.253532297485064 -0.126692741774232 -0.25341196516063 -0.25334135092638 -0.633352295972508 -0.506757698746991 -0.633490108737281 -0.886797335253856 -0.633661950059433 -0.506896564131056 -0.886976355611853 -1.01373019730834 -1.39376649282454 -1.26701877927117 -1.01353418752416 -1.01335832498698 -1.39336126462336 -1.39355820984133 -1.26681950661274 -1.64683145056244 -1.77336252840982 -1.77357101946313 -1.77378573749084 -1.64704132577815 -1.64620999408746 -1.77294310331302 -1.77315503257622 -1.64662738759413 -1.64642241709917 -1.39316610741886 -1.26643997627239 -1.26663061948381 -1.01318557985678 -1.01299857678015 -1.39296285283713 -1.26623593719652 -0.886283263172884 -0.633063692156307 -0.506370649095942 -0.886635789404843 -0.886471154856538 -0.633219428379194 -0.506525620864213 -0.506644102045295 -0.253276265049038 -0.126616606338065 -0.12665742066169 -0.2531841498667 -0.126536515322017 -3.67291862187506 -3.54617842886909 -3.16618007641503 -3.29292004900477 -2.91292204760885 -2.91314273509787 -3.16640147634178 -3.29314138214644 -3.16662225000956 -3.54662161005238 -3.54640015674556 -3.67314034825624 -3.67336191324675 -3.6735834666521 -3.54684296906227 -3.67380535534297 -3.54706462989552 -3.29380497292947 -3.16706403552834 -2.91380375696869 -3.29336235025512 -3.29358334020919 -3.16684284810855 -2.91358272973058 -2.91336266191736 -2.78684233931724 -2.40684090008456 -2.53358116910339 -2.53336296917931 -2.7870625612623 -2.40705944107201 -2.53380107480298 -2.15379589569709 -2.02705325803044 -2.1533629484122 -2.15357774263359 -2.0268376942113 -2.02662532908803 -2.15314869006945 -2.02641240295419 -2.02619540933969 -2.15293192819225 -2.53292565291786 -2.40618732177724 -2.786182497919 -2.78640335917477 -2.78662294140285 -2.40662399474282 -2.40640676129621 -2.53314497335535 -5.06639721787076 -5.1931378053123 -5.06661928464268 -4.81313813712374 -4.81291601305266 -5.06617497769253 -5.19291559698107 -5.44617455718083 -5.5729151500534 -5.57313738166476 -5.44639679907664 -5.44661900280534 -5.5733596631031 -5.57358199469062 -5.44684129083064 -5.57380427397126 -5.44706362405567 -5.19380455661076 -5.06706387170376 -4.81380479620726 -5.1933598746682 -5.19358216952517 -5.06684141612095 -4.81358248086322 -4.8133601500765 -4.68684187099683 -4.4335828866347 -4.30684229872194 -4.43336073827383 -4.68706408438691 -4.30706434131594 -4.43380493756994 -4.05380518970651 -3.92706454839411 -4.05336130577452 -4.05358314682582 -3.92684263203288 -3.9266209363388 -3.92639915699636 -4.05313951728234 -4.30662029145411 -4.4331387439909 -4.30639836725574 -4.68639758921303 -4.68661957289306 -4.68617544625158 -4.43291673534009 -4.30617630296174 -4.05291752358076 -3.92617715059427 -7.47291579297141 -7.34617496556892 -7.47313812689798 -7.34639728026537 -7.34661972496329 -6.96661938473227 -7.09313787053683 -6.96639699720299 -6.71313768052677 -6.96617459466096 -7.09291549451273 -6.71291540409138 -6.58617462763557 -6.20617434400293 -6.33291520244159 -6.58639683741723 -6.5866190452189 -6.20661888398437 -6.3331373925175 -6.20639654019424 -5.9531369790018 -5.82661859713295 -5.8263962333318 -5.82617409265745 -5.952914790932 -5.95380415427036 -5.8270633554251 -5.82684096354631 -5.9533593521141 -5.95358182527481 -6.20684122741212 -6.33358220853865 -6.33335970672162 -6.58684159141298 -6.58706420132597 -6.20706369083598 -6.33380463252956 -6.71380514979642 -6.96706468778013 -7.09380570913756 -6.71335990239129 -6.71358269363853 -6.96684204219873 -7.09358308160768 -7.0933603385479 -7.34684243077086 -7.47358344103286 -7.47336068024488 -7.34706513974158 -7.47380600531803 -7.85380601725325 -7.72706521388078 -7.7268426600373 -7.85336093753099 -7.85358361482428 -8.10684295461392 -8.23358385760754 -8.23336128642987 -8.48684315692739 -8.48706552689615 -8.23380616965663 -8.10706535757032 -7.72617507632249 -7.85291590950329 -7.85313826408799 -7.72639737029151 -7.72661989263453 -8.1066202988535 -8.48662071298063 -8.48639843249195 -8.23313883538166 -8.10639784199277 -8.232916375025 -8.48617599270713 -8.10617540090257 -8.86617626779203 -8.61291691197846 -8.99291705817581 -8.86639872972047 -8.99313955514431 -8.61313936956406 -8.8666210361222 -9.24662126100971 -9.37313964545927 -9.24639874976041 -9.37291703390223 -9.24617616666764 -8.86706572108793 -8.9938065578327 -8.61380635435487 -8.61358395757415 -8.6133615872972 -8.99336194290815 -8.99358422198984 -8.86684332204035 -9.24684363151801 -9.37336213565413 -9.37358450905426 -9.24706583218254 -9.37380653291809 -9.62706585783205 -9.75380636163253 -10.1338054059604 -10.0070656022751 -10.3870635433944 -10.3868433845175 -10.0068448632977 -10.1335850973905 -10.1333630431217 -9.75336249706919 -9.75358500859903 -9.62684408031884 -9.62662141845984 -9.62639890564229 -9.75313982754382 -9.62617650467714 -9.75291742501913 -10.0061769992224 -10.1329178994582 -10.3861772851574 -10.0066220563193 -10.0063994013557 -10.1331403951529 -10.38639962612 -10.3866219451237 -10.5131404486359 -10.8931405220047 -10.7663998427412 -10.7666216805503 -10.5129180985028 -10.8929184824545 -10.7661776126956 -11.1461779154367 -11.2729187253314 -11.1466218397123 -11.1464000005191 -11.2731406369868 -11.2733624486193 -11.146843453032 -11.2735844958358 -11.2738068831179 -11.1470655631132 -10.767063497821 -10.8938050627331 -10.5138028394273 -10.5135828862978 -10.5133623607595 -10.8933620100812 -10.7668423204545 -10.8935830458423 -14.9461653282879 -15.0729040209824 -15.0731262472921 -14.946609741788 -14.9463876178674 -14.5663926218609 -14.6931318688034 -14.5666146138623 -14.3131356961671 -14.3129134775024 -14.5661701885648 -14.6929095334859 -15.0737931681947 -14.9470544949074 -14.9468320782448 -15.0735708128551 -15.0733484113436 -14.6933538802839 -14.3133577007561 -14.3135801583985 -14.5668368931524 -14.6935762860673 -14.5670594848424 -14.3138026857449 -14.6937988317676 -13.9338050026228 -14.1870628404679 -13.8070647936098 -13.806842577529 -13.9335825784763 -14.1868402499606 -13.9333604688206 -13.5533623660079 -13.4268441128831 -13.5535843755152 -13.4270661343401 -13.5538065211528 -13.9329162240217 -13.8061762388024 -14.1861738337088 -14.1863959347741 -14.1866179814437 -13.8066205736072 -13.8063983126533 -13.9331383225204 -13.5531402194404 -13.4266221248506 -13.4263998608486 -13.5529180551884 -13.4261776769334 -13.0461781954518 -13.1729188068741 -13.1731410215833 -13.046622567649 -13.0464004466937 -12.7931413220783 -12.666400614067 -12.6666226170522 -12.4131411310167 -12.4129190828713 -12.6661784047027 -12.7929191046927 -13.1738075124496 -13.04706703546 -13.0468447440387 -13.1735853271517 -13.1733631770366 -12.793363380472 -12.4133632040144 -12.4135857633784 -12.6668450575695 -12.7935858564389 -12.6670674823752 -12.4138081763605 -12.7938081927694 -12.0338078309667 -12.2870673101841 -11.9070669488208 -11.9068443293714 -12.0335852593251 -12.286844738212 -12.0333627455767 -11.6533625586799 -11.5268440097748 -11.6535849699139 -11.5270666293222 -11.6538076312717 -12.0329189943502 -11.90617837232 -12.286178391984 -12.2864003113123 -12.2866222742911 -11.9066219676222 -11.9064001022989 -12.033140713919 -11.6531405494353 -11.5266217565383 -11.5264000239293 -11.6529189818618 -11.5261782726117 -27.9076836806007 -27.8387457253249 -27.838524063566 -27.9072401149117 -27.9074618637924 -28.0341523233679 -28.0913760038148 -28.0911536373761 -28.1928184163286 -28.193040668538 -28.034374171745 -28.0915978676145 -28.2366445786107 -28.3088192739709 -28.3366858701144 -28.375143205636 -28.3849382711565 -28.3844928803642 -28.3847155445745 -28.3749205118047 -28.3362404915541 -28.3364632914447 -28.3085966842303 -28.2364220604058 -28.2361993770481 -28.2359768560401 -28.3081515298094 -28.3360180392157 -28.3083739911465 -28.3746978851847 -28.3744753543099 -28.3842702540564 -28.3840477792979 -28.3742528746252 -28.3079295633979 -28.3357957172989 -28.2357548455308 -28.1921513481362 -28.0334858512925 -28.0907091880314 -28.1923733092617 -28.1925957184384 -28.0339301084679 -28.0337077000677 -28.0909312020462 -27.9070178655769 -27.8383023191199 -27.838079761988 -27.8378574892761 -27.9067955913251 -27.610573318564 -27.6895234062002 -27.6897461294055 -27.6110184447243 -27.6107959369667 -27.3565739290546 -27.4440260796072 -27.3567961532541 -27.1742012882048 -27.1739789630097 -27.4438035509673 -27.3563514455599 -27.0793536175531 -26.8838622721856 -26.7832241031675 -26.576773421101 -26.471126760173 -26.47157188901 -26.4713491589756 -26.5769955650463 -26.7836687638058 -26.8840838931398 -26.7834455723419 -27.0795754461254 -27.0797985309858 -27.080021007804 -26.8845298874356 -26.7838914545861 -26.8843074446754 -26.5772185369403 -26.5774409579723 -26.4717944032884 -26.4720171595357 -26.5776634925572 -26.8847518549216 -26.7841137217192 -27.0802432276964 -27.1748683342815 -27.4446921928462 -27.3572402900014 -27.174646319129 -27.174423949344 -27.4442481698625 -27.4444701434687 -27.3570183106979 -27.6112402924151 -27.6899683999893 -27.690190109539 -27.6904120821814 -27.6114622306395 -24.8745738523985 -24.7545113894424 -24.7542899649549 -24.8741306386936 -24.8743521667781 -25.1125983029912 -25.2308385795156 -25.2306163843583 -25.4650368458579 -25.4652590757994 -25.112820050688 -25.2310604283621 -25.5812405050271 -25.8104347898698 -25.9236326162103 -26.1466802703465 -26.2564706682696 -26.2560250473466 -26.2562478303028 -26.146457190006 -25.9231871053659 -25.9234098020677 -25.8102120191672 -25.5810178840651 -25.5807954445068 -25.5805731052149 -25.9229646996202 -25.8097671778667 -25.8099895768399 -26.1462343742341 -26.146011817689 -26.2558022588771 -26.2555796999748 -26.1457892711684 -25.8095448991232 -25.9227422421147 -25.5803509106549 -25.4643698968956 -25.111931920021 -25.2301719363784 -25.4645921411003 -25.4648144317465 -25.1123762484268 -25.1121539139775 -25.2303941292829 -24.8739085808833 -24.7540685328659 -24.7538459868014 -24.7536236672824 -24.8736862293362 -24.3906003907729 -24.5121237538336 -24.51234651229 -24.3910456050538 -24.3908230303947 -24.0240370469655 -24.1467238432111 -24.0242593582166 -23.7778742723441 -23.7776516659876 -24.1465012897025 -24.0238145277135 -23.6540440210686 -23.4062534923855 -23.2819215345535 -23.0328542541998 -22.9079554571444 -22.9084003370085 -22.9081777406365 -23.0330766702754 -23.2823665371412 -23.4064758612634 -23.282143672439 -23.6542664154867 -23.6544892903921 -23.6547115964138 -23.4069211152424 -23.2825889684782 -23.4066988658529 -23.0332995285294 -23.0335218700481 -22.9086230339989 -22.9088456682166 -23.0337446312678 -23.4071437599006 -23.2828116195302 -23.6549340166342 -23.7785411181298 -24.1473896488297 -24.0247032390328 -23.7783192989061 -23.7780969048279 -24.1469461196519 -24.0244816463052 -24.1471678757419 -24.3912672974544 -24.5125688288928 -24.5127901490063 -24.5130117762859 -24.391488788684 -21.1492951770213 -21.0230007456484 -21.0227792743272 -21.148852109821 -21.1490735295504 -21.5274482615543 -21.4013060121197 -21.5272265175837 -21.779333734508 -21.7795556985708 -21.401527496956 -21.5276698658913 -21.9054983726923 -22.1569280373219 -22.2826086914621 -22.5334434577142 -22.6587831728905 -22.6583377655367 -22.6585604612787 -22.5332206774163 -22.282163574467 -22.2823862396813 -22.1567056839821 -21.9052761033836 -21.9050538680672 -21.904831929103 -22.1562609627686 -22.2819412879355 -22.1564831898212 -22.5329980677353 -22.5327756471485 -22.6581152894559 -22.6578927061698 -22.5325530954452 -22.1560389397723 -22.2817189902941 -21.9046099166663 -21.7786675895881 -21.4006404239313 -21.526782633031 -21.7788899746016 -21.7791117296842 -21.4010843903569 -21.4008624077693 -21.5270048611311 -21.1486303475898 -21.022557941936 -21.0223357198602 -21.0221135388545 -21.1484081478396 -20.6432079285805 -20.7696177785721 -20.7698402239015 -20.6436526243204 -20.6434303696334 -20.2642398162752 -20.3907361777744 -20.2644620506365 -20.0113968602646 -20.0111744443882 -20.3905137352632 -20.2640173649937 -19.8846134841025 -19.6316598717053 -19.5050510062288 -19.2520150485755 -19.1253703627927 -19.1258151435657 -19.125592669923 -19.2522373857037 -19.5054958064833 -19.6318820854845 -19.5052730738257 -19.8848357343851 -19.8850584361568 -19.8852807749993 -19.632327229217 -19.5057181726679 -19.6321049566093 -19.2524600407788 -19.2526823259884 -19.126037613221 -19.1262602812185 -19.2529050464269 -19.6325497165659 -19.5059407413026 -19.8855031906701 -20.0120637685202 -20.3914020235207 -20.2649060788968 -20.0118417271643 -20.0116193637098 -20.3909582874664 -20.2646841902817 -20.3911801182267 -20.6438741573156 -20.7700622099101 -20.7702835506213 -20.7705052901293 -20.6440958224621 -17.3536495864897 -17.2269272430925 -17.2267056221114 -17.3532062288995 -17.3534278083529 -17.7333590317366 -17.6066442012888 -17.7331371789162 -17.986558152763 -17.9867802568944 -17.6068658717738 -17.7335808629739 -18.1134852877553 -18.3666601936216 -18.4933508567706 -18.7464926225062 -18.8731637370477 -18.8727184371397 -18.8729410270249 -18.7462698768183 -18.4929057465978 -18.4931283423543 -18.3664377571393 -18.113262896211 -18.1130406238892 -18.1128185664699 -18.4926835278755 -18.365993159883 -18.3662153331221 -18.7460473317221 -18.7458250044282 -18.8724960456283 -18.872273530376 -18.7456024848108 -18.3657709415744 -18.492461219126 -18.1125964167615 -17.9858916937287 -17.6059781208739 -17.7326929633347 -17.9861141033375 -17.9863360671157 -17.6064224604783 -17.7329153319324 -17.6062002728005 -17.3529842474262 -17.2264840785795 -17.2262615906192 -17.2260392718445 -17.3527618189177 -16.8460820806287 -16.9728101408081 -16.9730326532483 -16.8465269697879 -16.846304560666 -16.4663346138137 -16.5930664909012 -16.4665569873721 -16.2130902481172 -16.2128677858342 -16.5928439709068 -16.4661121148219 -16.0861333189247 -15.8328845738954 -15.706148296964 -15.4528961673087 -15.3261584062044 -15.3266027822043 -15.3263805817827 -15.453118318578 -15.7065927515371 -15.8331068335299 -15.7063704658082 -16.0863556419738 -16.0865781827643 -16.0868006642897 -15.7068151332054 -15.8335517099913 -15.8333292356749 -15.4533405601647 -15.4535629296596 -15.3268250684596 -15.3270475177916 -15.4537853385087 -15.8337739754906 -15.7070375980399 -16.0870229975264 -16.2137572629858 -16.5937329982667 -16.4670013685618 -16.2135351786725 -16.213312800251 -16.5932887952977 -16.4667792654158 -16.5935108717342 -16.8467488370953 -16.973254906666 -16.973476572672 -16.9736984339212 -16.8469707379484 
</DataArray>
<DataArray type="Float64" Name="velocity_p0" NumberOfComponents="3" format="ascii">