<?xml version="1.0"?>
<VTKFile type="UnstructuredGrid" version="0.1" byte_order="LittleEndian">
<UnstructuredGrid>
<Piece NumberOfPoints="557" NumberOfCells="1052">
<Points>
<DataArray type="Float64" NumberOfComponents="3" format="ascii">
-1 -1 0 -0.90000000000027736 -1 0 -0.88416006382281254 -0.88416006382289791 0 -0.93606546951335845 -0.93606546951316327 0 -1 -0.89999999999973679 0 -1 -0.79999999999947335 0 -0.92793623313821083 -0.8226121670741593 0 -0.8150875678651216 -0.81338237264713442 0 -0.80000000000055482 -1 0 -0.8130900522888076 -0.92101822355947338 0 -1 -0.59999999999894682 0 -0.90312142872839896 -0.56437146308622022 0 -0.93182990336507576 -0.65109545004693381 0 -1 -0.69999999999921003 0 -0.89993695658845552 -0.74036550099223974 0 -0.7877438995288244 -0.71141857618416138 0 -0.85101852198632877 -0.65347891127768953 0 -0.82331087490653099 -0.58332502414038345 0 -0.78808635622708223 -0.50901390705475125 0 -0.71010175197561487 -0.54018969346170398 0 -0.74538352780212236 -0.61480941454433335 0 -0.63204542175615985 -0.56864476213945836 0 -0.65000000000097091 -0.67318397157484811 0 -0.72179026908177535 -0.68692871235951536 0 -0.53625272151579595 -0.69746259052044002 0 -0.54356906491130852 -0.60177096467731506 0 -0.54679095318344373 -0.50553779915034647 0 -0.6500000000009708 -0.92685708227458363 0 -0.70000000000083218 -1 0 -0.73770066918813093 -0.89407548067182407 0 -0.70668618150223095 -0.75983600751015123 0 -0.6306223190062612 -0.84486193436591894 0 -0.61959846238661709 -0.75228739991133131 0 -0.55691278693460988 -0.79092201465537038 0 -0.52642189561051378 -0.87785944507439762 0 -0.5803345445978294 -0.93041938631075249 0 -0.60000000000110965 -1 0 -0.500000000001387 -1 0 -0.42227464569579509 -0.89463359376242346 0 -0.40000000000166441 -1 0 -0.3441890345974426 -0.9337813193400013 0 -0.25514692825697222 -0.91571424211166597 0 -0.30000000000194182 -1 0 -0.30753963968226072 -0.76427797562867283 0 -0.32899618551993781 -0.85563778990946526 0 -0.38401856393700051 -0.78682908347018277 0 -0.46959826610976407 -0.79001053668604637 0 -0.43891200458108032 -0.71480232909721786 0 -0.44494410828880532 -0.62541655071773483 0 -0.45371261847396621 -0.54483065771898531 0 -0.35043837257678467 -0.50325566140204758 0 -0.34891567604820878 -0.59840564736501667 0 -0.25569603193627038 -0.60872471812552864 0 -0.26467869887835888 -0.53913158809032269 0 -0.36387628878692391 -0.6991467041422883 0 -0.2867781940006377 -0.6780431930253723 0 -0.2392492268355037 -0.73782029817674488 0 -0.20866064298003259 -0.66749321258002325 0 -0.13148870412120561 -0.66371681007177974 0 -0.1673886855129999 -0.5887680803720523 0 -0.078661341159166204 -0.62262383662582266 0 -0.060985635991019707 -0.54071293984795243 0 -1.80308149363587e-12 -0.62750000000000006 0 -0.049670189060176562 -0.71287888208646033 0 -0.059710312183914947 -0.81114320478340074 0 -2.7522428780457631e-12 -1 0 -0.1000000000024964 -1 0 -0.085526232398910051 -0.91083803095723459 0 -0.16200985532022691 -0.93558082707564783 0 -0.20000000000221921 -1 0 -0.2466022006800134 -0.81675301571042602 0 -0.15466648053608731 -0.75398362582890444 0 -0.17135168464531511 -0.85928214666442271 0 -0.141657273569291 -0.20849168783095831 0 -0.23348073431143221 -0.19202122417889089 0 -0.15774037995444201 -0.094520619106104445 0 -0.038410699931238738 -0.079740570453413373 0 -0.02395451044663487 -0.14616292655405219 0 -0.093219363405736194 -0.14571346371740179 0 -0.053345117975829678 -0.2160108394952158 0 -0.009102349480205385 -0.37077336930668109 0 -0.086019637464032669 -0.3194901812688658 0 -0.0071098648827552808 -0.45971233674881201 0 -0.08451069929747794 -0.43817435881159211 0 -0.161043700698071 -0.49969820654964608 0 -0.1659203649425923 -0.39770103189365669 0 -0.19422300595435829 -0.28947532802654818 0 -0.29986937073708908 -0.27383882368919088 0 -0.26091443859983238 -0.36728659590971502 0 -0.36928024090728467 -0.35985649568086608 0 -0.2514013030148593 -0.45945266427103659 0 -0.33003959726809151 -0.42705872449365068 0 -0.4448826721324492 -0.44379317513305372 0 -0.41093190632694032 -0.26101946868662962 0 -0.44348467605592368 -0.34287413323398158 0 -0.48879661787971912 -0.29099136552297022 0 -0.49571260057342847 -0.20739977841348309 0 -0.42221198053993869 -0.17541710185794299 0 -0.35695527432881619 -0.1308846570850562 0 -0.31060745544101498 -0.19253426378437599 0 -0.26489641439573991 -0.092374200611040097 0 -0.34137716236155857 -0.059829019751434349 0 -0.41641499661606718 -0.079391932665209289 0 -0.49065559613841692 -0.1188196684011724 0 -0.56475956803837124 -0.076103573841988639 0 -0.58890171269204561 -0.16699338964318919 0 -0.68641030569957218 -0.23803529283261321 0 -0.70050155656753943 -0.12759283882055 0 -0.63484069893590067 -0.071924923867949395 0 -0.52309976297342875 -0.43355385398861979 0 -0.59411218659844234 -0.41156684345216488 0 -0.51215149618318345 -0.36624739935177042 0 -0.57602014724353723 -0.28675826246158093 0 -0.66806391234269191 -0.34786642318654798 0 -0.74611156699298264 -0.39869433051836622 0 -0.66804249192390197 -0.46886989491998271 0 -0.81624038235282814 -0.43298990423414069 0 -0.83958987867871437 -0.35520233407551399 0 -0.76148404066129938 -0.30238470481665491 0 -0.82418411843811212 -0.27537545953975923 0 -0.89559155133556434 -0.25854595914600309 0 -1 -0.29999999999926641 0 -0.92660541408386876 -0.35340665073740868 0 -1 -0.3999999999989749 0 -1 -0.49999999999869432 0 -0.89153390103542018 -0.4618015873130058 0 -0.85000000000041576 -0.052487647564962561 0 -0.78862815371259876 -0.087183020382853998 0 -0.79928253119470138 -0.20071746880529809 0 -0.92285811211656044 -0.1848001790130375 0 -1 -0.19999999999955789 0 -1 -0.099999999999814668 0 -0.88210663000502387 -0.1158630628169285 0 -0.92942668362642356 -0.057571669382314457 0 -1 0 0 -1 0.10000000000041601 0 -0.92824163924196135 0.070980158720317738 0 -0.90000000000027736 0 0 -0.85000000000041576 0.052165950589785022 0 -0.86804211149851207 0.11746405350624579 0 -0.78754133105521895 0.096606195652088264 0 -0.80000000000055482 0 0 -0.8048076536688894 0.19041048647002989 0 -0.92793623313823637 0.17738783292587301 0 -1 0.20000000000083221 0 -1 0.30000000000124832 0 -0.93173495441364629 0.34892224562027119 0 -0.89922483945315923 0.25976721650932938 0 -1 0.40000000000166441 0 -0.90312142872818746 0.43562853691384851 0 -0.82341567072500921 0.41658502704050288 0 -0.78833554416380414 0.49055125471308292 0 -0.85101852198622618 0.34652108872230269 0 -0.77290785556636854 0.29625214503038311 0 -0.6500000000009708 0.326816028425153 0 -0.7089855449511826 0.45924701014269309 0 -0.74576311477689217 0.38508573077320812 0 -0.63156861489116967 0.42909435721314249 0 -0.53255157942882658 0.42502506541068008 0 -0.55045344841312771 0.49628270713921141 0 -0.57575121686034736 0.36584318390675158 0 -0.50001032642174692 0.3619150633037741 0 -0.56011947084233404 0.2733043629040311 0 -0.57006385665087478 0.1613942275436272 0 -0.55348062692055822 0.072890815185624444 0 -0.500000000001387 0 0 -0.60000000000110965 0 0 -0.63715815907837525 0.073900983655304495 0 -0.70000000000083218 0 0 -0.72102169133944904 0.067693090737394823 0 -0.69071848117933621 0.14358555873099049 0 -0.70673537994997992 0.2357006525848778 0 -0.6321378798968349 0.22613319005557611 0 -0.80000000000055482 1 0 -0.8058504616374319 0.91623454411318506 0 -0.90000000000027736 1 0 -1 1 0 -1 0.89999999999958358 0 -0.88293492929737794 0.88293492929749617 0 -0.93510607916018607 0.93510607915994248 0 -0.92285811211659563 0.81519982098699295 0 -1 0.79999999999999982 0 -0.81118583890810925 0.80567988046701255 0 -0.75423417002055937 0.70799818053681152 0 -0.84273752611582098 0.64232778967069826 0 -0.82731531480269815 0.72003453501366732 0 -0.90166810850295154 0.73549066489264647 0 -1 0.7000000000006934 0 -0.92913010983161759 0.65000000000104008 0 -1 0.60000000000138687 0 -1 0.50000000000205869 0 -0.89153390103529218 0.53819841268708379 0 -0.81746334844343005 0.56532065636385542 0 -0.74815111630519981 0.59810147383537293 0 -0.66804249192391274 0.53113010508001179 0 -0.56404233889500266 0.59036864190818439 0 -0.54481053122223111 0.69109239451785542 0 -0.609496360407348 0.73729612470786698 0 -0.67402581732181988 0.74838117844245011 0 -0.6544148823167929 0.6567258267737911 0 -0.72042727467886558 0.80008609696524713 0 -0.63243558644957465 0.82471999288990239 0 -0.5542041897544524 0.7819113940961826 0 -0.52028467662050326 0.88150839962482908 0 -0.500000000001387 1 0 -0.55805856366220863 0.94979144248414338 0 -0.60000000000110965 1 0 -0.62806670534775499 0.92208532247273112 0 -0.72667101953395785 0.88827930400559219 0 -0.70000000000083218 1 0 -0.30000000000194182 1 0 -0.25659022377510549 0.9146632756397205 0 -0.34787837396890903 0.93439534703020644 0 -0.40000000000166441 1 0 -0.4221512306874835 0.89517733670547817 0 -0.47234328598647579 0.78515020367211996 0 -0.38083904731992291 0.78481196418465504 0 -0.33194412443982779 0.85404157461017205 0 -0.25765542685292109 0.82137891803612806 0 -0.30840192899602181 0.76656069662273252 0 -0.28683684357774408 0.67716388220172941 0 -0.36564543034986208 0.6949387741368086 0 -0.4420139421738396 0.70962346806405752 0 -0.45182966590909313 0.61926827993361699 0 -0.48200567196747768 0.54199249067987132 0 -0.41222410510705559 0.54405432514541574 0 -0.34522088931056599 0.59697968451518035 0 -0.2571462961085984 0.60772177440507447 0 -0.26478234939974998 0.5367355162281886 0 -0.16927611449194549 0.58791604993693469 0 -0.061355057791924787 0.54053892244820878 0 -0.078350122374646808 0.62248680105836462 0 -1.80331939856972e-12 0.62750000000000028 0 -0.04687050101409921 0.71257773121591994 0 -0.12969740050353579 0.66401624202124554 0 -0.20680882080372409 0.67029167561400405 0 -0.2398463887542891 0.73783586520820965 0 -0.17061158785878991 0.8593064797643355 0 -0.15342250666121149 0.75427026476315151 0 -0.059710312183915162 0.81114320478340063 0 -0.083722920964013556 0.91184641893263652 0 -2.7522428780457631e-12 1 0 -0.1000000000024964 1 0 -0.16200985532022649 0.93558082707564771 0 -0.20000000000221921 1 0 -
[...]
<CellData Scalars="pressure_p0,piezo_head_p0,pressure_diff,velocity_diff,div_diff," Vectors="velocity_p0," Tensors="">
<DataArray type="Float64" Name="pressure_p0" format="ascii">
9.8831965051593436 9.954648356236504 9.8725553064413631 9.7460477739932685 9.7565565209895677 9.658220082384128 9.54314051814187 9.5562715608549773 9.6600256407270013 9.7320236990424682 9.632224899492309 9.4797813775941115 9.5019940354689894 9.7416837956311166 9.8718249660805828 9.9447724454554987 9.8627983358300533 8.8952146630463247 9.0063787441091083 9.1287481370521988 9.1758767203119227 9.3103417588034656 9.2327888792926238 9.3416000861868937 9.4523352321423317 9.3618288931713423 9.2784457021619104 9.3122091691507372 9.1294613307706491 9.1804416633573105 9.0765448936670712 9.0221113181212278 8.9188686667796482 9.0277201676560743 9.0571504179139311 8.9598259405414495 9.1211127716979323 9.2220573022207191 9.296344902983515 9.4177651757753686 9.4007445800274496 9.4531851692062059 9.5080442979034974 9.4240912834863941 9.3230441600356766 9.3319969681755062 9.2364830141420473 9.1508763815102281 9.0306488159068099 9.1389919307389302 9.7754535825054418 9.951235442732532 9.9273806449508033 9.8788083037822947 9.6607848724219991 9.570149707698878 9.6849610875966832 9.5988272018400114 9.5420678938481664 9.657038297244851 9.8772735435787489 9.7743837487572769 9.8035067656806678 9.9062728658137456 9.9551303226693477 9.935180461004343 9.8577806367822554 9.8963810700220094 9.9605681328577749 9.8110221934424615 9.8268581989839472 9.9512996218672072 9.9119120663160949 9.6081698032838787 9.6721328046015405 9.7609929790463923 9.5563726059605223 9.6495330911817057 9.5671447037160711 9.7222849844111749 9.6773209283601602 9.7276403660552724 9.5024146696953142 9.4031830959280285 9.4190081610531031 9.3587312955201067 9.5193686898799115 9.2383534254047497 9.2599031443129913 9.2015926725225903 9.2212469339033269 9.2870220675697102 9.1594314860053085 9.4993273573604675 9.4022926861522329 9.408091460483357 9.3604482469133572 9.5281544776573632 9.5272282631354859 9.4794759285582693 9.4035149882851137 9.3855523009125594 9.4914226983897336 9.2482009479365797 9.2969153454853242 9.3680731497989047 9.2612908854777505 9.2287838412240113 9.3253364581562792 9.3487151393611398 9.5203401800902228 9.4530282732729738 9.4365166829472482 9.6240920682100697 9.6007987852794923 9.7661650357623486 9.7813248522901262 9.7175173198385778 9.886131899124317 9.9502052688614508 9.9138792247909109 9.834558817873349 9.9635690247507789 9.915140336829884 9.8354677438495948 9.7667439215915817 9.6082058899117726 9.6778872832480012 9.6785991350084686 8.8020526178236107 8.8078760454707865 8.8543835764901626 8.750429318058309 8.7160548216694522 8.7295849458349828 8.7882061404593994 8.7604137538280504 8.7576619324319402 8.8001731496805995 8.8078670508862604 8.8539402559967932 8.8399566452003473 8.9020505291950265 8.8492290955016948 8.8891629505855079 8.9293824046131984 8.9849541450639983 9.1806030651850197 9.0469144609325483 9.1067109982450596 9.0504585999203098 9.1937339493098005 9.1231622879341181 9.0489801916497381 9.1196749697971491 9.1775132944988105 8.9145355546994764 8.9821733850909737 8.9823214152291051 8.8507492146988493 8.9126035972273403 8.9107610666895489 8.831990713669315 9.0944531592124473 9.0410579745003385 8.9756024383181447 9.1015938990741283 9.0570649490738049 8.913163074124574 8.979766837991793 8.9152473351314363 8.8823229047791639 9.0705758934617435 8.8285442621454706 8.7870638439324029 8.677010108403918 8.76121338173105 8.6470616115781915 8.5564508408921931 8.5990698917061099 8.7029241791739604 8.7759999884078752 8.672659613764452 8.7437136546948047 8.6944216803154735 8.7933585476522289 8.6681160958522021 8.6382363984164527 8.5947636866475197 8.6492077054088341 8.5757795678103861 8.5463437078976483 8.4493723607290718 8.5417566607266604 8.4636348454627726 8.2600236318597453 8.19049943908934 8.2745930299017729 8.3836619462597799 8.3691189397725978 8.4791413420891804 8.5259108917324653 8.4566144026865988 8.2867705202573969 8.3102907946792399 8.1908669503844536 8.0277148783283607 7.9051546581764063 8.0509284474981406 8.2090978976617599 8.9314536769899497 8.9396588886303103 8.99107620987599 8.8604021292508595 8.6973673048776323 8.7162796093511012 8.7560292197065213 8.6326504379276763 8.5459926346068507 8.4860720478616329 8.595512334966422 8.7971739885188445 8.749789583146157 8.8474379682868438 8.8195771402213818 8.7909046779740638 8.6532159603585086 8.6810466354192179 8.5534751550590311 8.287189975565159 8.42119460912226 8.3368911561633219 8.1296840546613591 8.3101341731141751 8.450835344718957 8.3925242517961252 8.5911778022755154 8.6168384211147693 8.7490575482249255 7.620953971627344 7.3154623103513146 7.5640294954722593 7.6985851875267048 7.9961656591010843 8.1908420563173792 8.0585352493215261 7.8833416950657886 7.8457274247226536 7.6401924038174931 7.9932384893651953 7.746677649752252 7.4455096695927931 7.4157850528448446 7.2223499479377278 6.9094455830580452 7.1015346350156499 5.795284669157061 6.9480060509893864 7.1388750033933146 7.5231045425905378 7.4834740256940133 7.6225446043340224 7.2547014638507799 7.3185430180507325 7.5784098424089237 6.862581258003261 7.6513757452040023 7.4857895574905147 7.7394599651091927 8.2181770135875549 8.2778834619371402 8.0105608468021181 7.8624879174465025 7.8548653593141164 8.0293462827979365 7.7314169744114762 7.9816896703928464 8.3064926059735082 8.1306801353188476 8.4467103046190051 8.37870262297238 8.7247351645656188 8.5870219315635712 8.5508788548665802 8.85129297662521 8.8603119380235427 8.7656188087122526 8.630015195108113 8.7491541672597748 8.6141044032944887 8.360696826635948 8.519606950577586 8.4569908657301376 8.5640819869549532 8.4635211569776168 8.9309085812406011 8.8055632505597394 8.7915034550477191 8.7073217713345308 8.9147811385397482 8.9293174672058697 8.9720382211850556 8.8392156560560711 8.8309145796139408 8.987883640373731 8.5508137637180308 8.7429287982587827 8.6616516615065571 8.7309889123892361 8.6412821300791585 8.7190744320394646 8.5360484167482511 8.4797033481554607 8.4938182033749285 8.3995815879623272 8.2662299771304628 8.3777496326697456 8.174403486569652 8.1960682297439611 8.2892488500399466 8.0724813415460268 7.9716641430689545 7.8921335776358346 8.0476782757838805 7.7595414837329795 7.9653799138337824 8.1859859710019247 8.3100204090654657 8.2365119197201242 8.3333597514787883 9.9421188993756111 9.8585632178357336 9.941451351809949 9.8709655132331626 9.8824957502539235 9.9539593584338526 9.7992045655786733 9.7136859110061806 9.6528920291430627 9.5342545133681931 9.5419019257920183 9.4754111364846292 9.6484271018125494 9.7223946534253827 9.7290953445418626 9.6506716059408664 9.523741912677032 9.4618382993860646 9.3420670568483946 9.2580753963918578 9.3547131146754374 9.4487950947244492 9.3373671536617273 9.2322635955660513 9.297932332243926 9.147243627275472 9.1078928526444471 8.9855610261623067 8.9738633293527368 9.0884165601962383 9.1468568025414783 9.0362142396745746 9.1666862429367679 9.1845530284070076 9.028572232043409 9.0918295645098901 9.1284340248847151 9.3056457190835857 9.3039727892295012 9.488280030211369 9.3983141871885909 9.4264358250490652 9.284288536945617 9.3956368572311035 9.49068073069426 9.6703537481746906 9.5772424045193016 9.5408358083642195 9.5701163802955111 9.5286011855386796 9.6509193166008806 9.6686330598828079 9.7572710308052741 9.8403215029334561 9.9677776818332298 9.8924897548190547 9.9162851496935041 9.9482920771540151 9.8722759649897931 9.7558626224835727 9.865579582479528 9.9506751110778495 9.9115823934282155 9.8254691446568252 9.8105546013452827 9.9608961220617953 9.8970012382354966 9.9355051017561582 9.8604914562496262 9.6734647218083119 9.7204140122955671 9.7273556181383292 9.5596006411152139 9.6487288487118725 9.7617346318995235 9.6746523756687228 9.611516625456364 9.5288315084289046 9.3588272210640291 9.4086302990917758 9.3987240336074542 9.5540794024880409 9.4975274100851479 9.5124925350306953 9.491006483295255 9.3904811485663338 9.4088065698442751 9.3514908763824369 9.259985541793597 9.2186635676736088 9.2110760297924799 9.118851285208958 9.0680468237455329 9.2130235766246766 9.1995093689068881 9.2846995581933136 9.2457575243916388 9.2945146517232455 9.3685115030417556 9.3852434075084066 9.2600705675327326 9.2291163916971328 9.3485902463832407 9.3247445880281852 9.453084918893083 9.4363374832676143 9.5206540938537412 9.4934648162273181 9.4048076120355333 9.5290850159951308 9.4806431143579832 9.6803806660629093 9.6106013848950607 9.768574564185327 9.6787380949310968 9.6008439475266538 9.6241608174473523 9.7868895545711005 9.7226851451637231 9.7666967521843606 9.891719373954265 9.9507679825004445 9.914443341509255 9.9635671411673403 9.8351392005960854 9.8349016014273687 9.9145368034625445 8.6723246228741626 8.7755681123402098 8.7859492109051764 8.7166640769052286 8.7262373296214797 8.6573251831357183 8.6234720971439742 8.6704760658686197 8.5223462010714677 8.5552277103179133 8.6067581195016771 8.6116828592136905 8.5519593238798528 8.4683825524205059 8.4586757634044609 8.3770995762014628 8.565777104707843 8.7021987286671809 8.6569043814296975 8.690923353892428 8.8214756045971807 8.7979128164634304 8.9198475573767944 8.9181974385844001 9.0192032028669473 9.1098414122283629 9.0147452110269999 9.0282567227511201 9.1488603138289992 9.0769919846787843 8.8325969421608121 8.8557249378391649 8.942469409315521 8.9050286408958677 8.9616455721849118 8.9097633862811492 8.9787170862242611 8.9809404807149562 8.913488529119256 9.1154758220215619 9.1728499808570554 9.0430591204195689 9.1213093734753858 9.1926641357534855 9.0494298165430287 9.1063339777505465 9.0466198055281275 9.1801360951126671 8.9037645328684629 8.9846983733671912 8.9313496980110418 8.8876967748762024 8.8512490602476674 8.8161674736236098 8.8519415054958586 8.798108224943892 8.8090360526059435 8.8459834330187128 8.8494969977668134 8.7185430325844884 8.7492547306122308 8.6875682516393695 8.7297495953509969 8.7604789769892459 8.7891386741511699 8.7186263671521669 8.7577397446413716 8.7582366909512768 8.7186257203134971 8.7731534525387254 8.8046193622025921 8.7545431561873102 8.725414467861393 8.6873052235189263 8.7702515376100099 8.7447638794472287 8.623331534641796 8.7138335929712198 8.6722828090783413 8.7670710358262127 8.81136007580373 8.8775256437427412 8.8502808537405091 8.8599598389391989 8.8004837276139245 8.8207943035131748 8.8933237876922 8.9414130035782495 9.0421195312664988 8.9876541940741337 9.0301040658459701 8.9648756394257596 9.1712982573389326 9.1750995270674771 9.0978087996558443 9.0884049489961409 9.1866646046982492 9.0663765076787417 9.0748446631160231 9.1073883699707991 8.9407548524361253 8.9824057190535598 8.9435976876194623 8.8719731253281626 8.8698102717387393 8.9484389223180898 8.9221318220269232 8.8527207840654309 9.1532177657061862 9.1430585033445482 9.008660155187048 8.9984299434365731 9.0764941106314456 9.0977627705799122 8.9098128683278581 8.9588287665278017 9.0406974312668034 9.0570638011447588 8.7795118989895649 8.8289855058034483 8.8306427702173185 8.7066811568504825 8.7685469308037458 8.6344554363521748 8.6328275275867998 8.7158461515331247 8.5670448915813964 8.3986020412006503 8.3773161720666831 8.4521588696676027 8.5403244405208305 8.5924332277105346 8.5776512385757613 8.5224007795969161 8.6457851863462576 8.6808001250834188 8.7460659113036883 8.7754002965855786 8.8329968616806234 8.7199925958879341 8.6609131837494822 9.8890127592631778 9.7938016428993571 9.8858753065493765 9.9550013326710403 9.8959792137306835 9.9406520157787099 9.8038431565376083 9.7350884022169915 9.641335287544754 9.6283452745424007 9.7117228089766314 9.783226954333907 9.6982138375754463 9.6188382031204576 9.5530494949448492 9.476488609059091 9.4296995453820287 9.4199863745625176 9.549162275529131 9.576654119650108 9.4885564375799465 9.4523693645115188 9.4824334904091323 9.3559174465689061 9.3095540124999623 9.3600993830573351 9.2328488265201365 9.345214391938196 9.3044033173415954 9.2945992704111653 9.2072244534698697 9.2479908076788853 9.3251575381763629 9.2591477334698897 9.3353064539624313 9.1871926180203669 9.2275986190458461 9.3209751895706834 9.2389249207495592 9.3915397426214362 9.4030860266910796 9.5029687773420264 9.5468442229542099 9.4599849357306631 9.4195487725360714 9.4340845680446783 9.4768013616934894 9.585996966741579 9.7750939527702911 9.6992549272649136 9.616087771619382 9.5775846210798008 9.7304435830406959 9.7419758407278927 9.6900227773144962 9.859617243662985 9.9368845193676947 9.9003477036754557 9.9628355981564134 9.823118988769691 9.8441548003209594 9.9212987271599058 9.9584134136465785 9.9273882743270718 9.8788178080660121 9.7754689690679797 9.9512392464606219 9.9062952910219568 9.955148589911234 9.8774111474051871 9.774530135517125 9.8035366899819945 9.6850965599973105 9.6581768482676935 9.5430876027017657 9.5988547120764576 9.5701837452045773 9.6608066320990833 9.4180231175699269 9.4008370162664558 9.296462067792687 9.4532379233655117 9.4241437383797049 9.5080744269072532 9.322207447592902 9.331068245694313 9.2356236331076147 9.1381561662050927 9.1364696532570857 9.0292304975998974 9.0279873012662435 9.2221718260736747 9.1212753757670306 8.9599803716735416 9.0572482258088698 9.0766115935343201 9.1804947197902145 9.1294855707545768 9.0221408821508167 8.9188732539434277 8.8951909697635916 9.006369339714638 9.1288825843532972 9.1760066492734964 9.3113656134866822 9.2329421406847487 9.3426644138270838 9.4532676751726186 9.3629131007039348 9.2786895186037626 9.3124865099838825 9.633038647230677 9.5030107372711736 9.6679164448769122 9.4816563338332625 9.5579757114686323 9.5440704076115086 9.6582812942391421 9.7531094642776122 9.7566153016256703 9.8832172923427208 9.9546322454931726 9.8795130242289311 9.9447873687788846 9.8697374336706805 9.7398288716335149 9.7424924264004407 9.8718413486619419 8.2775124289485618 8.2089225366480747 8.4185301076848837 8.1733098101412196 7.8930487975785972 7.485856044095712 7.8924996403509375 8.0545103368100044 8.0265177790192013 8.2961862193467386 8.212763119049562 8.2762984875465229 8.1749192327962472 8.4235589482188793 8.4655245805672159 8.5198507175753981 8.5281267336327033 8.7508323417517317 8.7120069986608772 8.6032376150284406 8.9572767616580968 8.9064977249733204 8.9291673811942474 8.7484837887850606 8.7968835537007966 8.8475401282090296 8.5083988845032508 8.5927238771713839 8.4795486699599607 8.2734735846044298 8.4122127275924754 8.5516595828150894 8.3283501506439528 8.7908958562346342 8.6529688971075203 8.6808051314522778 8.8195498540963602 8.5909287034061901 8.6167055299579527 8.7489932368063812 8.3922708696317638 8.4505733529565017 8.3097923811619161 8.1290377636072328 7.9923345185540091 7.746196249736693 7.6417067384293036 8.0526665372358597 8.1774004973871719 7.8346869971957673 7.8782878151043594 7.9771777391092815 8.2989799232414967 7.6937628315458548 7.6148301486113805 6.8624886862487608 7.5561978086336543 7.3128618332300537 7.2197156490512748 7.4445396134868638 7.417089285458248 7.1017709047410733 5.7952462532844926 6.909624470841587 6.9468371448142348 7.1379049347843946 7.5224920699201379 7.6183459235047799 7.477168502871832 7.2532454404078059 7.9813766876738956 7.7314284705521175 8.0266643087947607 8.2106592838279262 7.8340868025614903 7.8568672274400511 7.9771447689955179 8.270885471968846 7.3180537949718261 7.5621122060351764 7.6297968460198469 7.697348258602613 8.0319896405928173 7.9037081713619948 8.0535968414633565 8.1646343299436115 8.3705038594104977 8.1809066543527003 8.2481644277114974 8.2837631456451639 8.4973310997099283 8.3899911468339923 8.5299828269721747 8.4369764658924744 8.2763227584252483 8.2108577052207252 8.2999285908155667 8.761568149136723 8.8975470848600224 8.9732017476611343 8.9386225227054759 8.7257978144754169 8.6420282146758769 8.5675003438685451 8.6832996329797805 8.4772246176592851 8.452002280348605 8.559361467383269 8.7935606312438424 8.7089760573734551 8.9168309705666307 8.8060683504067647 8.9313759971528803 8.7495309411062259 8.6145916141890222 8.63039525536397 8.7659411988545397 8.8605895385607667 8.5152097645542373 8.3555744926402937 8.3785573554206891 8.4469537846868192 8.3063148253031223 8.1304214089391476 8.8515513033775655 8.5511582572440119 8.5872783756422422 8.7250146080202349 8.9857767651942382 9.1474140956545966 9.1080689982218264 9.2323856047918991 9.3373562477986667 9.4487837652546638 9.2979390951465852 9.3540759017456239 9.337475462356851 9.4533195736532569 9.2541148238750139 9.1470850884793116 9.0364455700064905 8.9741055339405911 9.0886330007699083 9.8709949530368011 9.9539701583599083 9.8825303271012466 9.7992618929981514 9.7137834786445936 9.6529689222100892 9.5342310142854743 9.5375773958396444 9.4706116503057274 9.5229442300586662 9.7249641293193108 9.6441835534518106 9.7181257123796634 9.8585792216080499 9.9421284759236279 9.9414602154833247 9.9483040848337918 9.8656009640284985 9.8723102479639042 9.7559359086436537 9.6538039382299701 9.677299951065109 9.4921021344916081 9.5352356247117509 9.5825325858190755 9.5652892612591778 9.6419586511326614 9.6677750516375873 9.7573193416819368 9.8403530172076792 9.9677848565653342 9.8925136114314576 9.9163019724856181 9.1808154992317998 9.028771378554211 9.1662502475997591 9.2798246638006088 9.3896469907800721 9.4204065867639493 9.2971802622707731 9.3887796172113784 9.4783493635893912 9.5145899627234467 9.2569739617510507 9.0876111522673924 9.1358950523557532 9.1129551795971029 9.1749693121917986 9.2296135652602054 9.2917801263920019 9.2028835495444952 9.3807648874247871 9.47305294707723 9.5215102776196243 9.3657206980859833 9.3379547753359411 9.4570935431206102 9.4627539439645396 9.5208644783767351 9.4710954963740992 9.4141472135266149 9.2911451695236842 9.3392806064877796 9.1939961986416581 9.2146424936712332 9.1597319889131548 9.2973407464747542 9.9091580024263433 9.946020996699021 9.8711454160318084 9.7555299453811859 9.7665097972517607 9.6785965913114396 9.599938070884555 9.654988370974344 9.6533310274721309 9.5912004944090885 9.7581219434484261 9.8275502334704772 9.8226260268693864 9.9513539906166173 9.9138570716030721 9.9626492409886467 9.9585732145367754 9.8813322476680554 9.8887762063707445 9.7998367450444288 9.714358198603442 9.6968313448159407 9.7745785245103836 9.6182002921466392 9.6445605486865098 9.6319577916997829 9.7330821003385442 9.8318448620930923 9.8092003862342843 9.9622910854142308 9.8981215208940299 9.921095813906657 9.346835729804468 9.3057124264226019 9.2279363688009095 9.2182605326945666 9.2985913672459937 9.4766420090088719 9.5534043308548462 9.5497576267045314 9.4298370706097145 9.4200125492659001 9.4828188039210133 9.5769360924571227 9.4890063843195449 9.4526998120783681 9.3597119068684833 9.3091902615893822 9.3555754388753272 9.1707911028842233 9.0977935938611836 9.0816331872449236 9.1690020078723009 9.0531098589433263 9.0857733726945504 9.1632873437490332 8.8730939071599817 8.9382819396082063 8.9757306909252552 8.9401693368956909 8.9640196169653983 9.0288769316934641 9.0420219062931473 8.9877306253124125 8.9415954361627552 8.8966904878571977 8.8232191291155342 8.82521193031919 8.8024465824092157 8.8632080821299013 8.759316836525354 8.7740341097189258 8.7716413551271089 8.7558289057740932 8.7251050409905098 8.7449520728950354 8.6733130910809297 8.7142463120878357 8.8513533479992326 8.8784500083269631 8.8116241027409288 8.7681331442250254 8.7482347196221877 8.8351219155285463 8.7780149805835013 8.6646954709297557 8.7242537171210657 8.6475604822333736 8.6834540382474295 8.5785360256035439 8.5414977889283197 8.5955118170547422 8.452680693730553 8.3989672033567508 8.7223463677288073 8.6471183950517236 8.4732387666945925 8.5765843174306706 8.6743776687877698 8.7654286163783262 8.783189072244058 8.8204792862571058 8.8106610764840489 8.8897034646519746 8.9498076524934138 9.0421831054702082 9.0309300708749838 9.0846153764763002 8.9044878128790099 9.0106260505803526 9.0784987087312885 9.0142574075285555 8.9455549033926918 8.874616126