<?xml version="1.0"?>
<VTKFile type="UnstructuredGrid" version="0.1" byte_order="LittleEndian">
<UnstructuredGrid>
<Piece NumberOfPoints="69" NumberOfCells="124">
<Points>
<DataArray type="Float64" NumberOfComponents="3" format="ascii">
0.0000000000 1.0000000000 0.0000000000 1.0000000000 1.0000000000 0.0000000000 1.0000000000 0.0000000000 0.0000000000 0.0000000000 0.0000000000 0.0000000000 0.2500000000 -0.0000000000 0.0000000000 0.0000000000 0.2500000000 0.0000000000 0.5000000000 0.5000000000 -0.0000000000 0.7500000000 1.0000000000 0.0000000000 0.6875000000 0.8750000000 0.0000000000 0.6250000000 0.7500000000 0.0000000000 0.5625000000 0.6250000000 0.0000000000 0.1250000000 0.3125000000 0.0000000000 0.2500000000 0.3750000000 0.0000000000 0.3750000000 0.4375000000 0.0000000000 0.4375000000 0.3750000000 0.0000000000 0.3750000000 0.2500000000 0.0000000000 0.3125000000 0.1250000000 0.0000000000 1.0000000000 0.8333333333 0.0000000000 1.0000000000 0.6666666667 0.0000000000 1.0000000000 0.5000000000 0.0000000000 1.0000000000 0.3333333333 0.0000000000 1.0000000000 0.1666666667 0.0000000000 0.8750000000 1.0000000000 0.0000000000 0.5625000000 1.0000000000 0.0000000000 0.3750000000 1.0000000000 0.0000000000 0.1875000000 1.0000000000 0.0000000000 0.0000000000 0.8125000000 0.0000000000 0.0000000000 0.6250000000 0.0000000000 0.0000000000 0.4375000000 0.0000000000 0.0000000000 0.1250000000 0.0000000000 0.1250000000 0.0000000000 0.0000000000 0.4375000000 0.0000000000 0.0000000000 0.6250000000 0.0000000000 0.0000000000 0.8125000000 0.0000000000 0.0000000000 0.2798796021 0.8344274147 0.0000000000 0.2645244370 0.5156353158 0.0000000000 0.4139414070 0.6056325264 0.0000000000 0.4492710540 0.8556512409 0.0000000000 0.2758946705 0.6605885316 0.0000000000 0.1390078960 0.7261831611 0.0000000000 0.1492912419 0.4458279357 0.0000000000 0.5014585693 0.7367466305 0.0000000000 0.1392858752 0.5733980611 0.0000000000 0.3813620468 0.7403859221 0.0000000000 0.1271010714 0.8709480662 0.0000000000 0.5677751206 0.8470224641 0.0000000000 0.5698670718 0.3776209365 0.0000000000 0.7125974781 0.6384669132 0.0000000000 0.8608728669 0.2520652360 0.0000000000 0.8578792739 0.7535325209 0.0000000000 0.5447576767 0.1431838882 0.0000000000 0.7150899341 0.1571595685 0.0000000000 0.8612746698 0.5794807698 0.0000000000 0.7533843026 0.4929444342 0.0000000000 0.8055298449 0.8871112287 0.0000000000 0.8656940848 0.4098367392 0.0000000000 0.7182603949 0.3456402072 0.0000000000 0.6323653418 0.5029675641 0.0000000000 0.6110846259 0.2575059958 0.0000000000 0.4945749329 0.2625170378 0.0000000000 0.7385779517 0.7773678856 0.0000000000 0.8769890165 0.1160638339 0.0000000000 0.9063795342 0.9020858333 0.0000000000 0.4287911519 0.1545544543 0.0000000000 0.2403886547 0.2418881479 0.0000000000 0.1840276181 0.1117324051 0.0000000000 0.3381944444 0.3381944444 0.0000000000 0.1008171453 0.1888570370 0.0000000000 0.0843524222 0.0864517127 0.0000000000 
</DataArray>
</Points>
<Cells>
<DataArray type="UInt32" Name="connectivity" format="ascii">
7 8 8 9 9 10 10 6 5 11 11 12 12 13 13 6 6 14 14 15 15 16 16 4 13 36 35 13 6 36 5 11 28 8 7 23 36 38 35 34 39 38 28 40 42 24 37 23 28 42 27 24 34 37 24 25 34 34 38 43 23 37 45 8 23 45 10 36 6 28 11 40 0 26 44 13 35 12 25 0 44 26 27 39 12 40 11 38 39 42 37 34 43 34 44 39 10 41 36 25 44 34 12 35 40 35 38 42 10 9 41 36 41 43 8 45 9 9 45 41 27 42 39 36 43 38 26 39 44 35 42 40 37 41 45 37 43 41 46 56 57 53 57 56 49 47 52 4 31 16 49 60 47 52 55 19 51 48 56 52 53 55 31 32 50 54 49 62 17 62 49 17 49 18 21 20 48 32 51 50 33 51 32 18 49 52 1 62 17 53 56 55 18 52 19 52 47 53 16 31 63 51 61 48 20 19 55 14 46 6 51 56 58 10 47 9 55 56 48 8 54 7 22 7 54 20 55 48 33 61 51 33 2 61 31 50 63 6 46 57 21 61 2 10 57 47 46 58 56 51 58 50 53 47 57 14 59 46 9 47 60 10 6 57 54 60 49 8 60 54 15 59 14 1 22 62 21 48 61 8 9 60 46 59 58 16 63 15 15 63 59 50 59 63 22 54 62 50 58 59 14 6 13 11 67 64 4 65 30 4 16 65 13 12 66 15 14 66 65 64 67 16 15 64 12 11 64 15 66 64 12 64 66 11 5 67 16 64 65 14 13 66 3 68 29 3 30 68 29 67 5 30 65 68 29 68 67 67 68 65 
</DataArray>
<DataArray type="UInt32" Name="offsets" format="ascii">
2 4 6 8 10 12 14 16 18 20 22 24 27 30 33 36 39 42 45 48 51 54 57 60 63 66 69 72 75 78 81 84 87 90 93 96 99 102 105 108 111 114 117 120 123 126 129 132 135 138 141 144 147 150 153 156 159 162 165 168 171 174 177 180 183 186 189 192 195 198 201 204 207 210 213 216 219 222 225 228 231 234 237 240 243 246 249 252 255 258 261 264 267 270 273 276 279 282 285 288 291 294 297 300 303 306 309 312 315 318 321 324 327 330 333 336 339 342 345 348 351 354 357 360 
</DataArray>
<DataArray type="UInt32" Name="types" format="ascii">
3 3 3 3 3 3 3 3 3 3 3 3 5 5 5 5 5 5 5 5 5 5 5 5 5 5 5 5 5 5 5 5 5 5 5 5 5 5 5 5 5 5 5 5 5 5 5 5 5 5 5 5 5 5 5 5 5 5 5 5 5 5 5 5 5 5 5 5 5 5 5 5 5 5 5 5 5 5 5 5 5 5 5 5 5 5 5 5 5 5 5 5 5 5 5 5 5 5 5 5 5 5 5 5 5 5 5 5 5 5 5 5 5 5 5 5 5 5 5 5 5 5 5 5 
</DataArray>
</Cells>
<CellData Scalars="porosity,age_conc,U235_conc,age_diffusion_rate_immobile,U235_diffusion_rate_immobile,age_init_conc_immobile,U235_init_conc_immobile,age_conc_immobile,U235_conc_immobile,rock_density,age_sorption_type,U235_sorption_type,age_distribution_coefficient,U235_distribution_coefficient,age_isotherm_other,U235_isotherm_other,age_init_conc_solid,U235_init_conc_solid,age_conc_solid,U235_conc_solid,age_conc_immobile_solid,U235_conc_immobile_solid," Vectors="" Tensors="">
<DataArray type="Float64" Name="porosity" format="ascii">
0.2500000000 0.2500000000 0.2500000000 0.2500000000 0.2500000000 0.2500000000 0.2500000000 0.2500000000 0.2500000000 0.2500000000 0.2500000000 0.2500000000 0.2500000000 0.2500000000 0.2500000000 0.2500000000 0.2500000000 0.2500000000 0.2500000000 0.2500000000 0.2500000000 0.2500000000 0.2500000000 0.2500000000 0.2500000000 0.2500000000 0.2500000000 0.2500000000 0.2500000000 0.2500000000 0.2500000000 0.2500000000 0.2500000000 0.2500000000 0.2500000000 0.2500000000 0.2500000000 0.2500000000 0.2500000000 0.2500000000 0.2500000000 0.2500000000 0.2500000000 0.2500000000 0.2500000000 0.2500000000 0.2500000000 0.2500000000 0.2500000000 0.2500000000 0.2500000000 0.2500000000 0.2500000000 0.2500000000 0.2500000000 0.2500000000 0.2500000000 0.2500000000 0.2500000000 0.2500000000 0.2500000000 0.2500000000 0.2500000000 0.2500000000 0.2500000000 0.2500000000 0.2500000000 0.2500000000 0.2500000000 0.2500000000 0.2500000000 0.2500000000 0.2500000000 0.2500000000 0.2500000000 0.2500000000 0.2500000000 0.2500000000 0.2500000000 0.2500000000 0.2500000000 0.2500000000 0.2500000000 0.2500000000 0.2500000000 0.2500000000 0.2500000000 0.2500000000 0.2500000000 0.2500000000 0.2500000000 0.2500000000 0.2500000000 0.2500000000 0.2500000000 0.2500000000 0.2500000000 0.2500000000 0.2500000000 0.2500000000 0.2500000000 0.2500000000 0.2500000000 0.2500000000 0.2500000000 0.2500000000 0.2500000000 0.2500000000 0.2500000000 0.2500000000 0.2500000000 0.2500000000 0.2500000000 0.2500000000 0.2500000000 0.2500000000 0.2500000000 0.2500000000 0.2500000000 0.2500000000 0.2500000000 0.2500000000 0.2500000000 0.2500000000 
</DataArray>
<DataArray type="Float64" Name="age_conc" format="ascii">
1.0000000000 0.9998394432 0.9996636733 0.9994210488 0.9969194140 0.9976291835 0.9984123000 0.9990113753 0.9987025580 0.9976544115 0.9964043500 0.9954164872 0.9511211784 0.9752229726 0.7568505067 1.0000000000 0.9842018146 0.9938513325 0.9099694132 1.0000000000 0.9552562715 0.9988279168 1.0000000000 0.9962077482 0.9982344239 0.9993733797 0.9894745640 0.8219588302 0.9990738007 0.9166813741 1.0000000000 0.9949884711 0.8231618574 0.9894955044 0.9974916423 0.9979629688 0.9939819365 0.9991561415 0.8812657484 0.9734013410 0.9964127501 0.9938722699 0.9984742644 0.9975802176 0.9824399283 0.9915523339 0.9973094858 0.9569500547 0.9972960321 0.9961753441 0.9739535907 0.9839827124 0.9954687628 0.6248078152 0.9949747903 0.9988661299 0.9866556502 0.9957334143 0.8890677921 0.9980688952 0.9988620417 1.0000000000 1.0000000000 0.9314306154 0.9803549790 0.9988467092 1.0000000000 0.9923923274 1.0000000000 0.9927637609 0.7013485761 0.9914677681 1.0000000000 0.9207234394 0.9694548726 0.9892903202 0.9932736485 0.9987885087 1.0000000000 0.9989356231 0.9890551113 0.9990960082 0.8028060088 0.9494737897 1.0000000000 0.9798950106 0.9586608607 0.9526840120 0.9873613003 0.8791196593 0.9934218146 0.9671084702 0.9970262305 0.9973836122 0.8252969302 1.0000000000 0.9992151132 0.9957187453 0.9345775290 0.6935737408 0.7696747456 0.8723164590 0.9991284418 0.9090210096 0.9956093655 0.8606732207 0.6838823492 0.7817905650 0.9874199560 0.9868050395 0.7524698839 0.9292347976 0.9313176178 0.9614525251 0.9626618213 0.7845143821 0.8596674270 0.9919664867 0.5683495722 0.5478715712 0.7141877944 0.6190075368 0.6385464830 0.6699263844 
</DataArray>
<DataArray type="Float64" Name="U235_conc" format="ascii">
1.0000000000 0.9998394392 0.9996633747 0.9994196417 0.9969156692 0.9976247130 0.9984079678 0.9990087422 0.9986987815 0.9976515258 0.9964070532 0.9954233927 0.9506823519 0.9749080864 0.7577669798 1.0000000000 0.9839755459 0.9937760982 0.9095407072 1.0000000000 0.9548701852 0.9988269121 1.0000000000 0.9961791551 0.9982324972 0.9993735968 0.9893198500 0.8221244015 0.9990736130 0.9162036983 1.0000000000 0.9949198302 0.8232340413 0.9893421458 0.9974807977 0.9979567138 0.9939117295 0.9991562156 0.8809063119 0.9730671464 0.9963944255 0.9937997801 0.9984741555 0.9975769276 0.9821885513 0.9914332970 0.9972939756 0.9565049022 0.9972882229 0.9961514491 0.9735782042 0.9837338481 0.9954181677 0.6281568840 0.9949245460 0.9988634700 0.9864360696 0.9956831223 0.8888071918 0.9980663530 0.9988613318 1.0000000000 1.0000000000 0.9309754175 0.9801080235 0.9988450013 1.0000000000 0.9922761348 1.0000000000 0.9926645355 0.7034330378 0.9913485712 1.0000000000 0.9202255276 0.9690652817 0.9891143452 0.9931704456 0.9987863434 1.0000000000 0.9989336599 0.9889095029 0.9990957211 0.8033976795 0.9489748328 1.0000000000 0.9795916871 0.9581669918 0.9521998074 0.9871711223 0.8788290807 0.9933297992 0.9666917298 0.9970146500 0.9973690499 0.8255100044 1.0000000000 0.9992151750 0.9956725481 0.9340331230 0.6957034943 0.7706144364 0.8720889990 0.9991285797 0.9085511354 0.9955833457 0.8610361704 0.6864687808 0.7830918757 0.9873196829 0.9867063812 0.7540203674 0.9291610727 0.9312310917 0.9612752267 0.9624800416 0.7857963362 0.8600402706 0.9919015707 0.5724840666 0.5522428672 0.7165384984 0.6224054019 0.6417491612 0.6725766563 
</DataArray>
<DataArray type="Float64" Name="age_diffusion_rate_immobile" format="ascii">
0.0200000000 0.0200000000 0.0200000000 0.0200000000 0.0200000000 0.0200000000 0.0200000000 0.0200000000 0.0200000000 0.0200000000 0.0200000000 0.0200000000 0.0200000000 0.0200000000 0.0200000000 0.0200000000 0.0200000000 0.0200000000 0.0200000000 0.0200000000 0.0200000000 0.0200000000 0.0200000000 0.0200000000 0.0200000000 0.0200000000 0.0200000000 0.0200000000 0.0200000000 0.0200000000 0.0200000000 0.0200000000 0.0200000000 0.0200000000 0.0200000000 0.0200000000 0.0200000000 0.0200000000 0.0200000000 0.0200000000 0.0200000000 0.0200000000 0.0200000000 0.0200000000 0.0200000000 0.0200000000 0.0200000000 0.0200000000 0.0200000000 0.0200000000 0.0200000000 0.0200000000 0.0200000000 0.0200000000 0.0200000000 0.0200000000 0.0200000000 0.0200000000 0.0200000000 0.0200000000 0.0200000000 0.0200000000 0.0200000000 0.0200000000 0.0200000000 0.0200000000 0.0200000000 0.0200000000 0.0200000000 0.0200000000 0.0200000000 0.0200000000 0.0200000000 0.0200000000 0.0200000000 0.0200000000 0.0200000000 0.0200000000 0.0200000000 0.0200000000 0.0200000000 0.0200000000 0.0200000000 0.0200000000 0.0200000000 0.0200000000 0.0200000000 0.0200000000 0.0200000000 0.0200000000 0.0200000000 0.0200000000 0.0200000000 0.0200000000 0.0200000000 0.0200000000 0.0200000000 0.0200000000 0.0200000000 0.0200000000 0.0200000000 0.0200000000 0.0200000000 0.0200000000 0.0200000000 0.0200000000 0.0200000000 0.0200000000 0.0200000000 0.0200000000 0.0200000000 0.0200000000 0.0200000000 0.0200000000 0.0200000000 0.0200000000 0.0200000000 0.0200000000 0.0200000000 0.0200000000 0.0200000000 0.0200000000 0.0200000000 0.0200000000 
</DataArray>
<DataArray type="Float64" Name="U235_diffusion_rate_immobile" format="ascii">
0.0200000000 0.0200000000 0.0200000000 0.0200000000 0.0200000000 0.0200000000 0.0200000000 0.0200000000 0.0200000000 0.0200000000 0.0200000000 0.0200000000 0.0200000000 0.0200000000 0.0200000000 0.0200000000 0.0200000000 0.0200000000 0.0200000000 0.0200000000 0.0200000000 0.0200000000 0.0200000000 0.0200000000 0.0200000000 0.0200000000 0.0200000000 0.0200000000 0.0200000000 0.0200000000 0.0200000000 0.0200000000 0.0200000000 0.0200000000 0.0200000000 0.0200000000 0.0200000000 0.0200000000 0.0200000000 0.0200000000 0.0200000000 0.0200000000 0.0200000000 0.0200000000 0.0200000000 0.0200000000 0.0200000000 0.0200000000 0.0200000000 0.0200000000 0.0200000000 0.0200000000 0.0200000000 0.0200000000 0.0200000000 0.0200000000 0.0200000000 0.0200000000 0.0200000000 0.0200000000 0.0200000000 0.0200000000 0.0200000000 0.0200000000 0.0200000000 0.0200000000 0.0200000000 0.0200000000 0.0200000000 0.0200000000 0.0200000000 0.0200000000 0.0200000000 0.0200000000 0.0200000000 0.0200000000 0.0200000000 0.0200000000 0.0200000000 0.0200000000 0.0200000000 0.0200000000 0.0200000000 0.0200000000 0.0200000000 0.0200000000 0.0200000000 0.0200000000 0.0200000000 0.0200000000 0.0200000000 0.0200000000 0.0200000000 0.0200000000 0.0200000000 0.0200000000 0.0200000000 0.0200000000 0.0200000000 0.0200000000 0.0200000000 0.0200000000 0.0200000000 0.0200000000 0.0200000000 0.0200000000 0.0200000000 0.0200000000 0.0200000000 0.0200000000 0.0200000000 0.0200000000 0.0200000000 0.0200000000 0.0200000000 0.0200000000 0.0200000000 0.0200000000 0.0200000000 0.0200000000 0.0200000000 0.0200000000 0.0200000000 0.0200000000 
</DataArray>
<DataArray type="Float64" Name="age_init_conc_immobile" format="ascii">
0.0000000000 0.0000000000 0.0000000000 0.0000000000 0.0000000000 0.0000000000 0.0000000000 0.0000000000 0.0000000000 0.0000000000 0.0000000000 0.0000000000 0.0000000000 0.0000000000 0.0000000000 0.0000000000 0.0000000000 0.0000000000 0.0000000000 0.0000000000 0.0000000000 0.0000000000 0.0000000000 0.0000000000 0.0000000000 0.0000000000 0.0000000000 0.0000000000 0.0000000000 0.0000000000 0.0000000000 0.0000000000 0.0000000000 0.0000000000 0.0000000000 0.0000000000 0.0000000000 0.0000000000 0.0000000000 0.0000000000 0.0000000000 0.0000000000 0.0000000000 0.0000000000 0.0000000000 0.0000000000 0.0000000000 0.0000000000 0.0000000000 0.0000000000 0.0000000000 0.0000000000 0.0000000000 0.0000000000 0.0000000000 0.0000000000 0.0000000000 0.0000000000 0.0000000000 0.0000000000 0.0000000000 0.0000000000 0.0000000000 0.0000000000 0.0000000000 0.0000000000 0.0000000000 0.0000000000 0.0000000000 0.0000000000 0.0000000000 0.0000000000 0.0000000000 0.0000000000 0.0000000000 0.0000000000 0.0000000000 0.0000000000 0.0000000000 0.0000000000 0.0000000000 0.0000000000 0.0000000000 0.0000000000 0.0000000000 0.0000000000 0.0000000000 0.0000000000 0.0000000000 0.0000000000 0.0000000000 0.0000000000 0.0000000000 0.0000000000 0.0000000000 0.0000000000 0.0000000000 0.0000000000 0.0000000000 0.0000000000 0.0000000000 0.0000000000 0.0000000000 0.0000000000 0.0000000000 0.0000000000 0.0000000000 0.0000000000 0.0000000000 0.0000000000 0.0000000000 0.0000000000 0.0000000000 0.0000000000 0.0000000000 0.0000000000 0.0000000000 0.0000000000 0.0000000000 0.0000000000 0.0000000000 0.0000000000 0.0000000000 0.0000000000 
</DataArray>
<DataArray type="Float64" Name="U235_init_conc_immobile" format="ascii">
0.0000000000 0.0000000000 0.0000000000 0.0000000000 0.0000000000 0.0000000000 0.0000000000 0.0000000000 0.0000000000 0.0000000000 0.0000000000 0.0000000000 0.0000000000 0.0000000000 0.0000000000 0.0000000000 0.0000000000 0.0000000000 0.0000000000 0.0000000000 0.0000000000 0.0000000000 0.0000000000 0.0000000000 0.0000000000 0.0000000000 0.0000000000 0.0000000000 0.0000000000 0.0000000000 0.0000000000 0.0000000000 0.0000000000 0.0000000000 0.0000000000 0.0000000000 0.0000000000 0.0000000000 0.0000000000 0.0000000000 0.0000000000 0.0000000000 0.0000000000 0.0000000000 0.0000000000 0.0000000000 0.0000000000 0.0000000000 0.0000000000 0.0000000000 0.0000000000 0.0000000000 0.0000000000 0.0000000000 0.0000000000 0.0000000000 0.0000000000 0.0000000000 0.0000000000 0.0000000000 0.0000000000 0.0000000000 0.0000000000 0.0000000000 0.0000000000 0.0000000000 0.0000000000 0.0000000000 0.0000000000 0.0000000000 0.0000000000 0.0000000000 0.0000000000 0.0000000000 0.0000000000 0.0000000000 0.0000000000 0.0000000000 0.0000000000 0.0000000000 0.0000000000 0.0000000000 0.0000000000 0.0000000000 0.0000000000 0.0000000000 0.0000000000 0.0000000000 0.0000000000 0.0000000000 0.0000000000 0.0000000000 0.0000000000 0.0000000000 0.0000000000 0.0000000000 0.0000000000 0.0000000000 0.0000000000 0.0000000000 0.0000000000 0.0000000000 0.0000000000 0.0000000000 0.0000000000 0.0000000000 0.0000000000 0.0000000000 0.0000000000 0.0000000000 0.0000000000 0.0000000000 0.0000000000 0.0000000000 0.0000000000 0.0000000000 0.0000000000 0.0000000000 0.0000000000 0.0000000000 0.0000000000 0.0000000000 0.0000000000 0.0000000000 
</DataArray>
<DataArray type="Float64" Name="age_conc_immobile" format="ascii">
0.0153163794 0.0114580871 0.0113712943 0.0112776348 0.0105879034 0.0107553593 0.0109296051 0.0111053135 0.0110915304 0.0109068550 0.0107278622 0.0105592649 0.0060052877 0.0069348462 0.0030525274 0.0119526506 0.0074473659 0.0087213489 0.0049486327 0.0115550563 0.0063186199 0.0104510075 0.0111860461 0.0093363280 0.0103162448 0.0109015871 0.0079879851 0.0037162418 0.0103680400 0.0051142476 0.0113144490 0.0088280911 0.0036851731 0.0080486933 0.0098454756 0.0097691751 0.0087479950 0.0103601197 0.0044700065 0.0067892510 0.0094690798 0.0087183323 0.0104412211 0.0099936645 0.0074427192 0.0082653060 0.0094997319 0.0060636248 0.0098641371 0.0093866106 0.0069906710 0.0076258078 0.0091021742 0.0021779234 0.0089584276 0.0100373969 0.0081887968 0.0091807942 0.0052335598 0.0101293994 0.0105373158 0.0110656018 0.0110679909 0.0061006017 0.0080663213 0.0101262451 0.0116962358 0.0085668097 0.0109826695 0.0085409671 0.0027057770 0.0090310772 0.0110553883 0.0050868051 0.0071979773 0.0078396685 0.0089052163 0.0101057221 0.0110504609 0.0101154455 0.0087748965 0.0103115289 0.0036645718 0.0058202642 0.0112497502 0.0070887176 0.0063345683 0.0065572957 0.0078731239 0.0043694837 0.0084662744 0.0063988007 0.0096405642 0.0095131973 0.0036619637 0.0116620549 0.0102656298 0.0089425936 0.0056221717 0.0025145967 0.0031256114 0.0044966365 0.0106541130 0.0051344613 0.0100852920 0.0056284419 0.0040069956 0.0050818768 0.0090223551 0.0090125990 0.0041952532 0.0070283661 0.0070628239 0.0076214825 0.0076396460 0.0051739477 0.0056187037 0.0093208061 0.0027642834 0.0025892320 0.0043827693 0.0031856366 0.0033744569 0.0033292983 
</DataArray>
<DataArray type="Float64" Name="U235_conc_immobile" format="ascii">
0.0158322840 0.0118635718 0.0117723597 0.0116741153 0.0109510869 0.0111265681 0.0113091348 0.0114933100 0.0114791401 0.0112857431 0.0110982946 0.0109216444 0.0062157246 0.0071718551 0.0031728120 0.0123674039 0.0076995369 0.0090130017 0.0051280189 0.0119553538 0.0065395351 0.0108091944 0.0115719422 0.0096486647 0.0106675872 0.0112796481 0.0082549432 0.0038575137 0.0107232429 0.0052982711 0.0117051041 0.0091236779 0.0038253676 0.0083193556 0.0101778936 0.0100988820 0.0090380215 0.0107146631 0.0046345387 0.0070229989 0.0097840688 0.0090076372 0.0107976744 0.0103300794 0.0076960318 0.0085411812 0.0098191772 0.0062763338 0.0101956795 0.0096989455 0.0072317484 0.0078855485 0.0094087849 0.0022693435 0.0092564794 0.0103793037 0.0084667922 0.0094912253 0.0054246679 0.0104726904 0.0108991747 0.0114466345 0.0114489877 0.0063170482 0.0083406772 0.0104711104 0.0121017650 0.0088559022 0.0113603958 0.0088284306 0.0028151732 0.0093383557 0.0114359601 0.0052708814 0.0074461699 0.0081034465 0.0092071325 0.0104496192 0.0114309706 0.0104604641 0.0090728123 0.0106645121 0.0038060016 0.0060264107 0.0116376684 0.0073313085 0.0065566662 0.0067865462 0.0081398608 0.0045315163 0.0087488414 0.0066215982 0.0099633322 0.0098329250 0.0038016063 0.0120663290 0.0106165939 0.0092416503 0.0058234826 0.0026168325 0.0032481038 0.0046641852 0.0110209682 0.0053214162 0.0104295054 0.0058359801 0.0041699918 0.0052769017 0.0093295436 0.0093195245 0.0043597083 0.0072778458 0.0073132754 0.0078843971 0.0079030374 0.0053719225 0.0058260040 0.0096349501 0.0028856555 0.0027041164 0.0045589199 0.0033207575 0.0035162786 0.0034664804 
</DataArray>
<DataArray type="Float64" Name="rock_density" format="ascii">
1.2000000000 1.2000000000 1.2000000000 1.2000000000 1.2000000000 1.2000000000 1.2000000000 1.2000000000 1.2000000000 1.2000000000 1.2000000000 1.2000000000 1.2000000000 1.2000000000 1.2000000000 1.2000000000 1.2000000000 1.2000000000 1.2000000000 1.2000000000 1.2000000000 1.2000000000 1.2000000000 1.2000000000 1.2000000000 1.2000000000 1.2000000000 1.2000000000 1.2000000000 1.2000000000 1.2000000000 1.2000000000 1.2000000000 1.2000000000 1.2000000000 1.2000000000 1.2000000000 1.2000000000 1.2000000000 1.2000000000 1.2000000000 1.2000000000 1.2000000000 1.2000000000 1.2000000000 1.2000000000 1.2000000000 1.2000000000 1.2000000000 1.2000000000 1.2000000000 1.2000000000 1.2000000000 1.2000000000 1.2000000000 1.2000000000 1.2000000000 1.2000000000 1.2000000000 1.2000000000 1.2000000000 1.2000000000 1.2000000000 1.2000000000 1.2000000000 1.2000000000 1.2000000000 1.2000000000 1.2000000000 1.2000000000 1.2000000000 1.2000000000 1.2000000000 1.2000000000 1.2000000000 1.2000000000 1.2000000000 1.2000000000 1.2000000000 1.2000000000 1.2000000000 1.2000000000 1.2000000000 1.2000000000 1.2000000000 1.2000000000 1.2000000000 1.2000000000 1.2000000000 1.2000000000 1.2000000000 1.2000000000 1.2000000000 1.2000000000 1.2000000000 1.2000000000 1.2000000000 1.2000000000 1.2000000000 1.2000000000 1.2000000000 1.2000000000 1.2000000000 1.2000000000 1.2000000000 1.2000000000 1.2000000000 1.2000000000 1.2000000000 1.2000000000 1.2000000000 1.2000000000 1.2000000000 1.2000000000 1.2000000000 1.2000000000 1.2000000000 1.2000000000 1.2000000000 1.2000000000 1.2000000000 1.2000000000 1.2000000000 1.2000000000 
</DataArray>
<DataArray type="UInt32" Name="age_sorption_type" format="ascii">
1 1 1 1 1 1 1 1 1 1 1 1 1 1 1 1 1 1 1 1 1 1 1 1 1 1 1 1 1 1 1 1 1 1 1 1 1 1 1 1 1 1 1 1 1 1 1 1 1 1 1 1 1 1 1 1 1 1 1 1 1 1 1 1 1 1 1 1 1 1 1 1 1 1 1 1 1 1 1 1 1 1 1 1 1 1 1 1 1 1 1 1 1 1 1 1 1 1 1 1 1 1 1 1 1 1 1 1 1 1 1 1 1 1 1 1 1 1 1 1 1 1 1 1 
</DataArray>
<DataArray type="UInt32" Name="U235_sorption_type" format="ascii">
2 2 2 2 2 2 2 2 2 2 2 2 2 2 2 2 2 2 2 2 2 2 2 2 2 2 2 2 2 2 2 2 2 2 2 2 2 2 2 2 2 2 2 2 2 2 2 2 2 2 2 2 2 2 2 2 2 2 2 2 2 2 2 2 2 2 2 2 2 2 2 2 2 2 2 2 2 2 2 2 2 2 2 2 2 2 2 2 2 2 2 2 2 2 2 2 2 2 2 2 2 2 2 2 2 2 2 2 2 2 2 2 2 2 2 2 2 2 2 2 2 2 2 2 
</DataArray>
<DataArray type="Float64" Name="age_distribution_coefficient" format="ascii">
0.0300000000 0.0300000000 0.0300000000 0.0300000000 0.0300000000 0.0300000000 0.0300000000 0.0300000000 0.0300000000 0.0300000000 0.0300000000 0.0300000000 0.0300000000 0.0300000000 0.0300000000 0.0300000000 0.0300000000 0.0300000000 0.0300000000 0.0300000000 0.0300000000 0.0300000000 0.0300000000 0.0300000000 0.0300000000 0.0300000000 0.0300000000 0.0300000000 0.0300000000 0.0300000000 0.0300000000 0.0300000000 0.0300000000 0.0300000000 0.0300000000 0.0300000000 0.0300000000 0.0300000000 0.0300000000 0.0300000000 0.0300000000 0.0300000000 0.0300000000 0.0300000000 0.0300000000 0.0300000000 0.0300000000 0.0300000000 0.0300000000 0.0300000000 0.0300000000 0.0300000000 0.0300000000 0.0300000000 0.0300000000 0.0300000000 0.0300000000 0.0300000000 0.0300000000 0.0300000000 0.0300000000 0.0300000000 0.0300000000 0.0300000000 0.0300000000 0.0300000000 0.0300000000 0.0300000000 0.0300000000 0.0300000000 0.0300000000 0.0300000000 0.0300000000 0.0300000000 0.0300000000 0.0300000000 0.0300000000 0.0300000000 0.0300000000 0.0300000000 0.0300000000 0.0300000000 0.0300000000 0.0300000000 0.0300000000 0.0300000000 0.0300000000 0.0300000000 0.0300000000 0.0300000000 0.0300000000 0.0300000000 0.0300000000 0.0300000000 0.0300000000 0.0300000000 0.0300000000 0.0300000000 0.0300000000 0.0300000000 0.0300000000 0.0300000000 0.0300000000 0.0300000000 0.0300000000 0.0300000000 0.0300000000 0.0300000000 0.0300000000 0.0300000000 0.0300000000 0.0300000000 0.0300000000 0.0300000000 0.0300000000 0.0300000000 0.0300000000 0.0300000000 0.0300000000 0.0300000000 0.0300000000 0.0300000000 0.0300000000 0.0300000000 
</DataArray>
<DataArray type="Float64" Name="U235_distribution_coefficient" format="ascii">
0.0300000000 0.0300000000 0.0300000000 0.0300000000 0.0300000000 0.0300000000 0.0300000000 0.0300000000 0.0300000000 0.0300000000 0.0300000000 0.0300000000 0.0300000000 0.0300000000 0.0300000000 0.0300000000 0.0300000000 0.0300000000 0.0300000000 0.0300000000 0.0300000000 0.0300000000 0.0300000000 0.0300000000 0.0300000000 0.0300000000 0.0300000000 0.0300000000 0.0300000000 0.0300000000 0.0300000000 0.0300000000 0.0300000000 0.0300000000 0.0300000000 0.0300000000 0.0300000000 0.0300000000 0.0300000000 0.0300000000 0.0300000000 0.0300000000 0.0300000000 0.0300000000 0.0300000000 0.0300000000 0.0300000000 0.0300000000 0.0300000000 0.0300000000 0.0300000000 0.0300000000 0.0300000000 0.0300000000 0.0300000000 0.0300000000 0.0300000000 0.0300000000 0.0300000000 0.0300000000 0.0300000000 0.0300000000 0.0300000000 0.0300000000 0.0300000000 0.0300000000 0.0300000000 0.0300000000 0.0300000000 0.0300000000 0.0300000000 0.0300000000 0.0300000000 0.0300000000 0.0300000000 0.0300000000 0.0300000000 0.0300000000 0.0300000000 0.0300000000 0.0300000000 0.0300000000 0.0300000000 0.0300000000 0.0300000000 0.0300000000 0.0300000000 0.0300000000 0.0300000000 0.0300000000 0.0300000000 0.0300000000 0.0300000000 0.0300000000 0.0300000000 0.0300000000 0.0300000000 0.0300000000 0.0300000000 0.0300000000 0.0300000000 0.0300000000 0.0300000000 0.0300000000 0.0300000000 0.0300000000 0.0300000000 0.0300000000 0.0300000000 0.0300000000 0.0300000000 0.0300000000 0.0300000000 0.0300000000 0.0300000000 0.0300000000 0.0300000000 0.0300000000 0.0300000000 0.0300000000 0.0300000000 0.0300000000 0.0300000000 0.0300000000 
</DataArray>
<DataArray type="Float64" Name="age_isotherm_other" format="ascii">
0.0000000000 0.0000000000 0.0000000000 0.0000000000 0.0000000000 0.0000000000 0.0000000000 0.0000000000 0.0000000000 0.0000000000 0.0000000000 0.0000000000 0.0000000000 0.0000000000 0.0000000000 0.0000000000 0.0000000000 0.0000000000 0.0000000000 0.0000000000 0.0000000000 0.0000000000 0.0000000000 0.0000000000 0.0000000000 0.0000000000 0.0000000000 0.0000000000 0.0000000000 0.0000000000 0.0000000000 0.0000000000 0.0000000000 0.0000000000 0.0000000000 0.0000000000 0.0000000000 0.0000000000 0.0000000000 0.0000000000 0.0000000000 0.0000000000 0.0000000000 0.0000000000 0.0000000000 0.0000000000 0.0000000000 0.0000000000 0.0000000000 0.0000000000 0.0000000000 0.0000000000 0.0000000000 0.0000000000 0.0000000000 0.0000000000 0.0000000000 0.0000000000 0.0000000000 0.0000000000 0.0000000000 0.0000000000 0.0000000000 0.0000000000 0.0000000000 0.0000000000 0.0000000000 0.0000000000 0.0000000000 0.0000000000 0.0000000000 0.0000000000 0.0000000000 0.0000000000 0.0000000000 0.0000000000 0.0000000000 0.0000000000 0.0000000000 0.0000000000 0.0000000000 0.0000000000 0.0000000000 0.0000000000 0.0000000000 0.0000000000 0.0000000000 0.0000000000 0.0000000000 0.0000000000 0.0000000000 0.0000000000 0.0000000000 0.0000000000 0.0000000000 0.0000000000 0.0000000000 0.0000000000 0.0000000000 0.0000000000 0.0000000000 0.0000000000 0.0000000000 0.0000000000 0.0000000000 0.0000000000 0.0000000000 0.0000000000 0.0000000000 0.0000000000 0.0000000000 0.0000000000 0.0000000000 0.0000000000 0.0000000000 0.0000000000 0.0000000000 0.0000000000 0.0000000000 0.0000000000 0.0000000000 0.0000000000 0.0000000000 0.0000000000 
</DataArray>
<DataArray type="Float64" Name="U235_isotherm_other" format="ascii">
1.5000000000 1.5000000000 1.5000000000 1.5000000000 1.5000000000 1.5000000000 1.5000000000 1.5000000000 1.5000000000 1.5000000000 1.5000000000 1.5000000000 1.5000000000 1.5000000000 1.5000000000 1.5000000000 1.5000000000 1.5000000000 1.5000000000 1.5000000000 1.5000000000 1.5000000000 1.5000000000 1.5000000000 1.5000000000 1.5000000000 1.5000000000 1.5000000000 1.5000000000 1.5000000000 1.5000000000 1.5000000000 1.5000000000 1.5000000000 1.5000000000 1.5000000000 1.5000000000 1.5000000000 1.5000000000 1.5000000000 1.5000000000 1.5000000000 1.5000000000 1.5000000000 1.5000000000 1.5000000000 1.5000000000 1.5000000000 1.5000000000 1.5000000000 1.5000000000 1.5000000000 1.5000000000 1.5000000000 1.5000000000 1.5000000000 1.5000000000 1.5000000000 1.5000000000 1.5000000000 1.5000000000 1.5000000000 1.5000000000 1.5000000000 1.5000000000 1.5000000000 1.5000000000 1.5000000000 1.5000000000 1.5000000000 1.5000000000 1.5000000000 1.5000000000 1.5000000000 1.5000000000 1.5000000000 1.5000000000 1.5000000000 1.5000000000 1.5000000000 1.5000000000 1.5000000000 1.5000000000 1.5000000000 1.5000000000 1.5000000000 1.5000000000 1.5000000000 1.5000000000 1.5000000000 1.5000000000 1.5000000000 1.5000000000 1.5000000000 1.5000000000 1.5000000000 1.5000000000 1.5000000000 1.5000000000 1.5000000000 1.5000000000 1.5000000000 1.5000000000 1.5000000000 1.5000000000 1.5000000000 1.5000000000 1.5000000000 1.5000000000 1.5000000000 1.5000000000 1.5000000000 1.5000000000 1.5000000000 1.5000000000 1.5000000000 1.5000000000 1.5000000000 1.5000000000 1.5000000000 1.5000000000 1.5000000000 1.5000000000 1.5000000000 
</DataArray>
<DataArray type="Float64" Name="age_init_conc_solid" format="ascii">