<?xml version="1.0"?>
<VTKFile type="UnstructuredGrid" version="0.1" byte_order="LittleEndian">
<UnstructuredGrid>
<Piece NumberOfPoints="69" NumberOfCells="124">
<Points>
<DataArray type="Float64" NumberOfComponents="3" format="ascii">
0.0000000000 1.0000000000 0.0000000000 1.0000000000 1.0000000000 0.0000000000 1.0000000000 0.0000000000 0.0000000000 0.0000000000 0.0000000000 0.0000000000 0.2500000000 -0.0000000000 0.0000000000 0.0000000000 0.2500000000 0.0000000000 0.5000000000 0.5000000000 -0.0000000000 0.7500000000 1.0000000000 0.0000000000 0.6875000000 0.8750000000 0.0000000000 0.6250000000 0.7500000000 0.0000000000 0.5625000000 0.6250000000 0.0000000000 0.1250000000 0.3125000000 0.0000000000 0.2500000000 0.3750000000 0.0000000000 0.3750000000 0.4375000000 0.0000000000 0.4375000000 0.3750000000 0.0000000000 0.3750000000 0.2500000000 0.0000000000 0.3125000000 0.1250000000 0.0000000000 1.0000000000 0.8333333333 0.0000000000 1.0000000000 0.6666666667 0.0000000000 1.0000000000 0.5000000000 0.0000000000 1.0000000000 0.3333333333 0.0000000000 1.0000000000 0.1666666667 0.0000000000 0.8750000000 1.0000000000 0.0000000000 0.5625000000 1.0000000000 0.0000000000 0.3750000000 1.0000000000 0.0000000000 0.1875000000 1.0000000000 0.0000000000 0.0000000000 0.8125000000 0.0000000000 0.0000000000 0.6250000000 0.0000000000 0.0000000000 0.4375000000 0.0000000000 0.0000000000 0.1250000000 0.0000000000 0.1250000000 0.0000000000 0.0000000000 0.4375000000 0.0000000000 0.0000000000 0.6250000000 0.0000000000 0.0000000000 0.8125000000 0.0000000000 0.0000000000 0.2798796021 0.8344274147 0.0000000000 0.2645244370 0.5156353158 0.0000000000 0.4139414070 0.6056325264 0.0000000000 0.4492710540 0.8556512409 0.0000000000 0.2758946705 0.6605885316 0.0000000000 0.1390078960 0.7261831611 0.0000000000 0.1492912419 0.4458279357 0.0000000000 0.5014585693 0.7367466305 0.0000000000 0.1392858752 0.5733980611 0.0000000000 0.3813620468 0.7403859221 0.0000000000 0.1271010714 0.8709480662 0.0000000000 0.5677751206 0.8470224641 0.0000000000 0.5698670718 0.3776209365 0.0000000000 0.7125974781 0.6384669132 0.0000000000 0.8608728669 0.2520652360 0.0000000000 0.8578792739 0.7535325209 0.0000000000 0.5447576767 0.1431838882 0.0000000000 0.7150899341 0.1571595685 0.0000000000 0.8612746698 0.5794807698 0.0000000000 0.7533843026 0.4929444342 0.0000000000 0.8055298449 0.8871112287 0.0000000000 0.8656940848 0.4098367392 0.0000000000 0.7182603949 0.3456402072 0.0000000000 0.6323653418 0.5029675641 0.0000000000 0.6110846259 0.2575059958 0.0000000000 0.4945749329 0.2625170378 0.0000000000 0.7385779517 0.7773678856 0.0000000000 0.8769890165 0.1160638339 0.0000000000 0.9063795342 0.9020858333 0.0000000000 0.4287911519 0.1545544543 0.0000000000 0.2403886547 0.2418881479 0.0000000000 0.1840276181 0.1117324051 0.0000000000 0.3381944444 0.3381944444 0.0000000000 0.1008171453 0.1888570370 0.0000000000 0.0843524222 0.0864517127 0.0000000000 
</DataArray>
</Points>
<Cells>
<DataArray type="UInt32" Name="connectivity" format="ascii">
7 8 8 9 9 10 10 6 5 11 11 12 12 13 13 6 6 14 14 15 15 16 16 4 13 36 35 13 6 36 5 11 28 8 7 23 36 38 35 34 39 38 28 40 42 24 37 23 28 42 27 24 34 37 24 25 34 34 38 43 23 37 45 8 23 45 10 36 6 28 11 40 0 26 44 13 35 12 25 0 44 26 27 39 12 40 11 38 39 42 37 34 43 34 44 39 10 41 36 25 44 34 12 35 40 35 38 42 10 9 41 36 41 43 8 45 9 9 45 41 27 42 39 36 43 38 26 39 44 35 42 40 37 41 45 37 43 41 46 56 57 53 57 56 49 47 52 4 31 16 49 60 47 52 55 19 51 48 56 52 53 55 31 32 50 54 49 62 17 62 49 17 49 18 21 20 48 32 51 50 33 51 32 18 49 52 1 62 17 53 56 55 18 52 19 52 47 53 16 31 63 51 61 48 20 19 55 14 46 6 51 56 58 10 47 9 55 56 48 8 54 7 22 7 54 20 55 48 33 61 51 33 2 61 31 50 63 6 46 57 21 61 2 10 57 47 46 58 56 51 58 50 53 47 57 14 59 46 9 47 60 10 6 57 54 60 49 8 60 54 15 59 14 1 22 62 21 48 61 8 9 60 46 59 58 16 63 15 15 63 59 50 59 63 22 54 62 50 58 59 14 6 13 11 67 64 4 65 30 4 16 65 13 12 66 15 14 66 65 64 67 16 15 64 12 11 64 15 66 64 12 64 66 11 5 67 16 64 65 14 13 66 3 68 29 3 30 68 29 67 5 30 65 68 29 68 67 67 68 65 
</DataArray>
<DataArray type="UInt32" Name="offsets" format="ascii">
2 4 6 8 10 12 14 16 18 20 22 24 27 30 33 36 39 42 45 48 51 54 57 60 63 66 69 72 75 78 81 84 87 90 93 96 99 102 105 108 111 114 117 120 123 126 129 132 135 138 141 144 147 150 153 156 159 162 165 168 171 174 177 180 183 186 189 192 195 198 201 204 207 210 213 216 219 222 225 228 231 234 237 240 243 246 249 252 255 258 261 264 267 270 273 276 279 282 285 288 291 294 297 300 303 306 309 312 315 318 321 324 327 330 333 336 339 342 345 348 351 354 357 360 
</DataArray>
<DataArray type="UInt32" Name="types" format="ascii">
3 3 3 3 3 3 3 3 3 3 3 3 5 5 5 5 5 5 5 5 5 5 5 5 5 5 5 5 5 5 5 5 5 5 5 5 5 5 5 5 5 5 5 5 5 5 5 5 5 5 5 5 5 5 5 5 5 5 5 5 5 5 5 5 5 5 5 5 5 5 5 5 5 5 5 5 5 5 5 5 5 5 5 5 5 5 5 5 5 5 5 5 5 5 5 5 5 5 5 5 5 5 5 5 5 5 5 5 5 5 5 5 5 5 5 5 5 5 5 5 5 5 5 5 
</DataArray>
</Cells>
<CellData Scalars="porosity,age_conc,U235_conc,age_diffusion_rate_immobile,U235_diffusion_rate_immobile,age_init_conc_immobile,U235_init_conc_immobile,age_conc_immobile,U235_conc_immobile,rock_density,age_sorption_type,U235_sorption_type,age_distribution_coefficient,U235_distribution_coefficient,age_isotherm_other,U235_isotherm_other,age_init_conc_solid,U235_init_conc_solid,age_conc_solid,U235_conc_solid,age_conc_immobile_solid,U235_conc_immobile_solid," Vectors="" Tensors="">
<DataArray type="Float64" Name="porosity" format="ascii">
0.2500000000 0.2500000000 0.2500000000 0.2500000000 0.2500000000 0.2500000000 0.2500000000 0.2500000000 0.2500000000 0.2500000000 0.2500000000 0.2500000000 0.2500000000 0.2500000000 0.2500000000 0.2500000000 0.2500000000 0.2500000000 0.2500000000 0.2500000000 0.2500000000 0.2500000000 0.2500000000 0.2500000000 0.2500000000 0.2500000000 0.2500000000 0.2500000000 0.2500000000 0.2500000000 0.2500000000 0.2500000000 0.2500000000 0.2500000000 0.2500000000 0.2500000000 0.2500000000 0.2500000000 0.2500000000 0.2500000000 0.2500000000 0.2500000000 0.2500000000 0.2500000000 0.2500000000 0.2500000000 0.2500000000 0.2500000000 0.2500000000 0.2500000000 0.2500000000 0.2500000000 0.2500000000 0.2500000000 0.2500000000 0.2500000000 0.2500000000 0.2500000000 0.2500000000 0.2500000000 0.2500000000 0.2500000000 0.2500000000 0.2500000000 0.2500000000 0.2500000000 0.2500000000 0.2500000000 0.2500000000 0.2500000000 0.2500000000 0.2500000000 0.2500000000 0.2500000000 0.2500000000 0.2500000000 0.2500000000 0.2500000000 0.2500000000 0.2500000000 0.2500000000 0.2500000000 0.2500000000 0.2500000000 0.2500000000 0.2500000000 0.2500000000 0.2500000000 0.2500000000 0.2500000000 0.2500000000 0.2500000000 0.2500000000 0.2500000000 0.2500000000 0.2500000000 0.2500000000 0.2500000000 0.2500000000 0.2500000000 0.2500000000 0.2500000000 0.2500000000 0.2500000000 0.2500000000 0.2500000000 0.2500000000 0.2500000000 0.2500000000 0.2500000000 0.2500000000 0.2500000000 0.2500000000 0.2500000000 0.2500000000 0.2500000000 0.2500000000 0.2500000000 0.2500000000 0.2500000000 0.2500000000 0.2500000000 0.2500000000 0.2500000000 
</DataArray>
<DataArray type="Float64" Name="age_conc" format="ascii">
0.9892554333 0.9890025107 0.9883090057 0.9865475302 0.9773530382 0.9790384547 0.9816181513 0.9844482739 0.9825681929 0.9788501855 0.9759903172 0.9743487911 0.3425481902 0.5035001548 0.0521930877 0.9889338274 0.6008960546 0.8353162170 0.1983008457 0.9880501737 0.4086897194 0.9817609574 0.9816764374 0.9209003991 0.9829947688 0.9885485780 0.7163772799 0.0914102651 0.9694494356 0.2168616158 0.9798363410 0.8447877938 0.0843645088 0.7197830376 0.9589456630 0.9452685688 0.8602979726 0.9730836192 0.1477966789 0.4731677548 0.9530718647 0.8540346251 0.9866809970 0.9799041391 0.6028115110 0.7670813229 0.9226808877 0.3451869426 0.9713411175 0.9420752999 0.5226796194 0.6333559433 0.8698310174 0.0266314186 0.8834198808 0.9421204152 0.7268370557 0.8604516085 0.2906717377 0.9779024457 0.9844673574 0.9817526793 0.9635014239 0.4091121029 0.7170787734 0.9636693294 0.9886044928 0.7849282437 0.9679766556 0.7918088625 0.0468415091 0.8300161240 0.9630278662 0.2115136161 0.5714067729 0.6806156523 0.8196873782 0.9643246333 0.9829483825 0.9416437874 0.8062516458 0.9575912898 0.1027405117 0.3109632304 0.9699372885 0.5301868540 0.4117128904 0.4722426282 0.6788857265 0.1390605564 0.7996683967 0.4003365133 0.9566864922 0.9286561175 0.0836547420 0.9885134092 0.9508702076 0.8646471958 0.3026943900 0.0304207802 0.0557174300 0.1713575518 0.9867381345 0.2442975968 0.9558223429 0.3882647784 0.2460498048 0.3551313983 0.8464124408 0.8454148694 0.2300285964 0.5623662524 0.5663909401 0.6534927510 0.6556016337 0.3685278729 0.3872351349 0.9039084281 0.1253834785 0.1108281965 0.2793307622 0.1591388214 0.1745040000 0.1464833329 
</DataArray>
<DataArray type="Float64" Name="U235_conc" format="ascii">
0.9894246681 0.9891825084 0.9885144966 0.9867994143 0.9777913367 0.9794440732 0.9819779093 0.9847550369 0.9828925378 0.9792386088 0.9764358820 0.9748325462 0.3496540377 0.5134684419 0.0487876873 0.9891125314 0.6115204549 0.8423644180 0.2006584178 0.9882946202 0.4171699304 0.9824505210 0.9823324973 0.9249419137 0.9836101067 0.9887442902 0.7262433508 0.0895509555 0.9707572780 0.2200098264 0.9805664178 0.8514112637 0.0819809442 0.7293673003 0.9610324603 0.9479560577 0.8669182818 0.9742649840 0.1481618204 0.4828170933 0.9557593481 0.8609127218 0.9870320077 0.9808147497 0.6131062051 0.7761837748 0.9264180141 0.3523685391 0.9727906947 0.9453120923 0.5326149745 0.6432656820 0.8754753422 0.0228353031 0.8891406593 0.9447034755 0.7350141327 0.8659036420 0.2962293722 0.9788996515 0.9849756574 0.9824331502 0.9648471699 0.4171126395 0.7251793157 0.9654287715 0.9888075607 0.7924107460 0.9693447259 0.7997079276 0.0433667679 0.8355212654 0.9644593190 0.2140281272 0.5806117215 0.6910864821 0.8258953001 0.9660649811 0.9835562700 0.9440065469 0.8124102133 0.9592450721 0.1008660196 0.3170380135 0.9709977587 0.5406476712 0.4203240506 0.4811729091 0.6886846713 0.1385061464 0.8080601664 0.4088941965 0.9590631338 0.9323033587 0.0806347302 0.9887234672 0.9527875398 0.8709147120 0.3086098950 0.0259789718 0.0517812964 0.1723052969 0.9870825201 0.2481384875 0.9574438569 0.3955336873 0.2511039711 0.3615651885 0.8516262978 0.8506395104 0.2343575507 0.5704078410 0.5744202288 0.6618549245 0.6639528052 0.3750817793 0.3944990966 0.9077176807 0.1272928513 0.1120287124 0.2850353720 0.1618348661 0.1777070446 0.1481692984 
</DataArray>
<DataArray type="Float64" Name="age_diffusion_rate_immobile" format="ascii">
0.0200000000 0.0200000000 0.0200000000 0.0200000000 0.0200000000 0.0200000000 0.0200000000 0.0200000000 0.0200000000 0.0200000000 0.0200000000 0.0200000000 0.0200000000 0.0200000000 0.0200000000 0.0200000000 0.0200000000 0.0200000000 0.0200000000 0.0200000000 0.0200000000 0.0200000000 0.0200000000 0.0200000000 0.0200000000 0.0200000000 0.0200000000 0.0200000000 0.0200000000 0.0200000000 0.0200000000 0.0200000000 0.0200000000 0.0200000000 0.0200000000 0.0200000000 0.0200000000 0.0200000000 0.0200000000 0.0200000000 0.0200000000 0.0200000000 0.0200000000 0.0200000000 0.0200000000 0.0200000000 0.0200000000 0.0200000000 0.0200000000 0.0200000000 0.0200000000 0.0200000000 0.0200000000 0.0200000000 0.0200000000 0.0200000000 0.0200000000 0.0200000000 0.0200000000 0.0200000000 0.0200000000 0.0200000000 0.0200000000 0.0200000000 0.0200000000 0.0200000000 0.0200000000 0.0200000000 0.0200000000 0.0200000000 0.0200000000 0.0200000000 0.0200000000 0.0200000000 0.0200000000 0.0200000000 0.0200000000 0.0200000000 0.0200000000 0.0200000000 0.0200000000 0.0200000000 0.0200000000 0.0200000000 0.0200000000 0.0200000000 0.0200000000 0.0200000000 0.0200000000 0.0200000000 0.0200000000 0.0200000000 0.0200000000 0.0200000000 0.0200000000 0.0200000000 0.0200000000 0.0200000000 0.0200000000 0.0200000000 0.0200000000 0.0200000000 0.0200000000 0.0200000000 0.0200000000 0.0200000000 0.0200000000 0.0200000000 0.0200000000 0.0200000000 0.0200000000 0.0200000000 0.0200000000 0.0200000000 0.0200000000 0.0200000000 0.0200000000 0.0200000000 0.0200000000 0.0200000000 0.0200000000 0.0200000000 0.0200000000 0.0200000000 
</DataArray>
<DataArray type="Float64" Name="U235_diffusion_rate_immobile" format="ascii">
0.0200000000 0.0200000000 0.0200000000 0.0200000000 0.0200000000 0.0200000000 0.0200000000 0.0200000000 0.0200000000 0.0200000000 0.0200000000 0.0200000000 0.0200000000 0.0200000000 0.0200000000 0.0200000000 0.0200000000 0.0200000000 0.0200000000 0.0200000000 0.0200000000 0.0200000000 0.0200000000 0.0200000000 0.0200000000 0.0200000000 0.0200000000 0.0200000000 0.0200000000 0.0200000000 0.0200000000 0.0200000000 0.0200000000 0.0200000000 0.0200000000 0.0200000000 0.0200000000 0.0200000000 0.0200000000 0.0200000000 0.0200000000 0.0200000000 0.0200000000 0.0200000000 0.0200000000 0.0200000000 0.0200000000 0.0200000000 0.0200000000 0.0200000000 0.0200000000 0.0200000000 0.0200000000 0.0200000000 0.0200000000 0.0200000000 0.0200000000 0.0200000000 0.0200000000 0.0200000000 0.0200000000 0.0200000000 0.0200000000 0.0200000000 0.0200000000 0.0200000000 0.0200000000 0.0200000000 0.0200000000 0.0200000000 0.0200000000 0.0200000000 0.0200000000 0.0200000000 0.0200000000 0.0200000000 0.0200000000 0.0200000000 0.0200000000 0.0200000000 0.0200000000 0.0200000000 0.0200000000 0.0200000000 0.0200000000 0.0200000000 0.0200000000 0.0200000000 0.0200000000 0.0200000000 0.0200000000 0.0200000000 0.0200000000 0.0200000000 0.0200000000 0.0200000000 0.0200000000 0.0200000000 0.0200000000 0.0200000000 0.0200000000 0.0200000000 0.0200000000 0.0200000000 0.0200000000 0.0200000000 0.0200000000 0.0200000000 0.0200000000 0.0200000000 0.0200000000 0.0200000000 0.0200000000 0.0200000000 0.0200000000 0.0200000000 0.0200000000 0.0200000000 0.0200000000 0.0200000000 0.0200000000 0.0200000000 0.0200000000 0.0200000000 
</DataArray>
<DataArray type="Float64" Name="age_init_conc_immobile" format="ascii">
0.0000000000 0.0000000000 0.0000000000 0.0000000000 0.0000000000 0.0000000000 0.0000000000 0.0000000000 0.0000000000 0.0000000000 0.0000000000 0.0000000000 0.0000000000 0.0000000000 0.0000000000 0.0000000000 0.0000000000 0.0000000000 0.0000000000 0.0000000000 0.0000000000 0.0000000000 0.0000000000 0.0000000000 0.0000000000 0.0000000000 0.0000000000 0.0000000000 0.0000000000 0.0000000000 0.0000000000 0.0000000000 0.0000000000 0.0000000000 0.0000000000 0.0000000000 0.0000000000 0.0000000000 0.0000000000 0.0000000000 0.0000000000 0.0000000000 0.0000000000 0.0000000000 0.0000000000 0.0000000000 0.0000000000 0.0000000000 0.0000000000 0.0000000000 0.0000000000 0.0000000000 0.0000000000 0.0000000000 0.0000000000 0.0000000000 0.0000000000 0.0000000000 0.0000000000 0.0000000000 0.0000000000 0.0000000000 0.0000000000 0.0000000000 0.0000000000 0.0000000000 0.0000000000 0.0000000000 0.0000000000 0.0000000000 0.0000000000 0.0000000000 0.0000000000 0.0000000000 0.0000000000 0.0000000000 0.0000000000 0.0000000000 0.0000000000 0.0000000000 0.0000000000 0.0000000000 0.0000000000 0.0000000000 0.0000000000 0.0000000000 0.0000000000 0.0000000000 0.0000000000 0.0000000000 0.0000000000 0.0000000000 0.0000000000 0.0000000000 0.0000000000 0.0000000000 0.0000000000 0.0000000000 0.0000000000 0.0000000000 0.0000000000 0.0000000000 0.0000000000 0.0000000000 0.0000000000 0.0000000000 0.0000000000 0.0000000000 0.0000000000 0.0000000000 0.0000000000 0.0000000000 0.0000000000 0.0000000000 0.0000000000 0.0000000000 0.0000000000 0.0000000000 0.0000000000 0.0000000000 0.0000000000 0.0000000000 0.0000000000 0.0000000000 
</DataArray>
<DataArray type="Float64" Name="U235_init_conc_immobile" format="ascii">
0.0000000000 0.0000000000 0.0000000000 0.0000000000 0.0000000000 0.0000000000 0.0000000000 0.0000000000 0.0000000000 0.0000000000 0.0000000000 0.0000000000 0.0000000000 0.0000000000 0.0000000000 0.0000000000 0.0000000000 0.0000000000 0.0000000000 0.0000000000 0.0000000000 0.0000000000 0.0000000000 0.0000000000 0.0000000000 0.0000000000 0.0000000000 0.0000000000 0.0000000000 0.0000000000 0.0000000000 0.0000000000 0.0000000000 0.0000000000 0.0000000000 0.0000000000 0.0000000000 0.0000000000 0.0000000000 0.0000000000 0.0000000000 0.0000000000 0.0000000000 0.0000000000 0.0000000000 0.0000000000 0.0000000000 0.0000000000 0.0000000000 0.0000000000 0.0000000000 0.0000000000 0.0000000000 0.0000000000 0.0000000000 0.0000000000 0.0000000000 0.0000000000 0.0000000000 0.0000000000 0.0000000000 0.0000000000 0.0000000000 0.0000000000 0.0000000000 0.0000000000 0.0000000000 0.0000000000 0.0000000000 0.0000000000 0.0000000000 0.0000000000 0.0000000000 0.0000000000 0.0000000000 0.0000000000 0.0000000000 0.0000000000 0.0000000000 0.0000000000 0.0000000000 0.0000000000 0.0000000000 0.0000000000 0.0000000000 0.0000000000 0.0000000000 0.0000000000 0.0000000000 0.0000000000 0.0000000000 0.0000000000 0.0000000000 0.0000000000 0.0000000000 0.0000000000 0.0000000000 0.0000000000 0.0000000000 0.0000000000 0.0000000000 0.0000000000 0.0000000000 0.0000000000 0.0000000000 0.0000000000 0.0000000000 0.0000000000 0.0000000000 0.0000000000 0.0000000000 0.0000000000 0.0000000000 0.0000000000 0.0000000000 0.0000000000 0.0000000000 0.0000000000 0.0000000000 0.0000000000 0.0000000000 0.0000000000 0.0000000000 0.0000000000 
</DataArray>
<DataArray type="Float64" Name="age_conc_immobile" format="ascii">
0.0038660356 0.0037854959 0.0037022626 0.0036153053 0.0029763678 0.0031317420 0.0032907126 0.0034524953 0.0034474064 0.0032836518 0.0031242910 0.0029693614 0.0002820350 0.0004838075 0.0000276931 0.0035463407 0.0006512373 0.0013549532 0.0001388359 0.0033695716 0.0003910503 0.0027955083 0.0031181136 0.0017957873 0.0026686427 0.0032332072 0.0008705438 0.0000541537 0.0027170310 0.0001523817 0.0031695236 0.0014448136 0.0000476370 0.0009586046 0.0022357572 0.0021713655 0.0013167883 0.0027032888 0.0000946658 0.0004576643 0.0018757670 0.0012993509 0.0027867557 0.0023570482 0.0007062408 0.0010272809 0.0019475881 0.0002868338 0.0022409432 0.0018114323 0.0005916825 0.0008349900 0.0016600585 0.0000136862 0.0014869280 0.0024181921 0.0011906306 0.0017622853 0.0002715904 0.0024886911 0.0028790369 0.0030363351 0.0030004081 0.0004503657 0.0011600451 0.0024862662 0.0034399194 0.0013533975 0.0029431979 0.0012800235 0.0000265098 0.0017499742 0.0029913583 0.0001518681 0.0007651407 0.0008209584 0.0016171934 0.0024667959 0.0030412115 0.0024943276 0.0015768119 0.0026696725 0.0000663547 0.0002550096 0.0031058250 0.0005413417 0.0004024449 0.0005452930 0.0009187922 0.0000899943 0.0011617883 0.0003495834 0.0020380506 0.0019455922 0.0000481933 0.0034238297 0.0026229760 0.0015018311 0.0002557174 0.0000150489 0.0000304727 0.0001236702 0.0029895779 0.0001986815 0.0025175996 0.0005108658 0.0003492677 0.0005636601 0.0017391870 0.0017373088 0.0002413260 0.0009322072 0.0009421859 0.0010036473 0.0010078544 0.0005957326 0.0005091041 0.0018750099 0.0001424833 0.0001126440 0.0004432888 0.0001825938 0.0002210601 0.0001294860 
</DataArray>
<DataArray type="Float64" Name="U235_conc_immobile" format="ascii">
0.0040495347 0.0039644872 0.0038766504 0.0037849492 0.0031118527 0.0032754482 0.0034428793 0.0036133357 0.0036080283 0.0034355280 0.0032677004 0.0031045706 0.0002812253 0.0004933385 0.0000210844 0.0037129768 0.0006695108 0.0014109568 0.0001316706 0.0035274924 0.0003950955 0.0029242915 0.0032641555 0.0018744757 0.0027904503 0.0033832626 0.0009010207 0.0000465388 0.0028424016 0.0001460515 0.0033182566 0.0015053280 0.0000399451 0.0009933211 0.0023366670 0.0022691325 0.0013709303 0.0028279282 0.0000868721 0.0004652978 0.0019580823 0.0013525232 0.0029141082 0.0024630227 0.0007270883 0.0010661090 0.0020340899 0.0002855075 0.0023414422 0.0018906127 0.0006056857 0.0008626128 0.0017324259 0.0000086306 0.0015497643 0.0025291075 0.0012375061 0.0018396883 0.0002693515 0.0026017173 0.0030118310 0.0031783632 0.0031410383 0.0004571957 0.0012051826 0.0026003415 0.0036012722 0.0014090379 0.0030811988 0.0013321791 0.0000200174 0.0018266711 0.0031316219 0.0001442499 0.0007889891 0.0008480392 0.0016869895 0.0025798283 0.0031833236 0.0026088448 0.0016442701 0.0027927705 0.0000576556 0.0002515724 0.0032515755 0.0005528944 0.0004060246 0.0005569457 0.0009512038 0.0000811021 0.0012074644 0.0003507225 0.0021286455 0.0020321854 0.0000396905 0.0035843930 0.0027438587 0.0015655004 0.0002518458 0.0000094463 0.0000231154 0.0001151646 0.0031277014 0.0001927019 0.0026322931 0.0005224768 0.0003544569 0.0005795695 0.0018154428 0.0018134821 0.0002395655 0.0009666974 0.0009771912 0.0010412544 0.0010456756 0.0006133345 0.0005206216 0.0019575417 0.0001379783 0.0001067820 0.0004538951 0.0001795454 0.0002202112 0.0001232807 
</DataArray>
<DataArray type="Float64" Name="rock_density" format="ascii">
1.1000000000 1.1000000000 1.1000000000 1.1000000000 1.1000000000 1.1000000000 1.1000000000 1.1000000000 1.1000000000 1.1000000000 1.1000000000 1.1000000000 1.1000000000 1.1000000000 1.1000000000 1.1000000000 1.1000000000 1.1000000000 1.1000000000 1.1000000000 1.1000000000 1.1000000000 1.1000000000 1.1000000000 1.1000000000 1.1000000000 1.1000000000 1.1000000000 1.1000000000 1.1000000000 1.1000000000 1.1000000000 1.1000000000 1.1000000000 1.1000000000 1.1000000000 1.1000000000 1.1000000000 1.1000000000 1.1000000000 1.1000000000 1.1000000000 1.1000000000 1.1000000000 1.1000000000 1.1000000000 1.1000000000 1.1000000000 1.1000000000 1.1000000000 1.1000000000 1.1000000000 1.1000000000 1.1000000000 1.1000000000 1.1000000000 1.1000000000 1.1000000000 1.1000000000 1.1000000000 1.1000000000 1.1000000000 1.1000000000 1.1000000000 1.1000000000 1.1000000000 1.1000000000 1.1000000000 1.1000000000 1.1000000000 1.1000000000 1.1000000000 1.1000000000 1.1000000000 1.1000000000 1.1000000000 1.1000000000 1.1000000000 1.1000000000 1.1000000000 1.1000000000 1.1000000000 1.1000000000 1.1000000000 1.1000000000 1.1000000000 1.1000000000 1.1000000000 1.1000000000 1.1000000000 1.1000000000 1.1000000000 1.1000000000 1.1000000000 1.1000000000 1.1000000000 1.1000000000 1.1000000000 1.1000000000 1.1000000000 1.1000000000 1.1000000000 1.1000000000 1.1000000000 1.1000000000 1.1000000000 1.1000000000 1.1000000000 1.1000000000 1.1000000000 1.1000000000 1.1000000000 1.1000000000 1.1000000000 1.1000000000 1.1000000000 1.1000000000 1.1000000000 1.1000000000 1.1000000000 1.1000000000 1.1000000000 1.1000000000 1.1000000000 
</DataArray>
<DataArray type="UInt32" Name="age_sorption_type" format="ascii">
1 1 1 1 1 1 1 1 1 1 1 1 1 1 1 1 1 1 1 1 1 1 1 1 1 1 1 1 1 1 1 1 1 1 1 1 1 1 1 1 1 1 1 1 1 1 1 1 1 1 1 1 1 1 1 1 1 1 1 1 1 1 1 1 1 1 1 1 1 1 1 1 1 1 1 1 1 1 1 1 1 1 1 1 1 1 1 1 1 1 1 1 1 1 1 1 1 1 1 1 1 1 1 1 1 1 1 1 1 1 1 1 1 1 1 1 1 1 1 1 1 1 1 1 
</DataArray>
<DataArray type="UInt32" Name="U235_sorption_type" format="ascii">
2 2 2 2 2 2 2 2 2 2 2 2 2 2 2 2 2 2 2 2 2 2 2 2 2 2 2 2 2 2 2 2 2 2 2 2 2 2 2 2 2 2 2 2 2 2 2 2 2 2 2 2 2 2 2 2 2 2 2 2 2 2 2 2 2 2 2 2 2 2 2 2 2 2 2 2 2 2 2 2 2 2 2 2 2 2 2 2 2 2 2 2 2 2 2 2 2 2 2 2 2 2 2 2 2 2 2 2 2 2 2 2 2 2 2 2 2 2 2 2 2 2 2 2 
</DataArray>
<DataArray type="Float64" Name="age_distribution_coefficient" format="ascii">
0.0300000000 0.0300000000 0.0300000000 0.0300000000 0.0300000000 0.0300000000 0.0300000000 0.0300000000 0.0300000000 0.0300000000 0.0300000000 0.0300000000 0.0300000000 0.0300000000 0.0300000000 0.0300000000 0.0300000000 0.0300000000 0.0300000000 0.0300000000 0.0300000000 0.0300000000 0.0300000000 0.0300000000 0.0300000000 0.0300000000 0.0300000000 0.0300000000 0.0300000000 0.0300000000 0.0300000000 0.0300000000 0.0300000000 0.0300000000 0.0300000000 0.0300000000 0.0300000000 0.0300000000 0.0300000000 0.0300000000 0.0300000000 0.0300000000 0.0300000000 0.0300000000 0.0300000000 0.0300000000 0.0300000000 0.0300000000 0.0300000000 0.0300000000 0.0300000000 0.0300000000 0.0300000000 0.0300000000 0.0300000000 0.0300000000 0.0300000000 0.0300000000 0.0300000000 0.0300000000 0.0300000000 0.0300000000 0.0300000000 0.0300000000 0.0300000000 0.0300000000 0.0300000000 0.0300000000 0.0300000000 0.0300000000 0.0300000000 0.0300000000 0.0300000000 0.0300000000 0.0300000000 0.0300000000 0.0300000000 0.0300000000 0.0300000000 0.0300000000 0.0300000000 0.0300000000 0.0300000000 0.0300000000 0.0300000000 0.0300000000 0.0300000000 0.0300000000 0.0300000000 0.0300000000 0.0300000000 0.0300000000 0.0300000000 0.0300000000 0.0300000000 0.0300000000 0.0300000000 0.0300000000 0.0300000000 0.0300000000 0.0300000000 0.0300000000 0.0300000000 0.0300000000 0.0300000000 0.0300000000 0.0300000000 0.0300000000 0.0300000000 0.0300000000 0.0300000000 0.0300000000 0.0300000000 0.0300000000 0.0300000000 0.0300000000 0.0300000000 0.0300000000 0.0300000000 0.0300000000 0.0300000000 0.0300000000 0.0300000000 0.0300000000 
</DataArray>
<DataArray type="Float64" Name="U235_distribution_coefficient" format="ascii">
0.0300000000 0.0300000000 0.0300000000 0.0300000000 0.0300000000 0.0300000000 0.0300000000 0.0300000000 0.0300000000 0.0300000000 0.0300000000 0.0300000000 0.0300000000 0.0300000000 0.0300000000 0.0300000000 0.0300000000 0.0300000000 0.0300000000 0.0300000000 0.0300000000 0.0300000000 0.0300000000 0.0300000000 0.0300000000 0.0300000000 0.0300000000 0.0300000000 0.0300000000 0.0300000000 0.0300000000 0.0300000000 0.0300000000 0.0300000000 0.0300000000 0.0300000000 0.0300000000 0.0300000000 0.0300000000 0.0300000000 0.0300000000 0.0300000000 0.0300000000 0.0300000000 0.0300000000 0.0300000000 0.0300000000 0.0300000000 0.0300000000 0.0300000000 0.0300000000 0.0300000000 0.0300000000 0.0300000000 0.0300000000 0.0300000000 0.0300000000 0.0300000000 0.0300000000 0.0300000000 0.0300000000 0.0300000000 0.0300000000 0.0300000000 0.0300000000 0.0300000000 0.0300000000 0.0300000000 0.0300000000 0.0300000000 0.0300000000 0.0300000000 0.0300000000 0.0300000000 0.0300000000 0.0300000000 0.0300000000 0.0300000000 0.0300000000 0.0300000000 0.0300000000 0.0300000000 0.0300000000 0.0300000000 0.0300000000 0.0300000000 0.0300000000 0.0300000000 0.0300000000 0.0300000000 0.0300000000 0.0300000000 0.0300000000 0.0300000000 0.0300000000 0.0300000000 0.0300000000 0.0300000000 0.0300000000 0.0300000000 0.0300000000 0.0300000000 0.0300000000 0.0300000000 0.0300000000 0.0300000000 0.0300000000 0.0300000000 0.0300000000 0.0300000000 0.0300000000 0.0300000000 0.0300000000 0.0300000000 0.0300000000 0.0300000000 0.0300000000 0.0300000000 0.0300000000 0.0300000000 0.0300000000 0.0300000000 0.0300000000 0.0300000000 
</DataArray>
<DataArray type="Float64" Name="age_isotherm_other" format="ascii">
0.0000000000 0.0000000000 0.0000000000 0.0000000000 0.0000000000 0.0000000000 0.0000000000 0.0000000000 0.0000000000 0.0000000000 0.0000000000 0.0000000000 0.0000000000 0.0000000000 0.0000000000 0.0000000000 0.0000000000 0.0000000000 0.0000000000 0.0000000000 0.0000000000 0.0000000000 0.0000000000 0.0000000000 0.0000000000 0.0000000000 0.0000000000 0.0000000000 0.0000000000 0.0000000000 0.0000000000 0.0000000000 0.0000000000 0.0000000000 0.0000000000 0.0000000000 0.0000000000 0.0000000000 0.0000000000 0.0000000000 0.0000000000 0.0000000000 0.0000000000 0.0000000000 0.0000000000 0.0000000000 0.0000000000 0.0000000000 0.0000000000 0.0000000000 0.0000000000 0.0000000000 0.0000000000 0.0000000000 0.0000000000 0.0000000000 0.0000000000 0.0000000000 0.0000000000 0.0000000000 0.0000000000 0.0000000000 0.0000000000 0.0000000000 0.0000000000 0.0000000000 0.0000000000 0.0000000000 0.0000000000 0.0000000000 0.0000000000 0.0000000000 0.0000000000 0.0000000000 0.0000000000 0.0000000000 0.0000000000 0.0000000000 0.0000000000 0.0000000000 0.0000000000 0.0000000000 0.0000000000 0.0000000000 0.0000000000 0.0000000000 0.0000000000 0.0000000000 0.0000000000 0.0000000000 0.0000000000 0.0000000000 0.0000000000 0.0000000000 0.0000000000 0.0000000000 0.0000000000 0.0000000000 0.0000000000 0.0000000000 0.0000000000 0.0000000000 0.0000000000 0.0000000000 0.0000000000 0.0000000000 0.0000000000 0.0000000000 0.0000000000 0.0000000000 0.0000000000 0.0000000000 0.0000000000 0.0000000000 0.0000000000 0.0000000000 0.0000000000 0.0000000000 0.0000000000 0.0000000000 0.0000000000 0.0000000000 0.0000000000 0.0000000000 
</DataArray>
<DataArray type="Float64" Name="U235_isotherm_other" format="ascii">
1.5000000000 1.5000000000 1.5000000000 1.5000000000 1.5000000000 1.5000000000 1.5000000000 1.5000000000 1.5000000000 1.5000000000 1.5000000000 1.5000000000 1.5000000000 1.5000000000 1.5000000000 1.5000000000 1.5000000000 1.5000000000 1.5000000000 1.5000000000 1.5000000000 1.5000000000 1.5000000000 1.5000000000 1.5000000000 1.5000000000 1.5000000000 1.5000000000 1.5000000000 1.5000000000 1.5000000000 1.5000000000 1.5000000000 1.5000000000 1.5000000000 1.5000000000 1.5000000000 1.5000000000 1.5000000000 1.5000000000 1.5000000000 1.5000000000 1.5000000000 1.5000000000 1.5000000000 1.5000000000 1.5000000000 1.5000000000 1.5000000000 1.5000000000 1.5000000000 1.5000000000 1.5000000000 1.5000000000 1.5000000000 1.5000000000 1.5000000000 1.5000000000 1.5000000000 1.5000000000 1.5000000000 1.5000000000 1.5000000000 1.5000000000 1.5000000000 1.5000000000 1.5000000000 1.5000000000 1.5000000000 1.5000000000 1.5000000000 1.5000000000 1.5000000000 1.5000000000 1.5000000000 1.5000000000 1.5000000000 1.5000000000 1.5000000000 1.5000000000 1.5000000000 1.5000000000 1.5000000000 1.5000000000 1.5000000000 1.5000000000 1.5000000000 1.5000000000 1.5000000000 1.5000000000 1.5000000000 1.5000000000 1.5000000000 1.5000000000 1.5000000000 1.5000000000 1.5000000000 1.5000000000 1.5000000000 1.5000000000 1.5000000000 1.5000000000 1.5000000000 1.5000000000 1.5000000000 1.5000000000 1.5000000000 1.5000000000 1.5000000000 1.5000000000 1.5000000000 1.5000000000 1.5000000000 1.5000000000 1.5000000000 1.5000000000 1.5000000000 1.5000000000 1.5000000000 1.5000000000 1.5000000000 1.5000000000 1.5000000000 1.5000000000 
</DataArray>
<DataArray type="Float64" Name="age_init_conc_solid" format="ascii">