<?xml version="1.0"?>
<VTKFile type="UnstructuredGrid" version="0.1" byte_order="LittleEndian">
<UnstructuredGrid>
<Piece NumberOfPoints="69" NumberOfCells="124">
<Points>
<DataArray type="Float64" NumberOfComponents="3" format="ascii">
0 0 0 0.084352422163911631 0.086451712656266194 0 0.1249999999997554 0 0 0 0.12500000000034689 0 0.1008171452988615 0.18885703697250469 0 0.2403886547178353 0.24188814792673841 0 0.18402761812864499 0.1117324051466445 0 0.25 -0 0 0.31250000000020822 0.12500000000041631 0 0.4287911518546233 0.15455445427966699 0 0.43749999999913258 0 0 0.43750000000006939 0.37500000000013878 0 0.49457493289300231 0.26251703776555491 0 0.37500000000027761 0.25000000000055511 0 0.33819444444448321 0.33819444444456342 0 0.37499999999973488 0.43749999999986738 0 0.14929124186975251 0.44582793568106382 0 0.24999999999960859 0.37499999999980432 0 0.1249999999997599 0.31249999999987998 0 0 0.25 0 0 0.43750000000034689 0 0 0.62500000000069389 0 0.13900789599611679 0.72618316107059999 0 0.13928587515912139 0.57339806105677438 0 0 1 0 0 0.81250000000104083 0 0.12710107136012311 0.87094806618203435 0 0.1875000000005205 1 0 0.27987960212930818 0.83442741470570525 0 0.44927105396715372 0.85565124085155886 0 0.37500000000069389 1 0 0.26452443700674649 0.51563531581639865 0 0.27589467050686478 0.66058853156435704 0 0.38136204680495073 0.74038592213831234 0 0.4139414069912184 0.60563252640100373 0 0.5 0.5 -0 0.50145856933078625 0.73674663046504862 0 0.5625 0.625 0 0.71259747807844409 0.63846691315701831 0 0.63236534182377013 0.50296756406332266 0 0.56250000000086742 1 0 0.56777512057187585 0.8470224641095303 0 0.625 0.75 0 0.73857795170433571 0.77736788564284653 0 0.6875 0.875 0 0.75 1 0 0.80552984491000901 0.88711122872127413 0 0.85787927391517405 0.753532520882502 0 1 0.83333333333356463 0 0.90637953422180084 0.90208583328057301 0 1 1 0 0.875 1 0 0.86127466977819722 0.57948076978797636 0 1 0.66666666666736052 0 1 0.50000000000138767 0 0.75338430262320943 0.49294443423175599 0 0.86569408477091048 0.40983673916766611 0 0.86087286690217635 0.25206523597959418 0 1 0.33333333333448978 0 1 0.16666666666736049 0 1 0 0 0.87698901648812122 0.1160638338657984 0 0.81249999999947953 0 0 0.71508993406183785 0.15715956854777599 0 0.62499999999895905 0 0 0.54475767668582953 0.1431838882066932 0 0.61108462585082757 0.25750599582343231 0 0.56986707178436635 0.37762093650871992 0 0.71826039492840632 0.34564020717216182 0 
</DataArray>
</Points>
<Cells>
<DataArray type="UInt32" Name="connectivity" format="ascii">
0 1 3 0 2 1 3 4 19 3 1 4 4 1 6 18 4 5 6 5 4 8 5 6 7 6 2 7 8 6 2 6 1 8 7 7 10 8 8 13 5 13 8 8 9 13 13 9 12 65 12 9 8 10 9 10 65 9 15 35 11 35 15 11 15 14 35 11 13 12 11 11 13 13 11 14 17 5 14 13 14 5 15 17 14 17 15 15 31 17 17 31 16 17 16 18 17 18 5 18 17 19 18 20 18 19 4 19 18 20 16 23 20 18 16 20 23 21 21 23 22 25 21 22 32 22 23 28 22 32 31 32 23 31 23 16 27 24 26 24 25 26 25 22 26 28 26 22 27 26 28 30 28 29 30 27 28 29 28 33 29 33 36 30 29 40 34 32 31 15 34 31 28 32 33 34 33 32 34 36 33 37 36 34 15 35 34 37 34 35 37 35 39 37 35 37 42 36 42 37 42 38 43 37 38 42 55 38 39 37 39 38 44 40 41 40 29 41 29 36 41 42 41 36 44 42 43 44 43 46 44 42 44 41 42 44 45 40 44 46 45 45 44 51 45 46 51 46 49 46 47 49 46 43 47 48 47 53 48 49 47 50 49 48 50 51 49 52 38 55 47 38 52 47 43 38 53 47 52 53 52 54 58 54 56 52 56 54 52 55 56 55 68 56 63 57 68 56 68 57 59 58 57 58 56 57 59 57 61 62 60 61 59 61 60 62 61 63 63 61 57 64 63 65 62 63 64 10 64 65 63 66 65 65 66 12 67 12 66 11 12 67 11 67 35 35 67 39 55 39 68 67 68 39 63 68 66 67 66 68 
</DataArray>
<DataArray type="UInt32" Name="offsets" format="ascii">
3 6 9 12 15 18 21 24 27 30 33 35 38 41 43 46 49 52 55 58 60 63 66 68 71 73 76 79 82 85 87 90 93 96 99 101 104 107 109 112 115 118 121 124 127 130 133 136 139 142 145 148 151 154 157 160 163 166 169 172 175 178 181 184 187 190 193 195 198 200 203 206 209 212 215 218 221 224 227 230 232 235 238 241 243 246 249 252 255 258 261 264 267 270 273 276 279 282 285 288 291 294 297 300 303 306 309 312 315 318 321 324 327 330 333 336 339 342 345 348 351 354 357 360 
</DataArray>
<DataArray type="UInt32" Name="types" format="ascii">
5 5 5 5 5 5 5 5 5 5 5 3 5 5 3 5 5 5 5 5 3 5 5 3 5 3 5 5 5 5 3 5 5 5 5 3 5 5 3 5 5 5 5 5 5 5 5 5 5 5 5 5 5 5 5 5 5 5 5 5 5 5 5 5 5 5 5 3 5 3 5 5 5 5 5 5 5 5 5 5 3 5 5 5 3 5 5 5 5 5 5 5 5 5 5 5 5 5 5 5 5 5 5 5 5 5 5 5 5 5 5 5 5 5 5 5 5 5 5 5 5 5 5 5 
</DataArray>
</Cells>
<CellData Scalars="porosity,age_conc,U235_conc,age_diffusion_rate_immobile,U235_diffusion_rate_immobile,age_init_conc_immobile,U235_init_conc_immobile,age_conc_immobile,U235_conc_immobile,rock_density,age_sorption_type,U235_sorption_type,age_distribution_coefficient,U235_distribution_coefficient,age_isotherm_other,U235_isotherm_other,age_init_conc_solid,U235_init_conc_solid,age_conc_solid,U235_conc_solid,age_conc_immobile_solid,U235_conc_immobile_solid," Vectors="" Tensors="">
<DataArray type="Float64" Name="porosity" format="ascii">
0.25 0.25 0.25 0.25 0.25 0.25 0.25 0.25 0.25 0.25 0.25 0.25 0.25 0.25 0.25 0.25 0.25 0.25 0.25 0.25 0.25 0.25 0.25 0.25 0.25 0.25 0.25 0.25 0.25 0.25 0.25 0.25 0.25 0.25 0.25 0.25 0.25 0.25 0.25 0.25 0.25 0.25 0.25 0.25 0.25 0.25 0.25 0.25 0.25 0.25 0.25 0.25 0.25 0.25 0.25 0.25 0.25 0.25 0.25 0.25 0.25 0.25 0.25 0.25 0.25 0.25 0.25 0.25 0.25 0.25 0.25 0.25 0.25 0.25 0.25 0.25 0.25 0.25 0.25 0.25 0.25 0.25 0.25 0.25 0.25 0.25 0.25 0.25 0.25 0.25 0.25 0.25 0.25 0.25 0.25 0.25 0.25 0.25 0.25 0.25 0.25 0.25 0.25 0.25 0.25 0.25 0.25 0.25 0.25 0.25 0.25 0.25 0.25 0.25 0.25 0.25 0.25 0.25 0.25 0.25 0.25 0.25 0.25 0.25 
</DataArray>
<DataArray type="Float64" Name="age_conc" format="ascii">
0.98356355354128933 0.97479331204932862 1 0.98923668919550956 0.98040955758173309 0.98936530490192287 0.98459995549654078 0.98930737043181716 0.9897777639179316 0.98539284390553616 0.98172676366757106 0.99818834148777791 0.98705505300667429 0.99221202004644482 0.99850412063421856 0.9877739406933469 0.98872926990081411 0.99070813848452965 0.98806186411630725 0.98957330797457843 0.99918453801761786 0.99727833207948602 0.99589763738446901 0.99916914947172453 0.98945193630936656 0.99883307074307237 0.99544269450383371 0.99324579215545605 0.99321297607987169 0.99545388100094256 0.99885767104334344 0.99055168436796837 0.98977845589506774 0.9887484128841969 0.99228941614968669 0.99853368368861473 0.98787026960100177 0.98535445277715861 0.9982191325490869 0.99052170021117003 0.98883984136278058 0.99253025576324183 0.99402357860372281 0.9964160534673604 0.99479778557483822 0.99584962836495849 0.99280106755368647 0.99188646322701923 1 0.99909181482060738 0.99756411556590563 0.99807725879883935 0.99917037724219659 0.9988613021460786 1 0.9976932762731443 0.99654430827236262 1 0.99356019078366764 0.99164878405283696 0.99676722954887831 0.9947422836988522 0.99538904197670575 0.99541423724318578 0.99278705546354595 0.99422718908581897 0.99272665298500518 0.99950825384720088 0.99666627130672758 0.99968049567895512 0.99556262761424941 0.99461025471833353 0.9949370091974119 0.9936158320888776 0.99938296390151216 0.99828617040009071 0.99742923276484396 0.99764727306683865 0.99665930405637371 0.99765004226262644 0.99984316654866079 0.99850133680898612 1 0.99884151492516471 1 1 0.99914269926525523 0.99812935235695011 0.99721382789527213 1 0.99889029691464071 1 1 0.99595198118245976 0.99687451157011653 0.99600849093080979 0.99888992557619294 1 1 0.9989175427600856 0.99736201579498129 0.99635911226192353 0.99581021076926479 0.99693799261819482 1 0.99897429174520846 0.99922821250640248 0.99911408549283975 1 0.99670659895749369 0.99716843812901246 0.9928630592553126 0.99558765813417172 0.99168765614910726 0.99347391732454438 0.991515393206718 0.99209281223437817 0.99035386190305519 0.99120717562495508 0.99209562781017846 0.99473140465326104 0.99385213613065071 0.99435659012592925 0.99299163773010635 
</DataArray>
<DataArray type="Float64" Name="U235_conc" format="ascii">
0.98249998229881041 0.97347938767022446 1 0.98871418639990327 0.97983290537375112 0.98924519002307698 0.98425084480203329 0.98918313371127919 0.98897365816587568 0.98503270352245886 0.98076033378797467 0.99818941964388763 0.98697989537101716 0.99217519956000755 0.99850511392426122 0.98774052329572881 0.98871505199717613 0.99070586279261108 0.98802278768878993 0.98955824132562065 0.99918520713515824 0.99728010683737667 0.99589982785358322 0.99916981594009813 0.98944674215461059 0.99883394574471596 0.99544378586382676 0.99323799918789146 0.9932040050344304 0.99545513188742207 0.99885857437256975 0.99055151540555331 0.98977403977036271 0.98873361740890353 0.99225579531209185 0.99853477443586613 0.98783738309773572 0.98498879454205723 0.9982203904241147 0.99052213043947601 0.98882447714731148 0.99253271696298417 0.99402699811192363 0.99641847711041986 0.99480099148899059 0.99585235516179327 0.9928048031062483 0.9918900098130965 1 0.99909252550330629 0.99756586909730127 0.99807868085394302 0.99917102939090996 0.99886218244321212 1 0.99769495349709292 0.99654673093556823 1 0.99356390172604891 0.99165137175187812 0.99676947953408646 0.9947455874576161 0.99539206918773138 0.99541725559954519 0.99279072819735981 0.99423071325063095 0.99273038913906442 0.99950866546506345 0.99666863223717372 0.9996807685339999 0.99556551436809637 0.99461357087257818 0.99494005430786836 0.9936194430798555 0.99938346983153059 0.99828748022187486 0.99743111827129582 0.99764902970719049 0.99666158335499944 0.9976517268894689 0.99984330233988927 0.99850250592786316 1 0.998842393536856 1 1 0.99914338196772201 0.99813076414826729 0.99721583668533631 1 0.99889116040206472 1 1 0.99595458458869568 0.99687661651218273 0.99601118029524427 0.99889077136879156 1 1 0.99891836612020479 0.99736381139314068 0.99636145832365841 0.99581268066491047 0.99693998458750488 1 0.99897507808790942 0.99922881898352478 0.99911477794441916 1 0.99670850623008378 0.99717016519839619 0.99286303979568813 0.995589658661855 0.99168100948289184 0.99347600093957888 0.99151619870158203 0.99209522030596009 0.99035394652277953 0.991209778994802 0.99209907109175077 0.9947344653244643 0.99385537156761128 0.99435917723097056 0.99299476615021498 
</DataArray>
<DataArray type="Float64" Name="age_diffusion_rate_immobile" format="ascii">
0.02 0.02 0.02 0.02 0.02 0.02 0.02 0.02 0.02 0.02 0.02 0.02 0.02 0.02 0.02 0.02 0.02 0.02 0.02 0.02 0.02 0.02 0.02 0.02 0.02 0.02 0.02 0.02 0.02 0.02 0.02 0.02 0.02 0.02 0.02 0.02 0.02 0.02 0.02 0.02 0.02 0.02 0.02 0.02 0.02 0.02 0.02 0.02 0.02 0.02 0.02 0.02 0.02 0.02 0.02 0.02 0.02 0.02 0.02 0.02 0.02 0.02 0.02 0.02 0.02 0.02 0.02 0.02 0.02 0.02 0.02 0.02 0.02 0.02 0.02 0.02 0.02 0.02 0.02 0.02 0.02 0.02 0.02 0.02 0.02 0.02 0.02 0.02 0.02 0.02 0.02 0.02 0.02 0.02 0.02 0.02 0.02 0.02 0.02 0.02 0.02 0.02 0.02 0.02 0.02 0.02 0.02 0.02 0.02 0.02 0.02 0.02 0.02 0.02 0.02 0.02 0.02 0.02 0.02 0.02 0.02 0.02 0.02 0.02 
</DataArray>
<DataArray type="Float64" Name="U235_diffusion_rate_immobile" format="ascii">
0.02 0.02 0.02 0.02 0.02 0.02 0.02 0.02 0.02 0.02 0.02 0.02 0.02 0.02 0.02 0.02 0.02 0.02 0.02 0.02 0.02 0.02 0.02 0.02 0.02 0.02 0.02 0.02 0.02 0.02 0.02 0.02 0.02 0.02 0.02 0.02 0.02 0.02 0.02 0.02 0.02 0.02 0.02 0.02 0.02 0.02 0.02 0.02 0.02 0.02 0.02 0.02 0.02 0.02 0.02 0.02 0.02 0.02 0.02 0.02 0.02 0.02 0.02 0.02 0.02 0.02 0.02 0.02 0.02 0.02 0.02 0.02 0.02 0.02 0.02 0.02 0.02 0.02 0.02 0.02 0.02 0.02 0.02 0.02 0.02 0.02 0.02 0.02 0.02 0.02 0.02 0.02 0.02 0.02 0.02 0.02 0.02 0.02 0.02 0.02 0.02 0.02 0.02 0.02 0.02 0.02 0.02 0.02 0.02 0.02 0.02 0.02 0.02 0.02 0.02 0.02 0.02 0.02 0.02 0.02 0.02 0.02 0.02 0.02 
</DataArray>
<DataArray type="Float64" Name="age_init_conc_immobile" format="ascii">
0 0 0 0 0 0 0 0 0 0 0 0 0 0 0 0 0 0 0 0 0 0 0 0 0 0 0 0 0 0 0 0 0 0 0 0 0 0 0 0 0 0 0 0 0 0 0 0 0 0 0 0 0 0 0 0 0 0 0 0 0 0 0 0 0 0 0 0 0 0 0 0 0 0 0 0 0 0 0 0 0 0 0 0 0 0 0 0 0 0 0 0 0 0 0 0 0 0 0 0 0 0 0 0 0 0 0 0 0 0 0 0 0 0 0 0 0 0 0 0 0 0 0 0 
</DataArray>
<DataArray type="Float64" Name="U235_init_conc_immobile" format="ascii">
0 0 0 0 0 0 0 0 0 0 0 0 0 0 0 0 0 0 0 0 0 0 0 0 0 0 0 0 0 0 0 0 0 0 0 0 0 0 0 0 0 0 0 0 0 0 0 0 0 0 0 0 0 0 0 0 0 0 0 0 0 0 0 0 0 0 0 0 0 0 0 0 0 0 0 0 0 0 0 0 0 0 0 0 0 0 0 0 0 0 0 0 0 0 0 0 0 0 0 0 0 0 0 0 0 0 0 0 0 0 0 0 0 0 0 0 0 0 0 0 0 0 0 0 
</DataArray>
<DataArray type="Float64" Name="age_conc_immobile" format="ascii">
0.015762202355493665 0.015379715968703899 0.0183519668781837 0.016859161035787745 0.016990489285224938 0.020234688816498852 0.018292763632971585 0.020218477829754444 0.017684121523215995 0.019252756517916116 0.016477461495886241 0.025647700831248642 0.016173021807163165 0.021898180994297883 0.025820533900601378 0.016803990087632132 0.01766425638441076 0.019314186786260741 0.01699592100189249 0.018278190768958497 0.026207282122209484 0.025170301063713818 0.024391226310081615 0.026192895661454503 0.018363052558664213 0.026004273278990953 0.024069085450832764 0.022623939586436576 0.022601073293091842 0.024080634450077625 0.026028673064757278 0.020022333985541853 0.01929149304848422 0.018349426940882596 0.0219416332251497 0.025851031190357775 0.017514218770511264 0.01934739014675875 0.025680301407826699 0.019847511043278539 0.018375876947043575 0.021320253271743438 0.022503216759964081 0.023920866156047188 0.023122428558800888 0.023806039221192114 0.021826754385670475 0.021068532636881226 0.027354325633477797 0.02548011435613539 0.024601336481482869 0.024874698941057836 0.025473527168090412 0.02555825092060747 0.027073213927568097 0.024943814092977343 0.024474110900140393 0.027670856669077919 0.022504500926327636 0.020991744801693409 0.024427762495603977 0.023338233563158305 0.023796741823026893 0.023826450431349268 0.021972148997504621 0.023054697547592009 0.021431560676676221 0.026382096150316829 0.024557342384461507 0.026477087752622443 0.023550456079084899 0.02291421418006661 0.022947834919075961 0.022145626668245266 0.026009993453680821 0.025416680957956524 0.024958215318841421 0.02508919135455228 0.024037958897956149 0.024615888124242105 0.026565073779357351 0.025543083027066819 0.028502723554701175 0.025217918270311529 0.037855984826523401 0.026821721830885836 0.025762600898608389 0.025230271314111145 0.024734691304636087 0.026877171846153784 0.025643691593480743 0.027951262471179517 0.027881508276622068 0.023628105390635819 0.024197582010722279 0.024043361127418422 0.02523888366154628 0.026819826710103543 0.026943635432855859 0.025151811416295466 0.024282049560590095 0.023658402071927674 0.023268507164570306 0.024000839826672182 0.026963566751617832 0.025229553503161251 0.025381372448068824 0.025424809756389697 0.02729288843996247 0.023860660438081372 0.024124014961735288 0.02105166319001674 0.023129787132227856 0.020068665968962889 0.021562370634463108 0.020043383531556023 0.020590490979909778 0.019210248039554442 0.020024915436002926 0.020819124876175724 0.022695740515154297 0.022040642529132987 0.022240412057940924 0.021353938685610668 
</DataArray>
<DataArray type="Float64" Name="U235_conc_immobile" format="ascii">
0.016299978789776848 0.015906482812133953 0.018965027680567403 0.017428069686495944 0.017560799004313718 0.020894987726649439 0.018899655713787017 0.020878341883588378 0.018276578502665349 0.019887732197168734 0.017035090085699527 0.026463645248483922 0.016713877106611989 0.022604386097445753 0.026643995110121235 0.01736337025077769 0.018249509042488163 0.019948397065980471 0.017561520791775469 0.018882285987757486 0.027047171100463334 0.025969441044625521 0.025162621896949754 0.027032417759586674 0.018969073728950264 0.02683564654029056 0.024833584916902747 0.023346926084626067 0.023323450391611072 0.024845440758793191 0.026860684416930382 0.02067481389674691 0.019923633017780447 0.018954365785448356 0.02264904054789332 0.026675296680034113 0.018094696860743369 0.019985051383325653 0.026497105033655252 0.020495720290878355 0.018981722901864832 0.022007864761329942 0.023220789801564834 0.02467645291778562 0.023855502861216075 0.024557880802183182 0.022526991675553526 0.021749684940102928 0.028222537506277588 0.026289872735302835 0.025378389719016931 0.025661125549405618 0.026282690851706564 0.026370572640707236 0.02793280128744096 0.025732470612760586 0.025244316715075883 0.028550008585959814 0.02322114136050419 0.021670051942960709 0.025198124783021657 0.024075809400581377 0.024546286710770381 0.024576618462587699 0.022675129680044127 0.023784323440297718 0.022122423800161842 0.027229818139097677 0.025329939969610207 0.027329039582464479 0.024294306667786588 0.023641414055394959 0.023677450207576417 0.022854156013197048 0.026840659171925393 0.02622258069037943 0.025745952968834078 0.02588139336206885 0.024796670294684835 0.025393176382173525 0.027421110769572848 0.026353698254576167 0.029407186691777304 0.026017335591928835 0.039012464317972048 0.027673071330988612 0.026582916600127439 0.02602885089415357 0.025514482574355537 0.027730138540655036 0.026459355730903852 0.028839099095285287 0.028767200711578129 0.024376323647473372 0.024962972806769179 0.02480085003609343 0.026039199836580557 0.027670516228207914 0.02779839402153423 0.025949547196470864 0.025051090266586799 0.024408202913882592 0.024007988056409871 0.024762115722365308 0.027818912689261725 0.026030117761259859 0.02618737157313504 0.0262325889107589 0.028158695808629945 0.024617939242794283 0.024889939590226617 0.021732358922562617 0.023865300519389801 0.020723174444474239 0.022256372524196599 0.020697915297502124 0.021259910094600369 0.019841025971146186 0.020678688998763468 0.021494288639982841 0.023419032083625436 0.022747217560679021 0.022952209107031454 0.022043157085958751 
</DataArray>
<DataArray type="Float64" Name="rock_density" format="ascii">
1.3999999999999999 1.3999999999999999 1.3999999999999999 1.3999999999999999 1.3999999999999999 1.3999999999999999 1.3999999999999999 1.3999999999999999 1.3999999999999999 1.3999999999999999 1.3999999999999999 1.3999999999999999 1.3999999999999999 1.3999999999999999 1.3999999999999999 1.3999999999999999 1.3999999999999999 1.3999999999999999 1.3999999999999999 1.3999999999999999 1.3999999999999999 1.3999999999999999 1.3999999999999999 1.3999999999999999 1.3999999999999999 1.3999999999999999 1.3999999999999999 1.3999999999999999 1.3999999999999999 1.3999999999999999 1.3999999999999999 1.3999999999999999 1.3999999999999999 1.3999999999999999 1.3999999999999999 1.3999999999999999 1.3999999999999999 1.3999999999999999 1.3999999999999999 1.3999999999999999 1.3999999999999999 1.3999999999999999 1.3999999999999999 1.3999999999999999 1.3999999999999999 1.3999999999999999 1.3999999999999999 1.3999999999999999 1.3999999999999999 1.3999999999999999 1.3999999999999999 1.3999999999999999 1.3999999999999999 1.3999999999999999 1.3999999999999999 1.3999999999999999 1.3999999999999999 1.3999999999999999 1.3999999999999999 1.3999999999999999 1.3999999999999999 1.3999999999999999 1.3999999999999999 1.3999999999999999 1.3999999999999999 1.3999999999999999 1.3999999999999999 1.3999999999999999 1.3999999999999999 1.3999999999999999 1.3999999999999999 1.3999999999999999 1.3999999999999999 1.3999999999999999 1.3999999999999999 1.3999999999999999 1.3999999999999999 1.3999999999999999 1.3999999999999999 1.3999999999999999 1.3999999999999999 1.3999999999999999 1.3999999999999999 1.3999999999999999 1.3999999999999999 1.3999999999999999 1.3999999999999999 1.3999999999999999 1.3999999999999999 1.3999999999999999 1.3999999999999999 1.3999999999999999 1.3999999999999999 1.3999999999999999 1.3999999999999999 1.3999999999999999 1.3999999999999999 1.3999999999999999 1.3999999999999999 1.3999999999999999 1.3999999999999999 1.3999999999999999 1.3999999999999999 1.3999999999999999 1.3999999999999999 1.3999999999999999 1.3999999999999999 1.3999999999999999 1.3999999999999999 1.3999999999999999 1.3999999999999999 1.3999999999999999 1.3999999999999999 1.3999999999999999 1.3999999999999999 1.3999999999999999 1.3999999999999999 1.3999999999999999 1.3999999999999999 1.3999999999999999 1.3999999999999999 1.3999999999999999 1.3999999999999999 1.3999999999999999 
</DataArray>
<DataArray type="UInt32" Name="age_sorption_type" format="ascii">
1 1 1 1 1 1 1 1 1 1 1 1 1 1 1 1 1 1 1 1 1 1 1 1 1 1 1 1 1 1 1 1 1 1 1 1 1 1 1 1 1 1 1 1 1 1 1 1 1 1 1 1 1 1 1 1 1 1 1 1 1 1 1 1 1 1 1 1 1 1 1 1 1 1 1 1 1 1 1 1 1 1 1 1 1 1 1 1 1 1 1 1 1 1 1 1 1 1 1 1 1 1 1 1 1 1 1 1 1 1 1 1 1 1 1 1 1 1 1 1 1 1 1 1 
</DataArray>
<DataArray type="UInt32" Name="U235_sorption_type" format="ascii">
2 2 2 2 2 2 2 2 2 2 2 2 2 2 2 2 2 2 2 2 2 2 2 2 2 2 2 2 2 2 2 2 2 2 2 2 2 2 2 2 2 2 2 2 2 2 2 2 2 2 2 2 2 2 2 2 2 2 2 2 2 2 2 2 2 2 2 2 2 2 2 2 2 2 2 2 2 2 2 2 2 2 2 2 2 2 2 2 2 2 2 2 2 2 2 2 2 2 2 2 2 2 2 2 2 2 2 2 2 2 2 2 2 2 2 2 2 2 2 2 2 2 2 2 
</DataArray>
<DataArray type="Float64" Name="age_distribution_coefficient" format="ascii">
0.029999999999999999 0.029999999999999999 0.029999999999999999 0.029999999999999999 0.029999999999999999 0.029999999999999999 0.029999999999999999 0.029999999999999999 0.029999999999999999 0.029999999999999999 0.029999999999999999 0.029999999999999999 0.029999999999999999 0.029999999999999999 0.029999999999999999 0.029999999999999999 0.029999999999999999 0.029999999999999999 0.029999999999999999 0.029999999999999999 0.029999999999999999 0.029999999999999999 0.029999999999999999 0.029999999999999999 0.029999999999999999 0.029999999999999999 0.029999999999999999 0.029999999999999999 0.029999999999999999 0.029999999999999999 0.029999999999999999 0.029999999999999999 0.029999999999999999 0.029999999999999999 0.029999999999999999 0.029999999999999999 0.029999999999999999 0.029999999999999999 0.029999999999999999 0.029999999999999999 0.029999999999999999 0.029999999999999999 0.029999999999999999 0.029999999999999999 0.029999999999999999 0.029999999999999999 0.029999999999999999 0.029999999999999999 0.029999999999999999 0.029999999999999999 0.029999999999999999 0.029999999999999999 0.029999999999999999 0.029999999999999999 0.029999999999999999 0.029999999999999999 0.029999999999999999 0.029999999999999999 0.029999999999999999 0.029999999999999999 0.029999999999999999 0.029999999999999999 0.029999999999999999 0.029999999999999999 0.029999999999999999 0.029999999999999999 0.029999999999999999 0.029999999999999999 0.029999999999999999 0.029999999999999999 0.029999999999999999 0.029999999999999999 0.029999999999999999 0.029999999999999999 0.029999999999999999 0.029999999999999999 0.029999999999999999 0.029999999999999999 0.029999999999999999 0.029999999999999999 0.029999999999999999 0.029999999999999999 0.029999999999999999 0.029999999999999999 0.029999999999999999 0.029999999999999999 0.029999999999999999 0.029999999999999999 0.029999999999999999 0.029999999999999999 0.029999999999999999 0.029999999999999999 0.029999999999999999 0.029999999999999999 0.029999999999999999 0.029999999999999999 0.029999999999999999 0.029999999999999999 0.029999999999999999 0.029999999999999999 0.029999999999999999 0.029999999999999999 0.029999999999999999 0.029999999999999999 0.029999999999999999 0.029999999999999999 0.029999999999999999 0.029999999999999999 0.029999999999999999 0.029999999999999999 0.029999999999999999 0.029999999999999999 0.029999999999999999 0.029999999999999999 0.029999999999999999 0.029999999999999999 0.029999999999999999 0.029999999999999999 0.029999999999999999 0.029999999999999999 0.029999999999999999 0.029999999999999999 0.029999999999999999 0.029999999999999999 
</DataArray>
<DataArray type="Float64" Name="U235_distribution_coefficient" format="ascii">
0.029999999999999999 0.029999999999999999 0.029999999999999999 0.029999999999999999 0.029999999999999999 0.029999999999999999 0.029999999999999999 0.029999999999999999 0.029999999999999999 0.029999999999999999 0.029999999999999999 0.029999999999999999 0.029999999999999999 0.029999999999999999 0.029999999999999999 0.029999999999999999 0.029999999999999999 0.029999999999999999 0.029999999999999999 0.029999999999999999 0.029999999999999999 0.029999999999999999 0.029999999999999999 0.029999999999999999 0.029999999999999999 0.029999999999999999 0.029999999999999999 0.029999999999999999 0.029999999999999999 0.029999999999999999 0.029999999999999999 0.029999999999999999 0.029999999999999999 0.029999999999999999 0.029999999999999999 0.029999999999999999 0.029999999999999999 0.029999999999999999 0.029999999999999999 0.029999999999999999 0.029999999999999999 0.029999999999999999 0.029999999999999999 0.029999999999999999 0.029999999999999999 0.029999999999999999 0.029999999999999999 0.029999999999999999 0.029999999999999999 0.029999999999999999 0.029999999999999999 0.029999999999999999 0.029999999999999999 0.029999999999999999 0.029999999999999999 0.029999999999999999 0.029999999999999999 0.029999999999999999 0.029999999999999999 0.029999999999999999 0.029999999999999999 0.029999999999999999 0.029999999999999999 0.029999999999999999 0.029999999999999999 0.029999999999999999 0.029999999999999999 0.029999999999999999 0.029999999999999999 0.029999999999999999 0.029999999999999999 0.029999999999999999 0.029999999999999999 0.029999999999999999 0.029999999999999999 0.029999999999999999 0.029999999999999999 0.029999999999999999 0.029999999999999999 0.029999999999999999 0.029999999999999999 0.029999999999999999 0.029999999999999999 0.029999999999999999 0.029999999999999999 0.029999999999999999 0.029999999999999999 0.029999999999999999 0.029999999999999999 0.029999999999999999 0.029999999999999999 0.029999999999999999 0.029999999999999999 0.029999999999999999 0.029999999999999999 0.029999999999999999 0.029999999999999999 0.029999999999999999 0.029999999999999999 0.029999999999999999 0.029999999999999999 0.029999999999999999 0.029999999999999999 0.029999999999999999 0.029999999999999999 0.029999999999999999 0.029999999999999999 0.029999999999999999 0.029999999999999999 0.029999999999999999 0.029999999999999999 0.029999999999999999 0.029999999999999999 0.029999999999999999 0.029999999999999999 0.029999999999999999 0.029999999999999999 0.029999999999999999 0.029999999999999999 0.029999999999999999 0.029999999999999999 0.029999999999999999 0.029999999999999999 0.029999999999999999 
</DataArray>
<DataArray type="Float64" Name="age_isotherm_other" format="ascii">
0 0 0 0 0 0 0 0 0 0 0 0 0 0 0 0 0 0 0 0 0 0 0 0 0 0 0 0 0 0 0 0 0 0 0 0 0 0 0 0 0 0 0 0 0 0 0 0 0 0 0 0 0 0 0 0 0 0 0 0 0 0 0 0 0 0 0 0 0 0 0 0 0 0 0 0 0 0 0 0 0 0 0 0 0 0 0 0 0 0 0 0 0 0 0 0 0 0 0 0 0 0 0 0 0 0 0 0 0 0 0 0 0 0 0 0 0 0 0 0 0 0 0 0 
</DataArray>
<DataArray type="Float64" Name="U235_isotherm_other" format="ascii">
1.5 1.5 1.5 1.5 1.5 1.5 1.5 1.5 1.5 1.5 1.5 1.5 1.5 1.5 1.5 1.5 1.5 1.5 1.5 1.5 1.5 1.5 1.5 1.5 1.5 1.5 1.5 1.5 1.5 1.5 1.5 1.5 1.5 1.5 1.5 1.5 1.5 1.5 1.5 1.5 1.5 1.5 1.5 1.5 1.5 1.5 1.5 1.5 1.5 1.5 1.5 1.5 1.5 1.5 1.5 1.5 1.5 1.5 1.5 1.5 1.5 1.5 1.5 1.5 1.5 1.5 1.5 1.5 1.5 1.5 1.5 1.5 1.5 1.5 1.5 1.5 1.5 1.5 1.5 1.5 1.5 1.5 1.5 1.5 1.5 1.5 1.5 1.5 1.5 1.5 1.5 1.5 1.5 1.5 1.5 1.5 1.5 1.5 1.5 1.5 1.5 1.5 1.5 1.5 1.5 1.5 1.5 1.5 1.5 1.5 1.5 1.5 1.5 1.5 1.5 1.5 1.5 1.5 1.5 1.5 1.5 1.5 1.5 1.5 
</DataArray>
<DataArray type="Float64" Name="age_init_conc_solid" format="ascii">
0 0 0 0 0 0 0 0 0 0 0 0 0 0 0 0 0 0 0 0 0 0 0 0 0 0 0 0 0 0 0 0 0 0 0 0 0 0 0 0 0 0 0 0 0 0 0 0 0 0 0 0 0 0 0 0 0 0 0 0 0 0 0 0 0 0 0 0 0 0 0 0 0 0 0 0 0 0 0 0 0 0 0 0 0 0 0 0 0 0 0 0 0 0 0 0 0 0 0 0 0 0 0 0 0 0 0 0 0 0 0 0 0 0 0 0 0 0 0 0 0 0 0 0 
</DataArray>
<DataArray type="Float64" Name="U235_init_conc_solid" format="ascii">
0 0 0 0 0 0 0 0 0 0 0 0 0 0 0 0 0 0 0 0 0 0 0 0 0 0 0 0 0 0 0 0 0 0 0 0 0 0 0 0 0 0 0 0 0 0 0 0 0 0 0 0 0 0 0 0 0 0 0 0 0 0 0 0 0 0 0 0 0 0 0 0 0 0 0 0 0 0 0 0 0 0 0 0 0 0 0 0 0 0 0 0 0 0 0 0 0 0 0 0 0 0 0 0 0 0 0 0 0 0 0 0 0 0 0 0 0 0 0 0 0 0 0 0 
</DataArray>
<DataArray type="Float64" Name="age_conc_solid" format="ascii">