<?xml version="1.0"?>
<VTKFile type="UnstructuredGrid" version="0.1" byte_order="LittleEndian">
<UnstructuredGrid>
<Piece NumberOfPoints="69" NumberOfCells="124">
<Points>
<DataArray type="Float64" NumberOfComponents="3" format="ascii">
0 0 0 0 0.25 0 0 1 0 0.1249999999997554 0 0 0.084352422163911631 0.086451712656266194 0 0 0.12500000000034689 0 0.1008171452988615 0.18885703697250469 0 0.2403886547178353 0.24188814792673841 0 0.18402761812864499 0.1117324051466445 0 0.1249999999997599 0.31249999999987998 0 0.43749999999913258 0 0 0.4287911518546233 0.15455445427966699 0 0.31250000000020822 0.12500000000041631 0 0.33819444444448321 0.33819444444456342 0 0.37500000000027761 0.25000000000055511 0 0.49457493289300231 0.26251703776555491 0 0.43750000000006939 0.37500000000013878 0 0.37499999999973488 0.43749999999986738 0 0.14929124186975251 0.44582793568106382 0 0.24999999999960859 0.37499999999980432 0 0 0.43750000000034689 0 0.25 -0 0 0.13928587515912139 0.57339806105677438 0 0.13900789599611679 0.72618316107059999 0 0 0.62500000000069389 0 0 0.81250000000104083 0 0.1875000000005205 1 0 0.12710107136012311 0.87094806618203435 0 0.27987960212930818 0.83442741470570525 0 0.37500000000069389 1 0 0.44927105396715372 0.85565124085155886 0 0.38136204680495073 0.74038592213831234 0 0.27589467050686478 0.66058853156435704 0 0.26452443700674649 0.51563531581639865 0 0.4139414069912184 0.60563252640100373 0 0.5 0.5 -0 0.63236534182377013 0.50296756406332266 0 0.71259747807844409 0.63846691315701831 0 0.50145856933078625 0.73674663046504862 0 0.5625 0.625 0 0.56777512057187585 0.8470224641095303 0 0.56250000000086742 1 0 0.73857795170433571 0.77736788564284653 0 0.625 0.75 0 0.85787927391517405 0.753532520882502 0 0.80552984491000901 0.88711122872127413 0 0.90637953422180084 0.90208583328057301 0 0.875 1 0 1 0.83333333333356463 0 1 0.66666666666736052 0 0.6875 0.875 0 0.86127466977819722 0.57948076978797636 0 1 0.50000000000138767 0 0.75 1 0 1 0.33333333333448978 0 0.86087286690217635 0.25206523597959418 0 0.86569408477091048 0.40983673916766611 0 0.75338430262320943 0.49294443423175599 0 0.56986707178436635 0.37762093650871992 0 0.61108462585082757 0.25750599582343231 0 0.71826039492840632 0.34564020717216182 0 0.71508993406183785 0.15715956854777599 0 1 0 0 0.54475767668582953 0.1431838882066932 0 0.62499999999895905 0 0 0.81249999999947953 0 0 1 1 0 1 0.16666666666736049 0 0.87698901648812122 0.1160638338657984 0 
</DataArray>
</Points>
<Cells>
<DataArray type="UInt32" Name="connectivity" format="ascii">
1 9 0 3 4 0 4 5 5 4 6 5 6 1 6 4 8 9 6 7 8 7 6 12 7 8 21 8 3 21 12 8 3 8 4 21 10 12 10 63 11 12 10 11 63 15 11 14 11 15 12 14 7 12 11 14 9 19 19 7 13 14 13 7 14 15 16 14 16 13 16 17 13 16 35 17 17 33 19 17 19 13 19 33 18 19 18 9 19 9 7 1 9 20 9 1 6 20 9 18 20 18 22 20 22 24 12 21 14 12 19 17 33 32 22 33 22 18 28 23 32 32 23 22 25 24 23 24 22 23 25 23 27 26 2 27 2 25 27 26 27 28 28 27 23 16 14 35 16 17 35 30 28 31 29 28 30 29 26 28 29 30 41 30 31 38 39 38 34 34 38 31 34 31 32 28 32 31 34 32 33 17 34 33 17 35 34 39 34 35 39 35 36 39 35 43 39 39 36 37 57 37 36 39 37 43 43 37 42 39 43 38 43 40 38 30 38 40 41 30 40 50 41 40 50 53 41 50 45 53 50 42 45 50 40 43 50 43 42 45 42 44 50 43 53 50 45 44 46 47 53 45 47 45 46 66 47 46 66 46 48 48 44 49 48 46 44 49 44 51 44 37 51 44 42 37 51 37 57 49 51 52 54 52 56 51 56 52 67 54 55 54 56 55 56 60 55 61 55 60 51 57 56 57 60 56 58 60 36 57 36 60 16 58 35 35 58 36 16 15 58 58 15 59 61 60 59 58 59 60 61 59 63 63 59 15 10 64 63 64 61 63 65 61 64 65 68 61 61 68 55 67 55 68 65 62 68 67 68 62 
</DataArray>
<DataArray type="UInt32" Name="offsets" format="ascii">
2 5 8 11 14 17 20 23 26 29 32 35 38 41 44 47 50 53 56 58 61 64 67 70 73 76 79 82 85 88 91 94 97 100 103 106 108 110 112 115 118 121 124 127 130 133 136 139 142 145 147 149 151 154 157 160 163 166 169 172 175 178 181 184 187 190 193 195 197 200 203 206 209 212 215 218 221 224 227 230 233 236 239 242 244 246 249 252 255 258 261 264 267 270 273 276 279 282 285 288 291 294 297 300 303 306 309 312 315 318 321 324 327 330 333 336 339 342 345 348 351 354 357 360 
</DataArray>
<DataArray type="UInt32" Name="types" format="ascii">
3 5 5 5 5 5 5 5 5 5 5 5 5 5 5 5 5 5 5 3 5 5 5 5 5 5 5 5 5 5 5 5 5 5 5 5 3 3 3 5 5 5 5 5 5 5 5 5 5 5 3 3 3 5 5 5 5 5 5 5 5 5 5 5 5 5 5 3 3 5 5 5 5 5 5 5 5 5 5 5 5 5 5 5 3 3 5 5 5 5 5 5 5 5 5 5 5 5 5 5 5 5 5 5 5 5 5 5 5 5 5 5 5 5 5 5 5 5 5 5 5 5 5 5 
</DataArray>
</Cells>
<CellData Scalars="porosity,age_conc,U235_conc,age_diffusion_rate_immobile,U235_diffusion_rate_immobile,age_init_conc_immobile,U235_init_conc_immobile,age_conc_immobile,U235_conc_immobile,rock_density,age_sorption_type,U235_sorption_type,age_distribution_coefficient,U235_distribution_coefficient,age_isotherm_other,U235_isotherm_other,age_init_conc_solid,U235_init_conc_solid,age_conc_solid,U235_conc_solid,age_conc_immobile_solid,U235_conc_immobile_solid," Vectors="" Tensors="">
<DataArray type="Float64" Name="porosity" format="ascii">
0.25 0.25 0.25 0.25 0.25 0.25 0.25 0.25 0.25 0.25 0.25 0.25 0.25 0.25 0.25 0.25 0.25 0.25 0.25 0.25 0.25 0.25 0.25 0.25 0.25 0.25 0.25 0.25 0.25 0.25 0.25 0.25 0.25 0.25 0.25 0.25 0.25 0.25 0.25 0.25 0.25 0.25 0.25 0.25 0.25 0.25 0.25 0.25 0.25 0.25 0.25 0.25 0.25 0.25 0.25 0.25 0.25 0.25 0.25 0.25 0.25 0.25 0.25 0.25 0.25 0.25 0.25 0.25 0.25 0.25 0.25 0.25 0.25 0.25 0.25 0.25 0.25 0.25 0.25 0.25 0.25 0.25 0.25 0.25 0.25 0.25 0.25 0.25 0.25 0.25 0.25 0.25 0.25 0.25 0.25 0.25 0.25 0.25 0.25 0.25 0.25 0.25 0.25 0.25 0.25 0.25 0.25 0.25 0.25 0.25 0.25 0.25 0.25 0.25 0.25 0.25 0.25 0.25 0.25 0.25 0.25 0.25 0.25 0.25 
</DataArray>
<DataArray type="Float64" Name="age_conc" format="ascii">
0.99822793804320076 0.98795596206225222 0.98702579703648285 0.98908623519337391 1 0.97746122985432371 0.98662984556511368 0.98126592045249117 0.98659707023837639 1 0.98341024635383767 0.99024280597783565 0.98028446491485211 0.98679492989635753 0.98296466365852964 0.98917108433330103 0.98492880496052582 0.99073298361799456 0.98228124644615078 0.99854529719981255 0.99253586385169523 0.99248484383485358 0.98679878933525211 0.99532134572110498 0.99589744838516614 0.99730279232169505 0.98902917996222861 0.99534208833657078 0.98739396567721105 0.98490028373424032 0.99083070257894157 0.98244362982853906 0.9836027635412774 0.98503395742853928 0.98896261348976244 0.992065054666466 0.9981761976743001 0.99849869444605388 0.99887346808044764 0.99261541291023692 0.99138439074979556 0.99592083671793474 0.99485235476548106 0.99648885705331125 0.99400989810046381 0.99761560746947353 1 0.99911112514664624 0.9991880212903097 0.99811802652803805 0.99883878979838914 0.99918032538662194 0.99919951177505961 0.99774148693430065 0.99888546197445138 1 1 0.99661631631752812 0.99550030427874825 0.99547499634029757 0.99482066946052172 0.99683283570994941 0.99355510850141648 0.99094304825280832 0.99260595598931567 0.99428887588665571 0.9925860822723096 0.99951783441154274 0.9996872116428237 0.99361609528120143 0.99496244786005139 0.99468792331610223 0.99564556598990672 0.99673653245616789 0.99769719465460605 0.99748348993135549 0.9983224923508669 0.99939608398126412 1 0.99886609545312544 0.99769940670066282 0.99853317339399439 0.9967273968802175 0.99727258169891719 0.99984649816495574 1 0.99816901487310883 1 0.9991609234083807 1 1 1 0.99891385107850783 0.99891350069579754 0.99692924207283129 0.99608711146674511 0.99600778038056337 1 1 0.99894054301073765 1 0.99899609580988913 0.99696937278254727 0.99581741571186599 0.99740265491760471 0.99639853471954676 0.99374898026348912 0.99472440322304201 0.99036031556155302 0.99170501615952111 0.98876317798009894 0.99149610435237845 0.9942061746676516 0.99271316009632482 0.99315258276678853 0.99055650826350594 0.99052465516111843 0.99228286076719718 0.99554009988213776 0.99670820063027166 0.99717802217831819 0.99924463099798255 0.99913292503242057 1 
</DataArray>
<DataArray type="Float64" Name="U235_conc" format="ascii">
0.99821644163291712 0.98751864952318957 0.98662386464214458 0.98860203889215148 1 0.97618676070865751 0.98554548934000019 0.97998836543424805 0.98551233256350224 1 0.98241601943211965 0.98979729304438524 0.9777904432214698 0.98514300032981994 0.98067686676877852 0.98800387866421779 0.98274760888027901 0.99001095899847802 0.97974112885051912 0.99853697337556291 0.99206867368364371 0.99201270288538046 0.98496521945062709 0.99517815777227825 0.99583864467795369 0.99728375402145653 0.98780337469782431 0.99520241843087565 0.98578445868336007 0.98281293690076232 0.99011613370163976 0.98007089894595989 0.98264723884802341 0.98300148065416082 0.98769108205588951 0.99154869346457053 0.9981550328630413 0.99848135957523088 0.99886992938993557 0.9922400598841985 0.99072471165538056 0.99590336597692275 0.99478287552314226 0.99649170968229139 0.9938469170536981 0.99762216698349271 1 0.99911401505660202 0.99919067713743182 0.99812363609165755 0.99882841789968868 0.99917684827556408 0.99919940594511181 0.99774653293026849 0.99888894037953702 1 1 0.9966229635987347 0.99549064951382427 0.99546380445267513 0.99477504147633566 0.9968355463395443 0.99337182404799373 0.99019507105140381 0.99225236837429631 0.99420714520269815 0.99223568900835746 0.9995183215024902 0.99968814981275089 0.99344144801005285 0.99486730617044983 0.99463646344819856 0.99563507196994849 0.99674476129958833 0.99770425699641319 0.99749038255548783 0.99832760656720687 0.99939811386796984 1 0.99886957777739149 0.99770499548542446 0.99853789790039527 0.996730509126311 0.99727976786309291 0.99984702495331468 1 0.9981745789082892 1 0.99916368148186008 1 1 1 0.99891728033111282 0.99891689644952886 0.99691890921429183 0.99608581266697727 0.99597347243507517 1 1 0.99894387268460783 1 0.99899929385132291 0.99694122446824895 0.99574873670527109 0.99738935466349143 0.99636303236867907 0.9935128489532471 0.9945958957956661 0.9894303429641742 0.99112903431223054 0.98740563214482302 0.99085935493419197 0.99398251274768201 0.99231685919994517 0.99279707409888607 0.98970474025370736 0.98970051005170734 0.99177356695119234 0.99543588567442065 0.99665735942102307 0.99713969113605416 0.9992471064630426 0.99913574584856457 1 
</DataArray>
<DataArray type="Float64" Name="age_diffusion_rate_immobile" format="ascii">
0.02 0.02 0.02 0.02 0.02 0.02 0.02 0.02 0.02 0.02 0.02 0.02 0.02 0.02 0.02 0.02 0.02 0.02 0.02 0.02 0.02 0.02 0.02 0.02 0.02 0.02 0.02 0.02 0.02 0.02 0.02 0.02 0.02 0.02 0.02 0.02 0.02 0.02 0.02 0.02 0.02 0.02 0.02 0.02 0.02 0.02 0.02 0.02 0.02 0.02 0.02 0.02 0.02 0.02 0.02 0.02 0.02 0.02 0.02 0.02 0.02 0.02 0.02 0.02 0.02 0.02 0.02 0.02 0.02 0.02 0.02 0.02 0.02 0.02 0.02 0.02 0.02 0.02 0.02 0.02 0.02 0.02 0.02 0.02 0.02 0.02 0.02 0.02 0.02 0.02 0.02 0.02 0.02 0.02 0.02 0.02 0.02 0.02 0.02 0.02 0.02 0.02 0.02 0.02 0.02 0.02 0.02 0.02 0.02 0.02 0.02 0.02 0.02 0.02 0.02 0.02 0.02 0.02 0.02 0.02 0.02 0.02 0.02 0.02 
</DataArray>
<DataArray type="Float64" Name="U235_diffusion_rate_immobile" format="ascii">
0.02 0.02 0.02 0.02 0.02 0.02 0.02 0.02 0.02 0.02 0.02 0.02 0.02 0.02 0.02 0.02 0.02 0.02 0.02 0.02 0.02 0.02 0.02 0.02 0.02 0.02 0.02 0.02 0.02 0.02 0.02 0.02 0.02 0.02 0.02 0.02 0.02 0.02 0.02 0.02 0.02 0.02 0.02 0.02 0.02 0.02 0.02 0.02 0.02 0.02 0.02 0.02 0.02 0.02 0.02 0.02 0.02 0.02 0.02 0.02 0.02 0.02 0.02 0.02 0.02 0.02 0.02 0.02 0.02 0.02 0.02 0.02 0.02 0.02 0.02 0.02 0.02 0.02 0.02 0.02 0.02 0.02 0.02 0.02 0.02 0.02 0.02 0.02 0.02 0.02 0.02 0.02 0.02 0.02 0.02 0.02 0.02 0.02 0.02 0.02 0.02 0.02 0.02 0.02 0.02 0.02 0.02 0.02 0.02 0.02 0.02 0.02 0.02 0.02 0.02 0.02 0.02 0.02 0.02 0.02 0.02 0.02 0.02 0.02 
</DataArray>
<DataArray type="Float64" Name="age_init_conc_immobile" format="ascii">
0 0 0 0 0 0 0 0 0 0 0 0 0 0 0 0 0 0 0 0 0 0 0 0 0 0 0 0 0 0 0 0 0 0 0 0 0 0 0 0 0 0 0 0 0 0 0 0 0 0 0 0 0 0 0 0 0 0 0 0 0 0 0 0 0 0 0 0 0 0 0 0 0 0 0 0 0 0 0 0 0 0 0 0 0 0 0 0 0 0 0 0 0 0 0 0 0 0 0 0 0 0 0 0 0 0 0 0 0 0 0 0 0 0 0 0 0 0 0 0 0 0 0 0 
</DataArray>
<DataArray type="Float64" Name="U235_init_conc_immobile" format="ascii">
0 0 0 0 0 0 0 0 0 0 0 0 0 0 0 0 0 0 0 0 0 0 0 0 0 0 0 0 0 0 0 0 0 0 0 0 0 0 0 0 0 0 0 0 0 0 0 0 0 0 0 0 0 0 0 0 0 0 0 0 0 0 0 0 0 0 0 0 0 0 0 0 0 0 0 0 0 0 0 0 0 0 0 0 0 0 0 0 0 0 0 0 0 0 0 0 0 0 0 0 0 0 0 0 0 0 0 0 0 0 0 0 0 0 0 0 0 0 0 0 0 0 0 0 
</DataArray>
<DataArray type="Float64" Name="age_conc_immobile" format="ascii">
0.046348578590284212 0.036188777589238053 0.036643875995351641 0.037748484673298908 0.039501515919005366 0.037550322594564298 0.040798995728551113 0.038852849157816553 0.040782892142214908 0.038677430877246032 0.039823550822205352 0.037304253540227164 0.036794556021069229 0.038894066569923766 0.037612112467071558 0.039928884345872474 0.038270237293752625 0.042476123111145452 0.037414356851643772 0.046526528553570021 0.043202101211616557 0.043179264017375443 0.038965354035795083 0.044679706866586281 0.045007813312904384 0.045816929532037677 0.040593621135990174 0.044691169129834715 0.039863690162283291 0.038923592542118912 0.042519697876663376 0.038095626198074502 0.039918740663474804 0.038953393318076887 0.040425795661034623 0.041922622789460552 0.046316153129978346 0.046496132711474736 0.046711522908666869 0.042416522185637046 0.041651088234881777 0.044448934873955341 0.043746861272922426 0.044586292379057119 0.043119959395021806 0.045290305161814648 0.050257150638113202 0.046201831602311408 0.046199495677123899 0.045575736257368694 0.046687136713670474 0.046883176727796218 0.046897606943924093 0.045622259960561989 0.046264582022646911 0.049618295882655317 0.050749749142781977 0.0451184749489245 0.044446586153956198 0.044417097517531152 0.043949134756107289 0.045085569766391928 0.04309805657034968 0.041567017553045503 0.042554030612957434 0.043654036388986607 0.042037157239539331 0.047079945514065975 0.047178843687694101 0.042759771687912625 0.043587942238821384 0.043539586409777703 0.044191697658983203 0.045203659222191064 0.045758108998874461 0.045622745715448262 0.046101285762537761 0.046720008112525808 0.052598705940881257 0.045940126341387146 0.045308431934292313 0.046232166876196405 0.044709715495807351 0.045399552442808841 0.047270609099297374 0.076006881582148439 0.045916281919877039 0.049095633788491314 0.046472864060635687 0.051203006901172521 0.051356055027574593 0.049245550287632736 0.04634723697295666 0.045962470241264035 0.044872203585041306 0.044682374674448619 0.044284977021610869 0.049249546666020869 0.049492764347664989 0.045881091846694706 0.049529743148723715 0.045957815685055844 0.044688446906965024 0.043936298504176997 0.044976820698466861 0.044334100148775174 0.042672024844460039 0.043338189224525522 0.040626357264765815 0.041424267948672197 0.039811793502169526 0.041207545763706145 0.042887232389203236 0.041976983884764396 0.042199435906816754 0.040660032548415333 0.040695193443352193 0.041684802912481278 0.043793635540311779 0.044543802891866227 0.044817090335326749 0.046114796258277954 0.046150379773751422 0.050204081036410039 
</DataArray>
<DataArray type="Float64" Name="U235_conc_immobile" format="ascii">
0.049649101319175215 0.0388449263527006 0.039323521141802223 0.040498901463472799 0.042361700932396974 0.040293241495935821 0.043741504813224731 0.041675983913550964 0.043724398410744027 0.04149457226744311 0.042708408434547936 0.040032452902679892 0.039481567260316361 0.041711467193242639 0.040349588459762928 0.04281124186960638 0.041048189830766357 0.045522879677349477 0.040139211105601647 0.049841396361603917 0.046290540447102853 0.04626629934884656 0.041786691539647827 0.047864096522721847 0.048211253245913958 0.049079165063927975 0.043517206006858079 0.047876267667842524 0.042742216984931573 0.041743917273339676 0.045569178671305922 0.040864991108989883 0.042809563819252328 0.04177569235104113 0.043339293987418093 0.044928586857947643 0.049614651839316667 0.049809096969174502 0.050041273144560999 0.045452331110596773 0.044640146301954821 0.0476126528291832 0.046865163499331008 0.047759538041809955 0.046199470055928504 0.048512077118248169 0.05384085660774883 0.049491509848694458 0.049488638400056351 0.048817953883535721 0.050015359439130526 0.050227121655749454 0.050242454314591851 0.048867714125732931 0.049558674348947701 0.053155730137016806 0.054369657759051102 0.048325564891184711 0.047607824314251465 0.047576620229623785 0.047079008115379135 0.048292009741025384 0.046175126443332173 0.044550385897325233 0.045597401070351519 0.046764688028049999 0.045049950918530146 0.050439728716171847 0.050546704682526443 0.04581677758386226 0.046697441976843557 0.046644300051005859 0.04733776640293226 0.048416388081613776 0.049011872899365164 0.048866852286814713 0.049382119679768452 0.050049630567990964 0.056352073656657994 0.049209666977247282 0.048531245183577147 0.049522771404230552 0.047890890920512234 0.048627386533246171 0.050646132496560865 0.081409927314543218 0.049182905460471354 0.052594854331125429 0.049782893456961783 0.054855712598352646 0.055019822958169325 0.052755621913384718 0.049647679298568018 0.049233791738163987 0.048066245740811808 0.047860283869990222 0.047439432728179139 0.052759804823312627 0.053020786063076877 0.049146957827689963 0.053060394585377507 0.049229356379181667 0.047871961108172302 0.047069468145293253 0.048179071553058422 0.047492574912396335 0.045724593247788832 0.046432258995027793 0.043551850908163658 0.044399428076718331 0.042686273744606415 0.044169794133502895 0.045953559336328817 0.044986735562959117 0.045222680681590244 0.043588134245032786 0.043625281029627844 0.044676246360142072 0.046917539475815784 0.047717876716219701 0.048010266039980071 0.049397839410685512 0.049436274349046502 0.053783688512222524 
</DataArray>
<DataArray type="Float64" Name="rock_density" format="ascii">
1.7000000000000002 1.7000000000000002 1.7000000000000002 1.7000000000000002 1.7000000000000002 1.7000000000000002 1.7000000000000002 1.7000000000000002 1.7000000000000002 1.7000000000000002 1.7000000000000002 1.7000000000000002 1.7000000000000002 1.7000000000000002 1.7000000000000002 1.7000000000000002 1.7000000000000002 1.7000000000000002 1.7000000000000002 1.7000000000000002 1.7000000000000002 1.7000000000000002 1.7000000000000002 1.7000000000000002 1.7000000000000002 1.7000000000000002 1.7000000000000002 1.7000000000000002 1.7000000000000002 1.7000000000000002 1.7000000000000002 1.7000000000000002 1.7000000000000002 1.7000000000000002 1.7000000000000002 1.7000000000000002 1.7000000000000002 1.7000000000000002 1.7000000000000002 1.7000000000000002 1.7000000000000002 1.7000000000000002 1.7000000000000002 1.7000000000000002 1.7000000000000002 1.7000000000000002 1.7000000000000002 1.7000000000000002 1.7000000000000002 1.7000000000000002 1.7000000000000002 1.7000000000000002 1.7000000000000002 1.7000000000000002 1.7000000000000002 1.7000000000000002 1.7000000000000002 1.7000000000000002 1.7000000000000002 1.7000000000000002 1.7000000000000002 1.7000000000000002 1.7000000000000002 1.7000000000000002 1.7000000000000002 1.7000000000000002 1.7000000000000002 1.7000000000000002 1.7000000000000002 1.7000000000000002 1.7000000000000002 1.7000000000000002 1.7000000000000002 1.7000000000000002 1.7000000000000002 1.7000000000000002 1.7000000000000002 1.7000000000000002 1.7000000000000002 1.7000000000000002 1.7000000000000002 1.7000000000000002 1.7000000000000002 1.7000000000000002 1.7000000000000002 1.7000000000000002 1.7000000000000002 1.7000000000000002 1.7000000000000002 1.7000000000000002 1.7000000000000002 1.7000000000000002 1.7000000000000002 1.7000000000000002 1.7000000000000002 1.7000000000000002 1.7000000000000002 1.7000000000000002 1.7000000000000002 1.7000000000000002 1.7000000000000002 1.7000000000000002 1.7000000000000002 1.7000000000000002 1.7000000000000002 1.7000000000000002 1.7000000000000002 1.7000000000000002 1.7000000000000002 1.7000000000000002 1.7000000000000002 1.7000000000000002 1.7000000000000002 1.7000000000000002 1.7000000000000002 1.7000000000000002 1.7000000000000002 1.7000000000000002 1.7000000000000002 1.7000000000000002 1.7000000000000002 1.7000000000000002 1.7000000000000002 1.7000000000000002 
</DataArray>
<DataArray type="UInt32" Name="age_sorption_type" format="ascii">
1 1 1 1 1 1 1 1 1 1 1 1 1 1 1 1 1 1 1 1 1 1 1 1 1 1 1 1 1 1 1 1 1 1 1 1 1 1 1 1 1 1 1 1 1 1 1 1 1 1 1 1 1 1 1 1 1 1 1 1 1 1 1 1 1 1 1 1 1 1 1 1 1 1 1 1 1 1 1 1 1 1 1 1 1 1 1 1 1 1 1 1 1 1 1 1 1 1 1 1 1 1 1 1 1 1 1 1 1 1 1 1 1 1 1 1 1 1 1 1 1 1 1 1 
</DataArray>
<DataArray type="UInt32" Name="U235_sorption_type" format="ascii">
2 2 2 2 2 2 2 2 2 2 2 2 2 2 2 2 2 2 2 2 2 2 2 2 2 2 2 2 2 2 2 2 2 2 2 2 2 2 2 2 2 2 2 2 2 2 2 2 2 2 2 2 2 2 2 2 2 2 2 2 2 2 2 2 2 2 2 2 2 2 2 2 2 2 2 2 2 2 2 2 2 2 2 2 2 2 2 2 2 2 2 2 2 2 2 2 2 2 2 2 2 2 2 2 2 2 2 2 2 2 2 2 2 2 2 2 2 2 2 2 2 2 2 2 
</DataArray>
<DataArray type="Float64" Name="age_distribution_coefficient" format="ascii">
0.050000000000000003 0.050000000000000003 0.050000000000000003 0.050000000000000003 0.050000000000000003 0.050000000000000003 0.050000000000000003 0.050000000000000003 0.050000000000000003 0.050000000000000003 0.050000000000000003 0.050000000000000003 0.050000000000000003 0.050000000000000003 0.050000000000000003 0.050000000000000003 0.050000000000000003 0.050000000000000003 0.050000000000000003 0.050000000000000003 0.050000000000000003 0.050000000000000003 0.050000000000000003 0.050000000000000003 0.050000000000000003 0.050000000000000003 0.050000000000000003 0.050000000000000003 0.050000000000000003 0.050000000000000003 0.050000000000000003 0.050000000000000003 0.050000000000000003 0.050000000000000003 0.050000000000000003 0.050000000000000003 0.050000000000000003 0.050000000000000003 0.050000000000000003 0.050000000000000003 0.050000000000000003 0.050000000000000003 0.050000000000000003 0.050000000000000003 0.050000000000000003 0.050000000000000003 0.050000000000000003 0.050000000000000003 0.050000000000000003 0.050000000000000003 0.050000000000000003 0.050000000000000003 0.050000000000000003 0.050000000000000003 0.050000000000000003 0.050000000000000003 0.050000000000000003 0.050000000000000003 0.050000000000000003 0.050000000000000003 0.050000000000000003 0.050000000000000003 0.050000000000000003 0.050000000000000003 0.050000000000000003 0.050000000000000003 0.050000000000000003 0.050000000000000003 0.050000000000000003 0.050000000000000003 0.050000000000000003 0.050000000000000003 0.050000000000000003 0.050000000000000003 0.050000000000000003 0.050000000000000003 0.050000000000000003 0.050000000000000003 0.050000000000000003 0.050000000000000003 0.050000000000000003 0.050000000000000003 0.050000000000000003 0.050000000000000003 0.050000000000000003 0.050000000000000003 0.050000000000000003 0.050000000000000003 0.050000000000000003 0.050000000000000003 0.050000000000000003 0.050000000000000003 0.050000000000000003 0.050000000000000003 0.050000000000000003 0.050000000000000003 0.050000000000000003 0.050000000000000003 0.050000000000000003 0.050000000000000003 0.050000000000000003 0.050000000000000003 0.050000000000000003 0.050000000000000003 0.050000000000000003 0.050000000000000003 0.050000000000000003 0.050000000000000003 0.050000000000000003 0.050000000000000003 0.050000000000000003 0.050000000000000003 0.050000000000000003 0.050000000000000003 0.050000000000000003 0.050000000000000003 0.050000000000000003 0.050000000000000003 0.050000000000000003 0.050000000000000003 0.050000000000000003 0.050000000000000003 0.050000000000000003 0.050000000000000003 
</DataArray>
<DataArray type="Float64" Name="U235_distribution_coefficient" format="ascii">
0.050000000000000003 0.050000000000000003 0.050000000000000003 0.050000000000000003 0.050000000000000003 0.050000000000000003 0.050000000000000003 0.050000000000000003 0.050000000000000003 0.050000000000000003 0.050000000000000003 0.050000000000000003 0.050000000000000003 0.050000000000000003 0.050000000000000003 0.050000000000000003 0.050000000000000003 0.050000000000000003 0.050000000000000003 0.050000000000000003 0.050000000000000003 0.050000000000000003 0.050000000000000003 0.050000000000000003 0.050000000000000003 0.050000000000000003 0.050000000000000003 0.050000000000000003 0.050000000000000003 0.050000000000000003 0.050000000000000003 0.050000000000000003 0.050000000000000003 0.050000000000000003 0.050000000000000003 0.050000000000000003 0.050000000000000003 0.050000000000000003 0.050000000000000003 0.050000000000000003 0.050000000000000003 0.050000000000000003 0.050000000000000003 0.050000000000000003 0.050000000000000003 0.050000000000000003 0.050000000000000003 0.050000000000000003 0.050000000000000003 0.050000000000000003 0.050000000000000003 0.050000000000000003 0.050000000000000003 0.050000000000000003 0.050000000000000003 0.050000000000000003 0.050000000000000003 0.050000000000000003 0.050000000000000003 0.050000000000000003 0.050000000000000003 0.050000000000000003 0.050000000000000003 0.050000000000000003 0.050000000000000003 0.050000000000000003 0.050000000000000003 0.050000000000000003 0.050000000000000003 0.050000000000000003 0.050000000000000003 0.050000000000000003 0.050000000000000003 0.050000000000000003 0.050000000000000003 0.050000000000000003 0.050000000000000003 0.050000000000000003 0.050000000000000003 0.050000000000000003 0.050000000000000003 0.050000000000000003 0.050000000000000003 0.050000000000000003 0.050000000000000003 0.050000000000000003 0.050000000000000003 0.050000000000000003 0.050000000000000003 0.050000000000000003 0.050000000000000003 0.050000000000000003 0.050000000000000003 0.050000000000000003 0.050000000000000003 0.050000000000000003 0.050000000000000003 0.050000000000000003 0.050000000000000003 0.050000000000000003 0.050000000000000003 0.050000000000000003 0.050000000000000003 0.050000000000000003 0.050000000000000003 0.050000000000000003 0.050000000000000003 0.050000000000000003 0.050000000000000003 0.050000000000000003 0.050000000000000003 0.050000000000000003 0.050000000000000003 0.050000000000000003 0.050000000000000003 0.050000000000000003 0.050000000000000003 0.050000000000000003 0.050000000000000003 0.050000000000000003 0.050000000000000003 0.050000000000000003 0.050000000000000003 0.050000000000000003 
</DataArray>
<DataArray type="Float64" Name="age_isotherm_other" format="ascii">
0 0 0 0 0 0 0 0 0 0 0 0 0 0 0 0 0 0 0 0 0 0 0 0 0 0 0 0 0 0 0 0 0 0 0 0 0 0 0 0 0 0 0 0 0 0 0 0 0 0 0 0 0 0 0 0 0 0 0 0 0 0 0 0 0 0 0 0 0 0 0 0 0 0 0 0 0 0 0 0 0 0 0 0 0 0 0 0 0 0 0 0 0 0 0 0 0 0 0 0 0 0 0 0 0 0 0 0 0 0 0 0 0 0 0 0 0 0 0 0 0 0 0 0 
</DataArray>
<DataArray type="Float64" Name="U235_isotherm_other" format="ascii">
2.5 2.5 2.5 2.5 2.5 2.5 2.5 2.5 2.5 2.5 2.5 2.5 2.5 2.5 2.5 2.5 2.5 2.5 2.5 2.5 2.5 2.5 2.5 2.5 2.5 2.5 2.5 2.5 2.5 2.5 2.5 2.5 2.5 2.5 2.5 2.5 2.5 2.5 2.5 2.5 2.5 2.5 2.5 2.5 2.5 2.5 2.5 2.5 2.5 2.5 2.5 2.5 2.5 2.5 2.5 2.5 2.5 2.5 2.5 2.5 2.5 2.5 2.5 2.5 2.5 2.5 2.5 2.5 2.5 2.5 2.5 2.5 2.5 2.5 2.5 2.5 2.5 2.5 2.5 2.5 2.5 2.5 2.5 2.5 2.5 2.5 2.5 2.5 2.5 2.5 2.5 2.5 2.5 2.5 2.5 2.5 2.5 2.5 2.5 2.5 2.5 2.5 2.5 2.5 2.5 2.5 2.5 2.5 2.5 2.5 2.5 2.5 2.5 2.5 2.5 2.5 2.5 2.5 2.5 2.5 2.5 2.5 2.5 2.5 
</DataArray>
<DataArray type="Float64" Name="age_init_conc_solid" format="ascii">
0 0 0 0 0 0 0 0 0 0 0 0 0 0 0 0 0 0 0 0 0 0 0 0 0 0 0 0 0 0 0 0 0 0 0 0 0 0 0 0 0 0 0 0 0 0 0 0 0 0 0 0 0 0 0 0 0 0 0 0 0 0 0 0 0 0 0 0 0 0 0 0 0 0 0 0 0 0 0 0 0 0 0 0 0 0 0 0 0 0 0 0 0 0 0 0 0 0 0 0 0 0 0 0 0 0 0 0 0 0 0 0 0 0 0 0 0 0 0 0 0 0 0 0 
</DataArray>
<DataArray type="Float64" Name="U235_init_conc_solid" format="ascii">
0 0 0 0 0 0 0 0 0 0 0 0 0 0 0 0 0 0 0 0 0 0 0 0 0 0 0 0 0 0 0 0 0 0 0 0 0 0 0 0 0 0 0 0 0 0 0 0 0 0 0 0 0 0 0 0 0 0 0 0 0 0 0 0 0 0 0 0 0 0 0 0 0 0 0 0 0 0 0 0 0 0 0 0 0 0 0 0 0 0 0 0 0 0 0 0 0 0 0 0 0 0 0 0 0 0 0 0 0 0 0 0 0 0 0 0 0 0 0 0 0 0 0 0 
</DataArray>
<DataArray type="Float64" Name="age_conc_solid" format="ascii">