<?xml version="1.0"?>
<VTKFile type="UnstructuredGrid" version="0.1" byte_order="LittleEndian">
<UnstructuredGrid>
<Piece NumberOfPoints="69" NumberOfCells="124">
<Points>
<DataArray type="Float64" NumberOfComponents="3" format="ascii">
0 1 0 1 1 0 1 0 0 0 0 0 0.25 -0 0 0 0.25 0 0.5 0.5 -0 0.75 1 0 0.6875 0.875 0 0.625 0.75 0 0.5625 0.625 0 0.1249999999997599 0.31249999999987998 0 0.24999999999960859 0.37499999999980432 0 0.37499999999973488 0.43749999999986738 0 0.43750000000006939 0.37500000000013878 0 0.37500000000027761 0.25000000000055511 0 0.31250000000020822 0.12500000000041631 0 1 0.83333333333356463 0 1 0.66666666666736052 0 1 0.50000000000138767 0 1 0.33333333333448978 0 1 0.16666666666736049 0 0.875 1 0 0.56250000000086742 1 0 0.37500000000069389 1 0 0.1875000000005205 1 0 0 0.81250000000104083 0 0 0.62500000000069389 0 0 0.43750000000034689 0 0 0.12500000000034689 0 0.1249999999997554 0 0 0.43749999999913258 0 0 0.62499999999895905 0 0 0.81249999999947953 0 0 0.27987960212930818 0.83442741470570525 0 0.26452443700674649 0.51563531581639865 0 0.4139414069912184 0.60563252640100373 0 0.44927105396715372 0.85565124085155886 0 0.27589467050686478 0.66058853156435704 0 0.13900789599611679 0.72618316107059999 0 0.14929124186975251 0.44582793568106382 0 0.50145856933078625 0.73674663046504862 0 0.13928587515912139 0.57339806105677438 0 0.38136204680495073 0.74038592213831234 0 0.12710107136012311 0.87094806618203435 0 0.56777512057187585 0.8470224641095303 0 0.56986707178436635 0.37762093650871992 0 0.71259747807844409 0.63846691315701831 0 0.86087286690217635 0.25206523597959418 0 0.85787927391517405 0.753532520882502 0 0.54475767668582953 0.1431838882066932 0 0.71508993406183785 0.15715956854777599 0 0.86127466977819722 0.57948076978797636 0 0.75338430262320943 0.49294443423175599 0 0.80552984491000901 0.88711122872127413 0 0.86569408477091048 0.40983673916766611 0 0.71826039492840632 0.34564020717216182 0 0.63236534182377013 0.50296756406332266 0 0.61108462585082757 0.25750599582343231 0 0.49457493289300231 0.26251703776555491 0 0.73857795170433571 0.77736788564284653 0 0.87698901648812122 0.1160638338657984 0 0.90637953422180084 0.90208583328057301 0 0.4287911518546233 0.15455445427966699 0 0.2403886547178353 0.24188814792673841 0 0.18402761812864499 0.1117324051466445 0 0.33819444444448321 0.33819444444456342 0 0.1008171452988615 0.18885703697250469 0 0.084352422163911631 0.086451712656266194 0 
</DataArray>
</Points>
<Cells>
<DataArray type="UInt32" Name="connectivity" format="ascii">
7 8 8 9 9 10 10 6 5 11 11 12 12 13 13 6 6 14 14 15 15 16 16 4 13 36 35 13 6 36 5 11 28 8 7 23 36 38 35 34 39 38 28 40 42 24 37 23 28 42 27 24 34 37 24 25 34 34 38 43 23 37 45 8 23 45 10 36 6 28 11 40 0 26 44 13 35 12 25 0 44 26 27 39 12 40 11 38 39 42 37 34 43 34 44 39 10 41 36 25 44 34 12 35 40 35 38 42 10 9 41 36 41 43 8 45 9 9 45 41 27 42 39 36 43 38 26 39 44 35 42 40 37 41 45 37 43 41 46 56 57 53 57 56 49 47 52 4 31 16 49 60 47 52 55 19 51 48 56 52 53 55 31 32 50 54 49 62 17 62 49 17 49 18 21 20 48 32 51 50 33 51 32 18 49 52 1 62 17 53 56 55 18 52 19 52 47 53 16 31 63 51 61 48 20 19 55 14 46 6 51 56 58 10 47 9 55 56 48 8 54 7 22 7 54 20 55 48 33 61 51 33 2 61 31 50 63 6 46 57 21 61 2 10 57 47 46 58 56 51 58 50 53 47 57 14 59 46 9 47 60 10 6 57 54 60 49 8 60 54 15 59 14 1 22 62 21 48 61 8 9 60 46 59 58 16 63 15 15 63 59 50 59 63 22 54 62 50 58 59 14 6 13 11 67 64 4 65 30 4 16 65 13 12 66 15 14 66 65 64 67 16 15 64 12 11 64 15 66 64 12 64 66 11 5 67 16 64 65 14 13 66 3 68 29 3 30 68 29 67 5 30 65 68 29 68 67 67 68 65 
</DataArray>
<DataArray type="UInt32" Name="offsets" format="ascii">
2 4 6 8 10 12 14 16 18 20 22 24 27 30 33 36 39 42 45 48 51 54 57 60 63 66 69 72 75 78 81 84 87 90 93 96 99 102 105 108 111 114 117 120 123 126 129 132 135 138 141 144 147 150 153 156 159 162 165 168 171 174 177 180 183 186 189 192 195 198 201 204 207 210 213 216 219 222 225 228 231 234 237 240 243 246 249 252 255 258 261 264 267 270 273 276 279 282 285 288 291 294 297 300 303 306 309 312 315 318 321 324 327 330 333 336 339 342 345 348 351 354 357 360 
</DataArray>
<DataArray type="UInt32" Name="types" format="ascii">
3 3 3 3 3 3 3 3 3 3 3 3 5 5 5 5 5 5 5 5 5 5 5 5 5 5 5 5 5 5 5 5 5 5 5 5 5 5 5 5 5 5 5 5 5 5 5 5 5 5 5 5 5 5 5 5 5 5 5 5 5 5 5 5 5 5 5 5 5 5 5 5 5 5 5 5 5 5 5 5 5 5 5 5 5 5 5 5 5 5 5 5 5 5 5 5 5 5 5 5 5 5 5 5 5 5 5 5 5 5 5 5 5 5 5 5 5 5 5 5 5 5 5 5 
</DataArray>
</Cells>
<CellData Scalars="age_diffusion_rate_immobile,U235_diffusion_rate_immobile,age_init_conc_immobile,U235_init_conc_immobile,age_conc_immobile,U235_conc_immobile,rock_density,age_sorption_type,U235_sorption_type,age_distribution_coefficient,U235_distribution_coefficient,age_isotherm_other,U235_isotherm_other,age_init_conc_solid,U235_init_conc_solid,age_conc_solid,U235_conc_solid,age_conc_immobile_solid,U235_conc_immobile_solid,porosity,age_conc,U235_conc," Vectors="" Tensors="">
<DataArray type="Float64" Name="age_diffusion_rate_immobile" format="ascii">
0.02 0.02 0.02 0.02 0.02 0.02 0.02 0.02 0.02 0.02 0.02 0.02 0.02 0.02 0.02 0.02 0.02 0.02 0.02 0.02 0.02 0.02 0.02 0.02 0.02 0.02 0.02 0.02 0.02 0.02 0.02 0.02 0.02 0.02 0.02 0.02 0.02 0.02 0.02 0.02 0.02 0.02 0.02 0.02 0.02 0.02 0.02 0.02 0.02 0.02 0.02 0.02 0.02 0.02 0.02 0.02 0.02 0.02 0.02 0.02 0.02 0.02 0.02 0.02 0.02 0.02 0.02 0.02 0.02 0.02 0.02 0.02 0.02 0.02 0.02 0.02 0.02 0.02 0.02 0.02 0.02 0.02 0.02 0.02 0.02 0.02 0.02 0.02 0.02 0.02 0.02 0.02 0.02 0.02 0.02 0.02 0.02 0.02 0.02 0.02 0.02 0.02 0.02 0.02 0.02 0.02 0.02 0.02 0.02 0.02 0.02 0.02 0.02 0.02 0.02 0.02 0.02 0.02 0.02 0.02 0.02 0.02 0.02 0.02 
</DataArray>
<DataArray type="Float64" Name="U235_diffusion_rate_immobile" format="ascii">
0.02 0.02 0.02 0.02 0.02 0.02 0.02 0.02 0.02 0.02 0.02 0.02 0.02 0.02 0.02 0.02 0.02 0.02 0.02 0.02 0.02 0.02 0.02 0.02 0.02 0.02 0.02 0.02 0.02 0.02 0.02 0.02 0.02 0.02 0.02 0.02 0.02 0.02 0.02 0.02 0.02 0.02 0.02 0.02 0.02 0.02 0.02 0.02 0.02 0.02 0.02 0.02 0.02 0.02 0.02 0.02 0.02 0.02 0.02 0.02 0.02 0.02 0.02 0.02 0.02 0.02 0.02 0.02 0.02 0.02 0.02 0.02 0.02 0.02 0.02 0.02 0.02 0.02 0.02 0.02 0.02 0.02 0.02 0.02 0.02 0.02 0.02 0.02 0.02 0.02 0.02 0.02 0.02 0.02 0.02 0.02 0.02 0.02 0.02 0.02 0.02 0.02 0.02 0.02 0.02 0.02 0.02 0.02 0.02 0.02 0.02 0.02 0.02 0.02 0.02 0.02 0.02 0.02 0.02 0.02 0.02 0.02 0.02 0.02 
</DataArray>
<DataArray type="Float64" Name="age_init_conc_immobile" format="ascii">
0 0 0 0 0 0 0 0 0 0 0 0 0 0 0 0 0 0 0 0 0 0 0 0 0 0 0 0 0 0 0 0 0 0 0 0 0 0 0 0 0 0 0 0 0 0 0 0 0 0 0 0 0 0 0 0 0 0 0 0 0 0 0 0 0 0 0 0 0 0 0 0 0 0 0 0 0 0 0 0 0 0 0 0 0 0 0 0 0 0 0 0 0 0 0 0 0 0 0 0 0 0 0 0 0 0 0 0 0 0 0 0 0 0 0 0 0 0 0 0 0 0 0 0 
</DataArray>
<DataArray type="Float64" Name="U235_init_conc_immobile" format="ascii">
0 0 0 0 0 0 0 0 0 0 0 0 0 0 0 0 0 0 0 0 0 0 0 0 0 0 0 0 0 0 0 0 0 0 0 0 0 0 0 0 0 0 0 0 0 0 0 0 0 0 0 0 0 0 0 0 0 0 0 0 0 0 0 0 0 0 0 0 0 0 0 0 0 0 0 0 0 0 0 0 0 0 0 0 0 0 0 0 0 0 0 0 0 0 0 0 0 0 0 0 0 0 0 0 0 0 0 0 0 0 0 0 0 0 0 0 0 0 0 0 0 0 0 0 
</DataArray>
<DataArray type="Float64" Name="age_conc_immobile" format="ascii">
0.089965338126916414 0.054253623923945796 0.054161368373832341 0.054061962883088427 0.0533266852951403 0.053505600108027074 0.053691577143407582 0.0538786447696874 0.053864203422986909 0.05366717449843203 0.053475180794330522 0.053294233075573183 0.048531753496006129 0.049520666546404121 0.045047753436573267 0.060934107746939373 0.050066552770996656 0.051424066166188526 0.047389166295667078 0.058676309349494755 0.048891482350608598 0.053247953301172025 0.057328656018821811 0.052062611443532192 0.053081742889540311 0.053703769742993311 0.050623338769241868 0.045910295195939393 0.05318731071436613 0.047555993773218355 0.058111224194840376 0.051564483594518887 0.045880018208751074 0.050719566682222453 0.052601989694038238 0.052558552808074643 0.051418629944344776 0.053185553493661851 0.046824014249241527 0.049384278978509832 0.052179116361473418 0.051389176762404128 0.053213202741630036 0.052736514857201947 0.050091598510956181 0.050919994499693574 0.052271545820431919 0.048617358782816436 0.052600584887663733 0.05209368373380141 0.049645563134130759 0.050313315407657912 0.051851564751974784 0.043747044219071086 0.051656944396969225 0.052867676505837929 0.050914792640496559 0.05195889342283723 0.047665511305197902 0.052896974318875432 0.053330209594761702 0.056884541019155493 0.057247209744931936 0.048657504046403385 0.050771465653915472 0.052948260898317237 0.059413790210319152 0.05131368080082957 0.0569118061954706 0.051262023041913796 0.044570207499290165 0.051798885168650353 0.057203264112662716 0.047594666862763188 0.049862697849326419 0.050512500543944891 0.051669571788437584 0.05292573471961208 0.056696706217286751 0.052944243557435051 0.051524266686690343 0.053136395267782133 0.045859055783773528 0.048393903192643667 0.058060804289208359 0.04973115460051318 0.048949135028221818 0.049173277725167476 0.050562766876179895 0.046778515558534961 0.051166671180541676 0.049007243764521376 0.052377487929282179 0.052290153574927695 0.045929603844586289 0.059227240005233356 0.053101888406686823 0.051688741352144144 0.048178299397134881 0.044371185584240511 0.045231778935838837 0.046897175472588898 0.053456720006928221 0.047629936018476274 0.05279220631123753 0.047749938956701876 0.045729779594245665 0.046764315392117603 0.05166132465901184 0.051649845877871345 0.045789365119393674 0.049436629717802785 0.049480407725721681 0.05014316703624936 0.05016609628063029 0.0468597297618044 0.047733770743579665 0.051979051950287167 0.043628967443368284 0.04318408018295411 0.046562445058515201 0.044304473228659103 0.044738590339484248 0.044475485692329161 
</DataArray>
<DataArray type="Float64" Name="U235_conc_immobile" format="ascii">
0.096456657355386943 0.058191631464269797 0.058091794765426141 0.057984396089236501 0.05719054863733046 0.057383641901314078 0.057584342605772637 0.057786304227128937 0.057770967446710744 0.057558417336344217 0.057351319782515037 0.057156068146746675 0.05208054112385424 0.053130301248548582 0.048375609819970439 0.06535649083745225 0.053710262158870453 0.055154032026630648 0.050866823507528608 0.062933738458992194 0.052463861034058867 0.057106482957252402 0.061487186437105268 0.055834689145100327 0.056926961000214105 0.057596998714303294 0.054300442450807174 0.049293373141643976 0.057041724137560909 0.051043638456163706 0.062327181267750276 0.055304123397090524 0.049260961762351452 0.054404655507614808 0.056412548499180301 0.056366219810789556 0.055145742595809677 0.057039496201344048 0.050265311949133161 0.052986565047292253 0.055957084223407991 0.055114617567942267 0.057067997553278016 0.056554954233630259 0.053738177578128259 0.054616268143176605 0.056059085098878234 0.052172282113303416 0.056409542639906246 0.055866128563993159 0.053265497288997661 0.053974781339452389 0.055611864463844821 0.046991720651181068 0.055400726120894056 0.056698932746676159 0.054615116031432702 0.055727459369105267 0.051161757776397823 0.056728303035655167 0.057194900837598289 0.061010301590561651 0.061399736050869569 0.052216112042541805 0.054462469013758751 0.056784779942911132 0.063725179997015019 0.055038969057538578 0.061039741526745898 0.054983160470669673 0.047867653864168969 0.055558472807593781 0.061352627993232961 0.051085971231183837 0.053496679469924521 0.05418417600935431 0.055419679136551339 0.056760492945980817 0.060808630402052519 0.056781015827905651 0.055264924856904915 0.056987158263765644 0.049239876033003657 0.051935596981772213 0.062272992761203211 0.053355223789123114 0.052525939743147558 0.052763967366978679 0.05423944412559914 0.050217736330301292 0.054879245517465577 0.052586843419242545 0.056170538189799557 0.056078776691642435 0.049314132626845364 0.063524988286858625 0.056949957340431873 0.055436245164902101 0.051707043118521583 0.047655212812321962 0.048571308706183633 0.050344712532192512 0.0573308353465833 0.051124100343083498 0.056618663758169138 0.051254833530908255 0.049125248658048168 0.050210642405523989 0.055411610277363188 0.055399416315925695 0.049171602906063733 0.053047990480534359 0.053094518028476999 0.053795502516336413 0.053819852403631345 0.050312185410618521 0.051237654889589944 0.05574749832747071 0.046877648156672891 0.046410697037235688 0.050001501187938183 0.047603324735489311 0.048058214978747571 0.047775494467611049 
</DataArray>
<DataArray type="Float64" Name="rock_density" format="ascii">
1.8 1.8 1.8 1.8 1.8 1.8 1.8 1.8 1.8 1.8 1.8 1.8 1.8 1.8 1.8 1.8 1.8 1.8 1.8 1.8 1.8 1.8 1.8 1.8 1.8 1.8 1.8 1.8 1.8 1.8 1.8 1.8 1.8 1.8 1.8 1.8 1.8 1.8 1.8 1.8 1.8 1.8 1.8 1.8 1.8 1.8 1.8 1.8 1.8 1.8 1.8 1.8 1.8 1.8 1.8 1.8 1.8 1.8 1.8 1.8 1.8 1.8 1.8 1.8 1.8 1.8 1.8 1.8 1.8 1.8 1.8 1.8 1.8 1.8 1.8 1.8 1.8 1.8 1.8 1.8 1.8 1.8 1.8 1.8 1.8 1.8 1.8 1.8 1.8 1.8 1.8 1.8 1.8 1.8 1.8 1.8 1.8 1.8 1.8 1.8 1.8 1.8 1.8 1.8 1.8 1.8 1.8 1.8 1.8 1.8 1.8 1.8 1.8 1.8 1.8 1.8 1.8 1.8 1.8 1.8 1.8 1.8 1.8 1.8 
</DataArray>
<DataArray type="UInt32" Name="age_sorption_type" format="ascii">
1 1 1 1 1 1 1 1 1 1 1 1 1 1 1 1 1 1 1 1 1 1 1 1 1 1 1 1 1 1 1 1 1 1 1 1 1 1 1 1 1 1 1 1 1 1 1 1 1 1 1 1 1 1 1 1 1 1 1 1 1 1 1 1 1 1 1 1 1 1 1 1 1 1 1 1 1 1 1 1 1 1 1 1 1 1 1 1 1 1 1 1 1 1 1 1 1 1 1 1 1 1 1 1 1 1 1 1 1 1 1 1 1 1 1 1 1 1 1 1 1 1 1 1 
</DataArray>
<DataArray type="UInt32" Name="U235_sorption_type" format="ascii">
2 2 2 2 2 2 2 2 2 2 2 2 2 2 2 2 2 2 2 2 2 2 2 2 2 2 2 2 2 2 2 2 2 2 2 2 2 2 2 2 2 2 2 2 2 2 2 2 2 2 2 2 2 2 2 2 2 2 2 2 2 2 2 2 2 2 2 2 2 2 2 2 2 2 2 2 2 2 2 2 2 2 2 2 2 2 2 2 2 2 2 2 2 2 2 2 2 2 2 2 2 2 2 2 2 2 2 2 2 2 2 2 2 2 2 2 2 2 2 2 2 2 2 2 
</DataArray>
<DataArray type="Float64" Name="age_distribution_coefficient" format="ascii">
0.050000000000000003 0.050000000000000003 0.050000000000000003 0.050000000000000003 0.050000000000000003 0.050000000000000003 0.050000000000000003 0.050000000000000003 0.050000000000000003 0.050000000000000003 0.050000000000000003 0.050000000000000003 0.050000000000000003 0.050000000000000003 0.050000000000000003 0.050000000000000003 0.050000000000000003 0.050000000000000003 0.050000000000000003 0.050000000000000003 0.050000000000000003 0.050000000000000003 0.050000000000000003 0.050000000000000003 0.050000000000000003 0.050000000000000003 0.050000000000000003 0.050000000000000003 0.050000000000000003 0.050000000000000003 0.050000000000000003 0.050000000000000003 0.050000000000000003 0.050000000000000003 0.050000000000000003 0.050000000000000003 0.050000000000000003 0.050000000000000003 0.050000000000000003 0.050000000000000003 0.050000000000000003 0.050000000000000003 0.050000000000000003 0.050000000000000003 0.050000000000000003 0.050000000000000003 0.050000000000000003 0.050000000000000003 0.050000000000000003 0.050000000000000003 0.050000000000000003 0.050000000000000003 0.050000000000000003 0.050000000000000003 0.050000000000000003 0.050000000000000003 0.050000000000000003 0.050000000000000003 0.050000000000000003 0.050000000000000003 0.050000000000000003 0.050000000000000003 0.050000000000000003 0.050000000000000003 0.050000000000000003 0.050000000000000003 0.050000000000000003 0.050000000000000003 0.050000000000000003 0.050000000000000003 0.050000000000000003 0.050000000000000003 0.050000000000000003 0.050000000000000003 0.050000000000000003 0.050000000000000003 0.050000000000000003 0.050000000000000003 0.050000000000000003 0.050000000000000003 0.050000000000000003 0.050000000000000003 0.050000000000000003 0.050000000000000003 0.050000000000000003 0.050000000000000003 0.050000000000000003 0.050000000000000003 0.050000000000000003 0.050000000000000003 0.050000000000000003 0.050000000000000003 0.050000000000000003 0.050000000000000003 0.050000000000000003 0.050000000000000003 0.050000000000000003 0.050000000000000003 0.050000000000000003 0.050000000000000003 0.050000000000000003 0.050000000000000003 0.050000000000000003 0.050000000000000003 0.050000000000000003 0.050000000000000003 0.050000000000000003 0.050000000000000003 0.050000000000000003 0.050000000000000003 0.050000000000000003 0.050000000000000003 0.050000000000000003 0.050000000000000003 0.050000000000000003 0.050000000000000003 0.050000000000000003 0.050000000000000003 0.050000000000000003 0.050000000000000003 0.050000000000000003 0.050000000000000003 0.050000000000000003 0.050000000000000003 
</DataArray>
<DataArray type="Float64" Name="U235_distribution_coefficient" format="ascii">
0.050000000000000003 0.050000000000000003 0.050000000000000003 0.050000000000000003 0.050000000000000003 0.050000000000000003 0.050000000000000003 0.050000000000000003 0.050000000000000003 0.050000000000000003 0.050000000000000003 0.050000000000000003 0.050000000000000003 0.050000000000000003 0.050000000000000003 0.050000000000000003 0.050000000000000003 0.050000000000000003 0.050000000000000003 0.050000000000000003 0.050000000000000003 0.050000000000000003 0.050000000000000003 0.050000000000000003 0.050000000000000003 0.050000000000000003 0.050000000000000003 0.050000000000000003 0.050000000000000003 0.050000000000000003 0.050000000000000003 0.050000000000000003 0.050000000000000003 0.050000000000000003 0.050000000000000003 0.050000000000000003 0.050000000000000003 0.050000000000000003 0.050000000000000003 0.050000000000000003 0.050000000000000003 0.050000000000000003 0.050000000000000003 0.050000000000000003 0.050000000000000003 0.050000000000000003 0.050000000000000003 0.050000000000000003 0.050000000000000003 0.050000000000000003 0.050000000000000003 0.050000000000000003 0.050000000000000003 0.050000000000000003 0.050000000000000003 0.050000000000000003 0.050000000000000003 0.050000000000000003 0.050000000000000003 0.050000000000000003 0.050000000000000003 0.050000000000000003 0.050000000000000003 0.050000000000000003 0.050000000000000003 0.050000000000000003 0.050000000000000003 0.050000000000000003 0.050000000000000003 0.050000000000000003 0.050000000000000003 0.050000000000000003 0.050000000000000003 0.050000000000000003 0.050000000000000003 0.050000000000000003 0.050000000000000003 0.050000000000000003 0.050000000000000003 0.050000000000000003 0.050000000000000003 0.050000000000000003 0.050000000000000003 0.050000000000000003 0.050000000000000003 0.050000000000000003 0.050000000000000003 0.050000000000000003 0.050000000000000003 0.050000000000000003 0.050000000000000003 0.050000000000000003 0.050000000000000003 0.050000000000000003 0.050000000000000003 0.050000000000000003 0.050000000000000003 0.050000000000000003 0.050000000000000003 0.050000000000000003 0.050000000000000003 0.050000000000000003 0.050000000000000003 0.050000000000000003 0.050000000000000003 0.050000000000000003 0.050000000000000003 0.050000000000000003 0.050000000000000003 0.050000000000000003 0.050000000000000003 0.050000000000000003 0.050000000000000003 0.050000000000000003 0.050000000000000003 0.050000000000000003 0.050000000000000003 0.050000000000000003 0.050000000000000003 0.050000000000000003 0.050000000000000003 0.050000000000000003 0.050000000000000003 0.050000000000000003 
</DataArray>
<DataArray type="Float64" Name="age_isotherm_other" format="ascii">
0 0 0 0 0 0 0 0 0 0 0 0 0 0 0 0 0 0 0 0 0 0 0 0 0 0 0 0 0 0 0 0 0 0 0 0 0 0 0 0 0 0 0 0 0 0 0 0 0 0 0 0 0 0 0 0 0 0 0 0 0 0 0 0 0 0 0 0 0 0 0 0 0 0 0 0 0 0 0 0 0 0 0 0 0 0 0 0 0 0 0 0 0 0 0 0 0 0 0 0 0 0 0 0 0 0 0 0 0 0 0 0 0 0 0 0 0 0 0 0 0 0 0 0 
</DataArray>
<DataArray type="Float64" Name="U235_isotherm_other" format="ascii">
2.5 2.5 2.5 2.5 2.5 2.5 2.5 2.5 2.5 2.5 2.5 2.5 2.5 2.5 2.5 2.5 2.5 2.5 2.5 2.5 2.5 2.5 2.5 2.5 2.5 2.5 2.5 2.5 2.5 2.5 2.5 2.5 2.5 2.5 2.5 2.5 2.5 2.5 2.5 2.5 2.5 2.5 2.5 2.5 2.5 2.5 2.5 2.5 2.5 2.5 2.5 2.5 2.5 2.5 2.5 2.5 2.5 2.5 2.5 2.5 2.5 2.5 2.5 2.5 2.5 2.5 2.5 2.5 2.5 2.5 2.5 2.5 2.5 2.5 2.5 2.5 2.5 2.5 2.5 2.5 2.5 2.5 2.5 2.5 2.5 2.5 2.5 2.5 2.5 2.5 2.5 2.5 2.5 2.5 2.5 2.5 2.5 2.5 2.5 2.5 2.5 2.5 2.5 2.5 2.5 2.5 2.5 2.5 2.5 2.5 2.5 2.5 2.5 2.5 2.5 2.5 2.5 2.5 2.5 2.5 2.5 2.5 2.5 2.5 
</DataArray>
<DataArray type="Float64" Name="age_init_conc_solid" format="ascii">
0 0 0 0 0 0 0 0 0 0 0 0 0 0 0 0 0 0 0 0 0 0 0 0 0 0 0 0 0 0 0 0 0 0 0 0 0 0 0 0 0 0 0 0 0 0 0 0 0 0 0 0 0 0 0 0 0 0 0 0 0 0 0 0 0 0 0 0 0 0 0 0 0 0 0 0 0 0 0 0 0 0 0 0 0 0 0 0 0 0 0 0 0 0 0 0 0 0 0 0 0 0 0 0 0 0 0 0 0 0 0 0 0 0 0 0 0 0 0 0 0 0 0 0 
</DataArray>
<DataArray type="Float64" Name="U235_init_conc_solid" format="ascii">
0 0 0 0 0 0 0 0 0 0 0 0 0 0 0 0 0 0 0 0 0 0 0 0 0 0 0 0 0 0 0 0 0 0 0 0 0 0 0 0 0 0 0 0 0 0 0 0 0 0 0 0 0 0 0 0 0 0 0 0 0 0 0 0 0 0 0 0 0 0 0 0 0 0 0 0 0 0 0 0 0 0 0 0 0 0 0 0 0 0 0 0 0 0 0 0 0 0 0 0 0 0 0 0 0 0 0 0 0 0 0 0 0 0 0 0 0 0 0 0 0 0 0 0 
</DataArray>
<DataArray type="Float64" Name="age_conc_solid" format="ascii">
171.86311810365834 0.049992381362649975 0.049984479052750011 0.049976111509960244 0.049913467961264009 0.049928755718954769 0.049944502544379481 0.049960385052487802 0.049959636101679021 0.049943304010270667 0.04992731587877848 0.049911972977787614 0.04959386164503489 0.049649450301155439 0.049406766571639671 33.261926085267653 0.049687096637534872 0.049798362779572961 0.0495385937796958 23.15797560961126 0.049636824660208204 0.049944682965551677 17.773524370845266 0.049842947045617488 0.049916742354026496 0.049970025414531452 0.049719523374268472 0.049455118006758537 0.049955881800626392 0.049540038267921437 21.318280694872545 0.04982588698859141 0.049450643320480422 0.049747249326361147 0.049887937942212725 0.049906594196482072 0.049777209143441005 0.049959698436412195 0.049501847508938095 0.049650147490943194 0.049838042455958083 0.049775984989779233 0.049927195768755442 0.049885703593603135 0.049709609519810058 0.049744557257232848 0.049881664505694187 0.049605574295905862 0.049875110168105405 0.049832116614416541 0.049701247680536652 0.049744006105501927 0.049848157155670876 0.049370482329761996 0.049806083233858774 0.049947415902516626 0.049796424979686907 0.049871841543544577 0.049596157409628749 0.049909124161164144 0.04994609146584518 15.994542694739824 17.895951893671931 0.049653066722399511 0.049785613591338818 0.049946074073520808 26.402302137651141 0.049823110776904635 16.535282985662665 0.049803332901521523 0.049418377358596367 0.049862422826392749 17.724524736307831 0.049572482578042781 0.049725729608107908 0.049738144440632022 0.04985123444135986 0.049943722219968283 15.067801971965311 0.049950172734948776 0.049839980734465224 0.049956963802682365 0.049492547987270555 0.049615821541618269 21.353645694607174 0.049689807190482216 0.049659365474499909 0.049682772601164063 0.049754007093315317 0.049530683783162596 0.04978442079469865 0.049646565844142634 0.049864645401568874 0.049885838612912327 0.04948633830838773 25.574060004037488 0.049962508200666791 0.049837705049595234 0.049615549736176781 0.049403618708594131 0.049450653896270416 0.049547839911515804 0.049958353464458885 0.049587324735230261 0.049867774466753854 0.049512681694159837 0.075833852422646134 0.049431625546981522 0.049779186552232901 0.049778657053428779 0.04936873003945192 0.049628723334547646 0.04963147676512452 0.049671651430533363 0.049672975092594183 0.049436558924510238 0.049511755727246198 0.049800699068233575 0.049563932745322892 0.049603064869297504 0.26702059985617022 0.049677071910731944 0.049639096478870721 0.049265012459375326 
</DataArray>
<DataArray type="Float64" Name="U235_conc_solid" format="ascii">
171.86306561006657 0.049981033868968974 0.049961364393267753 0.04994053722478526 0.049784549662322507 0.049822629287657086 0.049861866941264328 0.049901405070569775 0.049899519365360079 0.04985881775191732 0.04981891005001552 0.049780641639522574 0.048989207546272784 0.049129574368050502 0.048480866766012362 33.261966091021982 0.049223464685263937 0.049499103273907455 0.048847396483974119 23.158064481224663 0.049096293050009579 0.049862349616391292 17.773971603158749 0.049609672585752856 0.04979290021109152 0.049925394854837574 0.049303867545545513 0.048619493515324401 0.049890203458838198 0.048850682175386642 21.318845411060085 0.049567359321772142 0.048608660679168331 0.049372428254207464 0.049721334943729892 0.04976767811661003 0.049446745160916641 0.049899697868104574 0.048749338352536635 0.049131413820112595 0.04959753099487707 0.049443711964402004 0.049818884589633572 0.049715806895158088 0.049279011894858345 0.049365865381061171 0.049705760519939815 0.049019890779606085 0.049689500955670325 0.049582830261686923 0.049257848094488237 0.049364103250852449 0.049622544363528358 0.048370510230907077 0.049518276138347743 0.049869142547279637 0.049493904485452482 0.049681297868330865 0.048988815628534584 0.049773969985951426 0.04986585348883385 15.995040799026215 17.897103029610012 0.04913474004414152 0.049466601427915292 0.049865806013022727 26.402362063784874 0.04956031837550328 16.536445880306758 0.049511354497116147 0.048513057697504761 0.049657671157680286 17.725768150311126 0.048936443533125824 0.049317852097756076 0.049349981859136541 0.049630057969877614 0.049859956573406472 15.068186007681154 0.049876000152415667 0.049601872091859692 0.049892894588211001 0.048720517382244574 0.049045742200038309 21.354533345224112 0.049230159318462724 0.049153390753392839 0.04921039214362815 0.04938902239499221 0.04882848392756859 0.049464589650960455 0.049122809828260644 0.049663523712418223 0.049716118375740956 0.048710910251054361 25.5741249941265 0.049906687456654497 0.04959666353003063 0.049043254750073845 0.048476516777129677 0.048611806051420861 0.04886904543383061 0.049896354296323157 0.048970935063780759 0.049671050642118728 0.048744818267163051 0.073394555570512887 0.048510281846448837 0.049449972163691201 0.049448551549717154 0.048344988748279465 0.049058412063041928 0.049065911467853954 0.049176726155744026 0.049180371362645657 0.048523395199852479 0.048742228432957932 0.04950431062452755 0.04883992396704654 0.04894566772691443 0.26827343361430639 0.049140676894539784 0.049038909494513415 0.048055546468708979 
</DataArray>
<DataArray type="Float64" Name="age_conc_immobile_solid" format="ascii">
0.0044982669063458229 0.0027126811961972891 0.0027080684186916153 0.0027030981441544233 0.0026663342647570152 0.0026752800054013533 0.0026845788571703802 0.0026939322384843642 0.0026932101711493392 0.0026833587249216026 0.0026737590397165278 0.0026647116537786611 0.0024265876748003068 0.0024760333273202073 0.002252387671828665 0.003046705387346972 0.002503327638549832 0.0025712033083094207 0.0023694583147833522 0.0029338154674747401 0.0024445741175304256 0.0026623976650586023 0.0028664328009410916 0.0026031305721766081 0.002654087144477014 0.0026851884871496672 0.0025311669384620924 0.0022955147597969691 0.0026593655357183051 0.0023777996886609159 0.0029055612097420216 0.0025782241797259456 0.0022940009104375544 0.0025359783341111219 0.0026300994847019126 0.0026279276404037274 0.0025709314972172334 0.0026592776746830909 0.0023412007124620771 0.0024692139489254947 0.0026089558180736674 0.0025694588381202079 0.0026606601370815033 0.0026368257428600961 0.0025045799255478049 0.0025459997249846797 0.0026135772910215968 0.0024308679391408222 0.0026300292443831854 0.0026046841866900704 0.0024822781567065389 0.0025156657703828958 0.0025925782375987396 0.0021873522109535537 0.0025828472198484633 0.0026433838252918978 0.0025457396320248287 0.00259794467114186 0.0023832755652598964 0.002644848715943773 0.0026665104797380865 0.0028442270509577714 0.0028623604872465964 0.0024328752023201699 0.0025385732826957749 0.0026474130449158631 0.0029706895105159575 0.0025656840400414748 0.0028455903097735244 0.0025631011520956906 0.0022285103749645116 0.0025899442584325191 0.0028601632056331357 0.0023797333431381596 0.0024931348924663223 0.0025256250271972441 0.0025834785894218804 0.0026462867359806058 0.0028348353108643321 0.0026472121778717541 0.002576213334334517 0.0026568197633891079 0.0022929527891886767 0.002419695159632182 0.002903040214460422 0.0024865577300256592 0.002447456751411092 0.002458663886258376 0.0025281383438089952 0.0023389257779267464 0.0025583335590270858 0.0024503621882260682 0.0026188743964641031 0.0026145076787463836 0.0022964801922293085 0.00296136200026167 0.0026550944203343396 0.0025844370676072074 0.0024089149698567447 0.0022185592792120243 0.0022615889467919397 0.0023448587736294457 0.0026728360003464131 0.0023814968009238133 0.0026396103155618749 0.0023874969478350958 0.0022864889797122811 0.0023382157696058788 0.0025830662329505891 0.0025824922938935679 0.002289468255969684 0.0024718314858901374 0.0024740203862860799 0.0025071583518124683 0.0025083048140315165 0.0023429864880902202 0.0023866885371789819 0.0025989525975143599 0.0021814483721684136 0.0021592040091477074 0.0023281222529257595 0.0022152236614329571 0.0022369295169742134 0.0022237742846164584 
</DataArray>
<DataArray type="Float64" Name="U235_conc_immobile_solid" format="ascii">