<?xml version="1.0"?>
<VTKFile type="UnstructuredGrid" version="0.1" byte_order="LittleEndian">
<UnstructuredGrid>
<Piece NumberOfPoints="69" NumberOfCells="124">
<Points>
<DataArray type="Float64" NumberOfComponents="3" format="ascii">
0 0 0 0.084352422163911631 0.086451712656266194 0 0.1249999999997554 0 0 0 0.12500000000034689 0 0.1008171452988615 0.18885703697250469 0 0.2403886547178353 0.24188814792673841 0 0.18402761812864499 0.1117324051466445 0 0.25 -0 0 0.31250000000020822 0.12500000000041631 0 0.4287911518546233 0.15455445427966699 0 0.43749999999913258 0 0 0.43750000000006939 0.37500000000013878 0 0.49457493289300231 0.26251703776555491 0 0.37500000000027761 0.25000000000055511 0 0.33819444444448321 0.33819444444456342 0 0.37499999999973488 0.43749999999986738 0 0.14929124186975251 0.44582793568106382 0 0.24999999999960859 0.37499999999980432 0 0.1249999999997599 0.31249999999987998 0 0 0.25 0 0 0.43750000000034689 0 0 0.62500000000069389 0 0.13900789599611679 0.72618316107059999 0 0.13928587515912139 0.57339806105677438 0 0 1 0 0 0.81250000000104083 0 0.12710107136012311 0.87094806618203435 0 0.1875000000005205 1 0 0.27987960212930818 0.83442741470570525 0 0.44927105396715372 0.85565124085155886 0 0.37500000000069389 1 0 0.26452443700674649 0.51563531581639865 0 0.27589467050686478 0.66058853156435704 0 0.38136204680495073 0.74038592213831234 0 0.4139414069912184 0.60563252640100373 0 0.5 0.5 -0 0.50145856933078625 0.73674663046504862 0 0.5625 0.625 0 0.71259747807844409 0.63846691315701831 0 0.63236534182377013 0.50296756406332266 0 0.56250000000086742 1 0 0.56777512057187585 0.8470224641095303 0 0.625 0.75 0 0.73857795170433571 0.77736788564284653 0 0.6875 0.875 0 0.75 1 0 0.80552984491000901 0.88711122872127413 0 0.85787927391517405 0.753532520882502 0 1 0.83333333333356463 0 0.90637953422180084 0.90208583328057301 0 1 1 0 0.875 1 0 0.86127466977819722 0.57948076978797636 0 1 0.66666666666736052 0 1 0.50000000000138767 0 0.75338430262320943 0.49294443423175599 0 0.86569408477091048 0.40983673916766611 0 0.86087286690217635 0.25206523597959418 0 1 0.33333333333448978 0 1 0.16666666666736049 0 1 0 0 0.87698901648812122 0.1160638338657984 0 0.81249999999947953 0 0 0.71508993406183785 0.15715956854777599 0 0.62499999999895905 0 0 0.54475767668582953 0.1431838882066932 0 0.61108462585082757 0.25750599582343231 0 0.56986707178436635 0.37762093650871992 0 0.71826039492840632 0.34564020717216182 0 
</DataArray>
</Points>
<Cells>
<DataArray type="UInt32" Name="connectivity" format="ascii">
0 1 3 0 2 1 3 4 19 3 1 4 4 1 6 18 4 5 6 5 4 8 5 6 7 6 2 7 8 6 2 6 1 8 7 7 10 8 8 13 5 13 8 8 9 13 13 9 12 65 12 9 8 10 9 10 65 9 15 35 11 35 15 11 15 14 35 11 13 12 11 11 13 13 11 14 17 5 14 13 14 5 15 17 14 17 15 15 31 17 17 31 16 17 16 18 17 18 5 18 17 19 18 20 18 19 4 19 18 20 16 23 20 18 16 20 23 21 21 23 22 25 21 22 32 22 23 28 22 32 31 32 23 31 23 16 27 24 26 24 25 26 25 22 26 28 26 22 27 26 28 30 28 29 30 27 28 29 28 33 29 33 36 30 29 40 34 32 31 15 34 31 28 32 33 34 33 32 34 36 33 37 36 34 15 35 34 37 34 35 37 35 39 37 35 37 42 36 42 37 42 38 43 37 38 42 55 38 39 37 39 38 44 40 41 40 29 41 29 36 41 42 41 36 44 42 43 44 43 46 44 42 44 41 42 44 45 40 44 46 45 45 44 51 45 46 51 46 49 46 47 49 46 43 47 48 47 53 48 49 47 50 49 48 50 51 49 52 38 55 47 38 52 47 43 38 53 47 52 53 52 54 58 54 56 52 56 54 52 55 56 55 68 56 63 57 68 56 68 57 59 58 57 58 56 57 59 57 61 62 60 61 59 61 60 62 61 63 63 61 57 64 63 65 62 63 64 10 64 65 63 66 65 65 66 12 67 12 66 11 12 67 11 67 35 35 67 39 55 39 68 67 68 39 63 68 66 67 66 68 
</DataArray>
<DataArray type="UInt32" Name="offsets" format="ascii">
3 6 9 12 15 18 21 24 27 30 33 35 38 41 43 46 49 52 55 58 60 63 66 68 71 73 76 79 82 85 87 90 93 96 99 101 104 107 109 112 115 118 121 124 127 130 133 136 139 142 145 148 151 154 157 160 163 166 169 172 175 178 181 184 187 190 193 195 198 200 203 206 209 212 215 218 221 224 227 230 232 235 238 241 243 246 249 252 255 258 261 264 267 270 273 276 279 282 285 288 291 294 297 300 303 306 309 312 315 318 321 324 327 330 333 336 339 342 345 348 351 354 357 360 
</DataArray>
<DataArray type="UInt32" Name="types" format="ascii">
5 5 5 5 5 5 5 5 5 5 5 3 5 5 3 5 5 5 5 5 3 5 5 3 5 3 5 5 5 5 3 5 5 5 5 3 5 5 3 5 5 5 5 5 5 5 5 5 5 5 5 5 5 5 5 5 5 5 5 5 5 5 5 5 5 5 5 3 5 3 5 5 5 5 5 5 5 5 5 5 3 5 5 5 3 5 5 5 5 5 5 5 5 5 5 5 5 5 5 5 5 5 5 5 5 5 5 5 5 5 5 5 5 5 5 5 5 5 5 5 5 5 5 5 
</DataArray>
</Cells>
<CellData Scalars="porosity,age_conc,U235_conc,age_diffusion_rate_immobile,U235_diffusion_rate_immobile,age_init_conc_immobile,U235_init_conc_immobile,age_conc_immobile,U235_conc_immobile,rock_density,age_sorption_type,U235_sorption_type,age_distribution_coefficient,U235_distribution_coefficient,age_isotherm_other,U235_isotherm_other,age_init_conc_solid,U235_init_conc_solid,age_conc_solid,U235_conc_solid,age_conc_immobile_solid,U235_conc_immobile_solid," Vectors="" Tensors="">
<DataArray type="Float64" Name="porosity" format="ascii">
0.25 0.25 0.25 0.25 0.25 0.25 0.25 0.25 0.25 0.25 0.25 0.25 0.25 0.25 0.25 0.25 0.25 0.25 0.25 0.25 0.25 0.25 0.25 0.25 0.25 0.25 0.25 0.25 0.25 0.25 0.25 0.25 0.25 0.25 0.25 0.25 0.25 0.25 0.25 0.25 0.25 0.25 0.25 0.25 0.25 0.25 0.25 0.25 0.25 0.25 0.25 0.25 0.25 0.25 0.25 0.25 0.25 0.25 0.25 0.25 0.25 0.25 0.25 0.25 0.25 0.25 0.25 0.25 0.25 0.25 0.25 0.25 0.25 0.25 0.25 0.25 0.25 0.25 0.25 0.25 0.25 0.25 0.25 0.25 0.25 0.25 0.25 0.25 0.25 0.25 0.25 0.25 0.25 0.25 0.25 0.25 0.25 0.25 0.25 0.25 0.25 0.25 0.25 0.25 0.25 0.25 0.25 0.25 0.25 0.25 0.25 0.25 0.25 0.25 0.25 0.25 0.25 0.25 0.25 0.25 0.25 0.25 0.25 0.25 
</DataArray>
<DataArray type="Float64" Name="age_conc" format="ascii">
0.9817600709291967 0.97620220807793578 1 0.98353812716155953 0.96320673121995681 0.97331456595651922 0.96683676151898879 0.97327236620251734 0.99239686004203698 0.97162676895143418 0.97930077473193644 0.99786259024007029 0.9615190176448164 0.98020072117983048 0.99821626141328457 0.96221024532527732 0.9642845548855361 0.9714222923788397 0.96333474511646422 0.96736476422911544 0.99910097396242081 0.99633867508688811 0.99334984536239501 0.99904153520149164 0.96620870070398479 0.99861567714379129 0.99117459394260965 0.98351262546253837 0.98343066821098613 0.99121090288051006 0.99870795786166744 0.97041372972321782 0.96756605718271405 0.96449599529698826 0.98036125555904974 0.99832245483376925 0.96271861594581964 0.97211897721066598 0.99797003241822191 0.97030237435297195 0.96497127499872226 0.97985026042933532 0.98681716017081311 0.99535969657567713 0.99016254966512018 0.99360394730910917 0.98088639719659354 0.97628066324908069 1 0.99909968444674147 0.99737660994248412 0.99801410774903498 0.99918002688175522 0.99884571687408075 1 0.99738678703480699 0.99583865856983289 1 0.98480450287568377 0.97531986756940903 0.99590748350883951 0.99022401088171885 0.99280749058519935 0.99293642195703158 0.98101961675109606 0.98823884645905669 0.98057799532056156 0.99946817842728475 0.99616964588770074 0.99967375324307639 0.99316929481964156 0.98979501307464268 0.99019741490067981 0.98513172051094122 0.99939155912914757 0.99824478315334186 0.99722795347754167 0.99758809406519733 0.99575093895105904 0.99738134201294693 0.99984399182998518 0.99851022379706533 1 0.99882216268134438 1 1 0.99915192783634521 0.99808038779083419 0.99692852201815618 1 0.99887972793664226 1 1 0.9933329436975229 0.99547731825979136 0.9944636268175584 0.99887939064158704 1 1 0.99891116468935515 0.9963636744996176 0.99445455186105947 0.99288197999875405 0.99549806059699997 1 0.99897458671813943 0.99923813687180885 0.99912267181681613 1 0.99476772670973035 0.99559368307664131 0.98154910936447282 0.99211408672674972 0.97649457110998061 0.98427923851388532 0.97503556882072218 0.97778015001678531 0.96940728505100016 0.97297549106505377 0.97730515240051841 0.98942863021987759 0.98600248767922571 0.98776736791431685 0.98213206988877022 
</DataArray>
<DataArray type="Float64" Name="U235_conc" format="ascii">
0.98271764190368038 0.97787012195593292 1 0.9844006651940973 0.96497166647846999 0.97372536750206107 0.96805783870641671 0.9736877234272181 0.99359678695425957 0.9725815510340543 0.98086987232438594 0.9978756205253001 0.96377370259274808 0.98001170780377123 0.99822335834563702 0.96432352731509985 0.9658602904352831 0.9713779776587006 0.96514529452616271 0.96818247858557416 0.99908975244282772 0.99607627603169446 0.99269478946112444 0.99903407946963385 0.9672831848279253 0.9986145747143258 0.99047440282637511 0.98278266573913942 0.98270910564959113 0.99050594091613875 0.99869868923935301 0.97051272348003725 0.96831608598167562 0.96600331375757043 0.98016002701014604 0.99831878946061214 0.96468433160272626 0.97304025890103163 0.99797137697837246 0.9704718551990108 0.966375654703028 0.97876243415778108 0.98542338837201227 0.9947968440508751 0.98891337213600716 0.99278431499816133 0.97955193711839894 0.97539867350951392 1 0.9990961113217498 0.99721601122186487 0.99794434207038563 0.99917931958265815 0.99882312916880855 1 0.99719594780841847 0.99537794600188223 1 0.98320043756109277 0.97455727288229155 0.99546933957663575 0.98882380675703407 0.99173033750968287 0.99187608996842713 0.97956206901416287 0.98664689308439713 0.97911824655201218 0.9994609042837681 0.99578481080860093 0.99967098954217226 0.99218071217876702 0.9883422531967474 0.98913280098776113 0.98352770363873177 0.99939311413421561 0.99819627785687226 0.99705804572873613 0.9974991745902082 0.99527150808833409 0.99719586230943857 0.99984374998259284 0.99849861250889382 1 0.99879715440565942 1 1 0.99915039345809764 0.99802060283714145 0.99669995027075342 1 0.99886048314952536 1 1 0.99257177603910685 0.99498249778799086 0.9937217274740231 0.99886012182873751 1 1 0.99889482736621127 0.99607622280339292 0.99393120799423995 0.99215858489627706 0.99509754336206724 1 0.9989634682158488 0.99923865844191706 0.99912006710784862 1 0.99435719342225748 0.99524083665014396 0.98061641988556136 0.99143214657361445 0.97593564098826302 0.98318618056476548 0.97443423057311795 0.97679830522839173 0.96973421973476448 0.9725791252831153 0.976274685082828 0.98836287632111497 0.98476113699666967 0.98675662793526764 0.98088673146196348 
</DataArray>
<DataArray type="Float64" Name="age_diffusion_rate_immobile" format="ascii">
0.02 0.02 0.02 0.02 0.02 0.02 0.02 0.02 0.02 0.02 0.02 0.02 0.02 0.02 0.02 0.02 0.02 0.02 0.02 0.02 0.02 0.02 0.02 0.02 0.02 0.02 0.02 0.02 0.02 0.02 0.02 0.02 0.02 0.02 0.02 0.02 0.02 0.02 0.02 0.02 0.02 0.02 0.02 0.02 0.02 0.02 0.02 0.02 0.02 0.02 0.02 0.02 0.02 0.02 0.02 0.02 0.02 0.02 0.02 0.02 0.02 0.02 0.02 0.02 0.02 0.02 0.02 0.02 0.02 0.02 0.02 0.02 0.02 0.02 0.02 0.02 0.02 0.02 0.02 0.02 0.02 0.02 0.02 0.02 0.02 0.02 0.02 0.02 0.02 0.02 0.02 0.02 0.02 0.02 0.02 0.02 0.02 0.02 0.02 0.02 0.02 0.02 0.02 0.02 0.02 0.02 0.02 0.02 0.02 0.02 0.02 0.02 0.02 0.02 0.02 0.02 0.02 0.02 0.02 0.02 0.02 0.02 0.02 0.02 
</DataArray>
<DataArray type="Float64" Name="U235_diffusion_rate_immobile" format="ascii">
0.02 0.02 0.02 0.02 0.02 0.02 0.02 0.02 0.02 0.02 0.02 0.02 0.02 0.02 0.02 0.02 0.02 0.02 0.02 0.02 0.02 0.02 0.02 0.02 0.02 0.02 0.02 0.02 0.02 0.02 0.02 0.02 0.02 0.02 0.02 0.02 0.02 0.02 0.02 0.02 0.02 0.02 0.02 0.02 0.02 0.02 0.02 0.02 0.02 0.02 0.02 0.02 0.02 0.02 0.02 0.02 0.02 0.02 0.02 0.02 0.02 0.02 0.02 0.02 0.02 0.02 0.02 0.02 0.02 0.02 0.02 0.02 0.02 0.02 0.02 0.02 0.02 0.02 0.02 0.02 0.02 0.02 0.02 0.02 0.02 0.02 0.02 0.02 0.02 0.02 0.02 0.02 0.02 0.02 0.02 0.02 0.02 0.02 0.02 0.02 0.02 0.02 0.02 0.02 0.02 0.02 0.02 0.02 0.02 0.02 0.02 0.02 0.02 0.02 0.02 0.02 0.02 0.02 0.02 0.02 0.02 0.02 0.02 0.02 
</DataArray>
<DataArray type="Float64" Name="age_init_conc_immobile" format="ascii">
0 0 0 0 0 0 0 0 0 0 0 0 0 0 0 0 0 0 0 0 0 0 0 0 0 0 0 0 0 0 0 0 0 0 0 0 0 0 0 0 0 0 0 0 0 0 0 0 0 0 0 0 0 0 0 0 0 0 0 0 0 0 0 0 0 0 0 0 0 0 0 0 0 0 0 0 0 0 0 0 0 0 0 0 0 0 0 0 0 0 0 0 0 0 0 0 0 0 0 0 0 0 0 0 0 0 0 0 0 0 0 0 0 0 0 0 0 0 0 0 0 0 0 0 
</DataArray>
<DataArray type="Float64" Name="U235_init_conc_immobile" format="ascii">
0 0 0 0 0 0 0 0 0 0 0 0 0 0 0 0 0 0 0 0 0 0 0 0 0 0 0 0 0 0 0 0 0 0 0 0 0 0 0 0 0 0 0 0 0 0 0 0 0 0 0 0 0 0 0 0 0 0 0 0 0 0 0 0 0 0 0 0 0 0 0 0 0 0 0 0 0 0 0 0 0 0 0 0 0 0 0 0 0 0 0 0 0 0 0 0 0 0 0 0 0 0 0 0 0 0 0 0 0 0 0 0 0 0 0 0 0 0 0 0 0 0 0 0 
</DataArray>
<DataArray type="Float64" Name="age_conc_immobile" format="ascii">
0.029613722152896978 0.029167872750471363 0.032359343768403409 0.030711646829143138 0.030629177915499718 0.033823514081897793 0.031910746276308501 0.033807579221462748 0.031560466918395015 0.032863381376519687 0.030269226136030829 0.039255257448781555 0.029867956140672593 0.035470704056705112 0.039434044694679364 0.030480049735802796 0.031318168306825718 0.032935583842298534 0.030669614236236688 0.031922111582971639 0.039832655752083036 0.038759636140786854 0.037957879848276567 0.039818389850249492 0.031999072069961228 0.039623708441432606 0.037635623181170808 0.036181250482495923 0.036158768058263374 0.037646931933919187 0.039647801830352304 0.033609194649444001 0.032894672752111664 0.031974942941787106 0.035513618369847941 0.039464067525735808 0.031162313416607947 0.032956739699943331 0.039287284141889298 0.033441447636528024 0.03200235117690732 0.034901650396101949 0.036078790018596311 0.03752555499576244 0.036698469410619036 0.037393441270257385 0.035391853763335229 0.034640908548936658 0.042308405528613591 0.039132193483185876 0.038225261802682438 0.038508931865391824 0.03912926528057302 0.039197117602243481 0.041814997187210212 0.038558913420841279 0.03806021300552126 0.042727641747653818 0.03606282677076994 0.034561855522791375 0.038025759986708971 0.036901718927629466 0.03736487981780192 0.03739422250813642 0.035529646245548746 0.036611208943232221 0.035009792035941401 0.04001387689072522 0.038144843173889123 0.040112177701897407 0.037136301801897115 0.036490653789113377 0.03653833626155651 0.03572097587847544 0.039652088861599544 0.039036835444311843 0.038561172100364006 0.038695780238279874 0.037647939640204936 0.038243010963316074 0.040203422751608285 0.039167062464382868 0.044162828747479496 0.03887040370844428 0.061880169111066086 0.041402939659406751 0.039404864196022141 0.038851608625517717 0.038337983622714442 0.041514483010040841 0.039280168214108908 0.043201191466114557 0.043082049254278186 0.03722855567418433 0.037811103304438959 0.037626043706485937 0.038892549476521744 0.041494929782219123 0.041689325014494162 0.03881036096528527 0.037912558130846249 0.037274209050926106 0.036879741036861077 0.037626125195809573 0.041719252891418236 0.038887232506676715 0.039043515161706288 0.039080196730280056 0.042252654828726192 0.037483486486562037 0.037754546590561433 0.034657862638800489 0.036739546021420044 0.033685042606645337 0.035164039555542703 0.033652394572968564 0.034190045744402389 0.032827164447533523 0.033625061627617019 0.034407265724099759 0.036289955969745637 0.035631796201531972 0.035842972122976213 0.034946667005993026 
</DataArray>
<DataArray type="Float64" Name="U235_conc_immobile" format="ascii">
0.031740457942296345 0.031269468641226268 0.034662719901908765 0.032910938048778364 0.032831123911145517 0.036229450309881867 0.034195274492835145 0.03621249579262624 0.033819638554660511 0.035208266078598234 0.032444202180164722 0.04201064144525718 0.032017606634803089 0.037980544056722243 0.042204008519762276 0.03267002823343379 0.033563362634312546 0.035284961878424094 0.032872081678530882 0.034206530093076448 0.04263467626213277 0.04147911327368823 0.040619568314763224 0.042619529750005075 0.034288801740261901 0.042409036914627385 0.040279507065152778 0.038732476079143756 0.038708585049728642 0.040291526879250528 0.042434633322618626 0.036001775384460102 0.035242241325499024 0.034263301665351097 0.038026184474065937 0.04223591611839804 0.033397549607011141 0.035307417351392902 0.042044683590084911 0.035823723550148484 0.034292376638336043 0.037372020224064925 0.038619144224628837 0.040154658277602825 0.039275758138541117 0.040014318978421733 0.037892364037034498 0.037097033226300535 0.045281703603013201 0.04187777467596631 0.040902474785376591 0.041206626764958156 0.041874255550600384 0.041947382441540067 0.044752980925431826 0.041260414594293519 0.040723601725727879 0.045731816838738004 0.038602494760556029 0.037012685916066143 0.040688467832659468 0.039490873347066011 0.03998215238826084 0.040013134948891124 0.038037812773203644 0.039182376968354457 0.037487034569523209 0.042830936241718139 0.040813720744425755 0.042937362470033852 0.039739459933266622 0.039054358688504126 0.039106523008626208 0.03823975885763696 0.042438351199942603 0.041773913348093605 0.041261362122058359 0.041405575127503189 0.040284872471081305 0.040921328879623561 0.043036336040605402 0.041913956082986648 0.047269397091728262 0.041595561942055652 0.066219066035943602 0.044311031689104191 0.042171234853913525 0.041574250731948953 0.041021747542717105 0.044430501111164838 0.042036906532072774 0.046239268293608249 0.046111609481249427 0.039840189165579208 0.040461531252965963 0.040260708213285583 0.041619490380269603 0.044409236383316134 0.044617733732678924 0.041531688206578828 0.040570654997474996 0.039888956390011554 0.039469838607967503 0.04026569078613141 0.044649763757207223 0.04161432745651425 0.041782225255840473 0.041821890771085564 0.045221569962154623 0.040113948355009116 0.040403959568951833 0.037111642867038414 0.039320716999050154 0.036079434135129783 0.037648436549246482 0.036046385153504168 0.036617202255169255 0.03517017511370088 0.036018370986484652 0.036848396891074157 0.038842941824717869 0.038145076452770682 0.038368743589214167 0.037419187403156695 
</DataArray>
<DataArray type="Float64" Name="rock_density" format="ascii">
1.6000000000000001 1.6000000000000001 1.6000000000000001 1.6000000000000001 1.6000000000000001 1.6000000000000001 1.6000000000000001 1.6000000000000001 1.6000000000000001 1.6000000000000001 1.6000000000000001 1.6000000000000001 1.6000000000000001 1.6000000000000001 1.6000000000000001 1.6000000000000001 1.6000000000000001 1.6000000000000001 1.6000000000000001 1.6000000000000001 1.6000000000000001 1.6000000000000001 1.6000000000000001 1.6000000000000001 1.6000000000000001 1.6000000000000001 1.6000000000000001 1.6000000000000001 1.6000000000000001 1.6000000000000001 1.6000000000000001 1.6000000000000001 1.6000000000000001 1.6000000000000001 1.6000000000000001 1.6000000000000001 1.6000000000000001 1.6000000000000001 1.6000000000000001 1.6000000000000001 1.6000000000000001 1.6000000000000001 1.6000000000000001 1.6000000000000001 1.6000000000000001 1.6000000000000001 1.6000000000000001 1.6000000000000001 1.6000000000000001 1.6000000000000001 1.6000000000000001 1.6000000000000001 1.6000000000000001 1.6000000000000001 1.6000000000000001 1.6000000000000001 1.6000000000000001 1.6000000000000001 1.6000000000000001 1.6000000000000001 1.6000000000000001 1.6000000000000001 1.6000000000000001 1.6000000000000001 1.6000000000000001 1.6000000000000001 1.6000000000000001 1.6000000000000001 1.6000000000000001 1.6000000000000001 1.6000000000000001 1.6000000000000001 1.6000000000000001 1.6000000000000001 1.6000000000000001 1.6000000000000001 1.6000000000000001 1.6000000000000001 1.6000000000000001 1.6000000000000001 1.6000000000000001 1.6000000000000001 1.6000000000000001 1.6000000000000001 1.6000000000000001 1.6000000000000001 1.6000000000000001 1.6000000000000001 1.6000000000000001 1.6000000000000001 1.6000000000000001 1.6000000000000001 1.6000000000000001 1.6000000000000001 1.6000000000000001 1.6000000000000001 1.6000000000000001 1.6000000000000001 1.6000000000000001 1.6000000000000001 1.6000000000000001 1.6000000000000001 1.6000000000000001 1.6000000000000001 1.6000000000000001 1.6000000000000001 1.6000000000000001 1.6000000000000001 1.6000000000000001 1.6000000000000001 1.6000000000000001 1.6000000000000001 1.6000000000000001 1.6000000000000001 1.6000000000000001 1.6000000000000001 1.6000000000000001 1.6000000000000001 1.6000000000000001 1.6000000000000001 1.6000000000000001 1.6000000000000001 1.6000000000000001 1.6000000000000001 
</DataArray>
<DataArray type="UInt32" Name="age_sorption_type" format="ascii">
1 1 1 1 1 1 1 1 1 1 1 1 1 1 1 1 1 1 1 1 1 1 1 1 1 1 1 1 1 1 1 1 1 1 1 1 1 1 1 1 1 1 1 1 1 1 1 1 1 1 1 1 1 1 1 1 1 1 1 1 1 1 1 1 1 1 1 1 1 1 1 1 1 1 1 1 1 1 1 1 1 1 1 1 1 1 1 1 1 1 1 1 1 1 1 1 1 1 1 1 1 1 1 1 1 1 1 1 1 1 1 1 1 1 1 1 1 1 1 1 1 1 1 1 
</DataArray>
<DataArray type="UInt32" Name="U235_sorption_type" format="ascii">
2 2 2 2 2 2 2 2 2 2 2 2 2 2 2 2 2 2 2 2 2 2 2 2 2 2 2 2 2 2 2 2 2 2 2 2 2 2 2 2 2 2 2 2 2 2 2 2 2 2 2 2 2 2 2 2 2 2 2 2 2 2 2 2 2 2 2 2 2 2 2 2 2 2 2 2 2 2 2 2 2 2 2 2 2 2 2 2 2 2 2 2 2 2 2 2 2 2 2 2 2 2 2 2 2 2 2 2 2 2 2 2 2 2 2 2 2 2 2 2 2 2 2 2 
</DataArray>
<DataArray type="Float64" Name="age_distribution_coefficient" format="ascii">
0.050000000000000003 0.050000000000000003 0.050000000000000003 0.050000000000000003 0.050000000000000003 0.050000000000000003 0.050000000000000003 0.050000000000000003 0.050000000000000003 0.050000000000000003 0.050000000000000003 0.050000000000000003 0.050000000000000003 0.050000000000000003 0.050000000000000003 0.050000000000000003 0.050000000000000003 0.050000000000000003 0.050000000000000003 0.050000000000000003 0.050000000000000003 0.050000000000000003 0.050000000000000003 0.050000000000000003 0.050000000000000003 0.050000000000000003 0.050000000000000003 0.050000000000000003 0.050000000000000003 0.050000000000000003 0.050000000000000003 0.050000000000000003 0.050000000000000003 0.050000000000000003 0.050000000000000003 0.050000000000000003 0.050000000000000003 0.050000000000000003 0.050000000000000003 0.050000000000000003 0.050000000000000003 0.050000000000000003 0.050000000000000003 0.050000000000000003 0.050000000000000003 0.050000000000000003 0.050000000000000003 0.050000000000000003 0.050000000000000003 0.050000000000000003 0.050000000000000003 0.050000000000000003 0.050000000000000003 0.050000000000000003 0.050000000000000003 0.050000000000000003 0.050000000000000003 0.050000000000000003 0.050000000000000003 0.050000000000000003 0.050000000000000003 0.050000000000000003 0.050000000000000003 0.050000000000000003 0.050000000000000003 0.050000000000000003 0.050000000000000003 0.050000000000000003 0.050000000000000003 0.050000000000000003 0.050000000000000003 0.050000000000000003 0.050000000000000003 0.050000000000000003 0.050000000000000003 0.050000000000000003 0.050000000000000003 0.050000000000000003 0.050000000000000003 0.050000000000000003 0.050000000000000003 0.050000000000000003 0.050000000000000003 0.050000000000000003 0.050000000000000003 0.050000000000000003 0.050000000000000003 0.050000000000000003 0.050000000000000003 0.050000000000000003 0.050000000000000003 0.050000000000000003 0.050000000000000003 0.050000000000000003 0.050000000000000003 0.050000000000000003 0.050000000000000003 0.050000000000000003 0.050000000000000003 0.050000000000000003 0.050000000000000003 0.050000000000000003 0.050000000000000003 0.050000000000000003 0.050000000000000003 0.050000000000000003 0.050000000000000003 0.050000000000000003 0.050000000000000003 0.050000000000000003 0.050000000000000003 0.050000000000000003 0.050000000000000003 0.050000000000000003 0.050000000000000003 0.050000000000000003 0.050000000000000003 0.050000000000000003 0.050000000000000003 0.050000000000000003 0.050000000000000003 0.050000000000000003 0.050000000000000003 0.050000000000000003 
</DataArray>
<DataArray type="Float64" Name="U235_distribution_coefficient" format="ascii">
0.050000000000000003 0.050000000000000003 0.050000000000000003 0.050000000000000003 0.050000000000000003 0.050000000000000003 0.050000000000000003 0.050000000000000003 0.050000000000000003 0.050000000000000003 0.050000000000000003 0.050000000000000003 0.050000000000000003 0.050000000000000003 0.050000000000000003 0.050000000000000003 0.050000000000000003 0.050000000000000003 0.050000000000000003 0.050000000000000003 0.050000000000000003 0.050000000000000003 0.050000000000000003 0.050000000000000003 0.050000000000000003 0.050000000000000003 0.050000000000000003 0.050000000000000003 0.050000000000000003 0.050000000000000003 0.050000000000000003 0.050000000000000003 0.050000000000000003 0.050000000000000003 0.050000000000000003 0.050000000000000003 0.050000000000000003 0.050000000000000003 0.050000000000000003 0.050000000000000003 0.050000000000000003 0.050000000000000003 0.050000000000000003 0.050000000000000003 0.050000000000000003 0.050000000000000003 0.050000000000000003 0.050000000000000003 0.050000000000000003 0.050000000000000003 0.050000000000000003 0.050000000000000003 0.050000000000000003 0.050000000000000003 0.050000000000000003 0.050000000000000003 0.050000000000000003 0.050000000000000003 0.050000000000000003 0.050000000000000003 0.050000000000000003 0.050000000000000003 0.050000000000000003 0.050000000000000003 0.050000000000000003 0.050000000000000003 0.050000000000000003 0.050000000000000003 0.050000000000000003 0.050000000000000003 0.050000000000000003 0.050000000000000003 0.050000000000000003 0.050000000000000003 0.050000000000000003 0.050000000000000003 0.050000000000000003 0.050000000000000003 0.050000000000000003 0.050000000000000003 0.050000000000000003 0.050000000000000003 0.050000000000000003 0.050000000000000003 0.050000000000000003 0.050000000000000003 0.050000000000000003 0.050000000000000003 0.050000000000000003 0.050000000000000003 0.050000000000000003 0.050000000000000003 0.050000000000000003 0.050000000000000003 0.050000000000000003 0.050000000000000003 0.050000000000000003 0.050000000000000003 0.050000000000000003 0.050000000000000003 0.050000000000000003 0.050000000000000003 0.050000000000000003 0.050000000000000003 0.050000000000000003 0.050000000000000003 0.050000000000000003 0.050000000000000003 0.050000000000000003 0.050000000000000003 0.050000000000000003 0.050000000000000003 0.050000000000000003 0.050000000000000003 0.050000000000000003 0.050000000000000003 0.050000000000000003 0.050000000000000003 0.050000000000000003 0.050000000000000003 0.050000000000000003 0.050000000000000003 0.050000000000000003 0.050000000000000003 
</DataArray>
<DataArray type="Float64" Name="age_isotherm_other" format="ascii">
0 0 0 0 0 0 0 0 0 0 0 0 0 0 0 0 0 0 0 0 0 0 0 0 0 0 0 0 0 0 0 0 0 0 0 0 0 0 0 0 0 0 0 0 0 0 0 0 0 0 0 0 0 0 0 0 0 0 0 0 0 0 0 0 0 0 0 0 0 0 0 0 0 0 0 0 0 0 0 0 0 0 0 0 0 0 0 0 0 0 0 0 0 0 0 0 0 0 0 0 0 0 0 0 0 0 0 0 0 0 0 0 0 0 0 0 0 0 0 0 0 0 0 0 
</DataArray>
<DataArray type="Float64" Name="U235_isotherm_other" format="ascii">
2.5 2.5 2.5 2.5 2.5 2.5 2.5 2.5 2.5 2.5 2.5 2.5 2.5 2.5 2.5 2.5 2.5 2.5 2.5 2.5 2.5 2.5 2.5 2.5 2.5 2.5 2.5 2.5 2.5 2.5 2.5 2.5 2.5 2.5 2.5 2.5 2.5 2.5 2.5 2.5 2.5 2.5 2.5 2.5 2.5 2.5 2.5 2.5 2.5 2.5 2.5 2.5 2.5 2.5 2.5 2.5 2.5 2.5 2.5 2.5 2.5 2.5 2.5 2.5 2.5 2.5 2.5 2.5 2.5 2.5 2.5 2.5 2.5 2.5 2.5 2.5 2.5 2.5 2.5 2.5 2.5 2.5 2.5 2.5 2.5 2.5 2.5 2.5 2.5 2.5 2.5 2.5 2.5 2.5 2.5 2.5 2.5 2.5 2.5 2.5 2.5 2.5 2.5 2.5 2.5 2.5 2.5 2.5 2.5 2.5 2.5 2.5 2.5 2.5 2.5 2.5 2.5 2.5 2.5 2.5 2.5 2.5 2.5 2.5 
</DataArray>
<DataArray type="Float64" Name="age_init_conc_solid" format="ascii">
0 0 0 0 0 0 0 0 0 0 0 0 0 0 0 0 0 0 0 0 0 0 0 0 0 0 0 0 0 0 0 0 0 0 0 0 0 0 0 0 0 0 0 0 0 0 0 0 0 0 0 0 0 0 0 0 0 0 0 0 0 0 0 0 0 0 0 0 0 0 0 0 0 0 0 0 0 0 0 0 0 0 0 0 0 0 0 0 0 0 0 0 0 0 0 0 0 0 0 0 0 0 0 0 0 0 0 0 0 0 0 0 0 0 0 0 0 0 0 0 0 0 0 0 
</DataArray>
<DataArray type="Float64" Name="U235_init_conc_solid" format="ascii">
0 0 0 0 0 0 0 0 0 0 0 0 0 0 0 0 0 0 0 0 0 0 0 0 0 0 0 0 0 0 0 0 0 0 0 0 0 0 0 0 0 0 0 0 0 0 0 0 0 0 0 0 0 0 0 0 0 0 0 0 0 0 0 0 0 0 0 0 0 0 0 0 0 0 0 0 0 0 0 0 0 0 0 0 0 0 0 0 0 0 0 0 0 0 0 0 0 0 0 0 0 0 0 0 0 0 0 0 0 0 0 0 0 0 0 0 0 0 0 0 0 0 0 0 
</DataArray>
<DataArray type="Float64" Name="age_conc_solid" format="ascii">