<?xml version="1.0"?>
<VTKFile type="UnstructuredGrid" version="0.1" byte_order="LittleEndian">
<UnstructuredGrid>
<Piece NumberOfPoints="69" NumberOfCells="124">
<Points>
<DataArray type="Float64" NumberOfComponents="3" format="ascii">
0 1 0 1 1 0 1 0 0 0 0 0 0.25 -0 0 0 0.25 0 0.5 0.5 -0 0.75 1 0 0.6875 0.875 0 0.625 0.75 0 0.5625 0.625 0 0.1249999999997599 0.31249999999987998 0 0.24999999999960859 0.37499999999980432 0 0.37499999999973488 0.43749999999986738 0 0.43750000000006939 0.37500000000013878 0 0.37500000000027761 0.25000000000055511 0 0.31250000000020822 0.12500000000041631 0 1 0.83333333333356463 0 1 0.66666666666736052 0 1 0.50000000000138767 0 1 0.33333333333448978 0 1 0.16666666666736049 0 0.875 1 0 0.56250000000086742 1 0 0.37500000000069389 1 0 0.1875000000005205 1 0 0 0.81250000000104083 0 0 0.62500000000069389 0 0 0.43750000000034689 0 0 0.12500000000034689 0 0.1249999999997554 0 0 0.43749999999913258 0 0 0.62499999999895905 0 0 0.81249999999947953 0 0 0.27987960212930818 0.83442741470570525 0 0.26452443700674649 0.51563531581639865 0 0.4139414069912184 0.60563252640100373 0 0.44927105396715372 0.85565124085155886 0 0.27589467050686478 0.66058853156435704 0 0.13900789599611679 0.72618316107059999 0 0.14929124186975251 0.44582793568106382 0 0.50145856933078625 0.73674663046504862 0 0.13928587515912139 0.57339806105677438 0 0.38136204680495073 0.74038592213831234 0 0.12710107136012311 0.87094806618203435 0 0.56777512057187585 0.8470224641095303 0 0.56986707178436635 0.37762093650871992 0 0.71259747807844409 0.63846691315701831 0 0.86087286690217635 0.25206523597959418 0 0.85787927391517405 0.753532520882502 0 0.54475767668582953 0.1431838882066932 0 0.71508993406183785 0.15715956854777599 0 0.86127466977819722 0.57948076978797636 0 0.75338430262320943 0.49294443423175599 0 0.80552984491000901 0.88711122872127413 0 0.86569408477091048 0.40983673916766611 0 0.71826039492840632 0.34564020717216182 0 0.63236534182377013 0.50296756406332266 0 0.61108462585082757 0.25750599582343231 0 0.49457493289300231 0.26251703776555491 0 0.73857795170433571 0.77736788564284653 0 0.87698901648812122 0.1160638338657984 0 0.90637953422180084 0.90208583328057301 0 0.4287911518546233 0.15455445427966699 0 0.2403886547178353 0.24188814792673841 0 0.18402761812864499 0.1117324051466445 0 0.33819444444448321 0.33819444444456342 0 0.1008171452988615 0.18885703697250469 0 0.084352422163911631 0.086451712656266194 0 
</DataArray>
</Points>
<Cells>
<DataArray type="UInt32" Name="connectivity" format="ascii">
7 8 8 9 9 10 10 6 5 11 11 12 12 13 13 6 6 14 14 15 15 16 16 4 13 36 35 13 6 36 5 11 28 8 7 23 36 38 35 34 39 38 28 40 42 24 37 23 28 42 27 24 34 37 24 25 34 34 38 43 23 37 45 8 23 45 10 36 6 28 11 40 0 26 44 13 35 12 25 0 44 26 27 39 12 40 11 38 39 42 37 34 43 34 44 39 10 41 36 25 44 34 12 35 40 35 38 42 10 9 41 36 41 43 8 45 9 9 45 41 27 42 39 36 43 38 26 39 44 35 42 40 37 41 45 37 43 41 46 56 57 53 57 56 49 47 52 4 31 16 49 60 47 52 55 19 51 48 56 52 53 55 31 32 50 54 49 62 17 62 49 17 49 18 21 20 48 32 51 50 33 51 32 18 49 52 1 62 17 53 56 55 18 52 19 52 47 53 16 31 63 51 61 48 20 19 55 14 46 6 51 56 58 10 47 9 55 56 48 8 54 7 22 7 54 20 55 48 33 61 51 33 2 61 31 50 63 6 46 57 21 61 2 10 57 47 46 58 56 51 58 50 53 47 57 14 59 46 9 47 60 10 6 57 54 60 49 8 60 54 15 59 14 1 22 62 21 48 61 8 9 60 46 59 58 16 63 15 15 63 59 50 59 63 22 54 62 50 58 59 14 6 13 11 67 64 4 65 30 4 16 65 13 12 66 15 14 66 65 64 67 16 15 64 12 11 64 15 66 64 12 64 66 11 5 67 16 64 65 14 13 66 3 68 29 3 30 68 29 67 5 30 65 68 29 68 67 67 68 65 
</DataArray>
<DataArray type="UInt32" Name="offsets" format="ascii">
2 4 6 8 10 12 14 16 18 20 22 24 27 30 33 36 39 42 45 48 51 54 57 60 63 66 69 72 75 78 81 84 87 90 93 96 99 102 105 108 111 114 117 120 123 126 129 132 135 138 141 144 147 150 153 156 159 162 165 168 171 174 177 180 183 186 189 192 195 198 201 204 207 210 213 216 219 222 225 228 231 234 237 240 243 246 249 252 255 258 261 264 267 270 273 276 279 282 285 288 291 294 297 300 303 306 309 312 315 318 321 324 327 330 333 336 339 342 345 348 351 354 357 360 
</DataArray>
<DataArray type="UInt32" Name="types" format="ascii">
3 3 3 3 3 3 3 3 3 3 3 3 5 5 5 5 5 5 5 5 5 5 5 5 5 5 5 5 5 5 5 5 5 5 5 5 5 5 5 5 5 5 5 5 5 5 5 5 5 5 5 5 5 5 5 5 5 5 5 5 5 5 5 5 5 5 5 5 5 5 5 5 5 5 5 5 5 5 5 5 5 5 5 5 5 5 5 5 5 5 5 5 5 5 5 5 5 5 5 5 5 5 5 5 5 5 5 5 5 5 5 5 5 5 5 5 5 5 5 5 5 5 5 5 
</DataArray>
</Cells>
<CellData Scalars="age_diffusion_rate_immobile,U235_diffusion_rate_immobile,age_init_conc_immobile,U235_init_conc_immobile,age_conc_immobile,U235_conc_immobile,rock_density,age_sorption_type,U235_sorption_type,age_distribution_coefficient,U235_distribution_coefficient,age_isotherm_other,U235_isotherm_other,age_init_conc_solid,U235_init_conc_solid,age_conc_solid,U235_conc_solid,age_conc_immobile_solid,U235_conc_immobile_solid,porosity,age_conc,U235_conc," Vectors="" Tensors="">
<DataArray type="Float64" Name="age_diffusion_rate_immobile" format="ascii">
0.02 0.02 0.02 0.02 0.02 0.02 0.02 0.02 0.02 0.02 0.02 0.02 0.02 0.02 0.02 0.02 0.02 0.02 0.02 0.02 0.02 0.02 0.02 0.02 0.02 0.02 0.02 0.02 0.02 0.02 0.02 0.02 0.02 0.02 0.02 0.02 0.02 0.02 0.02 0.02 0.02 0.02 0.02 0.02 0.02 0.02 0.02 0.02 0.02 0.02 0.02 0.02 0.02 0.02 0.02 0.02 0.02 0.02 0.02 0.02 0.02 0.02 0.02 0.02 0.02 0.02 0.02 0.02 0.02 0.02 0.02 0.02 0.02 0.02 0.02 0.02 0.02 0.02 0.02 0.02 0.02 0.02 0.02 0.02 0.02 0.02 0.02 0.02 0.02 0.02 0.02 0.02 0.02 0.02 0.02 0.02 0.02 0.02 0.02 0.02 0.02 0.02 0.02 0.02 0.02 0.02 0.02 0.02 0.02 0.02 0.02 0.02 0.02 0.02 0.02 0.02 0.02 0.02 0.02 0.02 0.02 0.02 0.02 0.02 
</DataArray>
<DataArray type="Float64" Name="U235_diffusion_rate_immobile" format="ascii">
0.02 0.02 0.02 0.02 0.02 0.02 0.02 0.02 0.02 0.02 0.02 0.02 0.02 0.02 0.02 0.02 0.02 0.02 0.02 0.02 0.02 0.02 0.02 0.02 0.02 0.02 0.02 0.02 0.02 0.02 0.02 0.02 0.02 0.02 0.02 0.02 0.02 0.02 0.02 0.02 0.02 0.02 0.02 0.02 0.02 0.02 0.02 0.02 0.02 0.02 0.02 0.02 0.02 0.02 0.02 0.02 0.02 0.02 0.02 0.02 0.02 0.02 0.02 0.02 0.02 0.02 0.02 0.02 0.02 0.02 0.02 0.02 0.02 0.02 0.02 0.02 0.02 0.02 0.02 0.02 0.02 0.02 0.02 0.02 0.02 0.02 0.02 0.02 0.02 0.02 0.02 0.02 0.02 0.02 0.02 0.02 0.02 0.02 0.02 0.02 0.02 0.02 0.02 0.02 0.02 0.02 0.02 0.02 0.02 0.02 0.02 0.02 0.02 0.02 0.02 0.02 0.02 0.02 0.02 0.02 0.02 0.02 0.02 0.02 
</DataArray>
<DataArray type="Float64" Name="age_init_conc_immobile" format="ascii">
0 0 0 0 0 0 0 0 0 0 0 0 0 0 0 0 0 0 0 0 0 0 0 0 0 0 0 0 0 0 0 0 0 0 0 0 0 0 0 0 0 0 0 0 0 0 0 0 0 0 0 0 0 0 0 0 0 0 0 0 0 0 0 0 0 0 0 0 0 0 0 0 0 0 0 0 0 0 0 0 0 0 0 0 0 0 0 0 0 0 0 0 0 0 0 0 0 0 0 0 0 0 0 0 0 0 0 0 0 0 0 0 0 0 0 0 0 0 0 0 0 0 0 0 
</DataArray>
<DataArray type="Float64" Name="U235_init_conc_immobile" format="ascii">
0 0 0 0 0 0 0 0 0 0 0 0 0 0 0 0 0 0 0 0 0 0 0 0 0 0 0 0 0 0 0 0 0 0 0 0 0 0 0 0 0 0 0 0 0 0 0 0 0 0 0 0 0 0 0 0 0 0 0 0 0 0 0 0 0 0 0 0 0 0 0 0 0 0 0 0 0 0 0 0 0 0 0 0 0 0 0 0 0 0 0 0 0 0 0 0 0 0 0 0 0 0 0 0 0 0 0 0 0 0 0 0 0 0 0 0 0 0 0 0 0 0 0 0 
</DataArray>
<DataArray type="Float64" Name="age_conc_immobile" format="ascii">
0.037855984826526107 0.026565073779356702 0.026477087752621958 0.026382096150316302 0.02568030140782649 0.025851031190358181 0.026028673064757403 0.026207282122209741 0.026192895661453885 0.026004273278990443 0.025820533900600903 0.025647700831248198 0.020991744801691092 0.021972148997501235 0.017514218770510164 0.028502723554703076 0.022504500926326606 0.023806039221192527 0.019847511043277428 0.027670856669079178 0.021320253271740284 0.025558250920608427 0.027073213927567483 0.024427762495605979 0.025416680957957054 0.026009993453680786 0.023054697547591482 0.018375876947042794 0.025480114356135748 0.020022333985539723 0.027354325633479233 0.02392086615604631 0.018349426940881489 0.0231224285588006 0.024943814092979164 0.024874698941056456 0.023826450431348848 0.025473527168089809 0.019291493048482641 0.021826754385668872 0.024557342384462322 0.023796741823027975 0.025543083027066416 0.025089191354553435 0.022503216759962977 0.023338233563158471 0.024601336481482085 0.02106853263687973 0.024958215318842032 0.024474110900141694 0.022040642529127918 0.022695740515149058 0.02419758201071933 0.016173021807157812 0.024043361127416511 0.025151811416292122 0.023268507164564911 0.024282049560585106 0.020068665968958427 0.025230271314112804 0.025643691593482384 0.026877171846152893 0.02696356675160921 0.021051663190012403 0.023129787132223616 0.025238883661545253 0.027951262471182035 0.023658402071921512 0.026819826710097382 0.02362810539063244 0.016995921001887165 0.024124014961730771 0.026943635432849281 0.020024915435999737 0.022240412057935588 0.022914214180062568 0.024000839826666901 0.025217918270310228 0.026821721830882137 0.025229553503157889 0.023860660438076574 0.025424809756386529 0.018278190768951423 0.020819124876171158 0.027292888439956857 0.022145626668241377 0.021353938685605364 0.021562370634458466 0.022947834919071389 0.019210248039551191 0.023550456079081166 0.021431560676672158 0.024734691304635782 0.024615888124239278 0.018363052558661455 0.027881508276622776 0.025381372448064647 0.024037958897951111 0.020590490979905875 0.016803990087628992 0.017664256384407481 0.019314186786253743 0.025762600898610565 0.020043383531549813 0.025170301063713062 0.020234688816489807 0.017684121523222216 0.019252756517916109 0.024080634450077167 0.024069085450832563 0.018292763632967092 0.021898180994298317 0.021941633225142768 0.022601073293092574 0.022623939586436145 0.019347390146775407 0.020218477829755645 0.024391226310081556 0.01576220235549796 0.015379715968705701 0.018351966878192846 0.016477461495887882 0.016859161035791763 0.01699048928521988 
</DataArray>
<DataArray type="Float64" Name="U235_conc_immobile" format="ascii">
0.039013801810758364 0.027422518050975685 0.0273304446289209 0.027231218667494211 0.026498633213937032 0.026676789479366692 0.026862136223379979 0.027048570233894956 0.027033817027109951 0.026837102453900287 0.026645492142333922 0.026465176754631656 0.021671218502250008 0.022676888249409742 0.018094812590007277 0.029408820473506125 0.023223296263192889 0.024560292349426725 0.020496313435677965 0.028551778145284885 0.022009507748539263 0.026372624256979265 0.027934730400974276 0.025200458528900675 0.02622459797008855 0.026842398665840109 0.023786602176599572 0.018981945737830439 0.026291977286536754 0.020675441778052781 0.028224442257982596 0.024678879322354019 0.018954550780076185 0.023857943941770755 0.025734687176937329 0.02566338805943922 0.024578864301966676 0.026284807924053608 0.019924024005688878 0.022528767003114323 0.025332116449500678 0.024548544750951241 0.026355637366015341 0.025883414772138912 0.023223139395339498 0.02407818415657801 0.025380761133196997 0.021750867663716273 0.025748051365520802 0.025246533348758076 0.022749412805980727 0.023421621036605663 0.02496552735500079 0.016713934158186457 0.024803135220595383 0.025951811594707854 0.02401061660668757 0.025053626362233052 0.02072446200107796 0.026030932150120166 0.026461354183967924 0.027732161398243083 0.027820921389419682 0.021734342032811133 0.023867880083799031 0.026041435210526192 0.028840802733284238 0.0244107615047621 0.027672589860726633 0.02437887915920578 0.017561615791067846 0.024892491769514285 0.02780040611735745 0.020679324458798626 0.022954841307240535 0.023643748091143123 0.02476471845182324 0.026019576160473904 0.027675093647185761 0.026032333950772431 0.024620510046433886 0.02623471952146831 0.018882564919262407 0.021495394675470493 0.02816063533096488 0.022856098918083958 0.022044837116391665 0.022258581688537785 0.023680022085603908 0.019841389280996564 0.024296673816546786 0.022123830104259383 0.025516681577173426 0.025395573241968533 0.01896925797861447 0.028768920779984372 0.026189526467500716 0.024799087716853793 0.021261035744888107 0.017363435676534148 0.018249631475210387 0.019948948275664298 0.026584836334450197 0.020698815504435628 0.025971449110766019 0.020897435000518945 0.018278986204230505 0.019890636987070196 0.02484789490821188 0.02483604099688674 0.018901012142099709 0.022607424427700504 0.02265206782725274 0.023326169954045746 0.023349641268114247 0.019988016354418225 0.020880784393143483 0.025164904145930776 0.016301065529497165 0.015907269566273613 0.018968049274808378 0.017036415761290176 0.017429774386731271 0.017561492537334876 
</DataArray>
<DataArray type="Float64" Name="rock_density" format="ascii">
1.3999999999999999 1.3999999999999999 1.3999999999999999 1.3999999999999999 1.3999999999999999 1.3999999999999999 1.3999999999999999 1.3999999999999999 1.3999999999999999 1.3999999999999999 1.3999999999999999 1.3999999999999999 1.3999999999999999 1.3999999999999999 1.3999999999999999 1.3999999999999999 1.3999999999999999 1.3999999999999999 1.3999999999999999 1.3999999999999999 1.3999999999999999 1.3999999999999999 1.3999999999999999 1.3999999999999999 1.3999999999999999 1.3999999999999999 1.3999999999999999 1.3999999999999999 1.3999999999999999 1.3999999999999999 1.3999999999999999 1.3999999999999999 1.3999999999999999 1.3999999999999999 1.3999999999999999 1.3999999999999999 1.3999999999999999 1.3999999999999999 1.3999999999999999 1.3999999999999999 1.3999999999999999 1.3999999999999999 1.3999999999999999 1.3999999999999999 1.3999999999999999 1.3999999999999999 1.3999999999999999 1.3999999999999999 1.3999999999999999 1.3999999999999999 1.3999999999999999 1.3999999999999999 1.3999999999999999 1.3999999999999999 1.3999999999999999 1.3999999999999999 1.3999999999999999 1.3999999999999999 1.3999999999999999 1.3999999999999999 1.3999999999999999 1.3999999999999999 1.3999999999999999 1.3999999999999999 1.3999999999999999 1.3999999999999999 1.3999999999999999 1.3999999999999999 1.3999999999999999 1.3999999999999999 1.3999999999999999 1.3999999999999999 1.3999999999999999 1.3999999999999999 1.3999999999999999 1.3999999999999999 1.3999999999999999 1.3999999999999999 1.3999999999999999 1.3999999999999999 1.3999999999999999 1.3999999999999999 1.3999999999999999 1.3999999999999999 1.3999999999999999 1.3999999999999999 1.3999999999999999 1.3999999999999999 1.3999999999999999 1.3999999999999999 1.3999999999999999 1.3999999999999999 1.3999999999999999 1.3999999999999999 1.3999999999999999 1.3999999999999999 1.3999999999999999 1.3999999999999999 1.3999999999999999 1.3999999999999999 1.3999999999999999 1.3999999999999999 1.3999999999999999 1.3999999999999999 1.3999999999999999 1.3999999999999999 1.3999999999999999 1.3999999999999999 1.3999999999999999 1.3999999999999999 1.3999999999999999 1.3999999999999999 1.3999999999999999 1.3999999999999999 1.3999999999999999 1.3999999999999999 1.3999999999999999 1.3999999999999999 1.3999999999999999 1.3999999999999999 1.3999999999999999 1.3999999999999999 1.3999999999999999 1.3999999999999999 
</DataArray>
<DataArray type="UInt32" Name="age_sorption_type" format="ascii">
1 1 1 1 1 1 1 1 1 1 1 1 1 1 1 1 1 1 1 1 1 1 1 1 1 1 1 1 1 1 1 1 1 1 1 1 1 1 1 1 1 1 1 1 1 1 1 1 1 1 1 1 1 1 1 1 1 1 1 1 1 1 1 1 1 1 1 1 1 1 1 1 1 1 1 1 1 1 1 1 1 1 1 1 1 1 1 1 1 1 1 1 1 1 1 1 1 1 1 1 1 1 1 1 1 1 1 1 1 1 1 1 1 1 1 1 1 1 1 1 1 1 1 1 
</DataArray>
<DataArray type="UInt32" Name="U235_sorption_type" format="ascii">
2 2 2 2 2 2 2 2 2 2 2 2 2 2 2 2 2 2 2 2 2 2 2 2 2 2 2 2 2 2 2 2 2 2 2 2 2 2 2 2 2 2 2 2 2 2 2 2 2 2 2 2 2 2 2 2 2 2 2 2 2 2 2 2 2 2 2 2 2 2 2 2 2 2 2 2 2 2 2 2 2 2 2 2 2 2 2 2 2 2 2 2 2 2 2 2 2 2 2 2 2 2 2 2 2 2 2 2 2 2 2 2 2 2 2 2 2 2 2 2 2 2 2 2 
</DataArray>
<DataArray type="Float64" Name="age_distribution_coefficient" format="ascii">
0.029999999999999999 0.029999999999999999 0.029999999999999999 0.029999999999999999 0.029999999999999999 0.029999999999999999 0.029999999999999999 0.029999999999999999 0.029999999999999999 0.029999999999999999 0.029999999999999999 0.029999999999999999 0.029999999999999999 0.029999999999999999 0.029999999999999999 0.029999999999999999 0.029999999999999999 0.029999999999999999 0.029999999999999999 0.029999999999999999 0.029999999999999999 0.029999999999999999 0.029999999999999999 0.029999999999999999 0.029999999999999999 0.029999999999999999 0.029999999999999999 0.029999999999999999 0.029999999999999999 0.029999999999999999 0.029999999999999999 0.029999999999999999 0.029999999999999999 0.029999999999999999 0.029999999999999999 0.029999999999999999 0.029999999999999999 0.029999999999999999 0.029999999999999999 0.029999999999999999 0.029999999999999999 0.029999999999999999 0.029999999999999999 0.029999999999999999 0.029999999999999999 0.029999999999999999 0.029999999999999999 0.029999999999999999 0.029999999999999999 0.029999999999999999 0.029999999999999999 0.029999999999999999 0.029999999999999999 0.029999999999999999 0.029999999999999999 0.029999999999999999 0.029999999999999999 0.029999999999999999 0.029999999999999999 0.029999999999999999 0.029999999999999999 0.029999999999999999 0.029999999999999999 0.029999999999999999 0.029999999999999999 0.029999999999999999 0.029999999999999999 0.029999999999999999 0.029999999999999999 0.029999999999999999 0.029999999999999999 0.029999999999999999 0.029999999999999999 0.029999999999999999 0.029999999999999999 0.029999999999999999 0.029999999999999999 0.029999999999999999 0.029999999999999999 0.029999999999999999 0.029999999999999999 0.029999999999999999 0.029999999999999999 0.029999999999999999 0.029999999999999999 0.029999999999999999 0.029999999999999999 0.029999999999999999 0.029999999999999999 0.029999999999999999 0.029999999999999999 0.029999999999999999 0.029999999999999999 0.029999999999999999 0.029999999999999999 0.029999999999999999 0.029999999999999999 0.029999999999999999 0.029999999999999999 0.029999999999999999 0.029999999999999999 0.029999999999999999 0.029999999999999999 0.029999999999999999 0.029999999999999999 0.029999999999999999 0.029999999999999999 0.029999999999999999 0.029999999999999999 0.029999999999999999 0.029999999999999999 0.029999999999999999 0.029999999999999999 0.029999999999999999 0.029999999999999999 0.029999999999999999 0.029999999999999999 0.029999999999999999 0.029999999999999999 0.029999999999999999 0.029999999999999999 0.029999999999999999 0.029999999999999999 0.029999999999999999 
</DataArray>
<DataArray type="Float64" Name="U235_distribution_coefficient" format="ascii">
0.029999999999999999 0.029999999999999999 0.029999999999999999 0.029999999999999999 0.029999999999999999 0.029999999999999999 0.029999999999999999 0.029999999999999999 0.029999999999999999 0.029999999999999999 0.029999999999999999 0.029999999999999999 0.029999999999999999 0.029999999999999999 0.029999999999999999 0.029999999999999999 0.029999999999999999 0.029999999999999999 0.029999999999999999 0.029999999999999999 0.029999999999999999 0.029999999999999999 0.029999999999999999 0.029999999999999999 0.029999999999999999 0.029999999999999999 0.029999999999999999 0.029999999999999999 0.029999999999999999 0.029999999999999999 0.029999999999999999 0.029999999999999999 0.029999999999999999 0.029999999999999999 0.029999999999999999 0.029999999999999999 0.029999999999999999 0.029999999999999999 0.029999999999999999 0.029999999999999999 0.029999999999999999 0.029999999999999999 0.029999999999999999 0.029999999999999999 0.029999999999999999 0.029999999999999999 0.029999999999999999 0.029999999999999999 0.029999999999999999 0.029999999999999999 0.029999999999999999 0.029999999999999999 0.029999999999999999 0.029999999999999999 0.029999999999999999 0.029999999999999999 0.029999999999999999 0.029999999999999999 0.029999999999999999 0.029999999999999999 0.029999999999999999 0.029999999999999999 0.029999999999999999 0.029999999999999999 0.029999999999999999 0.029999999999999999 0.029999999999999999 0.029999999999999999 0.029999999999999999 0.029999999999999999 0.029999999999999999 0.029999999999999999 0.029999999999999999 0.029999999999999999 0.029999999999999999 0.029999999999999999 0.029999999999999999 0.029999999999999999 0.029999999999999999 0.029999999999999999 0.029999999999999999 0.029999999999999999 0.029999999999999999 0.029999999999999999 0.029999999999999999 0.029999999999999999 0.029999999999999999 0.029999999999999999 0.029999999999999999 0.029999999999999999 0.029999999999999999 0.029999999999999999 0.029999999999999999 0.029999999999999999 0.029999999999999999 0.029999999999999999 0.029999999999999999 0.029999999999999999 0.029999999999999999 0.029999999999999999 0.029999999999999999 0.029999999999999999 0.029999999999999999 0.029999999999999999 0.029999999999999999 0.029999999999999999 0.029999999999999999 0.029999999999999999 0.029999999999999999 0.029999999999999999 0.029999999999999999 0.029999999999999999 0.029999999999999999 0.029999999999999999 0.029999999999999999 0.029999999999999999 0.029999999999999999 0.029999999999999999 0.029999999999999999 0.029999999999999999 0.029999999999999999 0.029999999999999999 0.029999999999999999 0.029999999999999999 
</DataArray>
<DataArray type="Float64" Name="age_isotherm_other" format="ascii">
0 0 0 0 0 0 0 0 0 0 0 0 0 0 0 0 0 0 0 0 0 0 0 0 0 0 0 0 0 0 0 0 0 0 0 0 0 0 0 0 0 0 0 0 0 0 0 0 0 0 0 0 0 0 0 0 0 0 0 0 0 0 0 0 0 0 0 0 0 0 0 0 0 0 0 0 0 0 0 0 0 0 0 0 0 0 0 0 0 0 0 0 0 0 0 0 0 0 0 0 0 0 0 0 0 0 0 0 0 0 0 0 0 0 0 0 0 0 0 0 0 0 0 0 
</DataArray>
<DataArray type="Float64" Name="U235_isotherm_other" format="ascii">
1.5 1.5 1.5 1.5 1.5 1.5 1.5 1.5 1.5 1.5 1.5 1.5 1.5 1.5 1.5 1.5 1.5 1.5 1.5 1.5 1.5 1.5 1.5 1.5 1.5 1.5 1.5 1.5 1.5 1.5 1.5 1.5 1.5 1.5 1.5 1.5 1.5 1.5 1.5 1.5 1.5 1.5 1.5 1.5 1.5 1.5 1.5 1.5 1.5 1.5 1.5 1.5 1.5 1.5 1.5 1.5 1.5 1.5 1.5 1.5 1.5 1.5 1.5 1.5 1.5 1.5 1.5 1.5 1.5 1.5 1.5 1.5 1.5 1.5 1.5 1.5 1.5 1.5 1.5 1.5 1.5 1.5 1.5 1.5 1.5 1.5 1.5 1.5 1.5 1.5 1.5 1.5 1.5 1.5 1.5 1.5 1.5 1.5 1.5 1.5 1.5 1.5 1.5 1.5 1.5 1.5 1.5 1.5 1.5 1.5 1.5 1.5 1.5 1.5 1.5 1.5 1.5 1.5 1.5 1.5 1.5 1.5 1.5 1.5 
</DataArray>
<DataArray type="Float64" Name="age_init_conc_solid" format="ascii">
0 0 0 0 0 0 0 0 0 0 0 0 0 0 0 0 0 0 0 0 0 0 0 0 0 0 0 0 0 0 0 0 0 0 0 0 0 0 0 0 0 0 0 0 0 0 0 0 0 0 0 0 0 0 0 0 0 0 0 0 0 0 0 0 0 0 0 0 0 0 0 0 0 0 0 0 0 0 0 0 0 0 0 0 0 0 0 0 0 0 0 0 0 0 0 0 0 0 0 0 0 0 0 0 0 0 0 0 0 0 0 0 0 0 0 0 0 0 0 0 0 0 0 0 
</DataArray>
<DataArray type="Float64" Name="U235_init_conc_solid" format="ascii">
0 0 0 0 0 0 0 0 0 0 0 0 0 0 0 0 0 0 0 0 0 0 0 0 0 0 0 0 0 0 0 0 0 0 0 0 0 0 0 0 0 0 0 0 0 0 0 0 0 0 0 0 0 0 0 0 0 0 0 0 0 0 0 0 0 0 0 0 0 0 0 0 0 0 0 0 0 0 0 0 0 0 0 0 0 0 0 0 0 0 0 0 0 0 0 0 0 0 0 0 0 0 0 0 0 0 0 0 0 0 0 0 0 0 0 0 0 0 0 0 0 0 0 0 
</DataArray>
<DataArray type="Float64" Name="age_conc_solid" format="ascii">
61.427550764707881 0.029995294996459289 0.029990414870368118 0.029985247615415548 0.029946573976472761 0.02995601051065936 0.029965730131301029 0.029975536140529297 0.029975074484151411 0.029964992122291964 0.029955123619026369 0.029945650244633172 0.029749463521583683 0.029783611663904658 0.029636108088029748 11.894427980275339 0.029806805723510691 0.029875488850949882 0.029715651006335667 8.2830188698464191 0.029775907672896985 0.029965839064383663 6.353684679195708 0.029903016886468192 0.029948585112002778 0.029981488917045298 0.029826815672574107 0.029665195240883135 0.029972754444618541 0.029716550531038246 7.6181157146253717 0.029892481604020252 0.029662452386524891 0.029843933567245764 0.029930798288195625 0.029942317763964294 0.029862427117295288 0.029975111317265588 0.029693353676851223 0.029784032026611128 0.029899988139202346 0.029861671259302582 0.029955040104268877 0.029929418192006074 0.029820707358111695 0.029842268510966562 0.02992692346697658 0.029756593896811165 0.029922876982945396 0.029896329248172031 0.029815564083919121 0.029841942139597268 0.02990623534710278 0.029611651590201026 0.029880254727924695 0.029967526282802765 0.029874306323078383 0.029920860473849901 0.029750629684473191 0.02994388057071069 0.029966708907441165 5.7172533432942441 6.3792805016822784 0.029785891777659605 0.029867629744025587 0.029966697767285937 9.4427694298371581 0.029890773367857885 5.8992736568439756 0.029878559435473195 0.029641855923489956 0.029915053143871252 6.3186337794792369 0.029736215268750574 0.029830697703778539 0.029838307641551411 0.02990813977854612 0.029965245447756458 5.3876962738707466 0.029969228752356827 0.029901197968725337 0.029973422564785669 0.029687199239236843 0.029762868834306726 7.6203327536361263 0.029808474962668145 0.029789749131902292 0.029804217519736689 0.029848110275921668 0.029710615857093354 0.029866878828428822 0.029781799589551707 0.029916414836859299 0.029929501267879952 0.029683558089282677 9.1467247461808103 0.02997684637519292 0.029899779121691904 0.029762784367030694 0.029633218220802563 0.029661878097026476 0.029721244154535333 0.029974280977960337 0.029745461796201269 0.02991834996238436 0.029680959147056724 0.029693332917543933 0.029561785317166626 0.0298636164300289 0.02986328083511585 0.029537998664896134 0.029766360601394103 0.029768682484490053 0.029796389282397064 0.029797373764663883 0.029560633583315798 0.02967922111295548 0.029876929121534741 0.029506906606236848 0.029243799361483504 0.035498543627035452 0.029451802910030706 0.029677100675864647 0.029412286727451477 
</DataArray>
<DataArray type="Float64" Name="U235_conc_solid" format="ascii">
61.427420206274739 0.029992948891886608 0.0299856357517874 0.029977892694902683 0.029919953330745219 0.029934089107912433 0.029948650583984899 0.029963341845444406 0.029962649527806823 0.029947542937010758 0.029932755374889045 0.029918560899058914 0.029625097691540838 0.0296761688569749 0.029454350717483022 11.894412748665765 0.029710842731930445 0.029813550076699551 0.029574508864751516 8.2830543510095982 0.029664601087760957 0.029948812884150904 6.3540577532247946 0.029854744373070678 0.029922969765221942 0.029972260469070058 0.029740757474895591 0.029498509991863368 0.029959173001810932 0.029575824908612151 7.6186063361927614 0.029838976245492907 0.029494444313713907 0.029766349509379654 0.029896332928660643 0.029913582377077658 0.029794013386892759 0.029962704135582031 0.029541011037952054 0.029676799964590276 0.029850213678728043 0.029792882616077918 0.029932638129520392 0.029894268749150625 0.02973161730494223 0.029763862830554499 0.029890531045504036 0.029635792129552824 0.029884474830707556 0.029844737452594451 0.029723917592650823 0.02976336371937132 0.029859557883919554 0.029416007440552824 0.029820682621225583 0.02995133975260451 0.029811768500187998 0.029881450020374078 0.029626425936196212 0.029915923881707926 0.029950116154253456 5.7176607771064312 6.3803477189248552 0.029679411285951644 0.029801754134559499 0.029950098670112495 9.4427753549052245 0.029836415063798086 5.9003490218789079 0.029818140981816409 0.029462643383053124 0.029872747887457276 6.3197946335414965 0.029605311370232226 0.02974652191676903 0.029757937948676684 0.029862405046327298 0.029947922907131126 5.3880054257007517 0.029953890438184642 0.029852005103971666 0.029960173911689245 0.029531350476861444 0.029645162146714438 7.6211407093530266 0.029713334086734808 0.029685317933793431 0.029706900127319646 0.029772591279602158 0.029566976846894168 0.029800669998089457 0.029673463476667584 0.029874800164920012 0.029894390017329617 0.029526359346406163 9.1467358886981796 0.029965303622425669 0.02984989705902457 0.029644989575255649 0.029450018675173543 0.029493613552976243 0.029582737944869004 0.02996146052108787 0.029619040607204838 0.029877688306401699 0.029517338119140719 0.029505186696844401 0.029328999554008108 0.029795713941650166 0.029795204535323364 0.029294087014702534 0.02964857445574565 0.029652187176468624 0.029694701119964341 0.029696225676314393 0.029327038506967797 0.0295145606968036 0.029815681888792835 0.029215956253517538 0.028814522314118886 0.034587598853300178 0.029138394684897605 0.029493575072580866 0.029097073231215135 
</DataArray>
<DataArray type="Float64" Name="age_conc_immobile_solid" format="ascii">