<?xml version="1.0"?>
<VTKFile type="UnstructuredGrid" version="0.1" byte_order="LittleEndian">
<UnstructuredGrid>
<Piece NumberOfPoints="2400" NumberOfCells="800">
<Points>
<DataArray type="Float64" NumberOfComponents="3" format="ascii">
1.000000000000000e+00 0.000000000000000e+00 0.000000000000000e+00 1.000000000000000e+00 4.999999999989965e-02 0.000000000000000e+00 9.500000000000000e-01 4.999999999989965e-02 0.000000000000000e+00 1.000000000000000e+00 0.000000000000000e+00 0.000000000000000e+00 9.500000000000000e-01 4.999999999989965e-02 0.000000000000000e+00 9.500000000000000e-01 0.000000000000000e+00 0.000000000000000e+00 9.500000000000000e-01 0.000000000000000e+00 0.000000000000000e+00 9.500000000000000e-01 4.999999999989965e-02 0.000000000000000e+00 9.000000000000000e-01 4.999999999989965e-02 0.000000000000000e+00 9.500000000000000e-01 0.000000000000000e+00 0.000000000000000e+00 9.000000000000000e-01 4.999999999989965e-02 0.000000000000000e+00 9.000000000000000e-01 0.000000000000000e+00 0.000000000000000e+00 9.000000000000000e-01 0.000000000000000e+00 0.000000000000000e+00 9.000000000000000e-01 4.999999999989965e-02 0.000000000000000e+00 8.500000000000000e-01 4.999999999989965e-02 0.000000000000000e+00 9.000000000000000e-01 0.000000000000000e+00 0.000000000000000e+00 8.500000000000000e-01 4.999999999989965e-02 0.000000000000000e+00 8.500000000000000e-01 0.000000000000000e+00 0.000000000000000e+00 8.500000000000000e-01 0.000000000000000e+00 0.000000000000000e+00 8.500000000000000e-01 4.999999999989965e-02 0.000000000000000e+00 8.000000000000000e-01 4.999999999989965e-02 0.000000000000000e+00 8.500000000000000e-01 0.000000000000000e+00 0.000000000000000e+00 8.000000000000000e-01 4.999999999989965e-02 0.000000000000000e+00 8.000000000000000e-01 0.000000000000000e+00 0.000000000000000e+00 8.000000000000000e-01 0.000000000000000e+00 0.000000000000000e+00 8.000000000000000e-01 4.999999999989965e-02 0.000000000000000e+00 7.500000000000000e-01 4.999999999989965e-02 0.000000000000000e+00 8.000000000000000e-01 0.000000000000000e+00 0.000000000000000e+00 7.500000000000000e-01 4.999999999989965e-02 0.000000000000000e+00 7.500000000000000e-01 0.000000000000000e+00 0.000000000000000e+00 7.500000000000000e-01 0.000000000000000e+00 0.000000000000000e+00 7.500000000000000e-01 4.999999999989965e-02 0.000000000000000e+00 7.000000000000000e-01 4.999999999989965e-02 0.000000000000000e+00 7.500000000000000e-01 0.000000000000000e+00 0.000000000000000e+00 7.000000000000000e-01 4.999999999989965e-02 0.000000000000000e+00 7.000000000000000e-01 0.000000000000000e+00 0.000000000000000e+00 7.000000000000000e-01 0.000000000000000e+00 0.000000000000000e+00 7.000000000000000e-01 4.999999999989965e-02 0.000000000000000e+00 6.500000000000000e-01 4.999999999989965e-02 0.000000000000000e+00 7.000000000000000e-01 0.000000000000000e+00 0.000000000000000e+00 6.500000000000000e-01 4.999999999989965e-02 0.000000000000000e+00 6.500000000000000e-01 0.000000000000000e+00 0.000000000000000e+00 6.500000000000000e-01 0.000000000000000e+00 0.000000000000000e+00 6.500000000000000e-01 4.999999999989965e-02 0.000000000000000e+00 6.000000000000000e-01 4.999999999989965e-02 0.000000000000000e+00 6.500000000000000e-01 0.000000000000000e+00 0.000000000000000e+00 6.000000000000000e-01 4.999999999989965e-02 0.000000000000000e+00 6.000000000000000e-01 0.000000000000000e+00 0.000000000000000e+00 6.000000000000000e-01 0.000000000000000e+00 0.000000000000000e+00 6.000000000000000e-01 4.999999999989965e-02 0.000000000000000e+00 5.500000000000000e-01 4.999999999989965e-02 0.000000000000000e+00 6.000000000000000e-01 0.000000000000000e+00 0.000000000000000e+00 5.500000000000000e-01 4.999999999989965e-02 0.000000000000000e+00 5.500000000000000e-01 0.000000000000000e+00 0.000000000000000e+00 5.500000000000000e-01 0.000000000000000e+00 0.000000000000000e+00 5.500000000000000e-01 4.999999999989965e-02 0.000000000000000e+00 5.000000000000000e-01 4.999999999989965e-02 0.000000000000000e+00 5.500000000000000e-01 0.000000000000000e+00 0.000000000000000e+00 5.000000000000000e-01 4.999999999989965e-02 0.000000000000000e+00 5.000000000000000e-01 0.000000000000000e+00 0.000000000000000e+00 5.000000000000000e-01 0.000000000000000e+00 0.000000000000000e+00 5.000000000000000e-01 4.999999999989965e-02 0.000000000000000e+00 4.500000000000000e-01 4.999999999989965e-02 0.000000000000000e+00 5.000000000000000e-01 0.000000000000000e+00 0.000000000000000e+00 4.500000000000000e-01 4.999999999989965e-02 0.000000000000000e+00 4.500000000000000e-01 0.000000000000000e+00 0.000000000000000e+00 4.500000000000000e-01 0.000000000000000e+00 0.000000000000000e+00 4.500000000000000e-01 4.999999999989965e-02 0.000000000000000e+00 4.000000000000000e-01 4.999999999989965e-02 0.000000000000000e+00 4.500000000000000e-01 0.000000000000000e+00 0.000000000000000e+00 4.000000000000000e-01 4.999999999989965e-02 0.000000000000000e+00 4.000000000000000e-01 0.000000000000000e+00 0.000000000000000e+00 4.000000000000000e-01 0.000000000000000e+00 0.000000000000000e+00 4.000000000000000e-01 4.999999999989965e-02 0.000000000000000e+00 3.500000000000000e-01 4.999999999989965e-02 0.000000000000000e+00 4.000000000000000e-01 0.000000000000000e+00 0.000000000000000e+00 3.500000000000000e-01 4.999999999989965e-02 0.000000000000000e+00 3.500000000000000e-01 0.000000000000000e+00 0.000000000000000e+00 3.500000000000000e-01 0.000000000000000e+00 0.000000000000000e+00 3.500000000000000e-01 4.999999999989965e-02 0.000000000000000e+00 3.000000000000000e-01 4.999999999989965e-02 0.000000000000000e+00 3.500000000000000e-01 0.000000000000000e+00 0.000000000000000e+00 3.000000000000000e-01 4.999999999989965e-02 0.000000000000000e+00 3.000000000000000e-01 0.000000000000000e+00 0.000000000000000e+00 3.000000000000000e-01 0.000000000000000e+00 0.000000000000000e+00 3.000000000000000e-01 4.999999999989965e-02 0.000000000000000e+00 2.500000000000000e-01 4.999999999989965e-02 0.000000000000000e+00 3.000000000000000e-01 0.000000000000000e+00 0.000000000000000e+00 2.500000000000000e-01 4.999999999989965e-02 0.000000000000000e+00 2.500000000000000e-01 0.000000000000000e+00 0.000000000000000e+00 2.500000000000000e-01 0.000000000000000e+00 0.000000000000000e+00 2.500000000000000e-01 4.999999999989965e-02 0.000000000000000e+00 2.000000000000000e-01 4.999999999989965e-02 0.000000000000000e+00 2.500000000000000e-01 0.000000000000000e+00 0.000000000000000e+00 2.000000000000000e-01 4.999999999989965e-02 0.000000000000000e+00 2.000000000000000e-01 0.000000000000000e+00 0.000000000000000e+00 2.000000000000000e-01 0.000000000000000e+00 0.000000000000000e+00 2.000000000000000e-01 4.999999999989965e-02 0.000000000000000e+00 1.500000000000000e-01 4.999999999989965e-02 0.000000000000000e+00 2.000000000000000e-01 0.000000000000000e+00 0.000000000000000e+00 1.500000000000000e-01 4.999999999989965e-02 0.000000000000000e+00 1.500000000000000e-01 0.000000000000000e+00 0.000000000000000e+00 1.500000000000000e-01 0.000000000000000e+00 0.000000000000000e+00 1.500000000000000e-01 4.999999999989965e-02 0.000000000000000e+00 9.999999999999998e-02 4.999999999989965e-02 0.000000000000000e+00 1.500000000000000e-01 0.000000000000000e+00 0.000000000000000e+00 9.999999999999998e-02 4.999999999989965e-02 0.000000000000000e+00 9.999999999999998e-02 0.000000000000000e+00 0.000000000000000e+00 9.999999999999998e-02 0.000000000000000e+00 0.000000000000000e+00 9.999999999999998e-02 4.999999999989965e-02 0.000000000000000e+00 5.000000000000004e-02 4.999999999989965e-02 0.000000000000000e+00 9.999999999999998e-02 0.000000000000000e+00 0.000000000000000e+00 5.000000000000004e-02 4.999999999989965e-02 0.000000000000000e+00 5.000000000000004e-02 0.000000000000000e+00 0.000000000000000e+00 5.000000000000004e-02 0.000000000000000e+00 0.000000000000000e+00 5.000000000000004e-02 4.999999999989965e-02 0.000000000000000e+00 0.000000000000000e+00 4.999999999989965e-02 0.000000000000000e+00 5.000000000000004e-02 0.000000000000000e+00 0.000000000000000e+00 0.000000000000000e+00 4.999999999989965e-02 0.000000000000000e+00 0.000000000000000e+00 0.000000000000000e+00 0.000000000000000e+00 1.000000000000000e+00 4.999999999989965e-02 0.000000000000000e+00 1.000000000000000e+00 9.999999999981467e-02 0.000000000000000e+00 9.500000000000000e-01 9.999999999981467e-02 0.000000000000000e+00 1.000000000000000e+00 4.999999999989965e-02 0.000000000000000e+00 9.500000000000000e-01 9.999999999981467e-02 0.000000000000000e+00 9.500000000000000e-01 4.999999999989965e-02 0.000000000000000e+00 9.500000000000000e-01 4.999999999989965e-02 0.000000000000000e+00 9.500000000000000e-01 9.999999999981467e-02 0.000000000000000e+00 9.000000000000000e-01 9.999999999981467e-02 0.000000000000000e+00 9.500000000000000e-01 4.999999999989965e-02 0.000000000000000e+00 9.000000000000000e-01 9.999999999981467e-02 0.000000000000000e+00 9.000000000000000e-01 4.999999999989965e-02 0.000000000000000e+00 9.000000000000000e-01 4.999999999989965e-02 0.000000000000000e+00 9.000000000000000e-01 9.999999999981467e-02 0.000000000000000e+00 8.500000000000000e-01 9.999999999981467e-02 0.000000000000000e+00 9.000000000000000e-01 4.999999999989965e-02 0.000000000000000e+00 8.500000000000000e-01 9.999999999981467e-02 0.000000000000000e+00 8.500000000000000e-01 4.999999999989965e-02 0.000000000000000e+00 8.500000000000000e-01 4.999999999989965e-02 0.000000000000000e+00 8.500000000000000e-01 9.999999999981467e-02 0.000000000000000e+00 8.000000000000000e-01 9.999999999981467e-02 0.000000000000000e+00 8.500000000000000e-01 4.999999999989965e-02 0.000000000000000e+00 8.000000000000000e-01 9.999999999981467e-02 0.000000000000000e+00 8.000000000000000e-01 4.999999999989965e-02 0.000000000000000e+00 8.000000000000000e-01 4.999999999989965e-02 0.000000000000000e+00 8.000000000000000e-01 9.999999999981467e-02 0.000000000000000e+00 7.500000000000000e-01 9.999999999981467e-02 0.000000000000000e+00 8.000000000000000e-01 4.999999999989965e-02 0.0000000000000
[...]
<PointData Scalars="tracer_conc," Vectors="" Tensors="">
<DataArray type="Float64" Name="tracer_conc" format="ascii">
8.661946731546282e-01 5.350029721922198e-01 7.724848957092724e-01 9.325159259876559e-01 6.711179346314893e-01 1.031777446463596e+00 9.494376310231073e-01 7.709176974391785e-01 8.594498929644253e-01 9.728745973220924e-01 8.275822948118051e-01 1.014993826768388e+00 9.789872121965384e-01 8.689511948493706e-01 9.074994243436030e-01 9.871977148713504e-01 8.962383995336216e-01 1.007575988962159e+00 9.894963037900252e-01 9.165397403170410e-01 9.368342739782982e-01 9.926652777727369e-01 9.323436374437183e-01 1.004559530169527e+00 9.934959279064082e-01 9.444317664203329e-01 9.576190237925721e-01 9.948133743617787e-01 9.556991323147224e-01 1.003375620649646e+00 9.950419205456575e-01 9.645296728795227e-01 9.750079180338185e-01 9.955956139718386e-01 9.741859134561615e-01 1.002978235651376e+00 9.955836556888075e-01 9.818265262275918e-01 9.914748716787770e-01 9.957782503033752e-01 9.911832418540293e-01 1.002936837694848e+00 9.956929304231059e-01 9.985429740107991e-01 1.008206022873539e+00 9.956871632299233e-01 1.008216224885096e+00 1.003064085477016e+00 9.956143717053303e-01 1.015703089693991e+00 1.025771123306259e+00 9.954688897260319e-01 1.025995541640561e+00 1.003275315638320e+00 9.954590213758644e-01 1.033788226627239e+00 1.044445393105479e+00 9.951901831296172e-01 1.044863258268521e+00 1.003533443873365e+00 9.952780053823514e-01 1.053032746398214e+00 1.064375416576095e+00 9.948774989421594e-01 1.065005996584068e+00 1.003827296346770e+00 9.950913358768082e-01 1.073576622811092e+00 1.085682256718790e+00 9.945312994007178e-01 1.086579579330848e+00 1.004164877923595e+00 9.948978241559840e-01 1.095567114718032e+00 1.108551181976456e+00 9.941275889491303e-01 1.109812914524927e+00 1.004575429574750e+00 9.946755685741955e-01 1.119257571490188e+00 1.133343168395612e+00 9.936098045759543e-01 1.135136273281629e+00 1.005120402528157e+00 9.943767068176219e-01 1.145140423535258e+00 1.160769855943372e+00 9.928676501148430e-01 1.163388687680947e+00 1.005920910511146e+00 9.939210835272551e-01 1.174162206691045e+00 1.192209492990975e+00 9.916884360920342e-01 1.196216023345284e+00 1.007228761755093e+00 9.932129742791392e-01 1.208107353335811e+00 1.230348391471708e+00 9.896352894352420e-01 1.236958009441037e+00 1.009636231973103e+00 9.923076374804610e-01 1.250329030787573e+00 1.280653639033055e+00 9.856954818838312e-01 1.292952390448949e+00 1.014776161705284e+00 9.922987755460422e-01 1.307245043110220e+00 1.355248041706227e+00 9.767250734330709e-01 1.382605891010357e+00 1.027895456453896e+00 9.986056919730566e-01 1.394102025782428e+00 1.484861717630370e+00 9.403495647523067e-01 1.560497881590232e+00 1.070104369508411e+00 4.103740113159734e-01 2.185038997766949e-01 6.674403231227032e-01 5.342991888429852e-01 5.191404666779188e-01 7.753495812275250e-01 7.134822209183048e-01 5.818073570501322e-01 7.624078326966826e-01 7.600758422956058e-01 7.173876764853616e-01 8.733867115054269e-01 8.403182724983512e-01 7.488329698682984e-01 8.365765124324860e-01 8.591961876045597e-01 8.187422310357418e-01 9.182660459556834e-01 9.005626882193903e-01 8.359525159612705e-01 8.858782013920982e-01 9.086641450126511e-01 8.783248373483143e-01 9.450291046838013e-01 9.340095281614932e-01 8.891423760924549e-01 9.232737996942733e-01 9.375754220271301e-01 9.201780558318944e-01 9.646791566009930e-01 9.564887583195397e-01 9.281699827888837e-01 9.560939124268155e-01 9.579814378761224e-01 9.551199012570531e-01 9.818054384145513e-01 9.747342759964263e-01 9.619267693134856e-01 9.879995790385191e-01 9.751688463014063e-01 9.881648829963701e-01 9.984756342566515e-01 9.917557470544469e-01 9.945385176819866e-01 1.020789274474736e+00 9.915557013420085e-01 1.021680462342726e+00 1.015653081751827e+00 1.008948364122762e+00 1.027949136563856e+00 1.055328499840249e+00 1.008277216605361e+00 1.056789298292807e+00 1.033794393332827e+00 1.026977513722256e+00 1.063068957783219e+00 1.092018392154545e+00 1.025870797490837e+00 1.094024029129557e+00 1.053124810741283e+00 1.046176037733919e+00 1.100314798630600e+00 1.131049300038178e+00 1.044590515997376e+00 1.133661253666620e+00 1.073783185053421e+00 1.066742988013745e+00 1.139890228289110e+00 1.172566060298620e+00 1.064565889145408e+00 1.175927881300715e+00 1.095921362077885e+00 1.088868500990615e+00 1.181963806708394e+00 1.216815557561809e+00 1.085899686202183e+00 1.221178744341681e+00 1.119804056833024e+00 1.112849666847895e+00 1.226825669320814e+00 1.264326328117054e+00 1.108752759544726e+00 1.270112393448305e+00 1.145947241105537e+00 1.139249107404267e+00 1.275074234982483e+00 1.316172354415752e+00 1.133448895584690e+00 1.324096886959071e+00 1.175348097757174e+00 1.169170112842531e+00 1.327881385814774e+00 1.374399145842254e+00 1.160638017409892e+00 1.385719248814870e+00 1.209909435825997e+00 1.204800073315959e+00 1.387398920888692e+00 1.442749896159667e+00 1.191591157388423e+00 1.459767180310300e+00 1.253285106300319e+00 1.250574104109579e+00 1.457399036581595e+00 1.527934085726685e+00 1.228812724988295e+00 1.555009722076657e+00 1.312658319500157e+00 1.315744447234351e+00 1.544322200637598e+00 1.641813098953296e+00 1.277342883178409e+00 1.687303495011292e+00 1.402566028481569e+00 1.419549445079354e+00 1.660173184420029e+00 1.804857167393420e+00 1.346020371660947e+00 1.883123343241323e+00 1.552573896705909e+00 1.859661960528870e-01 8.904888038091675e-02 5.619933057906675e-01 2.907748018794231e-01 4.280365094844074e-01 5.870761901513206e-01 5.492784422283878e-01 4.624434788506628e-01 6.828584416383189e-01 5.981597893358679e-01 6.368376906306678e-01 7.527999212673493e-01 7.277739964858566e-01 6.578425681107045e-01 7.762374404966111e-01 7.506237361157430e-01 7.553580420488381e-01 8.377761192227321e-01 8.224655477962126e-01 7.689572187685945e-01 8.412163766373906e-01 8.331821606067871e-01 8.315260335084261e-01 8.899078782031452e-01 8.796850856466668e-01 8.409747944416839e-01 8.927813753302594e-01 8.846565253506171e-01 8.885172757720478e-01 9.284534349753084e-01 9.206912594444007e-01 8.958149998778171e-01 9.393688190894598e-01 9.228106209589267e-01 9.378914887919164e-01 9.620061268055859e-01 9.553689864878431e-01 9.441345605678061e-01 9.852998652476582e-01 9.559457728364384e-01 9.853919689060733e-01 9.945508266821901e-01 9.883980412980131e-01 9.911261823011283e-01 1.032723937785131e+00 9.880161934201080e-01 1.033836235246535e+00 1.027966834148335e+00 1.022021601091794e+00 1.039294896082370e+00 1.082652609605536e+00 1.020920112638226e+00 1.084561225008978e+00 1.063135405074017e+00 1.057317670411766e+00 1.089797561568364e+00 1.135499304597031e+00 1.055557266533861e+00 1.138153182391292e+00 1.100461363031451e+00 1.094807680627738e+00 1.143106033531916e+00 1.191377593083389e+00 1.092338396477987e+00 1.194837139441129e+00 1.140145259594830e+00 1.134774469517045e+00 1.199357595808980e+00 1.250293590418676e+00 1.131452858601532e+00 1.254717157889588e+00 1.182358407877261e+00 1.177464623883194e+00 1.258569847721686e+00 1.312306938435603e+00 1.173039171808592e+00 1.317968063549719e+00 1.227398917920224e+00 1.223267665597576e+00 1.320809804378592e+00 1.377704712847237e+00 1.217335516788423e+00 1.385036227916795e+00 1.275879633792350e+00 1.272935203456070e+00 1.386364959876880e+00 1.447216997882897e+00 1.264863515645025e+00 1.456884635659959e+00 1.328995379898436e+00 1.327902816685817e+00 1.455940750834719e+00 1.522288943950625e+00 1.316702638868337e+00 1.535294694738346e+00 1.388927864112866e+00 1.390795303512733e+00 1.530886692772234e+00 1.605390935407310e+00 1.374946841010359e+00 1.623176200701020e+00 1.459460454663086e+00 1.466211335724298e+00 1.613410328781129e+00 1.700242570798259e+00 1.443519832126620e+00 1.724638169101793e+00 1.546845805581340e+00 1.561798869278969e+00 1.706633206841318e+00 1.811514719130605e+00 1.529754454125043e+00 1.843976031539601e+00 1.660697040347797e+00 1.688858113890628e+00 1.814011980325414e+00 1.943078153268353e+00 1.648529119060259e+00 1.982019800182554e+00 1.812349724655604e+00 8.593173644504720e-02 4.041101309780752e-02 4.835377736716124e-01 1.667524550179707e-01 3.735572333418727e-01 4.683273517418464e-01 4.469591857548061e-01 3.924862228190750e-01 6.212136736831705e-01 4.894897391539639e-01 5.804559361405126e-01 6.612599233165412e-01 6.442554581204440e-01 5.933411324345558e-01 7.269383139545492e-01 6.664708101787403e-01 7.065719642425454e-01 7.707085896139765e-01 7.587011117424143e-01 7.164772453107231e-01 8.036503621847612e-01 7.699326104547722e-01 7.935365162143253e-01 8.417953983530826e-01 8.330625666407514e-01 8.012154362554010e-01 8.668307617679607e-01 8.385135106920990e-01 8.621684167610456e-01 8.961603375792200e-01 8.892785545445755e-01 8.684328144194143e-01 9.252142719166929e-01 8.916265069183491e-01 9.235492909996779e-01 9.442570492716839e-01 9.383633324120142e-01 9.289774725377786e-01 9.833581067817098e-01 9.389365994992985e-01 9.834592992333500e-01 9.911612399110482e-01 9.858061671062450e-01 9.883711146547239e-01 1.043531124879451e+00 9.852419097749949e-01 1.044800747997483e+00 1.039316539602367e+00 1.034310460044876e+00 1.049324289924594e+00 1.106747170726029e+00 1.032891630523577e+00 1.108916551328698e+00 1.089848963502190e+00 1.085163254005519e+00 1.113047719773167e+00 1.173318224100942e+00 1.082982627919899e+00 1.176297703494598e+00 1.143215488685134e+00 1.138929635288495e+00 1.179935466930630e+00 1.243162426186038e+00 1.135964136640486e+00 1.246972757544779e+00 1.199546661086597e+00 1.195825742029608e+00 1.249933599438816e+00 1.315996366358499e+00 1.191963639992966e+00 1.320743138058203e+00 1.258857156923451e+00 1.255950091730761e+00 1.322759710341433e+00 1.391480818442979e+00 1.250992289105247e+00 1.397351511960958e+00 1.321211822970121e+00 1.319467028059599e+00 1.398058105938356e+00 1.469353432370012e+00 1.313114190391150e+00 1.476623841586519e+00 1.386892860106165e+00 1.386792710840746e+00 1.475529556372158e+00 1.549554940235747e+00 1.378629343860402e+00 1.558589607385449e+00 1.456589186288059e+00 1.458806557483676e+00 1.555042105085742e+00 1.632323771466093e+00 1.448303835791777e+00 1.643540537843457e+00 1.531602899377629e+00 1.537076753594951e+00 1.636695320013943e+00 1.718181517773608e+00 1.523668289503541e+00 1.731913631376105e+00 1.614016296539143e+00 1.624013036520599e+00 1.720759885993196e+00 1.807637015700417e+00 1.607374396276472e+00 1.823753518339201e+00 1.706641645137671e+00 1.722677379638168e+00 1.807323779218775e+00 1.900287903594112e+00 1.703587398673128e+00 1.917317627890333e+00 1.812280788005286e+00 1.835429847166647e+00 1.895039441556769e+00 1.993157629210996e+00 1.819784465895872e+00 2.007259084867485e+00 1.930099480296448e+00 4.498917712566774e-02 2.463713734996585e-02 4.304426588257408e-01 1.081637742166217e-01 3.400631545238077e-01 3.976883813231422e-01 3.851297456298221e-01 3.515306676869476e-01 5.755138111176992e-01 4.206116452592500e-01 5.406709257341087e-01 5.963517321705424e-01 5.847805415764605e-01 5.487287096273593e-01 6.882302313966513e-01 6.046104309659347e-01 6.698020361445142e-01 7.181003824659183e-01 7.089889592023573e-01 6.768814156397258e-01 7.733355246110852e-01 7.195580613304364e-01 7.637660816903946e-01 8.020244999304310e-01 7.949094541796504e-01 7.697711437803830e-01 8.456734850167146e-01 8.002017662143693e-01 8.411411596844037e-01 8.688006483542359e-01 8.630030738405449e-01 8.462708867135612e-01 9.137584521653215e-01 8.652737819080972e-01 9.121499386342475e-01 9.291227584060915e-01 9.241484758950744e-01 9.166392383239907e-01 9.820864828452691e-01 9.246085883372974e-01 9.822634211140417e-01 9.884171073462982e-01 9.839881585900432e-01 9.862599859162717e-01 1.052871188744838e+00 9.832628900862257e-01 1.054238921614334e+00 1.049339744153184e+00 1.045345586223720e+00 1.057789366619856e+00 1.127016976646757e+00 1.043740995008594e+00 1.129277166197618e+00 1.113071502305498e+00 1.109520699766265e+00 1.132341990919288e+00 1.204649822175403e+00 1.107167389824443e+00 1.207666634219745e+00 1.179990146969291e+00 1.176979097447895e+00 1.210135019551895e+00 1.285413900069361e+00 1.173905146969656e+00 1.289145223411130e+00 1.250032199360640e+00 1.247729572672271e+00 1.290843237171378e+00 1.368651546564123e+00 1.243895255632508e+00 1.373114820486923e+00 1.322907972610512e+00 1.321550482523271e+00 1.373807829897220e+00 1.453529049284794e+00 1.316864809355504e+00 1.458782225111181e+00 1.398253013157835e+00 1.398148471763556e+00 1.458174669249546e+00 1.539135742901554e+00 1.392482258414716e+00 1.545258057462314e+00 1.475753356063000e+00 1.477286433796410e+00 1.542996038668490e+00 1.624556882103821e+00 1.470497684017661e+00 1.631612358482428e+00 1.555249534695763e+00 1.558881549559379e+00 1.627299640167916e+00 1.708893746294018e+00 1.550876427885037e+00 1.716853299554597e+00 1.636790523683774e+00 1.643033236014551e+00 1.710101914288384e+00 1.791173476310155e+00 1.633899435759632e+00 1.799761794901144e+00 1.720561795055139e+00 1.729881607453552e+00 1.790316066029230e+00 1.870061238976173e+00 1.720145568913035e+00 1.878493516075618e+00 1.806543989691070e+00 1.819117223281266e+00 1.866476416088562e+00 1.943287735691976e+00 1.810255032011006e+00 1.949890198056708e+00 1.893664426797929e+00 1.908803821121710e+00 1.935905702788141e+00 2.007024239448971e+00 1.905913483252607e+00 2.009279427119981e+00 1.977253433902057e+00 2.916373754193801e-02 2.053398382358496e-02 3.956124479833023e-01 8.135873342343812e-02 3.183336948403304e-01 3.558985429510659e-01 3.472723527980527e-01 3.267976180638844e-01 5.426689173220075e-01 3.772790346823865e-01 5.125739795632930e-01 5.514364521393939e-01 5.430049593225711e-01 5.181170570319716e-01 6.589895241664470e-01 5.603004713695438e-01 6.426815260412432e-01 6.783860748697563e-01 6.714004489399982e-01 6.478579648737048e-01 7.498884505398588e-01 6.808824299211027e-01 7.412266484383295e-01 7.705478859503564e-01 7.648760266072738e-01 7.458492753183980e-01 8.291794265239355e-01 7.696905687469300e-01 8.250390303323132e-01 8.466406351727904e-01 8.419417985919732e-01 8.290881175497642e-01 9.049072276221511e-01 8.439625246275803e-01 9.034870248182535e-01 9.167930780575128e-01 9.127885691581041e-01 9.070264229135209e-01 9.813432463148178e-01 9.130811899365254e-01 9.816207183034691e-01 9.863075771395037e-01 9.828331560028276e-01 9.846994179754648e-01 1.060543135936221e+00 9.819860745426154e-01 1.061947124110091e+00 1.057792092579893e+00 1.054788341976214e+00 1.064566995318553e+00 1.143238285279693e+00 1.053120134914131e+00 1.145449935895661e+00 1.132333322814652e+00 1.129823346451965e+00 1.147562449499892e+00 1.229329242753403e+00 1.127503366394252e+00 1.232167080122802e+00 1.210132099816479e+00 1.208202692116818e+00 1.233678244588166e+00 1.318163397877400e+00 1.205317926395334e+00 1.321519259922104e+00 1.290852733213386e+00 1.289641646315578e+00 1.322295684407794e+00 1.408702700432291e+00 1.286233626212436e+00 1.412505479098305e+00 1.373827927273100e+00 1.373515100407622e+00 1.412381040324906e+00 1.499639265784964e+00 1.369603274255567e+00 1.503830536888027e+00 1.458194107190600e+00 1.458992862768923e+00 1.502616391097497e+00 1.589485953567239e+00 1.454597032746355e+00 1.593995222244331e+00 1.542990506639074e+00 1.545132836071841e+00 1.591498448868157e+00 1.676647029200619e+00 1.540306425493914e+00 1.681355527295972e+00 1.627225931914573e+00 1.630932610516173e+00 1.677414719424217e+00 1.759456732794040e+00 1.625818982990765e+00 1.764139750390992e+00 1.709891795090436e+00 1.715312683504259e+00 1.758689194292982e+00 1.836161964008063e+00 1.710234658183654e+00 1.840405228593437e+00 1.789876792254029e+00 1.796981075371917e+00 1.833580124067579e+00 1.904827776198583e+00 1.792562022358761e+00 1.907931897132446e+00 1.865725239831805e+00 1.874125159285780e+00 1.900210778866950e+00 1.963179700837572e+00 1.871470994510248e+00 1.964098271717884e+00 1.935189060821513e+00 1.943869906436330e+00 1.956212078742030e+00 2.008630478760516e+00 1.946344290398175e+00 2.006252866068750e+00 1.993927601634224e+00 2.286197610915490e-02 1.983969655332409e-02 3.730549805478780e-01 6.874161252113332e-02 3.038061975481332e-01 3.305676734128636e-01 3.233177718693372e-01 3.114144893445170e-01 5.197946200338588e-01 3.496011486670131e-01 4.930368350101662e-01 5.206247301342739e-01 5.138286729447374e-01 4.974108619334688e-01 6.378727347638086e-01 5.290461713172089e-01 6.233459022005605e-01 6.492702968216145e-01 6.437195945486298e-01 6.273173174430557e-01 7.326614623516331e-01 6.521238311966461e-01 7.249071490438201e-01 7.465913357757497e-01 7.420954145106138e-01 7.284569748260431e-01 8.170051784285455e-01 7.463521351124257e-01 8.133177715736117e-01 8.294496797757542e-01 8.257602835910318e-01 8.164110362347156e-01 8.984462065489783e-01 8.274761437260797e-01 8.972490152217371e-01 9.071792536503402e-01 9.041087700740652e-01 8.998972871691274e-01 9.809834479068188e-01 9.042290437673355e-01 9.813516350564343e-01 9.847420068402499e-01 9.821803909800508e-01 9.835676348700968e-01 1.066480798756895e+00 9.812564074407051e-01 1.067868613308007e+00 1.064554112562595e+00 1.062461482588171e+00 1.069643668518973e+00 1.155482537147678e+00 1.060819878416559e+00 1.157556662577687e+00 1.147523108545902e+00 1.145915445125854e+00 1.158855295472807e+00 1.247669631238840e+00 1.143759862054379e+00 1.250210414207914e+00 1.233626094699853e+00 1.232561401152423e+00 1.250972588023167e+00 1.342119884541257e+00 1.230031449226749e+00 1.344964413817100e+00 1.322234590907304e+00 1.321801033209294e+00 1.345111097974092e+00 1.437468870124289e+00 1.319006471632147e+00 1.440478068355593e+00 1.412307612431554e+00 1.412612134296150e+00 1.439919565827447e+00 1.532027026052640e+00 1.409654774848204e+00 1.535064685195545e+00 1.502520591322396e+00 1.503674928112884e+00 1.533713423860288e+00 1.623882031505649e+00 1.500667215371103e+00 1.626797475093636e+00 1.591363223434830e+00 1.593463094399647e+00 1.624588347105082e+00 1.710998117986882e+00 1.590549909412932e+00 1.713607018408370e+00 1.677215967060586e+00 1.680308246985365e+00 1.710528959372177e+00 1.791312339344381e+00 1.677695587962504e+00 1.793373951102009e+00 1.758398558969514e+00 1.762431193642380e+00 1.789515433465655e+00 1.862822563221833e+00 1.760419389648805e+00 1.864018761861489e+00 1.833175162783650e+00 1.837927965487459e+00 1.859625052447650e+00 1.923666895621157e+00 1.836935521727582e+00 1.923601088370390e+00 1.899706148812752e+00 1.904713434797249e+00 1.919124569369979e+00 1.972214650384662e+00 1.905306185837137e+00 1.970457088611434e+00 1.955957666634168e+00 1.960429492302409e+00 1.966400607758092e+00 2.007322770110913e+00 1.964654547474349e+00 2.003603497255178e+00 1.999120373784391e+00 1.986341633265114e-02 1.994136773696055e-02 3.588081840350208e-01 6.222061736522347e-02 2.943020170469199e-01 3.148286582700791e-01 3.077815281986698e-01 3.019801461523222e-01 5.047284726118459e-01 3.317085535197536e-01 4.801391172879768e-01 4.998005790016283e-01 4.937731177711936e-01 4.840610687445487e-01 6.236736346949738e-01 5.074946376957361e-01 6.104455089305625e-01 6.286658931771477e-01 6.240462996636565e-01 6.136780473037492e-01 7.209713030855412e-01 6.315779875138581e-01 7.139478483602443e-01 7.291693045123891e-01 7.255929101737643e-01 7.166861272744385e-01 8.087457043558682e-01 7.293550770206678e-01 8.054488748242733e-01 8.167604195680399e-01 8.139518549028498e-01 8.077277943851826e-01 8.941321913307260e-01 8.153894717475966e-01 8.931261245689913e-01 9.000436178757850e-01 8.978273400670697e-01 8.949722360292346e-01 9.808920988235225e-01 8.978034954837005e-01 9.813202806485245e-01 9.836018067445247e-01 9.818767131476267e-01 9.827522397330628e-01 1.070718759138875e+00 9.809151169271094e-01 1.072055385840159e+00 1.069615860574431e+00 1.068335938480292e+00 1.073078621886360e+00 1.163996311971643e+00 1.066769143836195e+00 1.165898548642944e+00 1.158791847128662e+00 1.157950321542916e+00 1.166504854027686e+00 1.260227577533458e+00 1.156008258678733e+00 1.262448614496345e+00 1.250885866084065e+00 1.250502019359344e+00 1.262619316174402e+00 1.358282039283326e+00 1.24836335260164