<?xml version="1.0"?>
<VTKFile type="UnstructuredGrid" version="0.1" byte_order="LittleEndian">
<UnstructuredGrid>
<Piece NumberOfPoints="557" NumberOfCells="1052">
<Points>
<DataArray type="Float64" NumberOfComponents="3" format="ascii">
-1 1 0 -1 -1 0 1 -1 0 1 1 0 -1 0 0 1 0 0 -0.90000000000027736 0 0 -0.80000000000055482 0 0 -0.70000000000083218 0 0 -0.60000000000110965 0 0 -0.500000000001387 0 0 -0.40000000000166441 0 0 -0.30000000000194182 0 0 -0.20000000000221921 0 0 -0.1000000000024964 0 0 -2.7522428780457631e-12 0 0 0.099999999997503419 0 0 0.19999999999778079 0 0 0.29999999999805832 0 0 0.39999999999833552 0 0 0.49999999999861289 0 0 0.59999999999889031 0 0 0.69999999999916795 0 0 0.79999999999944538 0 0 0.89999999999972258 0 0 -0.90000000000027736 1 0 -0.80000000000055482 1 0 -0.70000000000083218 1 0 -0.60000000000110965 1 0 -0.500000000001387 1 0 -0.40000000000166441 1 0 -0.30000000000194182 1 0 -0.20000000000221921 1 0 -0.1000000000024964 1 0 -2.7522428780457631e-12 1 0 0.099999999997503419 1 0 0.19999999999778079 1 0 0.29999999999805832 1 0 0.39999999999833552 1 0 0.49999999999861289 1 0 0.59999999999889031 1 0 0.69999999999916795 1 0 0.79999999999944538 1 0 0.89999999999972258 1 0 -0.90000000000027736 -1 0 -0.80000000000055482 -1 0 -0.70000000000083218 -1 0 -0.60000000000110965 -1 0 -0.500000000001387 -1 0 -0.40000000000166441 -1 0 -0.30000000000194182 -1 0 -0.20000000000221921 -1 0 -0.1000000000024964 -1 0 -2.7522428780457631e-12 -1 0 0.099999999997503419 -1 0 0.19999999999778079 -1 0 0.29999999999805832 -1 0 0.39999999999833552 -1 0 0.49999999999861289 -1 0 0.59999999999889031 -1 0 0.69999999999916795 -1 0 0.79999999999944538 -1 0 0.89999999999972258 -1 0 -1 0.89999999999958358 0 -1 0.79999999999999982 0 -1 0.7000000000006934 0 -1 0.60000000000138687 0 -1 0.50000000000205869 0 -1 0.40000000000166441 0 -1 0.30000000000124832 0 -1 0.20000000000083221 0 -1 0.10000000000041601 0 -1 -0.099999999999814668 0 -1 -0.19999999999955789 0 -1 -0.29999999999926641 0 -1 -0.3999999999989749 0 -1 -0.49999999999869432 0 -1 -0.59999999999894682 0 -1 -0.69999999999921003 0 -1 -0.79999999999947335 0 -1 -0.89999999999973679 0 1 -0.89999999999958358 0 1 -0.79999999999999982 0 1 -0.7000000000006934 0 1 -0.60000000000138687 0 1 -0.50000000000205869 0 1 -0.40000000000166441 0 1 -0.30000000000124832 0 1 -0.20000000000083221 0 1 -0.10000000000041601 0 1 0.099999999999814668 0 1 0.19999999999955789 0 1 0.29999999999926641 0 1 0.3999999999989749 0 1 0.49999999999869432 0 1 0.59999999999894682 0 1 0.69999999999921003 0 1 0.79999999999947335 0 1 0.89999999999973679 0 -0.3485856146391737 0.49009681747861 0 0.34422332776871972 0.51307043759502791 0 -1.80331939856972e-12 0.62750000000000028 0 -0.6544148823167929 0.6567258267737911 0 0.65735294117590759 0.34264705882431501 0 -0.6500000000009708 0.326816028425153 0 0.64999999999902913 0.67318397157560828 0 -0.086019637464032406 0.3194901812688658 0 0.18698897150463539 0.28785651673466278 0 -0.2398463887542891 0.73783586520820965 0 0.23890336808161 0.73917101042505629 0 -0.39611283060999958 0.25868707831066018 0 0.43772104871687462 0.25296807709202701 0 -0.47234328598647579 0.78515020367211996 0 0.4695948120650818 0.79159582058027289 0 -0.78833554416380414 0.49055125471308292 0 0.78808635622660639 0.50901390705624971 0 0.1440584590474073 0.47881243660567741 0 -0.81118583890810925 0.80567988046701255 0 0.80628140131583426 0.19865091546390859 0 -0.8048076536688894 0.19041048647002989 0 0.81512980608709185 0.81451806043841246 0 -0.55045344841312771 0.49628270713921141 0 0.55200739089955131 0.50402832464349812 0 -0.16326414838555961 0.49847948867902248 0 -0.059710312183915162 0.81114320478340063 0 -0.24065912776394571 0.18342375485303319 0 0.018166101291269599 0.17432063183698429 0 0.60335513119410866 0.18079331513609509 0 -0.57006385665087478 0.1613942275436272 0 -0.63243558644957465 0.82471999288990239 0 -0.25270631783341768 0.35900439145405277 0 0.63062231900575316 0.84486193436619506 0 0.1039480617793322 0.83470183001798104 0 -0.84273752611582098 0.64232778967069826 0 0.83952240469824535 0.35501039321061478 0 0.30320630007188248 0.158694522430222 0 0.44917880944586891 0.62633022362764912 0 -0.45182966590909313 0.61926827993361699 0 -0.85101852198622618 0.34652108872230269 0 0.85101852198676309 0.65347891127814861 0 -0.0071723865450987042 0.45953661554850278 0 0.32109687257191022 0.34996897025732321 0 -0.33194412443982779 0.85404157461017205 0 0.33508312333290408 0.8694446806438858 0 0.14655186554643559 0.62535873386480789 0 0.46213868762630722 0.38684934364122581 0 -0.50001032642174692 0.3619150633037741 0 0.06020186191066796 0.32641443442318202 0 -0.2571462961085984 0.60772177440507447 0 -0.083985680739538979 0.1480468894455883 0 0.1611664905834736 0.132161010298112 0 -0.33367386330745258 0.1226656881957473 0 -0.17061158785878991 0.8593064797643355 0 -0.12969740050353579 0.66401624202124554 0 0.3117350661937851 0.62761375889599524 0 -0.69071848117933621 0.14358555873099049 0 0.4493860377352652 0.09940200889722034 0 -0.39568300038192228 0.37360120980210132 0 0.66804249192220311 0.46886989492240372 0 -0.66804249192391274 0.53113010508001179 0 -0.36564543034986208 0.6949387741368086 0 0.54596487773740787 0.28992824392619571 0 0.70494742259869425 0.1224660172820126 0 0.52642151182651886 0.87803558772902535 0 -0.52028467662050326 0.88150839962482908 0 0.19576794431778771 0.87822458311178597 0 0.070316369861044767 0.72236784545808819 0 0.88293492929703388 0.11706507070304489 0 -0.88293492929737794 0.88293492929749617 0 -0.54481053122223111 0.69109239451785542 0 -0.86804211149851207 0.11746405350624579 0 0.8803495627445429 0.89394854401897916 0 -0.47913583215818201 0.1121548527632822 0 0.53625272151304704 0.69746259051970816 0 -0.89153390103529218 0.53819841268708379 0 0.89153390103494623 0.46180158731409832 0 -0.72667101953395785 0.88827930400559219 0 0.2131541977583723 0.38770172907833889 0 0.34011602881172392 0.72762602947791233 0 0.25413451019614602 0.53942840952823934 0 0.69246816669391309 0.23609535440728219 0 0.73770066918856325 0.89407548067230491 0 -0.90166810850295154 0.73549066489264647 0 0.89559155133500445 0.25854595914682799 0 0.74538352780119832 0.61480941454558669 0 -0.74576311477689217 0.38508573077320812 0 -0.89922483945315923 0.25976721650932938 0 0.90123630700055235 0.7416065899142068 0 0.023879221471612429 0.89357667674839714 0 -0.75423417002055937 0.70799818053681152 0 0.55530206689008688 0.39717318700111809 0 -0.29288773413008728 0.26948194259326241 0 -0.63156861489116967 0.42909435721314249 0 0.63204542175233902 0.56864476214082083 0 0.063793952922514621 0.54124107763922724 0 -0.70673537994997992 0.2357006525848778 0 -0.25187637051529399 0.45380264859967667 0 -0.16586482473331421 0.39568978653498182 0 0.74611156699210968 0.39869433052061842 0 -0.45285789483272432 0.46219676410929322 0 -0.74815111630519981 0.59810147383537293 0 0.4236024698698333 0.89741894646089282 0 0.70668618150154383 0.75983600751017966 0 -0.19235588921553981 0.28714573184227299 0 -0.90312142872818746 0.43562853691384851 0 0.90312142872851886 0.56437146308689679 0 -0.56404233889500266 0.59036864190818439 0 -0.061355057791924787 0.54053892244820878 0 -0.2500000000020805 0.0896504808060095 0 0.44702039815253553 0.52708117007794164 0 -0.78754133105521895 0.096606195652088264 0 0.54821088216503688 0.091543976928897944 0 -0.56011947084233404 0.2733043629040311 0 -0.34522088931056599 0.59697968451518035 0 -0.4221512306874835 0.89517733670547817 0 0.33287621367593828 0.25043567089211521 0 -0.15342250666121149 0.75427026476315151 0 -0.04687050101409921 0.71257773121591994 0 -0.055694347115681178 0.22293027818633721 0 -0.083722920964013556 0.91184641893263652 0 0.063894863689136341 0.086556137378815665 0 0.76148186960600284 0.30069839113411972 0 0.54229283868483869 0.60007318632256035 0 0.35034372830787469 0.086133794917081563 0 0.55691278693471924 0.79092201465465484 0 0.2412618782713026 0.083910001607861551 0 0.1038611813608214 0.24917271072330549 0 -0.25659022377510549 0.9146632756397205 0 -0.55348062692055822 0.072890815185624444 0 0.79173922362311444 0.085480780134319312 0 -0.77290785556636854 0.29625214503038311 0 -0.67402581732181988 0.74838117844245011 0 0.076629603525263407 0.41587756287268141 0 0.50500118940755889 0.19044016754695281 0 -0.62806670534775499 0.92208532247273112 0 0.78789296493200422 0.71168266248580514 0 -0.5542041897544524 0.7819113940961826 0 0.2889288281699004 0.44135878095899661 0 -0.48206452573007569 0.20572279442673619 0 0.64999999999902913 0.92685708227518637 0 0.16634657660677571 0.7740108507966178 0 0.38851420743739301 0.42481028617499222 0 0.12736545983977179 0.9202283428910365 0 0.02100504137340151 0.79433287460066859 0 -0.15508452176020521 0.093763151304328968 0 0.39170619067858259 0.17283576031107081 0 0.21939629712245351 0.63716875310168331 0 -0.92913010983161759 0.65000000000104008 0 0.92659641755287614 0.35338105862234442 0 -0.036292567131313271 0.078478612901399805 0 0.21423877905926389 0.20114864636270821 0 0.40304005348641703 0.32825827880314917 0 0.13327556175841121 0.35391038936123431 0 0.63211741739709981 0.078400772731750862 0 -0.25765542685292109 0.82137891803612806 0 -0.009209918297887941 0.37062054740932232 0 -0.8058504616374319 0.91623454411318506 0 -0.1450079522902068 0.20808262440652209 0 -0.48200567196747768 0.54199249067987132 0 -0.16927611449194549 0.58791604993693469 0 -0.38083904731992291 0.78481196418465504 0 -0.93173495441364629 0.34892224562027119 0 0.93200315008683932 0.65126092857001416 0 -0.7089855449511826 0.45924701014269309 0 0.71010175197524905 0.54018969346340562 0 -0.084967494537684929 0.43732033095229561 0 0.38330559448270157 0.58568973730191021 0 0.34767343161810488 0.93765448749700342 0 0.42732464921981822 0.712979363396679 0 -0.34787837396890903 0.93439534703020644 0 0.61959846238584615 0.75228739991147042 0 -0.4420139421738396 0.70962346806405752 0 -0.63715815907837525 0.073900983655304495 0 -0.47226559343687491 0.2896468395700
[...]
<CellData Scalars="pressure_p0,piezo_head_p0,pressure_diff,velocity_diff,div_diff," Vectors="velocity_p0," Tensors="">
<DataArray type="Float64" Name="pressure_p0" format="ascii">
5.7952846694146887 6.8625812586239086 7.4857895582461014 7.8921335783776083 8.1744034871827331 8.3770995765551 8.5223462011427955 8.6234720970369541 8.6875682514595898 8.7186263669928934 8.7186257202009134 8.6873052233947465 8.6233315344306618 8.5224007792056309 8.3773161714023487 8.1749192318326873 7.8924996392220113 7.4858560429936345 6.8624886853684233 5.7952462528893207 8.8214756044964506 8.7979128165710687 9.8959792138101719 9.4768013624643501 9.2479908085927889 9.6608066330570068 9.6330386482572035 9.9406520158164167 9.2591477344052162 8.8161674737374085 9.6787380943615364 9.8917193738650546 8.6573251831792462 8.7166640769938937 8.4521588686952178 9.7273556175728118 8.606758119591289 8.2181770149400197 8.7262373297708962 8.8512490604592013 8.919847556882905 8.7968835535718561 8.9291673815659269 8.3606968276779075 9.7117228088869982 9.6734647211085036 7.893048795457978 9.8596172441612069 9.3310682469962867 9.9507679824326392 9.7666967517608576 8.7981082250631921 8.8475401281954156 9.6982138375756062 9.8655795822051395 9.3039727880332777 9.4340845688081512 9.2457575239694449 9.9421188992283458 9.6803806653974132 9.235623634277454 9.0285722310180994 8.1859859726269928 8.17330980824363 8.2775124270626019 8.8603119375958528 8.9188732544068401 9.022140882991069 8.7656188085306397 9.7304435837779444 9.8604914560848229 8.236511921193383 9.0663765083548675 9.610601384140903 9.4885564371988558 9.757271030052646 8.7120069981730524 8.0105608486257402 9.1845530271103399 9.0918295633139987 8.9181974378530757 9.0884049496449251 9.1666862416794945 8.9855610255684741 8.7489932367609722 9.1728499804787216 8.9720382202743529 9.029230498265596 8.8090360527778717 9.2221718272972488 8.7073217713359377 7.6937628294511562 9.0466198057693461 8.3333597528516954 8.7484837884109563 9.019203202338316 9.6160877721682034 9.0494298166854197 8.3986020398674341 9.6992549277137705 8.5640819874761025 9.8585632174936464 9.9273882745408066 8.616705529513812 9.1078928518540128 9.9368845196327271 8.7604789770240128 9.6679164455914428 7.8624879193164627 9.2186635665293046 9.8924897546496968 9.3514908754256343 9.0406974320029647 8.8502808539398252 8.8512929762807584 8.8951909702206908 8.8557249378726954 8.4569908666203517 8.1290377621095793 9.4487950936849607 9.4088065688814098 8.5403244398095026 9.5579757122530946 8.0293462845134158 9.6484271010160221 7.8782878131320278 8.9599803721793769 8.9309085804867649 9.0977627714621754 8.8459834332107974 8.9097633864284518 8.8775256441122821 8.7492547306161867 9.5766541192153003 9.304403317850042 9.5859969672302672 8.8329968622047623 8.789138674251344 9.9355051016958491 8.7508323414929166 9.3629131016220697 9.4816563347168419 9.8403215024574671 8.7754002969162741 7.9771777369963601 8.9787170863221526 8.9809404808794255 9.3559174468392889 8.984698373679036 8.9037645331372133 8.6328275269321963 8.5281267323226473 9.0147452107184236 8.4586757641192492 9.5419019247461563 8.0526665354478268 8.9134885293612385 9.1712982577586892 9.1750995275934706 8.7066811565421265 8.60323761402387 9.8038431565074085 8.8289855058663882 9.941451351651466 9.0430591203565864 9.115475821855302 9.7223946527413858 8.6457851859439359 9.7398288723924082 8.590928702863323 9.1472436264040056 9.3056457177161942 9.7204140116277298 8.5552277104567267 9.2945146511370424 8.2089225345829604 8.4795486686265598 9.8718413490668553 9.6581768491796325 9.453267676162266 8.130680136809465 9.8697374341297035 7.834686995028445 9.3251575390413635 9.3095540124957825 9.229116391853168 9.7290953438330199 9.2945992712348389 9.6686330589212623 9.6509193157403619 9.7424924271509035 8.6344554358809678 8.5670448907926531 9.1532177665764962 8.7247351645194513 9.006369340643479 7.6417067364340596 9.7136859103913551 8.0265177768987801 8.7859492110676403 8.4683825529167809 7.8548653612789128 9.6850965608975876 9.2600705673012236 7.4170892833729294 9.7992045651373054 9.8709655129909137 8.5198507161534032 9.1212753768309724 8.7915034547947037 9.1381561670977209 9.2275986200330777 8.2989799215935793 9.7745301361547519 8.8046193622324402 9.8858753065520908 9.2842885355688889 9.3247445877972943 9.4523693643343023 8.770251537452344 9.543087603878682 9.6900227781109596 8.5927238762435696 9.877411147895085 9.2580753951326002 8.80048372752705 9.8795130245612377 7.9923345168409563 9.5342545124092304 9.7868895543800676 8.6808001248392586 8.2892488513631051 8.9313496983109371 9.3222074487358579 8.7908958560088273 9.5029687784131038 9.4030860277208639 9.4910064822359672 9.3904811474579333 8.929317466382992 9.8890127593106421 8.3777496336466069 8.8325969422773554 8.4655245792636276 9.6188382032646 9.8722759647113918 9.2786895198288555 9.4241437397862544 9.7938016428664589 8.3995815891060417 9.62834527445116 8.9435976881947674 8.9484389229532226 9.6413352873188707 9.9447873689635049 9.3426644149528375 8.3064926070903038 8.8392156555103121 9.3452143926108739 9.5286011844469698 8.8113600758194544 8.4235589464833573 8.5360484175497611 9.1284340236613914 8.3787026239525773 9.3113656145604971 8.4938182043125146 9.5237419114229063 9.3983141857316035 8.670476065866124 9.755862621833133 7.5231045443441413 9.7566153020354403 8.9876541944904105 7.7461962478389896 9.6528920284336408 9.2328488271077944 8.7670710357466319 8.7460659113345329 9.0362142386562248 8.5196069511887096 9.1364696541741655 8.3100204105628048 9.3373671525629423 9.2979323311393038 8.3097923799656108 8.3922708685793275 9.0086601559125423 9.9506751109596596 8.5776512380013532 9.6241608169436414 8.2778834632316105 9.670353747270811 8.276298485809642 9.7754689696726569 9.8788178084609406 9.2964620691149857 8.5516595818298544 8.1774004956902662 8.9588287670491056 8.4185301060152096 8.9738633285941649 7.6225446061537712 9.7531094648176069 9.7226851448815985 9.7350884020534529 9.6506716049622909 8.8195498540810124 9.600843946961934 9.5206540933268506 9.1073883707253955 8.9824057196065503 9.0884165593216935 8.6808051310152727 8.4635211579607237 9.3600993830919457 9.4195487733750518 9.1430585042030703 9.9550013326773055 8.6722828087292836 9.35471311344428 9.490680729404497 8.7582366908780394 8.2961862172037826 9.7750939530530587 9.529085015258433 9.4934648156503165 8.6412821305380696 9.3956368557453587 9.9145368033303072 8.9648756399632603 8.94075485290643 8.5083988831707433 9.7832269544179375 8.3283501493173961 9.076611594590279 9.1804947210329324 8.7491541671181778 8.61410440358598 8.5508137643556967 9.4754111352100168 8.8055632502209757 9.05724822676925 9.9482920769358714 9.398724032771181 8.7297495953219073 8.9064977252313398 8.9572767620735707 8.2662299781851161 9.4824334904442669 9.7419758413703015 8.7577397446612881 9.8035366904136314 8.0545103347897822 8.779511899254187 8.8527207845051201 7.7314169762559324 9.6582812947446293 7.9816896721415764 9.544070408365485 9.1063339780606025 9.1926641357042076 9.1801360952236308 9.0978088001826585 9.042119531857983 9.5030107384614944 9.0769919843253444 9.5080744282576752 9.9584134136980254 8.2734735829950985 9.3588272202925324 7.7394599668388526 9.9551485900577106 8.8719731258286387 7.759541485330729 8.754543156038908 8.0476782771456001 9.1098414114162516 9.5775846219865883 9.5468442237462732 8.5508788553454202 8.5870219319154231 9.1760066505063698 9.1288825856094391 9.4618382980271107 8.7158461516059944 8.7199925959798925 8.6616516616436101 8.7309889123230917 9.4296995456797568 8.820794303519337 8.9147811378521489 9.0279873019739139 8.7185430325549991 9.8349016009956909 9.4530849184527348 9.436337482861239 9.9512392465948807 9.5701837464207564 9.1213093734525099 9.0680468226188378 9.213023575907469 9.2846995574516633 9.3420670555458756 8.6529688964389777 8.8494969980034881 9.0282567226539179 8.7755681124905607 8.7429287980512882 8.9050286410255985 9.1468568014415297 8.8519415057348958 9.5596006402795606 9.5124925342004598 9.2322635946192904 8.4505733520560238 9.8231189893513111 9.9003477041639663 9.3124865113670925 9.238924921708545 9.1871926190023121 9.1488603133418636 9.4532379246925693 8.2127631169261637 8.6609131834796322 8.5924332271368566 9.3852434071804556 8.9878836394299633 8.7731534525414361 9.5408358070837025 9.7617346313295261 9.7685745636523453 9.8824957499293937 6.9096244691875217 7.1017709028470115 9.9539593583146839 9.0301040665045917 8.6300151953432991 9.1294855718865016 8.4467103053661532 9.2329421419820612 9.5701163790407513 7.1388750048481082 6.9480060523054252 9.9546322455457954 9.883217292423133 9.9635671410874451 9.4008370175711047 9.9608961219631045 9.8970012380258776 8.9098128687666271 8.922131822531739 9.9628355982811563 8.9984299441613302 9.0764941114957143 9.5772424033912014 8.719074432163886 9.5988547132748927 8.7447638791723499 8.7138335926031161 9.8105546008554505 9.3485902461526695 9.1866646054433208 9.2072244543089514 9.9144433413291431 8.412212726348324 9.2599855408141973 9.5491622756166521 7.9716641446478054 7.6513757471103796 8.4797033490921443 8.8698102722935168 9.0570638018708536 7.5784098441408929 9.9162851493152235 8.8876967751356961 8.7254144675944509 9.8254691442303219 9.9115823932189215 7.9653799156507148 7.3128618313804079 9.9677776817129793 7.3185430195960368 9.1995093680674742 9.4975274093145998 9.1188512841600371 9.4264358235341597 8.8933237879885922 8.9414130039897088 9.8351392000691327 8.196068231041842 9.3685115025094365 9.5288315076997741 9.6746523749719451 9.404807611630801 9.6487288480163631 9.8441548006531008 8.6569043818539075 8.690923354287813 8.5519593244249439 8.8309145791006216 8.6116828594245511 7.5561978064613218 9.5530494951851246 9.0748446639160036 8.8599598391185577 9.4180231189012851 7.6148301463170709 8.7685469309049182 8.5657771054372738 9.4764886096018195 9.2110760287282112 8.0724813432335178 9.459984936614461 9.4086302984430397 9.4882800288931399 9.5540794016988784 8.7021987288555103 9.9062952912002373 7.2547014654525777 7.48347402747474 8.8306427704391908 9.9212987273260307 9.4806431136574485 9.6115166246986963 9.4199863751274897 8.9424694093037065 8.9616455722776465 9.3209751904401479 9.335306454790711 7.4445396113126785 7.219715647166959 9.3915397435289076 8.6723246230530986 8.2867705201299913 8.8319907129546493 8.9107610661280674 9.6607848729510071 9.632224900071801 9.678599134924216 9.8861318991239511 8.4566144025117485 7.9051546583397663 7.9037081711645687 8.2106592840847146 9.2015926720163836 9.3657206978477348 9.7143581981797826 8.8020526174823441 8.4526806936498797 8.3555744926855358 9.6968313443007954 9.8577806369307979 9.3319969681032724 9.9502052689286131 9.7661650356839296 8.8474379679516009 9.2482009479512879 9.8656009640059601 9.3379547751921237 9.942128475811522 8.1908669501759359 9.2364830140899095 9.0287713784072423 8.9188686670964739 8.860589538308016 8.7659411985996627 9.0221113186093529 9.7276403662122046 9.0531098592556454 9.8711454159964056 8.2090978976324944 9.1775132944712912 9.0570649483315435 8.979766837231951 8.5459926342924195 9.4890063843378822 8.8507492142172559 8.9126035968417234 9.046914460998277 9.0816331874094107 9.7573193415781425 8.750429317636172 9.180815499095317 9.0876111522195675 9.1632873436828461 9.1662502474402512 9.0504586000452534 9.6778872833387481 8.9857767651655394 8.7490575483926403 9.0306488155576137 8.9732017477887069 7.6973482581634229 8.697367304409152 8.7560292190797266 8.1646343303507827 8.9020505290574228 8.7089760577876749 9.2220573024720149 9.4570935429286376 9.0857733729770924 8.7497895826297025 7.6985851878715419 8.9145355546113763 9.2917801262469286 8.5593614677620131 9.8585792211470746 9.9273806452194684 9.1080689983616789 8.6168384209593931 9.9351804610867429 9.6082058900842888 7.8568672278471956 9.6600256412922718 8.8285442613121248 9.8925136113252385 9.3587312952838104 9.2569739615462723 7.9961656589964942 8.4520022809766697 9.678596591259101 8.8078760451855445 9.2599031439641859 8.8515513032271542 8.8952146633616067 8.3989672033995593 8.9314536764596308 8.7604137536079119 9.4487837659852634 8.1296840542129658 8.0266643091551977 9.5562715614189706 9.6441835539670411 7.8833416947487081 8.9313759971713758 8.9598259403836806 7.9771447692595601 8.8351219164426045 8.9756024377457511 9.5769360923416045 8.6475604824968251 8.9823214151294621 8.9821733851471741 8.5414977890487087 9.9460209967278619 9.8813322476380083 9.3057124261875543 9.1015938983613509 8.2745930299153336 8.0277148784831915 9.6773209285038391 9.4797813780522429 9.3618288936276066 9.8403530171147331 8.9849541451233925 8.797173988004662 9.3555754385993222 9.0106260512674936 9.5375773964696648 8.0585352488485995 9.048980191538563 9.1196749699723334 9.1707911027811129 9.1690020078181025 8.70292417851911 8.369118939800444 8.7780149813385897 9.941460215150105 9.2969153454033684 8.0319896403409228 9.7181257124787077 9.7320236996591767 9.0142574083345846 8.6832996336027293 9.4730529469518441 9.3807648873144309 8.4493723606355431 8.7882061402059879 9.1474140957305448 8.5911778019850047 8.8513533483033591 9.2971802620293147 8.7759999876692802 9.7665097972744874 8.5299828275273981 9.8718249665912712 9.6570382973811846 9.0846153765859068 8.1304214092922784 9.4523352329514019 9.6182002914569242 7.8457274245702298 9.8627983363929665 9.0309300709424143 9.3091902615672115 9.2287838412343959 9.7249641294172307 8.4732387670777367 9.8887762062726523 9.667775051524174 9.6419586510578377 9.7416837962747298 8.8784500088145428 9.6533310273485 8.7250146078974424 9.0063787445657848 9.41900816081443 8.897547085067167 9.7137834791123989 7.6401924034731978 8.6944216797085208 8.4860720474077667 9.6849610878961805 9.5912004941201019 9.2612908856095082 9.7992618931662356 9.8709949528342946 7.4157850525755595 8.7935606315066419 9.1211127718338645 8.4973311003319481 8.5765843179374421 9.7743837491428156 7.8340868029017674 9.2798246636530273 8.6471183956879472 8.3102907942798367 8.3836619461977175 9.3253364582882803 8.6834540386371835 9.291145169141755 9.4526998118824661 8.4369764662732898 8.6420282152776871 9.5420678938605779 9.3392806059970539 8.6743776694399024 9.7998367447555275 9.877273543801957 8.4791413419657253 9.2541148239236222 9.2985913669255584 9.8725553068728011 9.5208644781084679 9.4627539437273285 8.5955123343689301 9.5342310149864016 7.9932384888842272 9.7222849846096331 8.9293824045872086 9.7813248522359011 9.3230441597548293 8.7909046776572275 8.5675003446468185 8.7437136540998139 9.9513539906283199 8.8823229039136464 9.8723102479131093 9.2784457026724176 9.4240912836009052 9.6319577912526881 8.938622522784696 9.6445605484353401 9.9447724457647766 8.3063148254367327 9.3416000869626874 9.3468357295036562 8.7716413552816714 8.7615681495602633 9.5145899625809687 9.0784987090882936 8.9131630732390317 8.8024465825214584 9.2182605324707172 9.6549883708124877 9.4031830956393758 9.5024146695637022 8.4636348454173032 8.3785573554149337 9.3103417594324771 8.6681160954899941 9.5229442302376981 9.3887796169522826 9.5999380707059725 8.5152097645097893 8.9382819404307696 8.9455549044835454 9.7559359085575377 8.9877306254317286 8.2600236320625413 8.5259108915822388 9.7565565214081644 7.5224920702240219 9.6529689230014544 7.7466776493244147 8.2708854723739407 9.4022926858590417 9.0364455697905761 9.1389919303943721 9.3373562483705701 9.2979390954549821 8.3101341727147187 8.392524251358557 9.2279363686037144 8.5785360257138024 9.6240920681571591 9.6772999509167832 9.8788083041392216 9.7754535829701261 9.2963449034245933 8.7681331446527064 8.7482347201740662 8.1908420557672628 8.9741055336513718 9.7460477744995604 7.6183459238076168 9.7175173198092697 9.7330821002550998 9.5215102774750768 9.6538039382831098 8.8195771402261478 9.6007987853054004 9.5203401802860874 8.6492077049021674 9.0886330006348039 8.6810466352067301 8.9757306914693302 9.8092003861012902 8.9152473342963319 9.3597119067517411 8.5534751544754446 8.673313091302024 9.4828188033391694 9.5272282632094623 9.4914226984983632 8.8730939078862043 9.3540759019839914 9.9512996219427361 9.492102134393221 8.7593168365434195 9.9585732144640495 9.3896469905209727 8.6726596131555382 8.8116241030288514 8.9640196171770867 8.9401693372927173 8.2837631459137633 8.3368911556307648 8.7495309409148732 8.6145916139651515 9.0765448940430069 9.1804416638973585 9.4706116508397518 8.8060683503607411 9.057150418082049 9.9483040848005704 8.7576619322913043 8.7295849455823635 8.2763227581718937 8.2871899750716587 8.2999285909783076 9.8035067661242863 9.0705758927453886 9.4298370701185892 9.106710998279901 8.783189073092398 8.8571245303677131 9.6582200828023144 7.7314284710353718 8.7257978150261764 8.8106610768733944 9.543140518730695 7.9813766881166988 9.1939961984810665 9.1597319888819051 8.0535968409309628 8.9498076527329147 9.0977935937939556 9.0420219063579133 9.5019940359814647 9.5080442980338713 8.4772246184913822 9.1937339494854271 9.1806030652849344 9.8981215209762716 8.6326504375292465 9.0410579740638184 9.9151403370176645 8.8232191290517612 9.9551303227541119 8.793358546975556 8.9910762090843974 9.8318448617627467 8.8492290952279973 8.7558289058685528 9.3604482465862144 9.1758767209244887 9.1287481376738437 8.5511582570927889 8.5872783755591087 9.4533195740412026 8.7223463684215155 8.7242537176975219 8.8252119303665122 8.7160548213282283 8.9168309708142779 9.0277201674998686 9.7745785243875698 9.7581219434867208 8.2481644281739932 8.6382363980105676 9.4530282735261775 9.4365166831520888 9.9512354428687164 9.5701497082022851 8.8897034648044269 9.3374754625586522 8.8001731495543059 9.1231622881794099 8.653215959865868 9.2296135651114053 9.1749693120112621 8.5955118173555665 9.147085088404209 9.2323856052668294 8.4508353444738855 8.774034109661077 8.854383576175259 9.8963810702197108 9.8110221937038986 9.1508763810274836 9.2383534250157524 9.3122091696456124 9.5671447036704738 9.5193686898123371 8.180906654493846 9.0944531586303725 8.9396588879533052 9.4531851696148301 8.9044878134228576 8.9241587582743911 8.7162796087342329 9.7609929791214824 9.766743921766686 9.3855523010597501 9.8354677439929414 8.0509284478001533 9.1594314855880121 9.5352356244950105 9.135895052220814 9.0288769318427722 9.8825303272568146 9.9539701582831945 7.1015346348087043 6.9094455830081323 9.5497576259815915 9.1294613313733688 8.6303952551419147 9.2212469334628384 9.2870220672673529 9.9622910854419118 9.2327888800367539 8.4469537847349976 9.5652892610698608 9.8831965054296695 9.9546483563781543 7.1379049348192058 6.9468371446888701 9.9635690248426982 9.4007445804970935 8.6646954712815401 9.9605681329492448 9.5825325856048451 9.8226260270094183 9.598827202206369 9.34871513945318 9.1129551794570869 9.9138792249701631 9.9119120664899363 9.8268581991952058 9.9626492410183349 8.5757795675820248 8.8746161275706754 8.4211946085984088 9.042183105381902 8.5417566604395745 8.599069891272535 9.9163019724937023 9.2028835494270389 8.2108577050293743 9.7555299454054207 8.8891629505244296 8.7251050411662252 9.9091580025343369 8.7449520732252282 8.7142463123905998 7.3154623106111094 9.9677848565428455 7.3180537946114939 9.4204065864702926 8.8399566449258096 8.8539402558525495 9.4993273572214285 8.8966904879346664 8.9415954362958008 9.8345588178869772 8.1904994392820534 9.528154477569359 9.3680731497678522 7.5640294957309173 7.6209539716011765 9.403514988348963 8.677010107832718 7.5621122057774937 7.6297968460691923 8.6470616110763867 8.5564508406163782 8.8604021285316268 8.7612133809653887 9.6721328046400554 9.6495330912347885 9.8275502336404834 8.8632080822736796 9.4177651762930754 9.4766420084958227 9.5534043300349953 9.471095495931479 9.4141472131236448 9.9138570717101775 8.3705038600659698 8.7654286171287534 9.4080914603354575 9.4783493633911426 8.3899911473729567 9.9210958137367626 9.9062728660719834 9.4200125488880335 9.4794759284634633 8.8078670506252053 7.253245440268854 7.4771685029420443 8.546343707664839 7.2223499479363387 7.445509669438664 9.5563726059346674 9.6081698033263461 8.8204792868678545 9.2973407460358111 9.21464249338025 8.7