<?xml version="1.0"?>
<VTKFile type="UnstructuredGrid" version="0.1" byte_order="LittleEndian">
<UnstructuredGrid>
<Piece NumberOfPoints="9" NumberOfCells="11">
<Points>
<DataArray type="Float64" NumberOfComponents="3" format="ascii">
0 0 0 1 0 0 0 1 0 0 0 2 1 0 2 0 1 2 0.5 0 1 0.5 0.49999999999999989 1 0 0.5 1 
</DataArray>
</Points>
<Cells>
<DataArray type="UInt32" Name="connectivity" format="ascii">
1 6 4 7 8 6 7 3 5 8 7 3 1 2 0 7 8 5 7 2 2 8 0 7 3 6 7 4 8 6 0 7 5 3 7 4 6 1 0 7 6 8 0 3 
</DataArray>
<DataArray type="UInt32" Name="offsets" format="ascii">
4 8 12 16 20 24 28 32 36 40 44 
</DataArray>
<DataArray type="UInt32" Name="types" format="ascii">
10 10 10 10 10 10 10 10 10 10 10 
</DataArray>
</Cells>
<PointData Scalars="pressure_p1," Vectors="" Tensors="">
<DataArray type="Float64" Name="pressure_p1" format="ascii">
0.042406704091232914 0.068757956286614075 0.030104072759750054 0.042406704091232948 0.068757956286614075 0.03010407275975004 0.066073926576033934 0.058538833727973902 0.040894476937598893 
</DataArray>
</PointData>
<CellData Scalars="pressure_p0,cross_section,conductivity,sigma,water_source_density," Vectors="velocity_p0," Tensors="anisotropy,">
<DataArray type="Float64" Name="pressure_p0" format="ascii">
0.097329877724614572 0.068620414673046318 0.036826156299840519 0.052845560871876668 0.03482987772461462 0.036826156299840533 0.074326156299840476 0.068620414673046193 0.052845560871876668 0.074326156299840518 0.032571770334928266 
</DataArray>
<DataArray type="Float64" Name="velocity_p0" NumberOfComponents="3" format="ascii">
1.1387559808612366 0 -30.000000000000007 -5.4258373205741508 -2.4258373205741632 -27.999999999999993 -5.1244019138756034 0.8564593301435437 -28.564593301435405 -1.9377990430622076 1.0622009569378015 -31.062200956937801 -2.9999999999999973 4.1387559808612462 -30.000000000000011 -5.1244019138755919 0.85645933014353659 -31.435406698564584 -2.1435406698564647 -2.1244019138756096 -28.564593301435384 -5.4258373205741695 -2.4258373205741686 -32.000000000000007 -1.9377990430622005 1.0622009569378021 -28.937799043062192 -2.1435406698564647 -2.124401913875599 -31.435406698564613 -6.4258373205741623 -3.4258373205741663 -29.999999999999982 
</DataArray>
<DataArray type="Float64" Name="anisotropy" NumberOfComponents="9" format="ascii">
10 0 0 0 10 0 0 0 10 10 0 0 0 10 0 0 0 10 10 0 0 0 10 0 0 0 10 10 0 0 0 10 0 0 0 10 10 0 0 0 10 0 0 0 10 10 0 0 0 10 0 0 0 10 10 0 0 0 10 0 0 0 10 10 0 0 0 10 0 0 0 10 10 0 0 0 10 0 0 0 10 10 0 0 0 10 0 0 0 10 10 0 0 0 10 0 0 0 10 
</DataArray>
<DataArray type="Float64" Name="cross_section" format="ascii">
5 5 5 5 5 5 5 5 5 5 5 
</DataArray>
<DataArray type="Float64" Name="conductivity" format="ascii">
3 3 3 3 3 3 3 3 3 3 3 
</DataArray>
<DataArray type="Float64" Name="sigma" format="ascii">
0.40000000000000002 0.40000000000000002 0.40000000000000002 0.40000000000000002 0.40000000000000002 0.40000000000000002 0.40000000000000002 0.40000000000000002 0.40000000000000002 0.40000000000000002 0.40000000000000002 
</DataArray>
<DataArray type="Float64" Name="water_source_density" format="ascii">
24 24 24 24 24 24 24 24 24 24 24 
</DataArray>
</CellData>
</Piece>
</UnstructuredGrid>
</VTKFile>
