<?xml version="1.0"?>
<VTKFile type="UnstructuredGrid" version="0.1" byte_order="LittleEndian">
<UnstructuredGrid>
<Piece NumberOfPoints="9" NumberOfCells="11">
<Points>
<DataArray type="Float64" NumberOfComponents="3" format="ascii">
0 0 0 0 1 0 1 0 0 1 0 2 0 1 2 0 0.5 1 0.5 0 1 0.5 0.49999999999999989 1 0 0 2 
</DataArray>
</Points>
<Cells>
<DataArray type="UInt32" Name="connectivity" format="ascii">
0 1 2 7 0 2 6 7 0 5 6 7 0 1 5 7 2 3 6 7 1 4 5 7 0 5 6 8 5 6 7 8 4 5 7 8 3 6 7 8 3 4 7 8 
</DataArray>
<DataArray type="UInt32" Name="offsets" format="ascii">
4 8 12 16 20 24 28 32 36 40 44 
</DataArray>
<DataArray type="UInt32" Name="types" format="ascii">
10 10 10 10 10 10 10 10 10 10 10 
</DataArray>
</Cells>
<CellData Scalars="pressure_p0,cross_section,conductivity,sigma,water_source_density,storativity," Vectors="velocity_p0," Tensors="anisotropy,">
<DataArray type="Float64" Name="pressure_p0" format="ascii">
0.052845551503247504 0.074326134331835381 0.068620364167327627 0.036826134331835222 0.097329859233704213 0.03482985923370472 0.032571753591200646 0.068620364167329501 0.036826134331837443 0.074326134331835686 0.052845551503247656 
</DataArray>
<DataArray type="Float64" Name="velocity_p0" NumberOfComponents="3" format="ascii">
-1.9377998236024676 1.0622001763975273 -31.062200176397536 -2.1435418843296397 -2.124400352795051 -31.435405055420105 -5.4258346381203957 -2.4258346381203864 -31.999996970813513 -5.1244003527950506 0.85645811567039487 -31.435405055420034 1.1387523479648607 2.0898315757650005e-16 -30.000000000000007 -2.9999999999999991 4.1387523479650552 -30.000000000000128 -6.4258339411853092 -3.4258339411853078 -30 -5.4258346381201941 -2.425834638121148 -28.000003029186928 -5.1244003527950248 0.85645811567061636 -28.564594944579511 -2.1435418843296086 -2.1244003527951842 -28.56459494457998 -1.9377998236024911 1.0622001763975926 -28.93779982360245 
</DataArray>
<DataArray type="Float64" Name="anisotropy" NumberOfComponents="9" format="ascii">
10 0 0 0 10 0 0 0 10 10 0 0 0 10 0 0 0 10 10 0 0 0 10 0 0 0 10 10 0 0 0 10 0 0 0 10 10 0 0 0 10 0 0 0 10 10 0 0 0 10 0 0 0 10 10 0 0 0 10 0 0 0 10 10 0 0 0 10 0 0 0 10 10 0 0 0 10 0 0 0 10 10 0 0 0 10 0 0 0 10 10 0 0 0 10 0 0 0 10 
</DataArray>
<DataArray type="Float64" Name="cross_section" format="ascii">
4.25 4.25 4.25 4.25 4.25 4.25 4.25 4.25 4.25 4.25 4.25 
</DataArray>
<DataArray type="Float64" Name="conductivity" format="ascii">
3 3 3 3 3 3 3 3 3 3 3 
</DataArray>
<DataArray type="Float64" Name="sigma" format="ascii">
0.40000000000000002 0.40000000000000002 0.40000000000000002 0.40000000000000002 0.40000000000000002 0.40000000000000002 0.40000000000000002 0.40000000000000002 0.40000000000000002 0.40000000000000002 0.40000000000000002 
</DataArray>
<DataArray type="Float64" Name="water_source_density" format="ascii">
24 24 24 24 24 24 24 24 24 24 24 
</DataArray>
<DataArray type="Float64" Name="storativity" format="ascii">
1 1 1 1 1 1 1 1 1 1 1 
</DataArray>
</CellData>
</Piece>
</UnstructuredGrid>
</VTKFile>
