<?xml version="1.0"?>
<VTKFile type="UnstructuredGrid" version="0.1" byte_order="LittleEndian">
<UnstructuredGrid>
<Piece NumberOfPoints="69" NumberOfCells="124">
<Points>
<DataArray type="Float64" NumberOfComponents="3" format="ascii">
0.000000000000000e+00 1.000000000000000e+00 0.000000000000000e+00 1.000000000000000e+00 1.000000000000000e+00 0.000000000000000e+00 1.000000000000000e+00 0.000000000000000e+00 0.000000000000000e+00 0.000000000000000e+00 0.000000000000000e+00 0.000000000000000e+00 2.500000000000000e-01 -0.000000000000000e+00 0.000000000000000e+00 0.000000000000000e+00 2.500000000000000e-01 0.000000000000000e+00 5.000000000000000e-01 5.000000000000000e-01 -0.000000000000000e+00 7.500000000000000e-01 1.000000000000000e+00 0.000000000000000e+00 6.875000000000000e-01 8.750000000000000e-01 0.000000000000000e+00 6.250000000000000e-01 7.500000000000000e-01 0.000000000000000e+00 5.625000000000000e-01 6.250000000000000e-01 0.000000000000000e+00 1.249999999997599e-01 3.124999999998800e-01 0.000000000000000e+00 2.499999999996086e-01 3.749999999998043e-01 0.000000000000000e+00 3.749999999997349e-01 4.374999999998674e-01 0.000000000000000e+00 4.375000000000694e-01 3.750000000001388e-01 0.000000000000000e+00 3.750000000002776e-01 2.500000000005551e-01 0.000000000000000e+00 3.125000000002082e-01 1.250000000004163e-01 0.000000000000000e+00 1.000000000000000e+00 8.333333333335646e-01 0.000000000000000e+00 1.000000000000000e+00 6.666666666673605e-01 0.000000000000000e+00 1.000000000000000e+00 5.000000000013877e-01 0.000000000000000e+00 1.000000000000000e+00 3.333333333344898e-01 0.000000000000000e+00 1.000000000000000e+00 1.666666666673605e-01 0.000000000000000e+00 8.750000000000000e-01 1.000000000000000e+00 0.000000000000000e+00 5.625000000008674e-01 1.000000000000000e+00 0.000000000000000e+00 3.750000000006939e-01 1.000000000000000e+00 0.000000000000000e+00 1.875000000005205e-01 1.000000000000000e+00 0.000000000000000e+00 0.000000000000000e+00 8.125000000010408e-01 0.000000000000000e+00 0.000000000000000e+00 6.250000000006939e-01 0.000000000000000e+00 0.000000000000000e+00 4.375000000003469e-01 0.000000000000000e+00 0.000000000000000e+00 1.250000000003469e-01 0.000000000000000e+00 1.249999999997554e-01 0.000000000000000e+00 0.000000000000000e+00 4.374999999991326e-01 0.000000000000000e+00 0.000000000000000e+00 6.249999999989591e-01 0.000000000000000e+00 0.000000000000000e+00 8.124999999994795e-01 0.000000000000000e+00 0.000000000000000e+00 2.798796021293082e-01 8.344274147057053e-01 0.000000000000000e+00 2.645244370067465e-01 5.156353158163987e-01 0.000000000000000e+00 4.139414069912184e-01 6.056325264010037e-01 0.000000000000000e+00 4.492710539671537e-01 8.556512408515589e-01 0.000000000000000e+00 2.758946705068648e-01 6.605885315643570e-01 0.000000000000000e+00 1.390078959961168e-01 7.261831610706000e-01 0.000000000000000e+00 1.492912418697525e-01 4.458279356810638e-01 0.000000000000000e+00 5.014585693307863e-01 7.367466304650486e-01 0.000000000000000e+00 1.392858751591214e-01 5.733980610567744e-01 0.000000000000000e+00 3.813620468049507e-01 7.403859221383123e-01 0.000000000000000e+00 1.271010713601231e-01 8.709480661820344e-01 0.000000000000000e+00 5.677751205718758e-01 8.470224641095303e-01 0.000000000000000e+00 5.698670717843664e-01 3.776209365087199e-01 0.000000000000000e+00 7.125974780784441e-01 6.384669131570183e-01 0.000000000000000e+00 8.608728669021763e-01 2.520652359795942e-01 0.000000000000000e+00 8.578792739151740e-01 7.535325208825020e-01 0.000000000000000e+00 5.447576766858295e-01 1.431838882066932e-01 0.000000000000000e+00 7.150899340618379e-01 1.571595685477760e-01 0.000000000000000e+00 8.612746697781972e-01 5.794807697879764e-01 0.000000000000000e+00 7.533843026232094e-01 4.929444342317560e-01 0.000000000000000e+00 8.055298449100090e-01 8.871112287212741e-01 0.000000000000000e+00 8.656940847709105e-01 4.098367391676661e-01 0.000000000000000e+00 7.182603949284063e-01 3.456402071721618e-01 0.000000000000000e+00 6.323653418237701e-01 5.029675640633227e-01 0.000000000000000e+00 6.110846258508276e-01 2.575059958234323e-01 0.000000000000000e+00 4.945749328930023e-01 2.625170377655549e-01 0.000000000000000e+00 7.385779517043357e-01 7.773678856428465e-01 0.000000000000000e+00 8.769890164881212e-01 1.160638338657984e-01 0.000000000000000e+00 9.063795342218008e-01 9.020858332805730e-01 0.000000000000000e+00 4.287911518546233e-01 1.545544542796670e-01 0.000000000000000e+00 2.403886547178353e-01 2.418881479267384e-01 0.000000000000000e+00 1.840276181286450e-01 1.117324051466445e-01 0.000000000000000e+00 3.381944444444832e-01 3.381944444445634e-01 0.000000000000000e+00 1.008171452988615e-01 1.888570369725047e-01 0.000000000000000e+00 8.435242216391163e-02 8.645171265626619e-02 0.000000000000000e+00 
</DataArray>
</Points>
<Cells>
<DataArray type="Int32" Name="connectivity" format="ascii">
7 8 8 9 9 10 10 6 5 11 11 12 12 13 13 6 6 14 14 15 15 16 16 4 13 36 35 13 6 36 5 11 28 8 7 23 36 38 35 34 39 38 28 40 42 24 37 23 28 42 27 24 34 37 24 25 34 34 38 43 23 37 45 8 23 45 10 36 6 28 11 40 0 26 44 13 35 12 25 0 44 26 27 39 12 40 11 38 39 42 37 34 43 34 44 39 10 41 36 25 44 34 12 35 40 35 38 42 10 9 41 36 41 43 8 45 9 9 45 41 27 42 39 36 43 38 26 39 44 35 42 40 37 41 45 37 43 41 46 56 57 53 57 56 49 47 52 4 31 16 49 60 47 52 55 19 51 48 56 52 53 55 31 32 50 54 49 62 17 62 49 17 49 18 21 20 48 32 51 50 33 51 32 18 49 52 1 62 17 53 56 55 18 52 19 52 47 53 16 31 63 51 61 48 20 19 55 14 46 6 51 56 58 10 47 9 55 56 48 8 54 7 22 7 54 20 55 48 33 61 51 33 2 61 31 50 63 6 46 57 21 61 2 10 57 47 46 58 56 51 58 50 53 47 57 14 59 46 9 47 60 10 6 57 54 60 49 8 60 54 15 59 14 1 22 62 21 48 61 8 9 60 46 59 58 16 63 15 15 63 59 50 59 63 22 54 62 50 58 59 14 6 13 11 67 64 4 65 30 4 16 65 13 12 66 15 14 66 65 64 67 16 15 64 12 11 64 15 66 64 12 64 66 11 5 67 16 64 65 14 13 66 3 68 29 3 30 68 29 67 5 30 65 68 29 68 67 67 68 65 
</DataArray>
<DataArray type="Int32" Name="offsets" format="ascii">
2 4 6 8 10 12 14 16 18 20 22 24 27 30 33 36 39 42 45 48 51 54 57 60 63 66 69 72 75 78 81 84 87 90 93 96 99 102 105 108 111 114 117 120 123 126 129 132 135 138 141 144 147 150 153 156 159 162 165 168 171 174 177 180 183 186 189 192 195 198 201 204 207 210 213 216 219 222 225 228 231 234 237 240 243 246 249 252 255 258 261 264 267 270 273 276 279 282 285 288 291 294 297 300 303 306 309 312 315 318 321 324 327 330 333 336 339 342 345 348 351 354 357 360 
</DataArray>
<DataArray type="UInt8" Name="types" format="ascii">
3 3 3 3 3 3 3 3 3 3 3 3 5 5 5 5 5 5 5 5 5 5 5 5 5 5 5 5 5 5 5 5 5 5 5 5 5 5 5 5 5 5 5 5 5 5 5 5 5 5 5 5 5 5 5 5 5 5 5 5 5 5 5 5 5 5 5 5 5 5 5 5 5 5 5 5 5 5 5 5 5 5 5 5 5 5 5 5 5 5 5 5 5 5 5 5 5 5 5 5 5 5 5 5 5 5 5 5 5 5 5 5 5 5 5 5 5 5 5 5 5 5 5 5 
</DataArray>
</Cells>
<CellData Scalars="age_conc,U235_conc," Vectors="">
<DataArray type="Float64" Name="age_conc" format="ascii">
9.999221131311514e-01 9.998421293155075e-01 9.997589944590297e-01 9.996705606347146e-01 9.990186243092072e-01 9.991772784227884e-01 9.993410298423229e-01 9.995065331488260e-01 9.994968753656029e-01 9.993253912886348e-01 9.991583762413064e-01 9.989988614605902e-01 9.953879757374596e-01 9.959735167171557e-01 9.935284153024787e-01 9.996050223363141e-01 9.963174512455895e-01 9.972955578821094e-01 9.947466579196227e-01 9.994291533294702e-01 9.955956482883048e-01 9.988556680495474e-01 9.991751891243356e-01 9.978180827643360e-01 9.987307663982495e-01 9.992942600948419e-01 9.966976951921345e-01 9.939721268266637e-01 9.987669470089132e-01 9.948426042537355e-01 9.992243435332900e-01 9.973861817271594e-01 9.939568231358382e-01 9.967660236180844e-01 9.982844310188843e-01 9.982068446963038e-01 9.972953058553542e-01 9.987573583095790e-01 9.944498940249146e-01 9.958856070330303e-01 9.979260916702767e-01 9.972718345788869e-01 9.988502481208479e-01 9.984201260278238e-01 9.963351974334062e-01 9.969124070265177e-01 9.979642909766948e-01 9.954262025425884e-01 9.982992126539159e-01 9.978535675973494e-01 9.960394810296611e-01 9.964817043868653e-01 9.976284620687546e-01 9.928347949097418e-01 9.974810627909665e-01 9.984449719439745e-01 9.969214839746035e-01 9.977041542645338e-01 9.948901905581433e-01 9.985490967837397e-01 9.989403927607634e-01 9.990944482553111e-01 9.990362231061650e-01 9.954657009286583e-01 9.968345836388246e-01 9.985353769864938e-01 9.994992753544034e-01 9.971992213607532e-01 9.989901361935655e-01 9.971639683306079e-01 9.932535874239339e-01 9.976089594185904e-01 9.990297224209291e-01 9.948327273355311e-01 9.962094502252150e-01 9.965941776222121e-01 9.974890434926249e-01 9.985166798389393e-01 9.991001311596055e-01 9.985131342592437e-01 9.973968816855555e-01 9.987008354453044e-01 9.939101613906769e-01 9.952777228668777e-01 9.991470207648048e-01 9.960772658932266e-01 9.956072148643544e-01 9.957669205197301e-01 9.966530692876476e-01 9.943962215850952e-01 9.970736353564635e-01 9.956301006954552e-01 9.980880309932151e-01 9.979715805877809e-01 9.939534785808657e-01 9.994832617702245e-01 9.986475132440971e-01 9.974726763768991e-01 9.951568805077591e-01 9.931571731257631e-01 9.935948973120790e-01 9.944554132286062e-01 9.990514943438782e-01 9.948547981955272e-01 9.985460808459307e-01 9.950756036215913e-01 9.926483155806741e-01 9.943648537006763e-01 9.976318197789069e-01 9.976251020262995e-01 9.938086425575571e-01 9.961460403799125e-01 9.961738370885524e-01 9.965406631252165e-01 9.965544081382058e-01 9.944021976557176e-01 9.950639882505097e-01 9.978518551015743e-01 9.908574288843002e-01 9.906506019823452e-01 9.928591788211282e-01 9.918512715660739e-01 9.920241405495532e-01 9.929025277253225e-01 
</DataArray>
<DataArray type="Float64" Name="U235_conc" format="ascii">
9.999219384582740e-01 9.998417764636718e-01 9.997584580538710e-01 9.996698316788868e-01 9.990164986030383e-01 9.991754887113042e-01 9.993395883719034e-01 9.995054471854978e-01 9.994957725996426e-01 9.993239235898210e-01 9.991565560345724e-01 9.989967050147945e-01 9.953791223102613e-01 9.959656114569321e-01 9.935170266672950e-01 9.996041507875244e-01 9.963101302981940e-01 9.972900175610147e-01 9.947368149753283e-01 9.994279060003152e-01 9.955871531863846e-01 9.988532081032766e-01 9.991734137870826e-01 9.978135334652357e-01 9.987280389306508e-01 9.992927145456747e-01 9.966910390072775e-01 9.939612468377914e-01 9.987643176956202e-01 9.948329119347613e-01 9.992226760599932e-01 9.973808200267432e-01 9.939459116135094e-01 9.967595097548360e-01 9.982808057754899e-01 9.982030727121265e-01 9.972897431330143e-01 9.987547047624146e-01 9.944396359579264e-01 9.958775578966126e-01 9.979217350188960e-01 9.972662290212166e-01 9.988477637987094e-01 9.984167556258698e-01 9.963279286690757e-01 9.969061423826258e-01 9.979600410939797e-01 9.954173985469159e-01 9.982956029230815e-01 9.978490724959656e-01 9.960317230910649e-01 9.964747128461309e-01 9.976235731319564e-01 9.928227808417718e-01 9.974758583530421e-01 9.984417016827083e-01 9.969153177842646e-01 9.976994324324335e-01 9.948807249898119e-01 9.985459979645810e-01 9.989381066674468e-01 9.990925020740584e-01 9.990341796944173e-01 9.954570809314524e-01 9.968282832613105e-01 9.985322715011016e-01 9.994981769421398e-01 9.971935419755175e-01 9.989879897150635e-01 9.971582002972433e-01 9.932418817148631e-01 9.976040970163976e-01 9.990276649593151e-01 9.948230035863842e-01 9.962020340346676e-01 9.965873445780314e-01 9.974839310430559e-01 9.985135343924472e-01 9.990981942247867e-01 9.985100075355906e-01 9.973916148671448e-01 9.986980845984018e-01 9.938992328930103e-01 9.952686882499429e-01 9.991452041845963e-01 9.960695381733011e-01 9.955987357391010e-01 9.957587588611552e-01 9.966463704541730e-01 9.943858606908595e-01 9.970676724685510e-01 9.956216242304997e-01 9.980840021914128e-01 9.979673407005912e-01 9.939425064974410e-01 9.994821292300609e-01 9.986446585924744e-01 9.974674710228090e-01 9.951476821571694e-01 9.931452649767092e-01 9.935834764270501e-01 9.944451804325649e-01 9.990494382720583e-01 9.948451507680736e-01 9.985430056981075e-01 9.950725729504697e-01 9.927298165636591e-01 9.943854683686310e-01 9.976270071653773e-01 9.976202807997447e-01 9.938219832785513e-01 9.961401564818868e-01 9.961678375215006e-01 9.965341919258054e-01 9.965479206314976e-01 9.944248215367517e-01 9.950612499896176e-01 9.978474065039812e-01 9.910014747810074e-01 9.908021782334729e-01 9.929408494454485e-01 9.919485116788834e-01 9.921167707829734e-01 9.929358274605224e-01 
</DataArray>
</CellData>
</Piece>
</UnstructuredGrid>
</VTKFile>
