<?xml version="1.0"?>
<VTKFile type="UnstructuredGrid" version="0.1" byte_order="LittleEndian">
<UnstructuredGrid>
<Piece NumberOfPoints="69" NumberOfCells="124">
<Points>
<DataArray type="Float64" NumberOfComponents="3" format="ascii">
0.000000000000000e+00 1.000000000000000e+00 0.000000000000000e+00 1.000000000000000e+00 1.000000000000000e+00 0.000000000000000e+00 1.000000000000000e+00 0.000000000000000e+00 0.000000000000000e+00 0.000000000000000e+00 0.000000000000000e+00 0.000000000000000e+00 2.500000000000000e-01 -0.000000000000000e+00 0.000000000000000e+00 0.000000000000000e+00 2.500000000000000e-01 0.000000000000000e+00 5.000000000000000e-01 5.000000000000000e-01 -0.000000000000000e+00 7.500000000000000e-01 1.000000000000000e+00 0.000000000000000e+00 6.875000000000000e-01 8.750000000000000e-01 0.000000000000000e+00 6.250000000000000e-01 7.500000000000000e-01 0.000000000000000e+00 5.625000000000000e-01 6.250000000000000e-01 0.000000000000000e+00 1.249999999997599e-01 3.124999999998800e-01 0.000000000000000e+00 2.499999999996086e-01 3.749999999998043e-01 0.000000000000000e+00 3.749999999997349e-01 4.374999999998674e-01 0.000000000000000e+00 4.375000000000694e-01 3.750000000001388e-01 0.000000000000000e+00 3.750000000002776e-01 2.500000000005551e-01 0.000000000000000e+00 3.125000000002082e-01 1.250000000004163e-01 0.000000000000000e+00 1.000000000000000e+00 8.333333333335646e-01 0.000000000000000e+00 1.000000000000000e+00 6.666666666673605e-01 0.000000000000000e+00 1.000000000000000e+00 5.000000000013877e-01 0.000000000000000e+00 1.000000000000000e+00 3.333333333344898e-01 0.000000000000000e+00 1.000000000000000e+00 1.666666666673605e-01 0.000000000000000e+00 8.750000000000000e-01 1.000000000000000e+00 0.000000000000000e+00 5.625000000008674e-01 1.000000000000000e+00 0.000000000000000e+00 3.750000000006939e-01 1.000000000000000e+00 0.000000000000000e+00 1.875000000005205e-01 1.000000000000000e+00 0.000000000000000e+00 0.000000000000000e+00 8.125000000010408e-01 0.000000000000000e+00 0.000000000000000e+00 6.250000000006939e-01 0.000000000000000e+00 0.000000000000000e+00 4.375000000003469e-01 0.000000000000000e+00 0.000000000000000e+00 1.250000000003469e-01 0.000000000000000e+00 1.249999999997554e-01 0.000000000000000e+00 0.000000000000000e+00 4.374999999991326e-01 0.000000000000000e+00 0.000000000000000e+00 6.249999999989591e-01 0.000000000000000e+00 0.000000000000000e+00 8.124999999994795e-01 0.000000000000000e+00 0.000000000000000e+00 2.798796021293082e-01 8.344274147057053e-01 0.000000000000000e+00 2.645244370067465e-01 5.156353158163987e-01 0.000000000000000e+00 4.139414069912184e-01 6.056325264010037e-01 0.000000000000000e+00 4.492710539671537e-01 8.556512408515589e-01 0.000000000000000e+00 2.758946705068648e-01 6.605885315643570e-01 0.000000000000000e+00 1.390078959961168e-01 7.261831610706000e-01 0.000000000000000e+00 1.492912418697525e-01 4.458279356810638e-01 0.000000000000000e+00 5.014585693307863e-01 7.367466304650486e-01 0.000000000000000e+00 1.392858751591214e-01 5.733980610567744e-01 0.000000000000000e+00 3.813620468049507e-01 7.403859221383123e-01 0.000000000000000e+00 1.271010713601231e-01 8.709480661820344e-01 0.000000000000000e+00 5.677751205718758e-01 8.470224641095303e-01 0.000000000000000e+00 5.698670717843664e-01 3.776209365087199e-01 0.000000000000000e+00 7.125974780784441e-01 6.384669131570183e-01 0.000000000000000e+00 8.608728669021763e-01 2.520652359795942e-01 0.000000000000000e+00 8.578792739151740e-01 7.535325208825020e-01 0.000000000000000e+00 5.447576766858295e-01 1.431838882066932e-01 0.000000000000000e+00 7.150899340618379e-01 1.571595685477760e-01 0.000000000000000e+00 8.612746697781972e-01 5.794807697879764e-01 0.000000000000000e+00 7.533843026232094e-01 4.929444342317560e-01 0.000000000000000e+00 8.055298449100090e-01 8.871112287212741e-01 0.000000000000000e+00 8.656940847709105e-01 4.098367391676661e-01 0.000000000000000e+00 7.182603949284063e-01 3.456402071721618e-01 0.000000000000000e+00 6.323653418237701e-01 5.029675640633227e-01 0.000000000000000e+00 6.110846258508276e-01 2.575059958234323e-01 0.000000000000000e+00 4.945749328930023e-01 2.625170377655549e-01 0.000000000000000e+00 7.385779517043357e-01 7.773678856428465e-01 0.000000000000000e+00 8.769890164881212e-01 1.160638338657984e-01 0.000000000000000e+00 9.063795342218008e-01 9.020858332805730e-01 0.000000000000000e+00 4.287911518546233e-01 1.545544542796670e-01 0.000000000000000e+00 2.403886547178353e-01 2.418881479267384e-01 0.000000000000000e+00 1.840276181286450e-01 1.117324051466445e-01 0.000000000000000e+00 3.381944444444832e-01 3.381944444445634e-01 0.000000000000000e+00 1.008171452988615e-01 1.888570369725047e-01 0.000000000000000e+00 8.435242216391163e-02 8.645171265626619e-02 0.000000000000000e+00 
</DataArray>
</Points>
<Cells>
<DataArray type="Int32" Name="connectivity" format="ascii">
7 8 8 9 9 10 10 6 5 11 11 12 12 13 13 6 6 14 14 15 15 16 16 4 13 36 35 13 6 36 5 11 28 8 7 23 36 38 35 34 39 38 28 40 42 24 37 23 28 42 27 24 34 37 24 25 34 34 38 43 23 37 45 8 23 45 10 36 6 28 11 40 0 26 44 13 35 12 25 0 44 26 27 39 12 40 11 38 39 42 37 34 43 34 44 39 10 41 36 25 44 34 12 35 40 35 38 42 10 9 41 36 41 43 8 45 9 9 45 41 27 42 39 36 43 38 26 39 44 35 42 40 37 41 45 37 43 41 46 56 57 53 57 56 49 47 52 4 31 16 49 60 47 52 55 19 51 48 56 52 53 55 31 32 50 54 49 62 17 62 49 17 49 18 21 20 48 32 51 50 33 51 32 18 49 52 1 62 17 53 56 55 18 52 19 52 47 53 16 31 63 51 61 48 20 19 55 14 46 6 51 56 58 10 47 9 55 56 48 8 54 7 22 7 54 20 55 48 33 61 51 33 2 61 31 50 63 6 46 57 21 61 2 10 57 47 46 58 56 51 58 50 53 47 57 14 59 46 9 47 60 10 6 57 54 60 49 8 60 54 15 59 14 1 22 62 21 48 61 8 9 60 46 59 58 16 63 15 15 63 59 50 59 63 22 54 62 50 58 59 14 6 13 11 67 64 4 65 30 4 16 65 13 12 66 15 14 66 65 64 67 16 15 64 12 11 64 15 66 64 12 64 66 11 5 67 16 64 65 14 13 66 3 68 29 3 30 68 29 67 5 30 65 68 29 68 67 67 68 65 
</DataArray>
<DataArray type="Int32" Name="offsets" format="ascii">
2 4 6 8 10 12 14 16 18 20 22 24 27 30 33 36 39 42 45 48 51 54 57 60 63 66 69 72 75 78 81 84 87 90 93 96 99 102 105 108 111 114 117 120 123 126 129 132 135 138 141 144 147 150 153 156 159 162 165 168 171 174 177 180 183 186 189 192 195 198 201 204 207 210 213 216 219 222 225 228 231 234 237 240 243 246 249 252 255 258 261 264 267 270 273 276 279 282 285 288 291 294 297 300 303 306 309 312 315 318 321 324 327 330 333 336 339 342 345 348 351 354 357 360 
</DataArray>
<DataArray type="UInt8" Name="types" format="ascii">
3 3 3 3 3 3 3 3 3 3 3 3 5 5 5 5 5 5 5 5 5 5 5 5 5 5 5 5 5 5 5 5 5 5 5 5 5 5 5 5 5 5 5 5 5 5 5 5 5 5 5 5 5 5 5 5 5 5 5 5 5 5 5 5 5 5 5 5 5 5 5 5 5 5 5 5 5 5 5 5 5 5 5 5 5 5 5 5 5 5 5 5 5 5 5 5 5 5 5 5 5 5 5 5 5 5 5 5 5 5 5 5 5 5 5 5 5 5 5 5 5 5 5 5 
</DataArray>
</Cells>
<CellData Scalars="age_conc,U235_conc," Vectors="" Tensors="">
<DataArray type="Float64" Name="age_conc" format="ascii">
9.999224179550044e-01 9.998427471303544e-01 9.997599375421746e-01 9.996718496361341e-01 9.990224649127049e-01 9.991804975547685e-01 9.993436078588218e-01 9.995084637541095e-01 9.994988436692831e-01 9.993280304825481e-01 9.991616699527799e-01 9.990027814888727e-01 9.954059957276995e-01 9.959892419365036e-01 9.935543683006827e-01 9.996065676728302e-01 9.963318341863088e-01 9.973061254518570e-01 9.947671870294554e-01 9.994313863467985e-01 9.956128583289443e-01 9.988601430979178e-01 9.991784147254372e-01 9.978266109823191e-01 9.987357298552113e-01 9.992970208930556e-01 9.967105956447055e-01 9.939959619992231e-01 9.987717683425823e-01 9.948627845400220e-01 9.992273768437321e-01 9.973963954247587e-01 9.939807057645345e-01 9.967786570613489e-01 9.982911379770898e-01 9.982138544431406e-01 9.973058750485322e-01 9.987622172500852e-01 9.944716677438422e-01 9.959016733314188e-01 9.979341987226118e-01 9.972824953236950e-01 9.988547447668241e-01 9.984263034846501e-01 9.963495109195571e-01 9.969244699085670e-01 9.979722479061527e-01 9.954440598676196e-01 9.983058623093554e-01 9.978619577215737e-01 9.960549476558647e-01 9.964954461522019e-01 9.976377297619821e-01 9.928643046198798e-01 9.974909068217992e-01 9.984510508021417e-01 9.969335111049128e-01 9.977131258788307e-01 9.949104252669758e-01 9.985547700692790e-01 9.989445367473111e-01 9.990979895136374e-01 9.990399912409862e-01 9.954834746076806e-01 9.968469668454962e-01 9.985411032131813e-01 9.995012342106611e-01 9.972101638328180e-01 9.989940846278955e-01 9.971750488679481e-01 9.932806029283946e-01 9.976183037695696e-01 9.990335159417194e-01 9.948529029668565e-01 9.962242589235899e-01 9.966074815241502e-01 9.974988544740441e-01 9.985224791747365e-01 9.991036502879364e-01 9.985189466931611e-01 9.974070561510970e-01 9.987059149149892e-01 9.939342523875826e-01 9.952961597299419e-01 9.991503560085233e-01 9.960925850975741e-01 9.956243683571357e-01 9.957834660267003e-01 9.966661428668131e-01 9.944181164615676e-01 9.970850690996674e-01 9.956471630328394e-01 9.980955054021339e-01 9.979795091768178e-01 9.939771468082832e-01 9.994852832397673e-01 9.986528007670868e-01 9.974825526883341e-01 9.951757954108222e-01 9.931843355365964e-01 9.936200701200844e-01 9.944771173986553e-01 9.990552041370084e-01 9.948749084003397e-01 9.985517747144883e-01 9.951406736473762e-01 9.935565446917736e-01 9.946519906427675e-01 9.976412186357129e-01 9.976345354127938e-01 9.940304963879619e-01 9.961717555319171e-01 9.961982850606336e-01 9.965563618112037e-01 9.965698076425341e-01 9.947109262567599e-01 9.951315051752987e-01 9.978602845045493e-01 9.924036876079427e-01 9.922684042065226e-01 9.937755088992100e-01 9.929129074889620e-01 9.930433811389912e-01 9.933100518972890e-01 
</DataArray>
<DataArray type="Float64" Name="U235_conc" format="ascii">
9.999222289623415e-01 9.998423651144274e-01 9.997593563488734e-01 9.996710589510585e-01 9.990201495136524e-01 9.991785498929742e-01 9.993420409827802e-01 9.995072846967128e-01 9.994976453942319e-01 9.993264332825169e-01 9.991596865076996e-01 9.990004293413290e-01 9.953961053147968e-01 9.959804579148148e-01 9.935412470224170e-01 9.996056219408802e-01 9.963237222198262e-01 9.973000255158793e-01 9.947561264359751e-01 9.994300303664891e-01 9.956033783311877e-01 9.988574605850300e-01 9.991764792098126e-01 9.978216202027343e-01 9.987327554298013e-01 9.992953414257757e-01 9.967032421411434e-01 9.939835709482892e-01 9.987688966261026e-01 9.948518965321942e-01 9.992255584785854e-01 9.973904937495299e-01 9.939682825070288e-01 9.967714596750968e-01 9.982871715318886e-01 9.982097237149852e-01 9.972997554786959e-01 9.987593198925123e-01 9.944600866131402e-01 9.958927227331797e-01 9.979294264944727e-01 9.972763274140886e-01 9.988520383445421e-01 9.984226227748991e-01 9.963414525532241e-01 9.969175586528860e-01 9.979675867654356e-01 9.954342337277984e-01 9.983019162566251e-01 9.978570307977146e-01 9.960463230658281e-01 9.964876983119231e-01 9.976323539369804e-01 9.928501143939843e-01 9.974851867909177e-01 9.984474692921195e-01 9.969266889551622e-01 9.977079312018456e-01 9.948997072678697e-01 9.985513866951392e-01 9.989420455448554e-01 9.990958671369303e-01 9.990377568369524e-01 9.954738106165355e-01 9.968399828597535e-01 9.985377077232933e-01 9.995000410003685e-01 9.972038972294346e-01 9.989917387590890e-01 9.971686885760725e-01 9.932670584578440e-01 9.976129410262675e-01 9.990312662610408e-01 9.948419914719724e-01 9.962160103950264e-01 9.965999252290383e-01 9.974932180747769e-01 9.985190400622006e-01 9.991015386199487e-01 9.985155222772970e-01 9.974012406880153e-01 9.987029061849073e-01 9.939217806076314e-01 9.952860618572774e-01 9.991483713554080e-01 9.960840053017794e-01 9.956149103245000e-01 9.957743559998616e-01 9.966587310026906e-01 9.944064364248664e-01 9.970784966454043e-01 9.956377192864396e-01 9.980910949733690e-01 9.979748601768219e-01 9.939647102229494e-01 9.994840527522005e-01 9.986496765757360e-01 9.974768279610371e-01 9.951654952214479e-01 9.931706130918717e-01 9.936070454501873e-01 9.944655680959071e-01 9.990529656036020e-01 9.948640685385099e-01 9.985484090234562e-01 9.951308846759110e-01 9.935543516802037e-01 9.946439074191371e-01 9.976358897786910e-01 9.976291944692537e-01 9.940202544699457e-01 9.961636018763713e-01 9.961901714684823e-01 9.965488226298808e-01 9.965622911641476e-01 9.947032964076926e-01 9.951217203942181e-01 9.978553919847281e-01 9.924075493453032e-01 9.922727687814716e-01 9.937740745938766e-01 9.929112376771422e-01 9.930415563880626e-01 9.933004773274142e-01 
</DataArray>
</CellData>
</Piece>
</UnstructuredGrid>
</VTKFile>
