<?xml version="1.0"?>
<VTKFile type="UnstructuredGrid" version="0.1" byte_order="LittleEndian">
<UnstructuredGrid>
<Piece NumberOfPoints="3142" NumberOfCells="1054">
<Points>
<DataArray type="Float64" NumberOfComponents="3" format="ascii">
0 0 0 0.049999999999899652 0 0 0.02576622439977887 0.024532886826226379 0 0 0 0 0.02576622439977887 0.024532886826226379 0 0 0.050000000000207989 0 0.049999999999899652 0 0 0.053064897599215843 0.048131547304697528 0 0.02576622439977887 0.024532886826226379 0 0 0.050000000000207989 0 0.02576622439977887 0.024532886826226379 0 0.053064897599215843 0.048131547304697528 0 0 0.10000000000041601 0 0 0.050000000000207989 0 0.044310582753132287 0.101412518374475 0 0 0.15000000000062411 0 0 0.10000000000041601 0 0.044310582753132287 0.101412518374475 0 0.083411279318303222 0.089699755330707398 0 0.044310582753132287 0.101412518374475 0 0.053064897599215843 0.048131547304697528 0 0 0.050000000000207989 0 0.053064897599215843 0.048131547304697528 0 0.044310582753132287 0.101412518374475 0 0.083411279318303222 0.089699755330707398 0 0.065374659239632718 0.1448908038746782 0 0.044310582753132287 0.101412518374475 0 0.083411279318303222 0.089699755330707398 0 0.1053400320299198 0.12877248826361379 0 0.065374659239632718 0.1448908038746782 0 0.083411279318303222 0.089699755330707398 0 0.12372429750337779 0.095814237875728972 0 0.1053400320299198 0.12877248826361379 0 0.14332333627550789 0.14578431753966009 0 0.1053400320299198 0.12877248826361379 0 0.12372429750337779 0.095814237875728972 0 0.14618258501891079 0.062070108745602003 0 0.12372429750337779 0.095814237875728972 0 0.10266856499169109 0.044518360900210059 0 0.083411279318303222 0.089699755330707398 0 0.10266856499169109 0.044518360900210059 0 0.12372429750337779 0.095814237875728972 0 0.099999999999814668 0 0 0.14999999999970359 0 0 0.10266856499169109 0.044518360900210059 0 0.049999999999899652 0 0 0.099999999999814668 0 0 0.053064897599215843 0.048131547304697528 0 0.099999999999814668 0 0 0.10266856499169109 0.044518360900210059 0 0.053064897599215843 0.048131547304697528 0 0.083411279318303222 0.089699755330707398 0 0.053064897599215843 0.048131547304697528 0 0.10266856499169109 0.044518360900210059 0 0 0.25000000000104028 0 0 0.20000000000083221 0 0.044081577119474857 0.2271058242433576 0 0 0.20000000000083221 0 0.038512288486115001 0.1844147282893184 0 0.044081577119474857 0.2271058242433576 0 0.083105206071467416 0.20007701332709979 0 0.044081577119474857 0.2271058242433576 0 0.038512288486115001 0.1844147282893184 0 0 0.15000000000062411 0 0.065374659239632718 0.1448908038746782 0 0.038512288486115001 0.1844147282893184 0 0 0.15000000000062411 0 0.044310582753132287 0.101412518374475 0 0.065374659239632718 0.1448908038746782 0 0.083105206071467416 0.20007701332709979 0 0.038512288486115001 0.1844147282893184 0 0.065374659239632718 0.1448908038746782 0 0 0.20000000000083221 0 0 0.15000000000062411 0 0.038512288486115001 0.1844147282893184 0 0.065374659239632718 0.1448908038746782 0 0.1053400320299198 0.12877248826361379 0 0.106902708054812 0.16453234188234539 0 0.14332333627550789 0.14578431753966009 0 0.106902708054812 0.16453234188234539 0 0.1053400320299198 0.12877248826361379 0 0.083105206071467416 0.20007701332709979 0 0.065374659239632718 0.1448908038746782 0 0.106902708054812 0.16453234188234539 0 0.083105206071467416 0.20007701332709979 0 0.13737030665753211 0.20313708640667491 0 0.095326043202144745 0.24554465089224409 0 0.083105206071467416 0.20007701332709979 0 0.106902708054812 0.16453234188234539 0 0.13737030665753211 0.20313708640667491 0 0.083105206071467416 0.20007701332709979 0 0.095326043202144745 0.24554465089224409 0 0.044081577119474857 0.2271058242433576 0 0.049706944316556423 0.27522722923869108 0 0.044081577119474857 0.2271058242433576 0 0.095326043202144745 0.24554465089224409 0 0.13737030665753211 0.20313708640667491 0 0.14377654328998779 0.2442024734791064 0 0.095326043202144745 0.24554465089224409 0 0.17933913398461551 0.2350063570234002 0 0.14377654328998779 0.2442024734791064 0 0.13737030665753211 0.20313708640667491 0 0.17933913398461551 0.2350063570234002 0 0.13737030665753211 0.20313708640667491 0 0.18124454140915969 0.18790916706335251 0 0.14332333627550789 0.14578431753966009 0 0.18652628422869419 0.14162325200928061 0 0.18124454140915969 0.18790916706335251 0 0.14332333627550789 0.14578431753966009 0 0.13737030665753211 0.20313708640667491 0 0.106902708054812 0.16453234188234539 0 0.14332333627550789 0.14578431753966009 0 0.18124454140915969 0.18790916706335251 0 0.13737030665753211 0.20313708640667491 0 0.14332333627550789 0.14578431753966009 0 0.16141998738593399 0.10404039647458049 0 0.18652628422869419 0.14162325200928061 0 0.2185883431182947 0.18019736283949719 0 0.18652628422869419 0.14162325200928061 0 0.22985637510995899 0.1298347970200906 0 0.2185883431182947 0.18019736283949719 0 0.22985637510995899 0.1298347970200906 0 0.25557216766470708 0.15874861286892261 0 0.2185883431182947 0.18019736283949719 0 0.25557216766470708 0.15874861286892261 0 0.26429849586623999 0.19346700179430079 0 0.2185883431182947 0.18019736283949719 0 0.18124454140915969 0.18790916706335251 0 0.18652628422869419 0.14162325200928061 0 0.17933913398461551 0.2350063570234002 0 0.18124454140915969 0.18790916706335251 0 0.224700362040408 0.22206622194729711 0 0.2185883431182947 0.18019736283949719 0 0.224700362040408 0.22206622194729711 0 0.18124454140915969 0.18790916706335251 0 0.2185883431182947 0.18019736283949719 0 0.26429849586623999 0.19346700179430079 0 0.224700362040408 0.22206622194729711 0 0.25195515620380449 0.25883339815888678 0 0.21049769590865089 0.26857363548218488 0 0.224700362040408 0.22206622194729711 0 0.17933913398461551 0.2350063570234002 0 0.224700362040408 0.22206622194729711 0 0.21049769590865089 0.26857363548218488 0 0.14999999999970359 0 0 0.184418230509967 0.038773194583122873 0 0.14618258501891079 0.062070108745602003 0 0.19922788606653311 0.085920220746880993 0 0.14618258501891079 0.062070108745602003 0 0.184418230509967 0.038773194583122873 0 0.14999999999970359 0 0 0.19999999999955789 0 0 0.184418230509967 0.038773194583122873 0 0.14999999999970359 0 0 0.14618258501891079 0.062070108745602003 0 0.10266856499169109 0.044518360900210059 0 0.14618258501891079 0.062070108745602003 0 0.16141998738593399 0.10404039647458049 0 0.12372429750337779 0.095814237875728972 0 0.14332333627550789 0.14578431753966009 0 0.12372429750337779 0.095814237875728972 0 0.16141998738593399 0.10404039647458049 0 0.19922788606653311 0.085920220746880993 0 0.18652628422869419 0.14162325200928061 0 0.16141998738593399 0.10404039647458049 0 0.19922788606653311 0.085920220746880993 0 0.16141998738593399 0.10404039647458049 0 0.14618258501891079 0.062070108745602003 0 0.19922788606653311 0.085920220746880993 0 0.22985637510995899 0.1298347970200906 0 0.18652628422869419 0.14162325200928061 0 0.19922788606653311 0.085920220746880993 0 0.24218496799700481 0.089025544070598317 0 0.22985637510995899 0.1298347970200906 0 0.27474541102162192 0.11822029332053539 0 0.22985637510995899 0.1298347970200906 0 0.24218496799700481 0.089025544070598317 0 0.19922788606653311 0.085920220746880993 0 0.22668068146512929 0.045875643423131329 0 0.24218496799700481 0.089025544070598317 0 0.27499999999933927 0.060310814194988557 0 0.24218496799700481 0.089025544070598317 0 0.22668068146512929 0.045875643423131329 0 0.19922788606653311 0.085920220746880993 0 0.184418230509967 0.038773194583122873 0 0.22668068146512929 0.045875643423131329 0 0.19999999999955789 0 0 0.22668068146512929 0.045875643423131329 0 0.184418230509967 0.038773194583122873 0 0.19999999999955789 0 0 0.24999999999941211 0 0 0.22668068146512929 0.045875643423131329 0 0.24999999999941211 0 0 0.29999999999926641 0 0 0.27499999999933927 0.060310814194988557 0 0.24999999999941211 0 0 0.27499999999933927 0.060310814194988557 0 0.22668068146512929 0.045875643423131329 0 0.29999999999926641 0 0 0.32541448401678508 0.046215317981507749 0 0.27499999999933927 0.060310814194988557 0 0.29999999999926641 0 0 0.34999999999912063 0 0 0.32541448401678508 0.046215317981507749 0 0.35312867752657662 0.084946736076730367 0 0.32541448401678508 0.046215317981507749 0 0.3615861437013822 0.03582617922508851 0 0.35312867752657662 0.084946736076730367 0 0.3615861437013822 0.03582617922508851 0 0.39591832466117061 0.056982757562006353 0 0.34999999999912063 0 0 0.3615861437013822 0.03582617922508851 0 0.32541448401678508 0.046215317981507749 0 0.34999999999912063 0 0 0.3999999999989749 0 0 0.3615861437013822 0.03582617922508851 0 0.35312867752657662 0.084946736076730367 0 0.39823268594401579 0.1116623613130045 0 0.36246644853392812 0.1399454205365751 0 0.35312867752657662 0.084946736076730367 0 0.36246644853392812 0.1399454205365751 0 0.32215584939770009 0.1218492143506909 0 0.35312867752657662 0.084946736076730367 0 0.3096713403101819 0.085471541595262421 0 0.32541448401678508 0.046215317981507749 0 0.35312867752657662 0.084946736076730367 0 0.32215584939770009 0.1218492143506909 0 0.3096713403101819 0.085471541595262421 0 0.27474541102162192 0.11822029332053539 0 0.3096713403101819 0.085471541595262421 0 0.32215584939770009 0.1218492143506909 0 0.27499999999933927 0.060310814194988557 0 0.32541448401678508 0.046215317981507749 0 0.3096713403101819 0.085471541595262421 0 0.3096713403101819 0.085471541595262421 0 0.27474541102162192 0.11822029332053539 0 0.27499999999933927 0.060310814194988557 0 0.27499999999933927 0.060310814194988557 0 0.27474541102162192 0.11822029332053539 0 0.24218496799700481 0.089025544070598317 0 0.27474541102162192 0.11822029332053539 0 0.25557216766470708 0.15874861286892261 0 0.22985637510995899 0.1298347970200906 0 0.27474541102162192 0.11822029332053539 0 0.29336099386129338 0.15892013001050981 0 0.25557216766470708 0.15874861286892261 0 0.26429849586623999 0.19346700179430079 0 0.25557216766470708 0.15874861286892261 0 0.29336099386129338 0.15892013001050981 
[...]
<PointData Scalars="tracer_conc,region_id," Vectors="" Tensors="">
<DataArray type="Float64" Name="tracer_conc" format="ascii">
4.1114412330665122e-05 6.3125685756926914e-05 5.1183353964024725e-05 4.1351863452883884e-05 5.0834562165476538e-05 4.0129016915035434e-05 6.4393231310443718e-05 6.4551423347514663e-05 5.1113417138423917e-05 3.9785890927605873e-05 5.1260885925088105e-05 6.3058374744555935e-05 4.1792978316497802e-05 3.9427851448498255e-05 6.0008664778798699e-05 7.5177847450717118e-06 6.1484990561128859e-05 8.2840804922063707e-05 8.3606468114298991e-05 6.2096524543919229e-05 6.3466331437340238e-05 3.8689822479115361e-05 6.2481648305719411e-05 6.1256508210366542e-05 8.7095132007125844e-05 8.767864616431064e-05 6.3438242607649747e-05 8.7701477501288421e-05 0.00015888151121787775 8.833099418427721e-05 7.2039632679257731e-05 0.00010869443671590233 0.00013644104161931959 0.00022834015312062954 0.00014362737148702434 0.00010702603957709738 0.00014526144643914844 0.00012098830795730367 0.0001005713734841635 8.4284904737787152e-05 0.00010064105149609997 0.00011946160107628284 0.00010099225075615903 0.00015209440572463818 0.00010161055260542611 6.4646017639319331e-05 9.7288730886123414e-05 6.4813352322907791e-05 9.9720295862069735e-05 0.00010013080755043952 6.3606942464212426e-05 8.4099645056591931e-05 6.41684307412603e-05 9.8866577375088561e-05 0.0039800731777004539 -0.00024411130689516491 0.0024157601539143972 0.00013934232347864167 -0.00072451069431962798 0.0020306826817362948 -0.00021708444134861305 0.0021707038496802575 -0.00083356900141178718 -6.3041467698634373e-05 -0.00011134741210600908 -0.00013308653710721521 1.9162176326979691e-06 8.6773965238025891e-05 6.4626907405617484e-05 -0.00022211149698362845 -0.00013731017955957302 -0.00011256994009124175 -0.00020566103363499119 -4.7727371286949542e-05 -0.00030749502921750469 -9.3444567896837241e-06 0.00022525081855273276 -0.00031311301765673806 -5.1698836098421351e-05 -0.00033863487039992654 0.00024867629023630241 -0.00022783711900583109 -0.0001086138042507688 -0.00025595784626896649 -0.00066549806470281336 0.0006652794767413085 0.0075179573640038033 -0.00020848246877649656 -0.00023179391650524788 -0.00032926332745545082 -0.00030234485862926075 0.0071155080538776389 0.0028354770484706965 0.011434031186772534 0.0026212819257952426 0.0096538765825691878 0.00049738507312307653 0.010560690072711697 0.0081191686567765702 0.0092087242115106143 0.01090195674525672 -1.7759017854008806e-05 0.0082064785009753633 0.0010263841446929971 -0.0011970223363931862 0.00029938395199341207 0.00044199632304837711 -0.0014586136703562316 -0.00030131063801687116 -0.00033771372517831753 -0.00022892260603858003 -0.00030223342296705304 -0.0013246369213278696 -0.00034143703305360097 0.0002439569383264134 0.00016268560803571228 0.00029537684932280981 -0.00074878953618311053 0.00018637044730522204 0.00049862521127427134 -0.00081491238076072091 0.00054587664474605954 -4.9154346836210735e-06 -0.001142248187427382 -3.0322061538196978e-05 -0.0025060338315163462 -0.0011761962257679363 -0.0015749768895754756 0.00050698168274791863 0.0087389860362906933 -0.0015703681451391931 0.0067870266160554825 -0.003394401759034619 0.0069190875596222999 -0.0014559253833045295 -0.0037450483504254547 -0.0019725390748411434 0.0074539453758848979 0.047654035217203392 0.044699197161163384 0.0060121073442428504 0.010795508113588913 0.0072045259918690598 0.042643488240113075 0.0001580328391908393 0.00020836503055418095 0.00014925267141888349 0.00023339047413952198 0.00014660242575688108 0.00021144269349034211 0.00015645374262742096 0.00024282625178767786 0.00021134337099163415 0.00015589177534101553 0.00014791100284687175 9.974653675461202e-05 0.000146733199937611 0.00016994706140716344 0.00012177165999370129 0.00023316307973282268 0.00010332936393822548 0.00016407284827174446 0.00022569518352417729 0.00028425078778296359 0.00017938937899264812 0.0002256129289145488 0.00017180348761729129 0.00014677864705382523 0.00022538709734972137 0.00041029128166422387 0.00028836077517145929 0.0002119266701452387 0.00032517150103218511 0.00039745555254433598 0.00052792493654396514 0.00040883707996688517 0.00032520579368439556 0.00023577034196087059 0.00030892129136703443 0.0003445877006421401 0.00045888239320758756 0.00034914767808896151 0.0003101043215441843 0.00023711146932589976 0.0002129104961400578 0.0003036460662580035 0.00024724973831072945 0.00030521337688699707 0.00021222190045434413 0.00024659080817925999 0.00038028787021761491 0.0003095502158312079 0.0003878539152924052 0.00059846768918181122 0.00047878452529279207 0.00038798915671041758 0.00047093685387412785 0.00030925720049819141 0.00061098191558676669 0.00074623690113512513 0.00047769515410000054 0.00061005777512820273 0.00094615289271471922 0.00076308641963540808 0.00095533305053214243 0.00076057996857018591 0.0010646305695638412 0.00095758576467638184 0.0010755269363367788 0.0014270297956431983 0.00096600796707355639 0.0010580553187806705 0.00076193763796394065 0.00097101499695284078 0.0014931177386117752 0.0010679199565894167 0.00094274554520170815 0.0015127866394237532 0.0011319831873991479 0.00094242797329957095 0.0011167513946204737 0.0007569688270310398 0.00093882893235854644 0.00064068557308448817 0.00076294831389698507 0.0009276858764203904 0.0007584931540632158 0.0006368655957061306 0.00048830049110429221 0.00063555443903649681 0.00074556373259376449 0.0004715424277703391 0.00074975294031424413 0.00063877804704040705 0.00062890755515622682 0.00048421446049868076 0.00046796950768659268 0.00046552312915957097 0.00048064925989344719 0.00035117414035341671 0.00067226605374065822 2.5662318286147082e-05 0.00035513448270307213 0.00070049676281477749 7.08917164119053e-05 -2.9298839273733674e-06 -0.0026277241733453629 8.3385758737263897e-05 -9.0647498952530064e-05 -0.00047401742978032702 -0.004413423261858191 0.00021466907480271555 -0.0027736263068186451 -2.4953745692771582e-05 -0.0042187913925371204 0.00073752942129974857 0.0010064725337629876 5.7195278148432208e-05 0.021125446533634573 0.046904854842304299 0.0047755091171710331 -0.0020990224737220706 0.017299092878202721 0.0093094993063068624 -0.0032952837851615911 0.00078771523636118001 0.018362592813434161 0.056546184885713995 0.089674333925014213 0.019216222758305753 0.033310275973420324 0.019328827034855261 0.00087831998351207551 0.035130226201452279 -0.001116869775943282 -0.0099480584384404637 0.03751997482975572 -0.011532189848574662 0.010059735732659541 0.050701872269918964 0.016985140909965845 0.17340099988643268 -3.8366118737488576e-05 -3.964979983265013e-05 0.001070274957745239 -6.9105355405131428e-05 0.0011318603325483345 0.0013211930461520696 -0.00041390924307017023 -0.0053131539703775424 -0.0046472572962393665 -0.002000101487872108 -0.0032629452918795194 0.0016865216475623517 -0.00059778348071722759 0.0015390165921515158 -0.0031073344691971453 0.0011988324646042335 0.0010142682030039631 0.0016679675876062879 -0.00015854387297193584 0.0041055698426195712 -0.0051970729811129327 0.0011910895447569932 0.0016985189151431119 0.0030021554803666617 0.14158994053488203 0.18283313986116687 0.010559985357759536 -0.0055808592860363141 0.0047727026218410129 -0.00091931090931494399 -0.0059882163207659392 -0.011269336839150237 0.0052080159766872578 0.11362128054200094 0.023574485079659528 -0.021138984459514603 0.11986357627625116 -0.026122493986402474 0.030992460015333401 -0.015534419014331185 0.024360273564645662 -0.00047854774811795117 0.0011055785652804061 0.0046953947851519238 -9.0352851526888784e-06 -0.017193770908949999 -0.026375829521583079 0.026315042931966466 0.13065331619199269 0.051697902611120596 -0.041568881044045262 0.0019258348206446486 0.0022577713325574278 0.0032636376545374293 -0.002941103249869893 -0.0056132431508610194 0.004499267052214621 0.0018722589682178548 0.00333883745931396 0.0042566287934936043 0.0020429682123155957 0.0030310686378934807 0.0030366492947462719 0.0040353871676873376 0.0030583745844791764 0.0030876510056813715 0.002103995983150021 0.0029818018200460945 0.0020670730890497298 0.0020691131224687548 0.0029991286511243773 0.0030760348272593375 0.004797638927274534 0.0031110298974017731 0.0030266741887103308 0.0040339657592707474 0.0049120056072737943 0.0029442659874011653 0.0024900020397609973 0.0039358974078531382 0.0029644300407763629 0.002489935469292181 0.0029268448063463201 0.0020507004689828932 0.0021063917076467246 0.0020949333311273484 0.002939162910236358 0.0015450502648778138 0.0020282638757786416 0.0014667451324468495 0.0020862521615427902 0.0014367317041344969 0.0020757547295061135 0.0015376312998224429 0.0024385570702533861 0.0020460926295253062 0.0015297289434418333 0.0014574964533658797 0.0010552321183964312 0.00093558214518101382 0.0014462884895693506 0.0013936003041146222 0.0020798017740562883 0.0020462037872966648 0.0013799567200183528 0.002044543224453316 0.001407441724582285 0.0014655275813882129 0.0057236126597681554 -0.00014224741660638507 -0.010429980944440202 -0.014331404508218529 -0.015047587827512098 0.00040304712586827318 -0.0056685815047961517 0.097000995173414248 -0.028053695762346995 0.0034752144867881462 0.0013931448398751827 0.0020457093029736333 0.0010976486016962227 0.0011845351716750056 0.0016126645661220121 0.0023252949062029676 0.0015492987317424882 0.001286289938735824 0.0023845754919780784 0.001984223708172088 0.0015325438153044706 0.0030458868098191204 0.0033835991279971833 0.0016778463680534419 0.002961007136294247 0.0018217444933275185 0.0022819602319920367 0.0030318672898723619 0.0022826698265807121 0.0029869816568035448 -0.00092975386625685299 0.0081779607957481095 -0.0090504480742051741 0.0051637530832006591 -0.0078761158982059831 0.0074488848162544141 0.0063952974263361091 -0.011236551211807633 -0.0092065901939865861 0.049068768827665692 -0.025624849474148146 -0.016797001788265476 -0.04735336903465949 -0.032637994121370674 0.06790410921236649 0.71989086024186111 0.15847021095849337 0.41434192938965075 0.094928235739434638 0.39719493726132477 0.16373999144759824 0.10311984564738051 0.37849038331443935 0.40922405846238907 0.053301283937148954 0.065384556178578732 -0.028139842385550069 0.72296812397034216 0.40240048864507227 0.19317249435231917 0.17543214508036337 0.39026381874992094 0.02356711982015041 0.709917909308175 0.48535385128362041 0.47653311445587598 0.34252747822796353 0.4731375732211312 0.48128095410490268 0.15013138682690641 0.035521949284434001 0.37539824749905859 0.18001051677874932 0.42160394039102911 0.3962044652500008 0.18574575525642481 0.38399002789033709 0.17752912279140415 0.24160303821175214 0.20215071564029252 0.36665170487767623 0.063600762124072827 -0.031889531396312461 0.10292553406769106 0.10958403121786459 0.12103275577836434 0.36638965965740078 0.20337526389628924 0.3536489399260726 0.13110766615483174 0.11472480954445248 0.011994786964550906 0.19088397767432574 -0.00049947384785131081 0.029799596787154187 0.090535217876102303 0.18556274069523138 0.018209370591679139 0.12132609948472725 0.021127235955670308 0.042390888114228836 0.11707833798237598 0.056977421835928757 0.17999515910567826 0.16666403046827852 0.23821227161317721 0.15387061289688359 0.20182579721276867 0.22122690379983581 0.14011401601689152 0.17329060064713342 0.10863277560809256 0.1708468774695428 0.14009532646065279 0.061107939061012466 0.16120446841440994 0.090348329655462717 0.11930224551198672 0.10190465874500321 0.16376049379092675 0.11719037491719596 0.07348943663687503 0.10146900222635173 0.055905860291576688 0.095363606376236337 0.079280777482533524 0.050266103903515283 0.021705265272648478 0.086969286397766327 -0.0010906429125400912 0.034319078677547056 0.019793459762024092 0.11856905192216917 0.12305765632905265 0.044275451638660285 0.11469334833723653 0.045884562418533996 0.037636235874165272 0.11236136398721108 0.045673836950496149 0.085820907944475208 -0.0012187306839811899 0.034397987787251096 0.034958944959560159 0.0002273353983488786 0.0064135908532853784 0.03220899084626877 -0.0033978681956662476 -0.00055792586262676702 -0.0011265865612987455 0.0004085845240016109 0.001144435521176675 -0.00099414217623975017 -0.0035686753154123641 -0.0065675037855662333 -0.00044401700832549779 0.0029239630396477802 0.019131564927661458 -0.012018298908455604 0.020759404344125681 -0.015183267425305165 -0.013602644227465037 0.0025975132005712775 -0.0029199011156158315 -0.003591391796462362 0.0023827901889926142 0.00079223646470684482 -0.0026452589798960664 0.0028923473439318183 -0.0037641770100450681 0.00094601310928127673 -0.013811657697744863 -3.7414931015484539e-05 -0.0052185208617511894 -0.0061916101728529942 -0.016423036382854438 0.023095862831807559 0.0010920910696108075 0.00081481077783113719 0.0011722033205407943 0.0011682805867450591 0.0012942591308819419 0.00075237937676139093 0.0011465563749530527 0.0019962311813447584 0.0014045966606755645 0.0014349593849493441 0.00048726277665257051 0.0012134039143275328 0.00079373882381544544 0.00071328488618442533 0.00056525712618348911 0.0011426081820981513 0.00075869157941712922 0.00060207425630116993 0.00043505588239598018 0.00039730514738540914 0.000540025718220333 0.0011693740138961457 0.00050783400324170712 0.00047826544964741047 0.00043067117475510197 0.00030406352168934849 0.00039576339544973365 0.00059258926833400695 0.00020234364675328581 0.00023831947599957514 0.00050340755676486109 0.0004836788769248785 -4.4981666269730476e-05 0.00047708596739284441 -0.00091440186797021254 0.0010831746411204069 0.0006131989407191429 0.0005757779777053728 0.00019054498644232142 -0.0020430472560338682 -0.0034922855830783303 0.0030830411148643154 0.00040919937518059494 0.0015653693070336843 -0.0017481638216379058 0.0017167795123473415 -0.0027261997027474387 -0.0019334892279737224 0.00041527672843170993 -0.00030152654619308597 -0.00085758615207193265 0.00023516277903463937 -8.8437567742719625e-05 -3.5916273923635849e-05 0.00027451298158034937 -0.0016528471208690533 -0.0011840272067463321 0.00022443810034551188 -0.0010810230639964045 0.00024878031593549146 0.00022675293525642855 0.00019270448460028932 -7.2460338304036322e-05 7.016351290261472e-05 0.0001965035140123218 0.00027564701578060025 5.9659057038309262e-05 0.00028465738355794307 0.00010971255277097749 0.00029780492760647789 0.00028847847342892036 0.00010560693351256955 0.00022601160747119122 -2.4981253086905542e-05 0.00046402915361196161 0.05612772291736131 0.07762189495786119 0.04224024886054395 0.053914395253269728 0.045716377429136319 0.077162490862267744 0.053140769312668965 0.033467327078859029 0.045586663894897558 0.045299997067224443 0.038687756618517949 0.014512974723375083 0.045733083201541153 0.081749811477884252 0.041302415285488787 0.083997831914164142 0.046371393090009996 0.039983014769791117 0.0042895270677389911 0.038283159092392105 0.035044258811959779 0.0054539746155083434 0.014825198846629474 0.036759078462016176 -0.0027709136441846898 0.011945083878635326 0.0035271949249734411 -0.0031209774165387302 0.01775788797956819 0.012871444681538825 -0.0023979233143650337 -0.0033278072077666107 0.016192483367840009 0.043435579960054135 0.015603176819330012 0.018579763419887065 0.0484493065099805 0.023754962938666319 0.039060547605816849 0.025855586077110818 0.037726797497005256 0.025290434815853021 0.02198794793184463 0.013387706354973614 0.034647912762819658 0.012939183736700097 0.04241570739578112 0.036714578634811049 0.013462341468796655 0.035600721582488525 0.012548934109433127 0.010629728726645015 0.011521264975630628 0.020476247381645434 0.02126556521209828 0.0084727662950989328 0.013484915024406954 0.023386854466274691 0.021101650439101984 0.01125304682305454 0.025600673845903799 0.025082095129797845 0.017604017428455083 0.012543466890590655 0.019598571524570656 0.011740998869546182 0.007663268703269859 0.0095078356454685233 0.019572330658047456 0.0072099249604950311 0.020296617654030499 0.020842994020811221 0.0070179886187623306 0.01532564384300047 -0.0024232558679874215 0.006307407819145126 -0.0020363956591656325 -0.0015563474739269483 0.0067192202924272046 -0.0013028781258659083 0.0094902593808343181 0.0034674868911017897 0.0089486628760131921 -0.00080427806066861126 0.0039701673439496293 0.0089996382817691036 0.010127542329946133 0.007778076072950172 0.012354546003076301 0.011629582016891831 0.0088404730549408814 0.005139829684302503 0.011318221890768565 0.0043912165621408641 0.0029482848397829964 0.010930216254213154 3.8389914534917151e-05 0.00017628422661351576 0.0001304666968130142 7.4352396171022605e-05 7.4865220056073565e-05 0.0001881821086371428 0.00017572937732778079 -1.5494725640177823e-05 -6.1251895651466242e-05 -0.00040032508169080087 -8.0204676755908779e-05 -0.000838031158874284 -0.00021435753087365976 -0.00031856768765145511 -0.000200006247864247 -0.00021542640358022328 -0.00015664817039705832 -0.00031135676449365587 -0.0010461642056153403 0.0026389441631904701 -0.00055656582184930462 -0.00017166009841323461 -0.00030228574749491157 -0.00016168413803179334 2.0615620976044465e-05 -0.00019615167980359705 -0.00012738179740529881 2.9891685151973672e-05 -9.2454859860297526e-05 0.00010378245557340064 3.8773355454673097e-05 8.0616784297889019e-05 0.00010190066906457943 4.143441813165589e-05 0.00012605552326750956 6.0477643155603072e-05 -7.3348967543058701e-06 0.00011061302565897185 -0.00010051070262843949 4.4292114766704897e-05 5.9920903570143236e-05 8.4777081536869411e-05 3.3051623880394007e-05 5.8933833827384729e-05 5.6336465340502728e-05 3.8513392211653002e-05 3.4786339012135877e-05 5.5075734802197764e-05 3.5979111197977755e-05 5.617921522523176e-05 4.4032061211522966e-05 6.7230907400482422e-05 4.3909090504244699e-05 5.7150775313504858e-05 6.02550489112351e-05 8.026187429983729e-05 5.7296191672212195e-05 9.4456059267972886e-05 8.1617098535591078e-05 5.962987385673349e-05 6.9608877133353961e-05 5.5537091207758421e-05 7.9457376860157943e-05 6.973573547181398e-05 8.0471717779369954e-05 9.8414137095882874e-05 7.8914898953911145e-05 0.00011045361715807797 0.00010063263010666726 6.1233689114279028e-05 8.3489178358388944e-05 3.6782847939447709e-05 0.00030968862450410622 2.0321480599658615e-05 2.2418133057389167e-05 5.9558926685344571e-05 3.5217198197193627e-05 1.5743096295017866e-05 5.7815390543527796e-05 1.7614109720284888e-05 3.9841467434616994e-05 1.7747366917410112e-05 3.8998757135344161e-05 4.0474815613502476e-05 0.00014759648919319382 -6.3776017530626174e-06 5.1710941475427158e-05 1.6105418320900257e-05 3.8431174637574691e-05 1.8214387111065502e-05 0.00022811622731137688 0.00018678209418520158 0.00032470271230507496 0.0003252107650355606 0.00034497849542602113 4.8883579640782041e-05 0.00015622488371619292 6.1716244291614434e-05 0.00032935975302849995 0.00018655956715258587 0.00020963399358886342 0.00030345302550592552 0.00020531157078387471 0.00033538552914323184 0.00030254480886413075 0.00017116126470793973 0.00031976789505828491 0.00020917906369271271 0.00030167257443115396 0.00050083249406354332 0.00041910695648968399 0.00058881248470324279 0.00042034696693038509 0.00051058640530327385 0.00030484762452381929 0.00034121171028931284 0.00051306622190915117 0.00058339482553032031 0.00064080268477689328 0.00040153274951418262 0.00036301293502535078 0.0005667954650534372 0.00030658550567532448 0.00035778802126073677 0.00050080270697797232 0.00058324770005188024 0.00033106413685219326 1.1846958817351417e-05 0.00038676934856211507 0.00090367557536246475 0.00059163876887666797 0.00050245336221677581 3.2427606096745831e-05 0.00089152836615526805 0.00042089718996689431 -2.5295723953408958e-06 0.00031816717229959007 0.00092878772941941076 0.00096250526443587598 0.00074946418528799104 0.00049935360026683419 0.00058636399238358428 0.0008123168579958947 0.00065395932218798242 0.00060112594544612903 0.00049284437535162292 0.00076626791467887903 0.00099051231750923183 0.0010407272506333556 0.00075099955760402895 0.00090863936232033838 0.00065208737420880043 0.00082024316467126557 0.00091810554662249987 0.00082243195428258762 0.001133639854