<?xml version="1.0"?>
<VTKFile type="UnstructuredGrid" version="0.1" byte_order="LittleEndian">
<UnstructuredGrid>
<Piece NumberOfPoints="3142" NumberOfCells="1054">
<Points>
<DataArray type="Float64" NumberOfComponents="3" format="ascii">
0.02576622439977887 0.024532886826226379 0 0 0 0 0.049999999999899652 0 0 0.02576622439977887 0.024532886826226379 0 0 0 0 0 0.050000000000207989 0 0.02576622439977887 0.024532886826226379 0 0.049999999999899652 0 0 0.053064897599215843 0.048131547304697528 0 0.02576622439977887 0.024532886826226379 0 0.053064897599215843 0.048131547304697528 0 0 0.050000000000207989 0 0 0.050000000000207989 0 0 0.10000000000041601 0 0.044310582753132287 0.101412518374475 0 0 0.10000000000041601 0 0.044310582753132287 0.101412518374475 0 0 0.15000000000062411 0 0.053064897599215843 0.048131547304697528 0 0.044310582753132287 0.101412518374475 0 0.083411279318303222 0.089699755330707398 0 0.053064897599215843 0.048131547304697528 0 0 0.050000000000207989 0 0.044310582753132287 0.101412518374475 0 0.044310582753132287 0.101412518374475 0 0.083411279318303222 0.089699755330707398 0 0.065374659239632718 0.1448908038746782 0 0.083411279318303222 0.089699755330707398 0 0.065374659239632718 0.1448908038746782 0 0.1053400320299198 0.12877248826361379 0 0.083411279318303222 0.089699755330707398 0 0.12372429750337779 0.095814237875728972 0 0.1053400320299198 0.12877248826361379 0 0.12372429750337779 0.095814237875728972 0 0.1053400320299198 0.12877248826361379 0 0.14332333627550789 0.14578431753966009 0 0.12372429750337779 0.095814237875728972 0 0.10266856499169109 0.044518360900210059 0 0.14618258501891079 0.062070108745602003 0 0.083411279318303222 0.089699755330707398 0 0.12372429750337779 0.095814237875728972 0 0.10266856499169109 0.044518360900210059 0 0.10266856499169109 0.044518360900210059 0 0.099999999999814668 0 0 0.14999999999970359 0 0 0.049999999999899652 0 0 0.053064897599215843 0.048131547304697528 0 0.099999999999814668 0 0 0.053064897599215843 0.048131547304697528 0 0.10266856499169109 0.044518360900210059 0 0.099999999999814668 0 0 0.053064897599215843 0.048131547304697528 0 0.083411279318303222 0.089699755330707398 0 0.10266856499169109 0.044518360900210059 0 0.044081577119474857 0.2271058242433576 0 0 0.20000000000083221 0 0 0.25000000000104028 0 0.044081577119474857 0.2271058242433576 0 0 0.20000000000083221 0 0.038512288486115001 0.1844147282893184 0 0.044081577119474857 0.2271058242433576 0 0.038512288486115001 0.1844147282893184 0 0.083105206071467416 0.20007701332709979 0 0.038512288486115001 0.1844147282893184 0 0 0.15000000000062411 0 0.065374659239632718 0.1448908038746782 0 0.044310582753132287 0.101412518374475 0 0 0.15000000000062411 0 0.065374659239632718 0.1448908038746782 0 0.038512288486115001 0.1844147282893184 0 0.065374659239632718 0.1448908038746782 0 0.083105206071467416 0.20007701332709979 0 0 0.20000000000083221 0 0.038512288486115001 0.1844147282893184 0 0 0.15000000000062411 0 0.065374659239632718 0.1448908038746782 0 0.1053400320299198 0.12877248826361379 0 0.106902708054812 0.16453234188234539 0 0.1053400320299198 0.12877248826361379 0 0.106902708054812 0.16453234188234539 0 0.14332333627550789 0.14578431753966009 0 0.065374659239632718 0.1448908038746782 0 0.106902708054812 0.16453234188234539 0 0.083105206071467416 0.20007701332709979 0 0.083105206071467416 0.20007701332709979 0 0.095326043202144745 0.24554465089224409 0 0.13737030665753211 0.20313708640667491 0 0.106902708054812 0.16453234188234539 0 0.083105206071467416 0.20007701332709979 0 0.13737030665753211 0.20313708640667491 0 0.044081577119474857 0.2271058242433576 0 0.083105206071467416 0.20007701332709979 0 0.095326043202144745 0.24554465089224409 0 0.044081577119474857 0.2271058242433576 0 0.095326043202144745 0.24554465089224409 0 0.049706944316556423 0.27522722923869108 0 0.095326043202144745 0.24554465089224409 0 0.14377654328998779 0.2442024734791064 0 0.13737030665753211 0.20313708640667491 0 0.17933913398461551 0.2350063570234002 0 0.14377654328998779 0.2442024734791064 0 0.13737030665753211 0.20313708640667491 0 0.17933913398461551 0.2350063570234002 0 0.13737030665753211 0.20313708640667491 0 0.18124454140915969 0.18790916706335251 0 0.18124454140915969 0.18790916706335251 0 0.14332333627550789 0.14578431753966009 0 0.18652628422869419 0.14162325200928061 0 0.106902708054812 0.16453234188234539 0 0.13737030665753211 0.20313708640667491 0 0.14332333627550789 0.14578431753966009 0 0.13737030665753211 0.20313708640667491 0 0.18124454140915969 0.18790916706335251 0 0.14332333627550789 0.14578431753966009 0 0.14332333627550789 0.14578431753966009 0 0.18652628422869419 0.14162325200928061 0 0.16141998738593399 0.10404039647458049 0 0.18652628422869419 0.14162325200928061 0 0.22985637510995899 0.1298347970200906 0 0.2185883431182947 0.18019736283949719 0 0.22985637510995899 0.1298347970200906 0 0.2185883431182947 0.18019736283949719 0 0.25557216766470708 0.15874861286892261 0 0.2185883431182947 0.18019736283949719 0 0.25557216766470708 0.15874861286892261 0 0.26429849586623999 0.19346700179430079 0 0.18124454140915969 0.18790916706335251 0 0.18652628422869419 0.14162325200928061 0 0.2185883431182947 0.18019736283949719 0 0.17933913398461551 0.2350063570234002 0 0.18124454140915969 0.18790916706335251 0 0.224700362040408 0.22206622194729711 0 0.18124454140915969 0.18790916706335251 0 0.2185883431182947 0.18019736283949719 0 0.224700362040408 0.22206622194729711 0 0.2185883431182947 0.18019736283949719 0 0.224700362040408 0.22206622194729711 0 0.26429849586623999 0.19346700179430079 0 0.224700362040408 0.22206622194729711 0 0.25195515620380449 0.25883339815888678 0 0.21049769590865089 0.26857363548218488 0 0.17933913398461551 0.2350063570234002 0 0.224700362040408 0.22206622194729711 0 0.21049769590865089 0.26857363548218488 0 0.184418230509967 0.038773194583122873 0 0.14999999999970359 0 0 0.14618258501891079 0.062070108745602003 0 0.184418230509967 0.038773194583122873 0 0.14618258501891079 0.062070108745602003 0 0.19922788606653311 0.085920220746880993 0 0.184418230509967 0.038773194583122873 0 0.14999999999970359 0 0 0.19999999999955789 0 0 0.10266856499169109 0.044518360900210059 0 0.14999999999970359 0 0 0.14618258501891079 0.062070108745602003 0 0.12372429750337779 0.095814237875728972 0 0.14618258501891079 0.062070108745602003 0 0.16141998738593399 0.10404039647458049 0 0.12372429750337779 0.095814237875728972 0 0.14332333627550789 0.14578431753966009 0 0.16141998738593399 0.10404039647458049 0 0.18652628422869419 0.14162325200928061 0 0.16141998738593399 0.10404039647458049 0 0.19922788606653311 0.085920220746880993 0 0.14618258501891079 0.062070108745602003 0 0.16141998738593399 0.10404039647458049 0 0.19922788606653311 0.085920220746880993 0 0.18652628422869419 0.14162325200928061 0 0.22985637510995899 0.1298347970200906 0 0.19922788606653311 0.085920220746880993 0 0.22985637510995899 0.1298347970200906 0 0.19922788606653311 0.085920220746880993 0 0.24218496799700481 0.089025544070598317 0 0.22985637510995899 0.1298347970200906 0 0.24218496799700481 0.089025544070598317 0 0.27474541102162192 0.11822029332053539 0 0.19922788606653311 0.085920220746880993 0 0.24218496799700481 0.089025544070598317 0 0.22668068146512929 0.045875643423131329 0 0.24218496799700481 0.089025544070598317 0 0.22668068146512929 0.045875643423131329 0 0.27499999999933927 0.060310814194988557 0 0.184418230509967 0.038773194583122873 0 0.19922788606653311 0.085920220746880993 0 0.22668068146512929 0.045875643423131329 0 0.184418230509967 0.038773194583122873 0 0.22668068146512929 0.045875643423131329 0 0.19999999999955789 0 0 0.22668068146512929 0.045875643423131329 0 0.19999999999955789 0 0 0.24999999999941211 0 0 0.24999999999941211 0 0 0.27499999999933927 0.060310814194988557 0 0.29999999999926641 0 0 0.22668068146512929 0.045875643423131329 0 0.24999999999941211 0 0 0.27499999999933927 0.060310814194988557 0 0.27499999999933927 0.060310814194988557 0 0.29999999999926641 0 0 0.32541448401678508 0.046215317981507749 0 0.29999999999926641 0 0 0.32541448401678508 0.046215317981507749 0 0.34999999999912063 0 0 0.32541448401678508 0.046215317981507749 0 0.3615861437013822 0.03582617922508851 0 0.35312867752657662 0.084946736076730367 0 0.3615861437013822 0.03582617922508851 0 0.35312867752657662 0.084946736076730367 0 0.39591832466117061 0.056982757562006353 0 0.32541448401678508 0.046215317981507749 0 0.3615861437013822 0.03582617922508851 0 0.34999999999912063 0 0 0.3615861437013822 0.03582617922508851 0 0.34999999999912063 0 0 0.3999999999989749 0 0 0.35312867752657662 0.084946736076730367 0 0.36246644853392812 0.1399454205365751 0 0.39823268594401579 0.1116623613130045 0 0.35312867752657662 0.084946736076730367 0 0.32215584939770009 0.1218492143506909 0 0.36246644853392812 0.1399454205365751 0 0.32541448401678508 0.046215317981507749 0 0.35312867752657662 0.084946736076730367 0 0.3096713403101819 0.085471541595262421 0 0.35312867752657662 0.084946736076730367 0 0.32215584939770009 0.1218492143506909 0 0.3096713403101819 0.085471541595262421 0 0.32215584939770009 0.1218492143506909 0 0.3096713403101819 0.085471541595262421 0 0.27474541102162192 0.11822029332053539 0 0.27499999999933927 0.060310814194988557 0 0.32541448401678508 0.046215317981507749 0 0.3096713403101819 0.085471541595262421 0 0.27499999999933927 0.060310814194988557 0 0.3096713403101819 0.085471541595262421 0 0.27474541102162192 0.11822029332053539 0 0.24218496799700481 0.089025544070598317 0 0.27499999999933927 0.060310814194988557 0 0.27474541102162192 0.11822029332053539 0 0.22985637510995899 0.1298347970200906 0 0.27474541102162192 0.11822029332053539 0 0.25557216766470708 0.15874861286892261 0 0.27474541102162192 0.11822029332053539 0 0.25557216766470708 0.15874861286892261 0 0.29336099386129338 0.15892013001050981 0 0.25557216766470708 0.15874861286892261 0 0.29336099386129338 0.15892013001050981 0 0.26429849586623999 0.19346700179430079 
[...]
<PointData Scalars="tracer_conc,region_id," Vectors="" Tensors="">
<DataArray type="Float64" Name="tracer_conc" format="ascii">
0.011342039653755602 0.0096479813032896693 0.013236218053396552 0.011303433347540687 0.0096778501994055997 0.0095061124305601576 0.011337217963111585 0.01337881196481564 0.013451383532385735 0.011356865727176124 0.013278857558566941 0.0094626682622239531 0.0094032727679076462 0.0097893157948220708 0.012829545301153133 0.010819882880222793 0.013694414611368571 0.0055758718302907368 0.013301437143249717 0.01306522051481371 0.016347445509983512 0.01318786201975666 0.0093194376768039929 0.012973801952268542 0.012961641113396772 0.017088108959408467 0.012462773932933421 0.017248161990048801 0.012366487760781777 0.018760799237465126 0.016508015864841696 0.021139683958952896 0.018321706250481063 0.021343912199421038 0.018213996081705777 0.022560688715825485 0.021092030135404439 0.018505048428764895 0.024109090903777167 0.016311616145771972 0.020957376547176602 0.018508628667987394 0.018594229668084147 0.018477935446995178 0.024869558540274384 0.013404958930449464 0.013480702803951083 0.018119947457888197 0.013364336639732192 0.018453094537638652 0.018359085997674433 0.013415955747528083 0.016291863348663189 0.01833755360926962 0.11903439868625884 0.012276906499313869 0.18153291132334873 0.10656277018848768 0.021598235047979131 -0.01528499449519192 0.10994310203065864 -0.017871609059128719 0.019886090601751005 0.0065762605469313314 0.001759359889174519 0.0033550730574709842 0.013966719285031895 0.0052292451668664091 0.011377847863020341 0.0068530563398357417 0.0033315680129341937 0.011514978906765056 0.0052089344744320736 -0.00018722300070540609 0.0013512744836516345 0.0088705085161092604 0.020240873045921551 0.0015848304105866942 0.020727153224949228 0.0012083671117581176 0.012857198346226627 0.0030834929555246171 0.0052692296087205603 0.011803603126046962 0.01803102318308351 0.24750464096590466 0.058215918019146329 0.0072222283495968981 0.013377526960349412 0.01957722257329057 0.12506827828720868 0.023421627741424644 0.24198202054200676 0.13122750228622693 0.28315180746158231 0.34606338810076348 0.25307107288626435 0.2890195501627022 0.057772882356110646 0.25549349342564676 0.29218323716818634 0.05200417069348514 0.24586952135316703 0.062349677826100479 0.0011485101206064623 -0.0057267543441257588 0.020944346475977548 0.029352249823620502 0.0067461837580480803 0.020091867976657365 0.0043976413315604153 0.02058102188952261 -0.0035260676056230685 0.0041212387808641487 0.022514849944200499 0.029794915715871298 0.026817467182350455 0.026464544516064448 0.040541015271722373 0.011324444439463781 0.041190682715226135 0.010761871971974287 0.029641345371577085 0.013222221663340708 0.024332766141813986 0.017922528127612119 -0.006468460351457192 0.029971652184481772 0.0047200888782355493 0.25209685175333041 -0.0033305862928750176 0.19474145203315588 0.0050030540759449437 -0.026903275665426704 0.18877017123827644 -0.029833422570925854 0.19362084881117239 0.02496799272209848 0.2124736956242077 0.58785939187038494 0.61084782971912965 0.27453960226148455 0.21676322764778194 0.60437669372300673 0.030885170445679646 0.025356019103164974 0.024407554575198481 0.031145004228925962 0.024199927827468961 0.033372167701922133 0.031075717650084538 0.025254981742123817 0.034306018497730198 0.01844026991540142 0.025186552790184585 0.02429683429463389 0.021142305251470851 0.024250288219810696 0.026728732294599745 0.021392669480583094 0.022631131520014659 0.026635731018389553 0.030067601916611359 0.026639752101265991 0.034048583949028835 0.024263764060157716 0.026865600880932258 0.033329387197357417 0.030041198627016694 0.040965098142080714 0.03424710286990159 0.041496260393085557 0.033102089359886525 0.043014349298345439 0.04166118499612316 0.043239029891402637 0.053432643963784013 0.033514825496284879 0.043445948202149531 0.040411866094706005 0.04370442007676921 0.040490195006507697 0.053225710460288782 0.03125065421787715 0.033625657011892643 0.040067342567907539 0.03113952491964762 0.040066011467846066 0.034605131933274906 0.040329896045453291 0.034569153189814003 0.046555809487535384 0.046990797204282349 0.053991966121273098 0.062910616592049398 0.040319981168333519 0.046988087626935869 0.053597196876336052 0.053949104022647069 0.063483299452011838 0.072560962215253086 0.063452176737910079 0.073251418603824947 0.084576605160484528 0.073180418565359631 0.090768896143193209 0.084734051297205099 0.091124585973840294 0.084819432473118336 0.109433529811897 0.073219328071879614 0.090449972050111432 0.085300940840753764 0.090744530945500557 0.085509152521640458 0.11280452263764756 0.085075878168736713 0.087434050073570357 0.10929443286709892 0.084836926122193082 0.06944011072089723 0.087126094536807225 0.073230018336910244 0.08415266243468468 0.065590045466565369 0.08421373910858182 0.069659030836587893 0.065926722232673513 0.069240648873641675 0.065703641428171242 0.052396820222669595 0.053662441893489884 0.072700857033979507 0.065493668467186184 0.053891800685091563 0.065234112843089193 0.052763813223360399 0.043611743657536721 0.053716523071869665 0.052648713872720965 0.0397608820368896 0.056655953283759955 0.033941461347523065 0.057286409273809312 0.033543970763151271 0.044231446842997027 0.024358648264619951 0.031921449833159851 0.018261427929486859 0.03192886417847992 0.02967789484991025 0.038431944775975356 0.032145365812031076 0.018309298142595951 0.029042658238001395 0.073336270544863122 0.057492142991919327 0.044443569032158077 0.2101115488882877 0.35329470111849776 0.5793745765341668 0.21654870896176931 0.31901739452506955 0.02612899920428105 0.32441702058244243 0.019214088031953524 0.082366856061558372 0.35814225664059701 0.52670332984248758 0.76295243707220406 0.32508336174589619 0.4384525857602527 0.086571778376194106 0.44351445305044512 0.079418738958570614 -0.0026260187166135722 0.45010332474615689 -0.0068555179963574906 0.23182494177452789 0.49358022528446577 0.30851695458340478 0.91398565055618453 0.074515313699281452 0.043064597473521489 0.053945069477391576 0.075169526863440694 0.053920454786746654 0.086173301665015703 0.032093915024481924 0.037340997952973701 0.021173420815765596 0.033380716712284972 0.087267841945058738 0.05924001954429093 0.049466211463945427 0.033788819364449926 0.086542376740675123 0.084588216874979444 0.097028134895400631 0.11206407603892793 0.08390389450719915 0.055889180725667079 0.15081310687600161 0.097033947870323392 0.14232283272118726 0.11265988366868403 0.30566165783359173 0.74467773102243917 0.9163989927205507 0.069266247161476738 0.019200262045832719 0.17761022477504074 0.017619504157673625 0.17992579730018712 0.049089541685374119 0.28643274763257309 0.039161622635891256 0.71725039654528899 0.035402517008402967 0.38140861096000317 0.72150140570441879 0.10154895310258656 0.29112023278911647 0.023316563567208883 0.12842856401826702 0.20489663504932856 0.1357604447261431 0.29380344960478588 0.021761363320990556 0.034443450328781766 0.39634006456314935 0.69263611561452776 -0.014430336112755829 0.13999517653526097 0.13851032102264565 0.17581524717596628 0.054941138132221852 0.15248167093432005 0.10497380405139148 0.13798622896327295 0.17693842125710552 0.20124773755669076 0.13566055224389781 0.17172928651778943 0.17223755566925728 0.17210980336754828 0.17331809027204298 0.20274217636671327 0.13627933565132316 0.17125247612120781 0.13818110345580328 0.17290995058494626 0.16995865329491991 0.1370562301770194 0.17353435827680669 0.17043813347149733 0.22438191135715249 0.16850154305408033 0.20146072070283969 0.22569688060007456 0.16877958582206731 0.19991996892996922 0.15235932703918215 0.16809008570040229 0.15234532158901637 0.13584860515364297 0.16876245467637832 0.13722405117899433 0.13790255855553943 0.13543503032377663 0.11428518276587933 0.11053847836282692 0.13679900097382486 0.10964991922105007 0.13744400638005044 0.1512585729190937 0.13571628697925339 0.11415959765322743 0.09038355004585652 0.11386818961953105 0.11028682551001305 0.084039295834327149 0.11002096339881705 0.10774405886660189 0.13581445829956043 0.1072304060168382 0.13761720681641357 0.11055370493433746 0.10815336074615163 0.13663922268635048 0.02791923176046723 0.078246705962276439 0.14596615940363794 0.0050416654328255756 -0.00061835525589467027 0.068603373576876625 -0.051023586988470246 0.078117476775924358 0.66507324427496028 0.096683795055390945 0.10182473743810531 0.13245263462447701 0.098472528429068201 0.12392210241643523 0.093907542843639585 0.098438868767306648 0.12464520529667218 0.12605006875661728 0.1251729890683021 0.12646228095318712 0.14278270345977656 0.12962473716631406 0.14169601614942334 0.16865634419195252 0.12686064179221798 0.14462695557184302 0.17049765559766958 0.14465770683042842 0.17179844641391401 0.16817555696966691 0.18726993799723507 0.083256734046243397 0.16677640560502513 0.13808573334869181 0.18529551877960598 0.084434333322763205 0.02688696457787209 0.14762162913662694 0.074866281634157997 0.0108375828930172 -0.0066151082732698336 0.3945045939463076 -0.0049902333318243026 0.42472080356694453 -7.0286179048010601e-05 0.67986172948337698 0.9466022681033246 1.1165880710425293 0.67929837879890465 0.95037506320824316 0.64135888252485884 0.97095798533871869 0.63043899679022952 1.0428829915624507 -0.0081083168290990732 0.42621849310906329 0.39821174341270066 0.73870878944824581 0.96297410844111941 1.1255693384152929 0.46910647634869246 0.7240488633547103 1.0129937569744922 1.0227187237042099 1.0446218600931469 1.1234370623739214 1.0238641235712389 1.0456301539114847 1.0093807586622308 0.4672503262008999 1.0159597149341391 0.70517782150715413 1.0343602994471748 0.78348945807378101 1.091962908392015 0.78246768402066547 1.0956876243075615 0.85716479285701175 1.0894677003840654 0.89589962455337346 1.0059235981956394 -0.054524900257997062 0.45522940731949646 0.67060598463796894 0.62946776281304961 1.045619160492967 0.69663014341962803 1.0494646612560299 0.69486767210807077 0.90439843538086495 0.68145760227148378 0.93332980624253237 0.36685948120630557 0.085226248896564022 0.658503994851243 0.33921965410976185 0.9330493302609979 0.7752407054533863 0.36821617859783434 0.77374229628564428 0.36976313786472631 0.48224371110199926 0.53910479538198408 0.90821838216980677 0.94938987779673767 0.89689186128124165 1.0069887697242368 0.88933821474324692 0.98956757892275304 0.85774043689250068 0.93695123405183711 0.85816762739661623 0.93792860131622813 0.82419143054411792 0.54146073133523032 0.94870476674480875 0.74571807440131566 0.94362215031829022 0.80390448996081876 0.85825464189245049 0.80451117892463742 0.85903778890458748 0.74991494811572623 0.79166521589988548 0.62730905974894891 0.78224632364396984 0.36129211637327002 0.76064048433348341 0.57909301007085889 0.31485396719444997 0.47797848477465033 0.054986379020672035 0.80320591115848505 0.4805465672342823 0.87044429923813682 0.48253148366424109 0.8676436120191211 0.48500442436108943 0.86454776685142276 0.52215836020864259 0.82253837617295522 0.4756997976355733 0.49023088924482394 0.06235305836811262 0.48130004038876467 0.069041963040142193 0.17146573462581641 0.010190470833671942 0.031368734771484233 0.014355833798074652 0.047977597664279933 0.058207960046206431 0.013204028157464912 0.010167219039467988 0.031854979852282812 -0.020739252913420596 0.2743727621538336 0.088502101883697712 -0.071908764905762049 0.28001775120215078 -0.077120778928547795 -0.066535914579252411 0.01785495677376266 0.026551546063060649 0.090191947018197799 0.054173353589054014 0.019007036239302787 0.08880912690610257 0.082261854257134601 0.02626548384545991 0.091327778280620553 -0.00050092482182026595 0.068039183709709156 0.022915098735628834 0.045780229051265421 0.28965681016730049 -0.070970476607121358 0.098083092470310426 0.077893952135795155 0.093720954406774457 0.099213156013960385 0.078205910043528531 0.077890520586069517 0.096461479939660172 0.10118345203342764 0.076233293342136937 0.061303402598070031 0.080028170268906337 0.062394039616563396 0.077649417286135017 0.062372886109606659 0.07034812617056227 0.077908772983776964 0.077719734786918016 0.06277545543944299 0.061754775167338301 0.047175086948294476 0.052546125379364671 0.061196096163201499 0.06199604637488472 0.047855545132728855 0.047166131609841219 0.040899582084251304 0.052260561433999306 0.039384159974656739 0.032258069769487016 0.042337938689214143 0.038038066069064382 0.040280461730078342 0.021984979828996505 0.057523440618299476 0.0387928535098854 0.013885980126624686 0.049759983770709421 0.039525486091380457 0.042481343124146247 0.029996154129888649 -0.029554680300691701 0.11345533703876284 -0.020122446512911084 0.040994808620852745 0.085823366594650563 -0.018304800884216568 -0.022763084599444802 0.088284293425922131 0.038152553222374784 0.014133626714582081 0.016276436403588463 0.021569065898237642 0.013350215967305947 0.026705371351358431 -0.019179083257019783 0.038725560849773875 -0.020076413823522703 0.03739531764490777 -0.01802219460217944 0.029747107458751063 0.013601325829652193 0.026442099585421569 0.021411194192945859 0.028011442233961428 0.021710748657063253 0.018936024212633181 0.028302348123440461 0.018737953784849756 0.02504401291474433 0.033546241463898285 0.02851827044140633 0.025142851484824209 0.03765098249374009 0.022220678548732296 0.02616163771095549 0.62844200187694876 0.58949012226238839 0.78076284730059542 0.61160223462802488 0.79151839144873271 0.69073440062132385 0.61223561338565247 0.68950356384512945 0.55642415695052283 0.62686900074018292 0.53252884393661715 0.31800554537614217 0.81754509697828082 0.6204949113014091 0.53404896098842625 0.52403265923309439 0.81984716710476624 0.53142035205897797 0.49003585304829061 0.53709191231160158 0.16911391827878808 0.53196418870801354 0.17373401621682544 0.30477217568867265 -0.01115270650587841 0.12865728613892058 0.28230512392480339 -0.010991475178898112 0.2934419481827813 0.39571786661447106 -0.0045101821559925138 0.38139563024187972 -0.027676175806939925 0.62167232916162452 0.32215806155322152 0.38925432171484486 0.66306453652176389 0.45529324752272854 0.61631283478406784 0.47047151302884754 0.61065831215979227 0.51830429297174163 0.31319621553476529 0.58740292512745229 0.45903169755580353 0.29351518443689539 0.60419207114573681 0.59555295696171351 0.29623091047474576 0.30907877621303242 0.5908838593543887 0.31036322898741958 0.4768399548326161 0.32454644623539519 0.25947652173833319 0.31463827527097998 0.45460767709643751 0.30773791166290931 0.48824454177598309 0.48085369851875492 0.47107392922464825 0.51668400575495588 0.42021847476506807 0.46637424802866512 0.34197121954771181 0.36398751888610648 0.45778111423058893 0.23758709682379375 0.29522278342924752 0.4322596931152608 0.4626684520760031 0.23372578591345916 0.37350101235887195 0.21147016024650553 -0.018530171491859461 0.2026449632565451 -0.014130233943140084 -0.011590121688764598 0.21551944326520622 0.30789544407682812 -0.0055545697100277368 0.1477820435816867 0.30015904258338533 0.0022530706546816876 0.16971563593307451 0.3200719029387819 0.316143846340741 0.34165291656251601 0.28423551083347176 0.36260835653653112 0.31227498030645218 0.2086260047858598 0.34880362017296096 0.13540266728428979 0.18659912468546244 0.34045833005709619 0.016871185026402474 0.021027612982335846 0.012557470672595109 0.014518988138863582 0.02151373628561698 0.018859212893964552 0.013629869371062881 0.021024913287069825 0.010391977059576372 -0.011316990364337259 0.01842904349353194 -0.0061971315781073162 0.015824098657078262 -0.0022326348263119757 0.0084198879641936199 -0.0020453332750915792 -0.0015294820477179517 0.0080223882820848295 0.12670783158563501 0.0054930618628054031 -0.027331323236900171 -0.0012207737336701583 0.0076682618800145517 0.0029226476628161943 0.00023615580885704218 -0.00063913956588766989 0.0053531995601722197 0.0017935694629394841 0.0080665745588435686 0.014304068814857782 0.015583478875835763 0.012427946733564494 0.0094837150385789094 0.016706464716475172 0.012592551521397431 0.011447217631746259 0.0096801991625248673 0.001524729158505312 0.014587159477116703 0.010015399178371969 0.012800945208567593 0.009699477757881143 0.013907101938127093 0.0089746911271639113 0.012075795420878435 0.0090938886883100509 0.0089996695125075868 0.011951306410296219 0.0087707147880397452 0.012106692727660937 0.010306825887933453 0.012213978183028766 0.013908360150073467 0.010302451712134213 0.01412964313253361 0.012113120553280114 0.015677602636283736 0.014139223494215784 0.015786162596005394 0.01937712027186661 0.012046870489526941 0.015632075571184748 0.014148788261198109 0.01573685447101671 0.018091814173564348 0.014161867100815594 0.015611691179176377 0.020066692044769768 0.018281447415008159 0.011952345742547594 0.016963052885634052 0.013378656585545851 0.010505061518606936 0.0089637474566419909 0.03684451056831628 0.011709862446072389 0.013211077554688108 0.0078739847644202447 0.013041624912390573 0.0080096499084379522 0.0098291850865987167 0.009099648528042268 0.0099188469980055812 0.0064453814555347089 0.011161594213128016 0.0035792458411779155 0.022248191660760482 0.0080021920346560298 0.0097149277835214473 0.0062955489524595216 0.026434995201079805 0.040790543330510486 0.032481569000854742 0.01125087258803271 0.041986644887621875 0.038225843989417113 0.012173269079218275 0.023085116644714524 0.040909638610289102 0.030616072863710795 0.039422282991364549 0.027278355418618939 0.041580556736130807 0.029990328726653647 0.039167793746545866 0.040661349623958266 0.025666181567055833 0.028440514386280653 0.038741630215704502 0.055275228845917408 0.04721158412214143 0.055812666611094922 0.060529706010439929 0.047209006355314491 0.041894296143084327 0.039324915185184835 0.056554644690854361 0.059913579630329117 0.045588946975969637 0.062167782008431406 0.038550100304764759 0.060262505219802996 0.041055777293048559 0.061178542717975584 0.040665518068049362 0.050538859210468717 0.0099271998857490724 0.038129336254911134 0.042598605512067692 0.061727337328404935 0.050506389868805249 0.079803370464455972 0.044241057117974623 0.077887182037459687 0.014808040357972375 0.079533585420721697 0.03652296120612062 0.013228037354220089 0.054804688625281775 0.08330707504371565 0.071066211082530237 0.060084288449545137 0.075526938550966136 0.062696590732541177 0.054230975483490249 0.06135741841260936 0.07266698677769029 0.084285803136977658 0.071173135848581509 0.087485573422216981 0.075881472223493035 0.062558918300724631 0.077372513518395872 0.076099256367116133 0.093510601365220061 0.077613857868683203 0.094048372076749237 0.11403019006432925 0.077355303420801103 0.088912299395974309 0.10566381382273936 0.11085228130800788 0.10582312885525892 0.11122083329169259 0.13177039822336784 0.12113439908697565 0.070156607819629124 0.13067282061386482 0.10822914818467422 0.13269791850265666 0.12879924536383866 0.083600427556835138 0.12143095104036003 0.037807058288369166 0.084810643532423471 0.087598525379991216 0.11162510701189571 0.12427133808712962 0.069694475255318869 0.03472203069367058 0.12404343337770403 0.073162201167041044 0.13464113474940645 0.053111672962146431 0.036793474082289578 0.01825825405099394 0.054059124302053778 0.017297143443074633 0.019456046823982501 0.032268453460339762 0.020773850822397983 0.017759525757812273 0.034116081510701793 0.033587607447385356 0.026906347683058277 0.032601718047046216 0.04628088857862192 0.038842074147956339 0.034260638511311524 0.033695784145375621 0.044972491953742859 0.040857638268936548 0.03194627734784198 0.04321659195437292 0.031352729153025831 0.032004156230038473 0.025976792304500392 0.040063136557095771 0.031430085098352552 0.032103515680005031 0.033245414514175044 0.023410990750746881 0.026960590691212066 0.032203110796998689 0.025878006561346679 0.024086964422602313 0.019505346623751217 0.025700275959782568 0.024035374607526493 0.020171383308421748 0.018295315622522682 0.023650644165111215 0.017144707442168419 0.023146465798908316 0.0174887578635