<?xml version="1.0"?>
<VTKFile type="UnstructuredGrid" version="0.1" byte_order="LittleEndian">
<UnstructuredGrid>
<Piece NumberOfPoints="3142" NumberOfCells="1054">
<Points>
<DataArray type="Float64" NumberOfComponents="3" format="ascii">
0.02576622439977887 0.024532886826226379 0 0 0 0 0.049999999999899652 0 0 0.02576622439977887 0.024532886826226379 0 0 0 0 0 0.050000000000207989 0 0.02576622439977887 0.024532886826226379 0 0.049999999999899652 0 0 0.053064897599215843 0.048131547304697528 0 0.02576622439977887 0.024532886826226379 0 0.053064897599215843 0.048131547304697528 0 0 0.050000000000207989 0 0 0.050000000000207989 0 0 0.10000000000041601 0 0.044310582753132287 0.101412518374475 0 0 0.10000000000041601 0 0.044310582753132287 0.101412518374475 0 0 0.15000000000062411 0 0.053064897599215843 0.048131547304697528 0 0.044310582753132287 0.101412518374475 0 0.083411279318303222 0.089699755330707398 0 0.053064897599215843 0.048131547304697528 0 0 0.050000000000207989 0 0.044310582753132287 0.101412518374475 0 0.044310582753132287 0.101412518374475 0 0.083411279318303222 0.089699755330707398 0 0.065374659239632718 0.1448908038746782 0 0.083411279318303222 0.089699755330707398 0 0.065374659239632718 0.1448908038746782 0 0.1053400320299198 0.12877248826361379 0 0.083411279318303222 0.089699755330707398 0 0.12372429750337779 0.095814237875728972 0 0.1053400320299198 0.12877248826361379 0 0.12372429750337779 0.095814237875728972 0 0.1053400320299198 0.12877248826361379 0 0.14332333627550789 0.14578431753966009 0 0.12372429750337779 0.095814237875728972 0 0.10266856499169109 0.044518360900210059 0 0.14618258501891079 0.062070108745602003 0 0.083411279318303222 0.089699755330707398 0 0.12372429750337779 0.095814237875728972 0 0.10266856499169109 0.044518360900210059 0 0.10266856499169109 0.044518360900210059 0 0.099999999999814668 0 0 0.14999999999970359 0 0 0.049999999999899652 0 0 0.053064897599215843 0.048131547304697528 0 0.099999999999814668 0 0 0.053064897599215843 0.048131547304697528 0 0.10266856499169109 0.044518360900210059 0 0.099999999999814668 0 0 0.053064897599215843 0.048131547304697528 0 0.083411279318303222 0.089699755330707398 0 0.10266856499169109 0.044518360900210059 0 0.044081577119474857 0.2271058242433576 0 0 0.20000000000083221 0 0 0.25000000000104028 0 0.044081577119474857 0.2271058242433576 0 0 0.20000000000083221 0 0.038512288486115001 0.1844147282893184 0 0.044081577119474857 0.2271058242433576 0 0.038512288486115001 0.1844147282893184 0 0.083105206071467416 0.20007701332709979 0 0.038512288486115001 0.1844147282893184 0 0 0.15000000000062411 0 0.065374659239632718 0.1448908038746782 0 0.044310582753132287 0.101412518374475 0 0 0.15000000000062411 0 0.065374659239632718 0.1448908038746782 0 0.038512288486115001 0.1844147282893184 0 0.065374659239632718 0.1448908038746782 0 0.083105206071467416 0.20007701332709979 0 0 0.20000000000083221 0 0.038512288486115001 0.1844147282893184 0 0 0.15000000000062411 0 0.065374659239632718 0.1448908038746782 0 0.1053400320299198 0.12877248826361379 0 0.106902708054812 0.16453234188234539 0 0.1053400320299198 0.12877248826361379 0 0.106902708054812 0.16453234188234539 0 0.14332333627550789 0.14578431753966009 0 0.065374659239632718 0.1448908038746782 0 0.106902708054812 0.16453234188234539 0 0.083105206071467416 0.20007701332709979 0 0.083105206071467416 0.20007701332709979 0 0.095326043202144745 0.24554465089224409 0 0.13737030665753211 0.20313708640667491 0 0.106902708054812 0.16453234188234539 0 0.083105206071467416 0.20007701332709979 0 0.13737030665753211 0.20313708640667491 0 0.044081577119474857 0.2271058242433576 0 0.083105206071467416 0.20007701332709979 0 0.095326043202144745 0.24554465089224409 0 0.044081577119474857 0.2271058242433576 0 0.095326043202144745 0.24554465089224409 0 0.049706944316556423 0.27522722923869108 0 0.095326043202144745 0.24554465089224409 0 0.14377654328998779 0.2442024734791064 0 0.13737030665753211 0.20313708640667491 0 0.17933913398461551 0.2350063570234002 0 0.14377654328998779 0.2442024734791064 0 0.13737030665753211 0.20313708640667491 0 0.17933913398461551 0.2350063570234002 0 0.13737030665753211 0.20313708640667491 0 0.18124454140915969 0.18790916706335251 0 0.18124454140915969 0.18790916706335251 0 0.14332333627550789 0.14578431753966009 0 0.18652628422869419 0.14162325200928061 0 0.106902708054812 0.16453234188234539 0 0.13737030665753211 0.20313708640667491 0 0.14332333627550789 0.14578431753966009 0 0.13737030665753211 0.20313708640667491 0 0.18124454140915969 0.18790916706335251 0 0.14332333627550789 0.14578431753966009 0 0.14332333627550789 0.14578431753966009 0 0.18652628422869419 0.14162325200928061 0 0.16141998738593399 0.10404039647458049 0 0.18652628422869419 0.14162325200928061 0 0.22985637510995899 0.1298347970200906 0 0.2185883431182947 0.18019736283949719 0 0.22985637510995899 0.1298347970200906 0 0.2185883431182947 0.18019736283949719 0 0.25557216766470708 0.15874861286892261 0 0.2185883431182947 0.18019736283949719 0 0.25557216766470708 0.15874861286892261 0 0.26429849586623999 0.19346700179430079 0 0.18124454140915969 0.18790916706335251 0 0.18652628422869419 0.14162325200928061 0 0.2185883431182947 0.18019736283949719 0 0.17933913398461551 0.2350063570234002 0 0.18124454140915969 0.18790916706335251 0 0.224700362040408 0.22206622194729711 0 0.18124454140915969 0.18790916706335251 0 0.2185883431182947 0.18019736283949719 0 0.224700362040408 0.22206622194729711 0 0.2185883431182947 0.18019736283949719 0 0.224700362040408 0.22206622194729711 0 0.26429849586623999 0.19346700179430079 0 0.224700362040408 0.22206622194729711 0 0.25195515620380449 0.25883339815888678 0 0.21049769590865089 0.26857363548218488 0 0.17933913398461551 0.2350063570234002 0 0.224700362040408 0.22206622194729711 0 0.21049769590865089 0.26857363548218488 0 0.184418230509967 0.038773194583122873 0 0.14999999999970359 0 0 0.14618258501891079 0.062070108745602003 0 0.184418230509967 0.038773194583122873 0 0.14618258501891079 0.062070108745602003 0 0.19922788606653311 0.085920220746880993 0 0.184418230509967 0.038773194583122873 0 0.14999999999970359 0 0 0.19999999999955789 0 0 0.10266856499169109 0.044518360900210059 0 0.14999999999970359 0 0 0.14618258501891079 0.062070108745602003 0 0.12372429750337779 0.095814237875728972 0 0.14618258501891079 0.062070108745602003 0 0.16141998738593399 0.10404039647458049 0 0.12372429750337779 0.095814237875728972 0 0.14332333627550789 0.14578431753966009 0 0.16141998738593399 0.10404039647458049 0 0.18652628422869419 0.14162325200928061 0 0.16141998738593399 0.10404039647458049 0 0.19922788606653311 0.085920220746880993 0 0.14618258501891079 0.062070108745602003 0 0.16141998738593399 0.10404039647458049 0 0.19922788606653311 0.085920220746880993 0 0.18652628422869419 0.14162325200928061 0 0.22985637510995899 0.1298347970200906 0 0.19922788606653311 0.085920220746880993 0 0.22985637510995899 0.1298347970200906 0 0.19922788606653311 0.085920220746880993 0 0.24218496799700481 0.089025544070598317 0 0.22985637510995899 0.1298347970200906 0 0.24218496799700481 0.089025544070598317 0 0.27474541102162192 0.11822029332053539 0 0.19922788606653311 0.085920220746880993 0 0.24218496799700481 0.089025544070598317 0 0.22668068146512929 0.045875643423131329 0 0.24218496799700481 0.089025544070598317 0 0.22668068146512929 0.045875643423131329 0 0.27499999999933927 0.060310814194988557 0 0.184418230509967 0.038773194583122873 0 0.19922788606653311 0.085920220746880993 0 0.22668068146512929 0.045875643423131329 0 0.184418230509967 0.038773194583122873 0 0.22668068146512929 0.045875643423131329 0 0.19999999999955789 0 0 0.22668068146512929 0.045875643423131329 0 0.19999999999955789 0 0 0.24999999999941211 0 0 0.24999999999941211 0 0 0.27499999999933927 0.060310814194988557 0 0.29999999999926641 0 0 0.22668068146512929 0.045875643423131329 0 0.24999999999941211 0 0 0.27499999999933927 0.060310814194988557 0 0.27499999999933927 0.060310814194988557 0 0.29999999999926641 0 0 0.32541448401678508 0.046215317981507749 0 0.29999999999926641 0 0 0.32541448401678508 0.046215317981507749 0 0.34999999999912063 0 0 0.32541448401678508 0.046215317981507749 0 0.3615861437013822 0.03582617922508851 0 0.35312867752657662 0.084946736076730367 0 0.3615861437013822 0.03582617922508851 0 0.35312867752657662 0.084946736076730367 0 0.39591832466117061 0.056982757562006353 0 0.32541448401678508 0.046215317981507749 0 0.3615861437013822 0.03582617922508851 0 0.34999999999912063 0 0 0.3615861437013822 0.03582617922508851 0 0.34999999999912063 0 0 0.3999999999989749 0 0 0.35312867752657662 0.084946736076730367 0 0.36246644853392812 0.1399454205365751 0 0.39823268594401579 0.1116623613130045 0 0.35312867752657662 0.084946736076730367 0 0.32215584939770009 0.1218492143506909 0 0.36246644853392812 0.1399454205365751 0 0.32541448401678508 0.046215317981507749 0 0.35312867752657662 0.084946736076730367 0 0.3096713403101819 0.085471541595262421 0 0.35312867752657662 0.084946736076730367 0 0.32215584939770009 0.1218492143506909 0 0.3096713403101819 0.085471541595262421 0 0.32215584939770009 0.1218492143506909 0 0.3096713403101819 0.085471541595262421 0 0.27474541102162192 0.11822029332053539 0 0.27499999999933927 0.060310814194988557 0 0.32541448401678508 0.046215317981507749 0 0.3096713403101819 0.085471541595262421 0 0.27499999999933927 0.060310814194988557 0 0.3096713403101819 0.085471541595262421 0 0.27474541102162192 0.11822029332053539 0 0.24218496799700481 0.089025544070598317 0 0.27499999999933927 0.060310814194988557 0 0.27474541102162192 0.11822029332053539 0 0.22985637510995899 0.1298347970200906 0 0.27474541102162192 0.11822029332053539 0 0.25557216766470708 0.15874861286892261 0 0.27474541102162192 0.11822029332053539 0 0.25557216766470708 0.15874861286892261 0 0.29336099386129338 0.15892013001050981 0 0.25557216766470708 0.15874861286892261 0 0.29336099386129338 0.15892013001050981 0 0.26429849586623999 0.19346700179430079 
[...]
<PointData Scalars="tracer_conc,region_id," Vectors="" Tensors="">
<DataArray type="Float64" Name="tracer_conc" format="ascii">
5.118335396403064e-05 4.1114412330670956e-05 6.3125685756935967e-05 5.0834562165482264e-05 4.1351863452890226e-05 4.0129016915037257e-05 5.1113417138429603e-05 6.4393231310453191e-05 6.4551423347518065e-05 5.1260885925093845e-05 6.3058374744559065e-05 3.9785890927606991e-05 3.9427851448498255e-05 4.1792978316496948e-05 6.0008664778797384e-05 6.1484990561129916e-05 8.2840804922063328e-05 7.5177847450586997e-06 6.3466331437339859e-05 6.2096524543918212e-05 8.3606468114295155e-05 6.2481648305719222e-05 3.8689822479115462e-05 6.1256508210365146e-05 6.3438242607649788e-05 8.7095132007130181e-05 8.7678646164294255e-05 8.7701477501293584e-05 8.833099418425947e-05 0.0001588815112178633 7.2039632679262827e-05 0.00010869443671591014 0.00013644104161930769 0.00010702603957710794 0.00014362737148700667 0.00022834015312059246 0.00012098830795729656 0.00010057137348416698 0.00014526144643914291 8.4284904737780104e-05 0.00011946160107627559 0.00010064105149610504 0.00010161055260543435 0.0001009922507561743 0.00015209440572465916 6.4646017639328804e-05 6.4813352322911613e-05 9.7288730886138024e-05 6.3606942464215571e-05 0.00010013080755044751 9.9720295862084439e-05 6.4168430741262726e-05 8.4099645056585602e-05 9.886657737509325e-05 0.0024157601539144978 -0.0002441113068950421 0.003980073177700408 0.0020306826817364306 0.00013934232347871154 -0.00072451069431954233 0.0021707038496803976 -0.00083356900141170261 -0.00021708444134840952 -0.00013308653710716244 -6.304146769865252e-05 -0.00011134741210604077 8.6773965238025986e-05 1.9162176326839367e-06 6.4626907405600733e-05 -0.00013731017955951312 -0.00011256994009127804 -0.00022211149698350544 -0.00020566103363491353 -0.00030749502921744213 -4.7727371286967533e-05 -9.344456789697756e-06 0.00022525081855270874 -0.00031311301765675633 0.00024867629023627835 -0.00033863487039994492 -5.1698836098473318e-05 -0.00010861380425081254 -0.00025595784626895114 -0.00022783711900570212 -0.00066549806470254274 0.0075179573640037512 0.00066527947674183173 -0.00023179391650521818 -0.00020848246877635718 -0.00032926332745524466 0.002835477048470778 -0.00030234485862900092 0.0071155080538776354 0.0026212819257953736 0.0096538765825692641 0.011434031186772036 0.0081191686567765164 0.010560690072711385 0.00049738507312364335 0.0092087242115111555 0.010901956745256541 -1.7759017853408941e-05 0.0082064785009761804 0.0010263841446932448 -0.0011970223363928492 -0.0014586136703561513 0.00029938395199338231 0.00044199632304831206 -0.00022892260603856211 -0.00033771372517810009 -0.00030131063801694445 -0.00034143703305336868 -0.0013246369213277191 -0.0003022334229671349 0.00024395693832636613 0.00029537684932277154 0.00016268560803571735 0.00018637044730518556 0.00049862521127419046 -0.0007487895361830999 0.00054587664474596564 -0.00081491238076069402 -4.9154346838152702e-06 -0.0011422481874271372 -3.0322061538545403e-05 -0.0025060338315157152 -0.0015749768895753833 0.00050698168274784534 -0.0011761962257679087 0.0087389860362916023 -0.0015703681451389284 0.0067870266160567263 -0.0014559253833043243 -0.0033944017590344364 0.0069190875596232401 -0.0037450483504252508 0.0074539453758858303 -0.0019725390748404634 0.0060121073442450951 0.047654035217197147 0.044699197161157923 0.010795508113588776 0.0072045259918712499 0.042643488240108662 0.00020836503055419631 0.00015803283919086297 0.00014925267141888994 0.00021144269349036287 0.00014660242575688305 0.00023339047413950361 0.00021134337099164581 0.00015645374262744665 0.00024282625178771285 9.9746536754619474e-05 0.00015589177534103702 0.00014791100284687622 0.00012177165999370088 0.00014673319993760019 0.00016994706140716084 0.00010332936393823892 0.00023316307973278224 0.00016407284827175627 0.00028425078778293432 0.00017938937899264482 0.00022569518352417552 0.0001467786470538126 0.00017180348761729135 0.0002256129289145294 0.00028836077517142671 0.00041029128166421156 0.00022538709734972416 0.00039745555254433961 0.00021192667014523025 0.00032517150103218473 0.000408837079966885 0.00032520579368440012 0.00052792493654395419 0.00023577034196084267 0.00034458770064211387 0.00030892129136705042 0.00034914767808892893 0.00031010432154421374 0.00045888239320754842 0.00021291049614008178 0.00023711146932587658 0.0003036460662580189 0.00021222190045435795 0.00030521337688702564 0.0002472497383107635 0.00030955021583123213 0.00024659080817929913 0.00038028787021766723 0.00038785391529244694 0.00047878452529281868 0.00059846768918186857 0.00030925720049821461 0.00038798915671047325 0.00047093685387416693 0.00047769515410002537 0.00061098191558682567 0.00074623690113520232 0.00061005777512822127 0.00076308641963551552 0.0009461528927148014 0.00076057996857017583 0.0010646305695639284 0.00095533305053207391 0.0010755269363368783 0.00095758576467630898 0.0014270297956432609 0.00076193763796408474 0.0010580553187808117 0.00096600796707359575 0.0010679199565896164 0.00097101499695279188 0.001493117738611708 0.00094274554520169243 0.0011319831873991347 0.001512786639423645 0.00094242797329952791 0.0007569688270309793 0.0011167513946204245 0.00076294831389701369 0.00093882893235852638 0.00064068557308441564 0.00092768587642034193 0.00075849315406322176 0.00063686559570604051 0.00074556373259375452 0.0006355544390364001 0.00048830049110431064 0.00047154242777030212 0.00074975294031427372 0.00063877804704038645 0.00046796950768654931 0.00062890755515617499 0.0004842144604986801 0.00035117414035340657 0.00046552312915950901 0.00048064925989345673 0.00035513448270304827 0.00067226605374066906 2.5662318286064571e-05 0.00070049676281479115 -2.9298839274629767e-06 7.0891716411793817e-05 8.3385758736850463e-05 -9.0647498953075364e-05 -0.0026277241733446582 0.00021466907480202237 -0.0044134232618570192 -0.0004740174297811457 -2.4953745693327361e-05 -0.0027736263068179091 -0.0042187913925358879 0.0010064725337629908 0.00073752942129975377 5.7195278148329473e-05 0.0047755091171732952 0.021125446533635767 0.0469048548422977 0.0093094993063076812 0.017299092878203998 -0.0020990224737212969 0.01836259281343508 -0.0032952837851603499 0.00078771523636345466 0.019216222758309868 0.056546184885714536 0.089674333924998795 0.019328827034855993 0.033310275973423571 0.00087831998351449209 0.03513022620145699 -0.0011168697759422214 -0.0099480584384395165 0.03751997482975989 -0.011532189848573182 0.010059735732667979 0.050701872269916133 0.016985140909982453 0.17340099988641469 0.0010702749577452559 -3.9649799832773532e-05 -3.836611873768979e-05 0.0011318603325483204 -6.9105355405300577e-05 0.0013211930461520349 -0.004647257296238049 -0.00041390924307107315 -0.005313153970377159 -0.0032629452918798837 0.001686521647562217 -0.0020001014878730573 -0.00059778348071751349 -0.0031073344691976579 0.0015390165921515366 0.0010142682030040474 0.0011988324646042901 0.0016679675876061469 -0.0001585438729722305 -0.0051970729811139016 0.0041055698426197664 0.0011910895447570366 0.0030021554803668564 0.0016985189151429887 0.010559985357777461 0.14158994053489615 0.18283313986114769 -0.0009193109093143016 -0.0055808592860380826 0.0047727026218454 -0.0059882163207682177 0.0052080159766922183 -0.011269336839149803 0.023574485079666269 -0.021138984459512043 0.11362128054202332 -0.026122493986399431 0.030992460015368959 0.11986357627627417 -0.00047854774811778686 0.024360273564652347 -0.015534419014335185 0.0011055785652802886 0.0046953947851528849 -9.035285153813213e-06 0.026315042931973474 -0.017193770908954176 -0.02637582952158796 0.051697902611131413 0.1306533161920384 -0.041568881044051931 0.002257771332557276 0.0019258348206447945 0.0032636376545374336 -0.0056132431508622805 0.0044992670522150868 -0.0029411032498708619 0.0018722589682179959 0.0033388374593139917 0.0042566287934940232 0.0020429682123154439 0.0030366492947460802 0.0030310686378930245 0.0030583745844790121 0.0030876510056808458 0.0040353871676873324 0.0020670730890494631 0.002981801820045761 0.0021039959831499564 0.003076034827259416 0.0029991286511248565 0.0020691131224688806 0.0031110298974018533 0.0030266741887107962 0.0047976389272752573 0.002944265987401625 0.0040339657592713615 0.0049120056072735957 0.0029644300407768451 0.0039358974078537601 0.0024900020397613451 0.0029268448063468292 0.0024899354692925792 0.0020507004689829678 0.0029391629102368945 0.0020949333311279148 0.0021063917076467628 0.0020282638757788828 0.0015450502648777502 0.0014667451324470798 0.0020757547295066092 0.0014367317041345763 0.002086252161542844 0.0024385570702535812 0.0020460926295254246 0.0015376312998224128 0.0010552321183966136 0.0015297289434417958 0.0014574964533660693 0.00093558214518107865 0.0014462884895693085 0.001393600304114542 0.0020462037872964627 0.0013799567200182634 0.0020798017740561998 0.0014655275813882736 0.0014074417245821269 0.0020445432244532518 -0.01042998094443515 -0.00014224741660496458 0.0057236126597679212 -0.015047587827509411 -0.014331404508219672 0.0004030471258720069 -0.028053695762349801 -0.0056685815047981371 0.097000995173411708 0.0020457093029744022 0.0013931448398739475 0.0034752144867874093 0.0011845351716744626 0.0016126645661215565 0.00109764860169609 0.001286289938735239 0.0015492987317420805 0.0023252949062019237 0.0015325438153041642 0.0023845754919769096 0.0019842237081716093 0.0030458868098171051 0.0016778463680533749 0.0033835991279959703 0.0018217444933267056 0.0022819602319914902 0.0029610071362926598 0.0022826698265800724 0.0030318672898710479 0.0029869816568028622 0.0081779607957448014 -0.0090504480741974216 -0.00092975386625243064 0.005163753083199522 0.0074488848162519786 -0.007876115898199542 -0.011236551211802283 0.0063952974263356381 -0.0092065901939799959 -0.016797001788268522 -0.025624849474148326 0.049068768827665088 -0.032637994121367628 0.067904109212360148 -0.047353369034649671 0.15847021095849295 0.41434192938958464 0.71989086024169247 0.16373999144759899 0.3971949372612687 0.094928235739436206 0.40922405846231358 0.10311984564738766 0.37849038331436202 -0.028139842385550441 0.065384556178573444 0.053301283937148898 0.19317249435239958 0.40240048864500255 0.72296812397021259 0.023567119820216698 0.17543214508042884 0.39026381874985805 0.48535385128350877 0.47653311445575486 0.70991790930801246 0.48128095410478605 0.4731375732210456 0.34252747822785795 0.035521949284497173 0.37539824749900041 0.15013138682690316 0.42160394039097154 0.18001051677874622 0.3962044652498799 0.18574575525642723 0.38399002789021219 0.17752912279138086 0.36665170487757975 0.20215071564025713 0.2416030382116908 -0.031889531396314931 0.063600762124076421 0.10292553406768788 0.10958403121787517 0.36638965965732878 0.12103275577835866 0.35364893992600144 0.13110766615479882 0.20337526389625962 0.11472480954443623 0.1908839776743026 0.011994786964555909 -0.00049947384785771108 0.090535217876102997 0.029799596787154364 0.18556274069521272 0.12132609948471322 0.018209370591684496 0.11707833798236401 0.021127235955675717 0.042390888114225624 0.056977421835931547 0.17999515910565567 0.16666403046824321 0.20182579721273261 0.23821227161311725 0.15387061289685075 0.22122690379979226 0.14011401601686696 0.17329060064709353 0.14009532646062886 0.17084687746950572 0.10863277560808066 0.061107939061013736 0.16120446841437572 0.090348329655443926 0.1637604937908981 0.10190465874498704 0.11930224551197408 0.10146900222633519 0.11719037491718265 0.073489436636866384 0.095363606376222126 0.055905860291568958 0.079280777482524878 0.021705265272650719 0.086969286397753115 0.050266103903507393 0.019793459762024325 0.034319078677546522 -0.0010906429125424198 0.12305765632902932 0.044275451638656441 0.1185690519221354 0.045884562418531706 0.114693348337208 0.037636235874156952 0.11236136398718805 0.045673836950488114 0.085820907944456043 0.034958944959558008 0.034397987787245524 -0.0012187306839816206 0.032208990846264787 0.00022733539834834032 0.0064135908532833236 -0.0033978681956668482 -0.00055792586262552377 -0.0011265865612983511 0.00040858452400216867 0.0011444355211763242 -0.00099414217623889083 -0.0035686753154130636 -0.00044401700832416276 -0.0065675037855648178 0.019131564927657913 0.0029239630396465546 -0.012018298908455108 0.020759404344122261 -0.013602644227464744 -0.015183267425305243 -0.0029199011156134558 -0.0035913917964597178 0.0025975132005709124 0.0007922364647072141 -0.00264525897989395 0.0023827901889924485 0.00094601310928328836 -0.0037641770100425042 0.0028923473439315989 -0.013811657697746208 -3.7414931012033551e-05 -0.005218520861749832 -0.006191610172857547 0.023095862831804956 -0.016423036382855052 0.0011722033205402447 0.00081481077783081485 0.001092091069610637 0.0012942591308810845 0.00075237937676095844 0.0011682805867446458 0.0019962311813454779 0.0014045966606744263 0.0011465563749530091 0.0012134039143275857 0.0014349593849489889 0.00048726277665207097 0.00079373882381510836 0.00056525712618310411 0.00071328488618446089 0.00075869157941669478 0.0011426081820977638 0.00060207425630080021 0.00054002571821994464 0.00039730514738508404 0.00043505588239589084 0.0011693740138961903 0.00050783400324119429 0.00047826544964718728 0.00039576339544943084 0.00030406352168924327 0.00043067117475501817 0.00020234364675311172 0.00023831947599945122 0.00059258926833381039 0.00048367887692460137 0.00050340755676476427 -4.498166626945084e-05 0.0010831746411200961 0.00047708596739282972 -0.00091440186796940925 0.00057577797770508234 0.00019054498644214746 0.00061319894071894146 -0.002043047256034445 -0.003492285583077688 0.0030830411148626696 -0.0017481638216371759 0.00040919937518010292 0.0015653693070323965 -0.002726199702746825 -0.0019334892279728587 0.001716779512345939 0.00041527672843173823 -0.00085758615207115864 -0.00030152654619271458 -3.5916273923331723e-05 -8.8437567742367368e-05 0.00023516277903450411 -0.0016528471208683943 0.0002745129815799725 -0.0011840272067459175 0.00022443810034515762 -0.0010810230639960187 0.00024878031593519742 -7.2460338303713948e-05 0.00022675293525630389 0.00019270448460014731 0.00027564701578046939 0.00019650351401223615 7.0163512902578047e-05 0.00028465738355780277 5.9659057038285681e-05 0.00010971255277093369 0.00028847847342874678 0.00029780492760633239 0.0001056069335125264 0.00046402915361170015 -2.4981253086647824e-05 0.00022601160747112215 0.056127722917352733 0.042240248860534998 0.077621894957854112 0.04571637742913176 0.07716249086225821 0.053914395253258425 0.045586663894893145 0.053140769312658209 0.033467327078853942 0.04529999706721298 0.038687756618511496 0.014512974723373788 0.081749811477866918 0.045733083201527525 0.041302415285482751 0.046371393089998506 0.083997831914145046 0.03998301476978431 0.035044258811954734 0.038283159092384271 0.0042895270677382989 0.036759078462009334 0.0054539746155068498 0.014825198846627025 -0.0027709136441850788 0.0035271949249720395 0.011945083878633521 -0.0031209774165388087 0.012871444681537026 0.017757887979565241 -0.002397923314365199 0.016192483367837233 -0.0033278072077665066 0.043435579960043803 0.015603176819328475 0.01857976341988286 0.048449306509970043 0.023754962938659932 0.039060547605811104 0.025290434815846263 0.037726797496999906 0.025855586077108458 0.013387706354972813 0.034647912762816598 0.021987947931843468 0.012939183736699406 0.042415707395777408 0.036714578634807371 0.01346234146879647 0.0125489341094326 0.035600721582485194 0.011521264975630826 0.020476247381642051 0.010629728726644286 0.008472766295098676 0.013484915024406331 0.021265565212097218 0.011253046823054863 0.023386854466272922 0.021101650439098483 0.025082095129791548 0.02560067384590126 0.017604017428451788 0.019598571524566861 0.011740998869543346 0.012543466890589399 0.019572330658043161 0.0076632687032681885 0.0095078356454664364 0.020842994020806596 0.020296617654025996 0.0072099249604935687 0.01532564384299784 0.0070179886187609654 -0.0024232558679874588 0.0063074078191438197 -0.0020363956591657188 -0.0015563474739270348 0.006719220292425737 0.0094902593808323474 -0.0013028781258659897 0.0034674868911009926 0.0089486628760113672 -0.00080427806066878549 0.0039701673439486822 0.010127542329943879 0.0089996382817673845 0.011629582016889078 0.007778076072948917 0.012354546003075015 0.0088404730549395041 0.0051398296843026192 0.011318221890767709 0.002948284839783074 0.0043912165621407774 0.010930216254212727 0.00013046669681292014 0.00017628422661342032 3.8389914534984236e-05 7.4865220056035659e-05 0.00018818210863705834 7.4352396170987423e-05 -6.1251895651166013e-05 0.00017572937732766535 -1.5494725640030598e-05 -0.000838031158873948 -8.0204676756115022e-05 -0.00040032508169050585 -0.00020000624786440171 -0.0002143575308734446 -0.00031856768765154515 -0.00021542640358001802 -0.00015664817039692753 -0.00031135676449373139 0.0026389441631897536 -0.00055656582184945532 -0.0010461642056152287 -0.00016168413803167289 -0.00030228574749497923 -0.00017166009841324001 -0.00012738179740518635 -0.00019615167980355759 2.0615620976101142e-05 -9.2454859860187548e-05 2.989168515198592e-05 0.00010378245557337243 0.00010190066906451397 8.0616784297854799e-05 3.8773355454648418e-05 0.00012605552326742304 4.1434418131716951e-05 6.0477643155591654e-05 -7.3348967542195786e-06 -0.00010051070262832316 0.00011061302565893874 5.9920903570134677e-05 8.4777081536837102e-05 4.4292114766672615e-05 5.8933833827356865e-05 3.3051623880380848e-05 5.6336465340502701e-05 3.4786339012126174e-05 3.8513392211652366e-05 5.5075734802195839e-05 3.5979111197974354e-05 5.6179215225226318e-05 4.4032061211517884e-05 5.7150775313499328e-05 6.7230907400476174e-05 4.3909090504239603e-05 6.025504891120525e-05 5.7296191672214038e-05 8.0261874299836192e-05 5.9629873856701289e-05 8.1617098535590929e-05 9.4456059267954454e-05 5.5537091207752797e-05 7.9457376860148253e-05 6.9608877133347944e-05 8.0471717779361361e-05 9.8414137095871869e-05 6.973573547180696e-05 7.8914898953902403e-05 0.00011045361715806826 0.00010063263010665668 3.6782847939444606e-05 8.3489178358378102e-05 6.1233689114272686e-05 2.2418133057399084e-05 2.0321480599667069e-05 0.00030968862450410405 3.5217198197192387e-05 5.9558926685337001e-05 1.5743096295021082e-05 5.7815390543520261e-05 1.7614109720287429e-05 3.9841467434612257e-05 3.8998757135339689e-05 4.0474815613497942e-05 1.7747366917409607e-05 5.1710941475433419e-05 -6.3776017530590082e-06 0.00014759648919319322 1.8214387111067904e-05 3.8431174637570367e-05 1.6105418320900661e-05 0.00018678209418518941 0.00032470271230506975 0.00022811622731139307 4.8883579640791561e-05 0.00034497849542600357 0.00032521076503554689 6.1716244291622511e-05 0.00015622488371618912 0.00032935975302848336 0.00020963399358889571 0.00030345302550594655 0.00018655956715257432 0.00033538552914323444 0.00020531157078389157 0.00030254480886417401 0.00031976789505828459 0.00017116126470792994 0.00020917906369269149 0.00030167257443117131 0.00050083249406363006 0.0004191069564896371 0.00051058640530336763 0.00058881248470328985 0.0004203469669303312 0.0003412117102893136 0.00030484762452386477 0.00051306622190919941 0.00058339482553033408 0.00040153274951411458 0.0006408026847767995 0.00030658550567532069 0.00056679546505344306 0.00036301293502531912 0.0005832477000518913 0.00035778802126070213 0.00050080270697793025 1.1846958817362591e-05 0.00033106413685218898 0.00038676934856210845 0.00059163876887668163 0.00050245336221673331 0.00090367557536239363 0.0004208971899668755 0.00089152836615519801 3.2427606096775524e-05 0.00092878772941933671 0.00031816717229962374 -2.5295723953108982e-06 0.00049935360026687745 0.00096250526443579791 0.00074946418528807561 0.00058636399238360868 0.00081231685799604205 0.00065395932218788061 0.00049284437535169047 0.00060112594544619712 0.00076626791467897693 0.00099051231750912666 0.000750999557604143 0.0010407272506335699 0.00082024316467141736 0.00065208737420869255 0.00090863936232015656 0.00082243195428274222 0.001133639854227575 0.000918105546622329