<?xml version="1.0"?>
<VTKFile type="UnstructuredGrid" version="0.1" byte_order="LittleEndian">
<UnstructuredGrid>
<Piece NumberOfPoints="3142" NumberOfCells="1054">
<Points>
<DataArray type="Float64" NumberOfComponents="3" format="ascii">
0.02576622439977887 0.024532886826226379 0 0 0 0 0.049999999999899652 0 0 0.02576622439977887 0.024532886826226379 0 0 0 0 0 0.050000000000207989 0 0.02576622439977887 0.024532886826226379 0 0.049999999999899652 0 0 0.053064897599215843 0.048131547304697528 0 0.02576622439977887 0.024532886826226379 0 0.053064897599215843 0.048131547304697528 0 0 0.050000000000207989 0 0 0.050000000000207989 0 0 0.10000000000041601 0 0.044310582753132287 0.101412518374475 0 0 0.10000000000041601 0 0.044310582753132287 0.101412518374475 0 0 0.15000000000062411 0 0.053064897599215843 0.048131547304697528 0 0.044310582753132287 0.101412518374475 0 0.083411279318303222 0.089699755330707398 0 0.053064897599215843 0.048131547304697528 0 0 0.050000000000207989 0 0.044310582753132287 0.101412518374475 0 0.044310582753132287 0.101412518374475 0 0.083411279318303222 0.089699755330707398 0 0.065374659239632718 0.1448908038746782 0 0.083411279318303222 0.089699755330707398 0 0.065374659239632718 0.1448908038746782 0 0.1053400320299198 0.12877248826361379 0 0.083411279318303222 0.089699755330707398 0 0.12372429750337779 0.095814237875728972 0 0.1053400320299198 0.12877248826361379 0 0.12372429750337779 0.095814237875728972 0 0.1053400320299198 0.12877248826361379 0 0.14332333627550789 0.14578431753966009 0 0.12372429750337779 0.095814237875728972 0 0.10266856499169109 0.044518360900210059 0 0.14618258501891079 0.062070108745602003 0 0.083411279318303222 0.089699755330707398 0 0.12372429750337779 0.095814237875728972 0 0.10266856499169109 0.044518360900210059 0 0.10266856499169109 0.044518360900210059 0 0.099999999999814668 0 0 0.14999999999970359 0 0 0.049999999999899652 0 0 0.053064897599215843 0.048131547304697528 0 0.099999999999814668 0 0 0.053064897599215843 0.048131547304697528 0 0.10266856499169109 0.044518360900210059 0 0.099999999999814668 0 0 0.053064897599215843 0.048131547304697528 0 0.083411279318303222 0.089699755330707398 0 0.10266856499169109 0.044518360900210059 0 0.044081577119474857 0.2271058242433576 0 0 0.20000000000083221 0 0 0.25000000000104028 0 0.044081577119474857 0.2271058242433576 0 0 0.20000000000083221 0 0.038512288486115001 0.1844147282893184 0 0.044081577119474857 0.2271058242433576 0 0.038512288486115001 0.1844147282893184 0 0.083105206071467416 0.20007701332709979 0 0.038512288486115001 0.1844147282893184 0 0 0.15000000000062411 0 0.065374659239632718 0.1448908038746782 0 0.044310582753132287 0.101412518374475 0 0 0.15000000000062411 0 0.065374659239632718 0.1448908038746782 0 0.038512288486115001 0.1844147282893184 0 0.065374659239632718 0.1448908038746782 0 0.083105206071467416 0.20007701332709979 0 0 0.20000000000083221 0 0.038512288486115001 0.1844147282893184 0 0 0.15000000000062411 0 0.065374659239632718 0.1448908038746782 0 0.1053400320299198 0.12877248826361379 0 0.106902708054812 0.16453234188234539 0 0.1053400320299198 0.12877248826361379 0 0.106902708054812 0.16453234188234539 0 0.14332333627550789 0.14578431753966009 0 0.065374659239632718 0.1448908038746782 0 0.106902708054812 0.16453234188234539 0 0.083105206071467416 0.20007701332709979 0 0.083105206071467416 0.20007701332709979 0 0.095326043202144745 0.24554465089224409 0 0.13737030665753211 0.20313708640667491 0 0.106902708054812 0.16453234188234539 0 0.083105206071467416 0.20007701332709979 0 0.13737030665753211 0.20313708640667491 0 0.044081577119474857 0.2271058242433576 0 0.083105206071467416 0.20007701332709979 0 0.095326043202144745 0.24554465089224409 0 0.044081577119474857 0.2271058242433576 0 0.095326043202144745 0.24554465089224409 0 0.049706944316556423 0.27522722923869108 0 0.095326043202144745 0.24554465089224409 0 0.14377654328998779 0.2442024734791064 0 0.13737030665753211 0.20313708640667491 0 0.17933913398461551 0.2350063570234002 0 0.14377654328998779 0.2442024734791064 0 0.13737030665753211 0.20313708640667491 0 0.17933913398461551 0.2350063570234002 0 0.13737030665753211 0.20313708640667491 0 0.18124454140915969 0.18790916706335251 0 0.18124454140915969 0.18790916706335251 0 0.14332333627550789 0.14578431753966009 0 0.18652628422869419 0.14162325200928061 0 0.106902708054812 0.16453234188234539 0 0.13737030665753211 0.20313708640667491 0 0.14332333627550789 0.14578431753966009 0 0.13737030665753211 0.20313708640667491 0 0.18124454140915969 0.18790916706335251 0 0.14332333627550789 0.14578431753966009 0 0.14332333627550789 0.14578431753966009 0 0.18652628422869419 0.14162325200928061 0 0.16141998738593399 0.10404039647458049 0 0.18652628422869419 0.14162325200928061 0 0.22985637510995899 0.1298347970200906 0 0.2185883431182947 0.18019736283949719 0 0.22985637510995899 0.1298347970200906 0 0.2185883431182947 0.18019736283949719 0 0.25557216766470708 0.15874861286892261 0 0.2185883431182947 0.18019736283949719 0 0.25557216766470708 0.15874861286892261 0 0.26429849586623999 0.19346700179430079 0 0.18124454140915969 0.18790916706335251 0 0.18652628422869419 0.14162325200928061 0 0.2185883431182947 0.18019736283949719 0 0.17933913398461551 0.2350063570234002 0 0.18124454140915969 0.18790916706335251 0 0.224700362040408 0.22206622194729711 0 0.18124454140915969 0.18790916706335251 0 0.2185883431182947 0.18019736283949719 0 0.224700362040408 0.22206622194729711 0 0.2185883431182947 0.18019736283949719 0 0.224700362040408 0.22206622194729711 0 0.26429849586623999 0.19346700179430079 0 0.224700362040408 0.22206622194729711 0 0.25195515620380449 0.25883339815888678 0 0.21049769590865089 0.26857363548218488 0 0.17933913398461551 0.2350063570234002 0 0.224700362040408 0.22206622194729711 0 0.21049769590865089 0.26857363548218488 0 0.184418230509967 0.038773194583122873 0 0.14999999999970359 0 0 0.14618258501891079 0.062070108745602003 0 0.184418230509967 0.038773194583122873 0 0.14618258501891079 0.062070108745602003 0 0.19922788606653311 0.085920220746880993 0 0.184418230509967 0.038773194583122873 0 0.14999999999970359 0 0 0.19999999999955789 0 0 0.10266856499169109 0.044518360900210059 0 0.14999999999970359 0 0 0.14618258501891079 0.062070108745602003 0 0.12372429750337779 0.095814237875728972 0 0.14618258501891079 0.062070108745602003 0 0.16141998738593399 0.10404039647458049 0 0.12372429750337779 0.095814237875728972 0 0.14332333627550789 0.14578431753966009 0 0.16141998738593399 0.10404039647458049 0 0.18652628422869419 0.14162325200928061 0 0.16141998738593399 0.10404039647458049 0 0.19922788606653311 0.085920220746880993 0 0.14618258501891079 0.062070108745602003 0 0.16141998738593399 0.10404039647458049 0 0.19922788606653311 0.085920220746880993 0 0.18652628422869419 0.14162325200928061 0 0.22985637510995899 0.1298347970200906 0 0.19922788606653311 0.085920220746880993 0 0.22985637510995899 0.1298347970200906 0 0.19922788606653311 0.085920220746880993 0 0.24218496799700481 0.089025544070598317 0 0.22985637510995899 0.1298347970200906 0 0.24218496799700481 0.089025544070598317 0 0.27474541102162192 0.11822029332053539 0 0.19922788606653311 0.085920220746880993 0 0.24218496799700481 0.089025544070598317 0 0.22668068146512929 0.045875643423131329 0 0.24218496799700481 0.089025544070598317 0 0.22668068146512929 0.045875643423131329 0 0.27499999999933927 0.060310814194988557 0 0.184418230509967 0.038773194583122873 0 0.19922788606653311 0.085920220746880993 0 0.22668068146512929 0.045875643423131329 0 0.184418230509967 0.038773194583122873 0 0.22668068146512929 0.045875643423131329 0 0.19999999999955789 0 0 0.22668068146512929 0.045875643423131329 0 0.19999999999955789 0 0 0.24999999999941211 0 0 0.24999999999941211 0 0 0.27499999999933927 0.060310814194988557 0 0.29999999999926641 0 0 0.22668068146512929 0.045875643423131329 0 0.24999999999941211 0 0 0.27499999999933927 0.060310814194988557 0 0.27499999999933927 0.060310814194988557 0 0.29999999999926641 0 0 0.32541448401678508 0.046215317981507749 0 0.29999999999926641 0 0 0.32541448401678508 0.046215317981507749 0 0.34999999999912063 0 0 0.32541448401678508 0.046215317981507749 0 0.3615861437013822 0.03582617922508851 0 0.35312867752657662 0.084946736076730367 0 0.3615861437013822 0.03582617922508851 0 0.35312867752657662 0.084946736076730367 0 0.39591832466117061 0.056982757562006353 0 0.32541448401678508 0.046215317981507749 0 0.3615861437013822 0.03582617922508851 0 0.34999999999912063 0 0 0.3615861437013822 0.03582617922508851 0 0.34999999999912063 0 0 0.3999999999989749 0 0 0.35312867752657662 0.084946736076730367 0 0.36246644853392812 0.1399454205365751 0 0.39823268594401579 0.1116623613130045 0 0.35312867752657662 0.084946736076730367 0 0.32215584939770009 0.1218492143506909 0 0.36246644853392812 0.1399454205365751 0 0.32541448401678508 0.046215317981507749 0 0.35312867752657662 0.084946736076730367 0 0.3096713403101819 0.085471541595262421 0 0.35312867752657662 0.084946736076730367 0 0.32215584939770009 0.1218492143506909 0 0.3096713403101819 0.085471541595262421 0 0.32215584939770009 0.1218492143506909 0 0.3096713403101819 0.085471541595262421 0 0.27474541102162192 0.11822029332053539 0 0.27499999999933927 0.060310814194988557 0 0.32541448401678508 0.046215317981507749 0 0.3096713403101819 0.085471541595262421 0 0.27499999999933927 0.060310814194988557 0 0.3096713403101819 0.085471541595262421 0 0.27474541102162192 0.11822029332053539 0 0.24218496799700481 0.089025544070598317 0 0.27499999999933927 0.060310814194988557 0 0.27474541102162192 0.11822029332053539 0 0.22985637510995899 0.1298347970200906 0 0.27474541102162192 0.11822029332053539 0 0.25557216766470708 0.15874861286892261 0 0.27474541102162192 0.11822029332053539 0 0.25557216766470708 0.15874861286892261 0 0.29336099386129338 0.15892013001050981 0 0.25557216766470708 0.15874861286892261 0 0.29336099386129338 0.15892013001050981 0 0.26429849586623999 0.19346700179430079 
[...]
<PointData Scalars="tracer_conc,region_id," Vectors="" Tensors="">
<DataArray type="Float64" Name="tracer_conc" format="ascii">
0.072195982473406764 0.06370725518643805 0.081361782813910516 0.07205433848341887 0.063810621213340385 0.063071381904887799 0.072186233933634991 0.081856928981246219 0.082302866212627682 0.07224416879001215 0.08170529636046886 0.062925703784944026 0.062744383786721147 0.063750754882900232 0.078781282941929737 0.066365580639329555 0.080682750888305843 0.048700950447415271 0.08187998821954269 0.079535742858890673 0.095095939750787395 0.081457544550357239 0.06248532944440402 0.0792717134413745 0.078953723707285706 0.097514666501706787 0.078025106437873332 0.097974283164704357 0.077796644447114802 0.10247376515987722 0.096082489388209513 0.1155324706610824 0.10195236212666998 0.11618798914815534 0.1014591013599967 0.11840204193046647 0.11504125806841387 0.10480237685556919 0.12771963375066769 0.094949756229469662 0.11466243432109219 0.10479527697437455 0.10497942939391121 0.10445277156296821 0.13079305944981978 0.081942929091748509 0.082402708131790431 0.10333559318292658 0.082041561315965558 0.10455410396827274 0.10408540012539721 0.082233418257761176 0.094897311600355014 0.10426273088640471 0.32370620348691409 0.084330219861127112 0.46632627675695998 0.29891374925251152 0.098544987962171607 0.015385339275594073 0.30300336424693797 0.01234955177654508 0.1087447724995861 0.063357227507458966 0.039093677991177724 0.056005110827701696 0.081460744199197258 0.047855576742631807 0.075165576669817963 0.063951989324401451 0.056408345703052622 0.087142677497487053 0.058453983346737522 0.048166879391391582 0.036567579406470048 0.070266014577397479 0.10483728166346844 0.06517682802032565 0.10553448600767934 0.064967706455925284 0.098462149077586728 0.05601384745674718 0.073672130358872545 0.087825600907875181 0.11553186562196881 0.54356389457841725 0.19077426899186165 0.078591089036261566 0.091594151432441095 0.11936450977883439 0.32653615246854306 0.12019393881799326 0.5391401251739486 0.35169194189967051 0.58880152572406363 0.71440617372406079 0.54382539881874792 0.5829953970426982 0.19320309920591577 0.52083237759872847 0.58467419608631632 0.18928882625283933 0.51117310109089553 0.19947741123392054 0.097084217269062814 0.085637160975566423 0.11283269225012051 0.14250025186365836 0.077913809959494401 0.12043446888097253 0.081496215936886232 0.12109328704701221 0.088460553947606546 0.081350667648283276 0.11816361876906162 0.14639722649325887 0.13714093755087198 0.1399800602322481 0.18137270463932337 0.12527002652971017 0.18220551383770986 0.12496218898972863 0.17040708372917907 0.13319653201307255 0.16058523706322128 0.16773060415955243 0.08545097359160124 0.14317707542805763 0.11604778633453677 0.51490014452835653 0.094505043322275481 0.41751638975110134 0.11088558700865363 0.074485799870982791 0.40586079976767975 0.073409710627097238 0.40818310453710854 0.1741626701768979 0.45034188587581958 0.84922239974691827 0.90324589131897037 0.53573674712326691 0.45068782409124958 0.90334224209471203 0.15295141970631301 0.13211930024302626 0.12848853527835535 0.15365165364698707 0.12793161000051559 0.16173708468322215 0.15337767017070147 0.13188442774962975 0.16502177532625545 0.10455564898702738 0.13166836961997253 0.12818927700384178 0.11510489613418358 0.12813555280482722 0.13682261727658832 0.1163320873177006 0.11859475331883 0.1366519366797096 0.14740929107262271 0.13620316561776327 0.16376703817864113 0.1281968399689237 0.13715923302997532 0.16180722651101057 0.14734703554298365 0.18366534541620441 0.1642320013166588 0.18512911184255451 0.16152823469464769 0.19450222998484801 0.18533114123506089 0.19502381882477712 0.22362187549596677 0.16205928275480599 0.19522918623257896 0.1852560675321471 0.19575664320759245 0.1854202790935166 0.22573257126874699 0.15390574859721576 0.16233475516240925 0.18449252483364031 0.1535352978108748 0.1843613852403988 0.16571833170389141 0.18492555398632618 0.16564812803768916 0.20519900821066447 0.20608113114120746 0.22697975246294982 0.25296344212625405 0.18491732346396508 0.20606227117406947 0.22626036471750821 0.22691949941310383 0.25392189656746439 0.27866259646700081 0.25386247237487281 0.27970592136851324 0.30886234004510249 0.27965076274776468 0.32296810025049516 0.30852778510381329 0.3234018700287955 0.30864500748105311 0.36544581196682469 0.279675682258823 0.32225362510629818 0.30984618466834513 0.32251822307275124 0.31021907712146995 0.37306387470208247 0.30950484247810289 0.31278411732798056 0.36402174628592321 0.30916330336216502 0.26884319051798161 0.31241412198768653 0.27967427982163284 0.30776103140538169 0.25969841630724577 0.30830036454830495 0.26916335900626248 0.26068461233680851 0.26853368293245733 0.26030007190654059 0.22155509604204035 0.22636004398144757 0.27888386669517568 0.2595332745021261 0.22705894682428315 0.25935360660627743 0.22260347894499669 0.19542284927870135 0.22673434293489333 0.22241141312602469 0.18143678597261761 0.22897475373992507 0.17864383547276841 0.22984249317381836 0.17833369079917641 0.21255549547829738 0.16068706134688832 0.19177857562201125 0.16844998631617572 0.19220808702602415 0.21258745773044638 0.22351721519484258 0.19232073884102829 0.16844750496612804 0.21165666347815706 0.27476358432340298 0.22972798165287439 0.21317486035865621 0.45077601538776613 0.59753709646318642 0.84057583657210611 0.43370055615819514 0.56403883699388346 0.17709404718527078 0.56516849054764451 0.17564968551352605 0.26847361241351608 0.60793791847512613 0.73699493838382657 0.9652461710972785 0.55817707824981588 0.67583225176149109 0.2756473859560637 0.67553574195557864 0.27578458590813487 0.20164831184675955 0.67457341135464843 0.20267056629917643 0.46373642514844327 0.70407370025627403 0.53809451457696078 1.0304013544125459 0.27635027534089224 0.21155813326705938 0.24621806413888042 0.27686967710976335 0.2464771275537303 0.31006140950631644 0.21605341825246155 0.22222903808155708 0.22403925560146407 0.23686502679733876 0.31007263278230818 0.29718178502542736 0.24168409131257149 0.23686182481951185 0.30962279267055048 0.3081610225640572 0.3397759215958196 0.36771121260215595 0.32463061490456924 0.30978607097856026 0.43372375851352879 0.33987782597211241 0.42529068109524309 0.36825591434997157 0.54154371020660608 0.88999274641537907 1.0256712113056101 0.27917598229626933 0.25305553447896068 0.4111183540607849 0.25398663839371782 0.41073903619117036 0.30730046060125871 0.50961101659635943 0.30591059224320538 0.88110361976067419 0.30945237708363083 0.61341750076045076 0.87718442152255838 0.35629415328875941 0.54097733064480746 0.32398349302730844 0.41719981458776567 0.53135659102636035 0.44464812334342158 0.53915842568005212 0.32617959174113176 0.36560360823495791 0.61638991743875726 0.84376339835088321 0.33046631915817992 0.4236233492445346 0.42755941169341122 0.4884118005855056 0.30980800540713355 0.43442322017085394 0.39709250569307225 0.42739247807957581 0.48902337507860927 0.52864753024999578 0.41803020761170645 0.48271445783881528 0.48421347186865837 0.48275677943392697 0.48520178620518084 0.53284027785441812 0.41870400120783002 0.48355701870189394 0.42254252452234775 0.48453605945262163 0.47911105680387295 0.42068928936477751 0.48490081929334183 0.4793838619581024 0.5660347990904212 0.47684905841504549 0.52951581026687988 0.56601701882294586 0.47695301814268853 0.52877764448839515 0.4483509579195088 0.47653323535165459 0.44832888202428356 0.41786333605434051 0.47816211276759446 0.4201021276471994 0.42162218658456979 0.41788889446653948 0.37463158809089442 0.3665698244610433 0.41976400620778781 0.36530365929616476 0.42124881347465409 0.44751590431363425 0.41773358366592489 0.37464969443350854 0.32213609487113276 0.37421344480032259 0.36631559873931374 0.30742232779224199 0.36612356717071376 0.36154638977378234 0.4183233505256847 0.36054203447748107 0.42208161916994952 0.36666956412558771 0.3619940226397656 0.42095895295411695 0.28020680975898665 0.30888494228784924 0.41228901505147492 0.25970162989997692 0.22543835232320653 0.29559106850049088 0.21227740552247246 0.30749542852873496 0.83098786854513296 0.32911718775799731 0.34514175401849817 0.40038944655504982 0.34065069825720018 0.3976686623314119 0.33069046765406657 0.33992170941035138 0.39860447796722759 0.39469815199042724 0.39916729364800113 0.3949907195943167 0.43308850940009785 0.39757697726157154 0.43232807661336736 0.47606941257094371 0.40077181244103866 0.43447759574370526 0.48226067031048486 0.43464015239349912 0.48285469710761969 0.47563235417336841 0.4887720462930622 0.37212767466543795 0.4898751004321264 0.4031429974215216 0.48811385275561042 0.37160022789108416 0.28066066009720703 0.41267817526192996 0.36261754625474596 0.27200176892766798 0.29129689178838353 0.6054202438696854 0.30421167990349485 0.63806599634664007 0.35907750407280375 0.81197144999504767 0.98073043252120695 1.080317017919979 0.81060847350545451 0.98404106410521364 0.79386732283383676 0.99624996754599693 0.78595910720414808 1.0548287342145348 0.29395223125385483 0.64264491731708795 0.601850929398003 0.86573646054626519 0.99412488724116332 1.0772140671163022 0.68572139336163285 0.85871050450250297 1.0366678074158016 1.0283516880948753 1.041226123524156 1.0796771051595144 1.028330940103287 1.0416105307747983 1.0330092246307148 0.68201970210936791 1.0407253346134242 0.84520437229747092 1.0422511638702212 0.90171927309877165 1.0845762548544888 0.89959105474348267 1.0878357667965728 0.96263123937482764 1.0839760880482112 0.98711832952884437 1.0611228257971757 0.2153524587974571 0.65323666167759087 0.82687159316618064 0.7839892510937414 1.0580295565678695 0.83898579225409475 1.0611569948687807 0.8357705383363867 0.9914267690594073 0.8356208925848847 1.0315623959409459 0.59515014049215886 0.30385367705377975 0.83462531769554138 0.5420603058491329 1.0339301781363117 0.92949750673663811 0.59225507693038904 0.93163680169389118 0.59086173133878428 0.70011327564067338 0.75063078403989247 1.0155030381267689 1.0657544460396462 0.98679958538438339 1.0624199719356089 1.0096965215320006 1.0562541265661951 0.9954693562830893 1.0404367707468987 0.99537599652323405 1.0416607929921406 0.99693759489367562 0.74819393851190075 1.0688399861842828 0.94135140684423257 1.0542097875080176 0.99110283978145719 1.0196151510769556 0.99135327085194047 1.0212537837215183 0.98337387156090894 0.98541064057906869 0.87668424942995471 1.0136026869905013 0.60648799242670182 0.96705942143000378 0.8260209004293162 0.5337831673347444 0.71725318773494762 0.22666007545638744 0.95483090286278438 0.69827608556300214 1.0399734795453093 0.69745076315854238 1.0422727548715429 0.72291238174079042 1.0383376247059088 0.75477879647759483 1.0510216472872151 0.7146587818315322 0.74447901174104247 0.23294478317598152 0.74359462882493432 0.23367534887204144 0.36778149935545557 0.16208396525770066 0.19298463270619512 0.14360997469498757 0.21621482682363599 0.22005062359488106 0.14053362347613205 0.16232447720529153 0.19375060441839159 0.14677755463493605 0.49042984065279022 0.25710327832667679 0.090878331490152925 0.49073189486261032 0.091357152296057231 0.12784144169764972 0.19173675628863351 0.22462564160370471 0.29878218436485837 0.22451987159054626 0.19202410132524395 0.29773244408251098 0.31213571323168265 0.22492905028261076 0.29911849155053483 0.22511912235744036 0.29535015730948116 0.22443972149386238 0.26624056332926022 0.49484097865334331 0.1263221837580023 0.34021042588155492 0.29227470028987912 0.3304594561103677 0.34180282075267254 0.29358618683250387 0.28553892389924918 0.32886730274417714 0.34435760956967859 0.28262810746145722 0.23501315306830953 0.28780491167905031 0.2518095350740216 0.29217517877586058 0.25129618735799752 0.27266359301760229 0.29310097318105915 0.28539955661143979 0.25159818877298146 0.25034029778225914 0.20526577523003989 0.22399061363307327 0.23502365767347982 0.25098619432114022 0.20547799358479479 0.20529367107980073 0.18732052830984877 0.22343031065252514 0.18541520094636313 0.15625819925741119 0.18084429447627948 0.16627659167125838 0.17731821144509677 0.13345674069375224 0.21937018150671492 0.17413197423263826 0.1409319969226546 0.20872503757646749 0.18590113294169297 0.18091696026731363 0.18530685477246944 0.079476477350496455 0.2849323860380697 0.063554679562919353 0.1579129743953562 0.24898292706615452 0.093469261382615576 0.06216512871722691 0.25076521272853269 0.17363316505409754 0.14062840461556503 0.12396591552900742 0.13198631025859608 0.09916448782128727 0.13300864660387654 0.063400484110252189 0.15641017517077327 0.037926179926303323 0.15486420217939206 0.039562215316850127 0.12575144433081115 0.099304607242876028 0.13249314399842221 0.11060510478666863 0.13569102152090753 0.11158024814591661 0.10905674567984334 0.13633076075793218 0.10877112066642315 0.13382665421340842 0.15876901490695025 0.13662208349913479 0.13422300400570905 0.16572758185711797 0.13355037804998821 0.13170614497982194 0.87672638999437091 0.87505154287912912 1.0150792315028605 0.89506044498318749 1.0290933680905274 0.97878322426951614 0.89556592992095463 0.97951848865698188 0.87667769999933653 0.92133738529760079 0.80086215117386805 0.58158559229404705 1.0538359322383057 0.90636938238706377 0.78935723277908809 0.75460655795174558 1.0520822956871412 0.78991066408021637 0.74641929380017513 0.81308212581422334 0.37316722271439706 0.81271329495800682 0.37391935210696814 0.5531662962428413 0.086139350630898032 0.30944565430010362 0.53586355435596222 0.088141675507723657 0.5503090121269324 0.71485400188604609 0.091734202768317452 0.70650941221123909 0.049739905109779298 0.92201562377065394 0.58201354188244836 0.6893232462404586 0.95982823371316894 0.77070265145817063 0.94507537812457176 0.78578546171013641 0.94347214815062419 0.88021095257517457 0.59558481302120936 0.92767372799100856 0.80268709792093351 0.55710611869982885 0.90191969324790866 0.92790251532812096 0.55770778180054503 0.59488536999496466 0.92750826142922682 0.61943804906685751 0.86037040953844368 0.67350024076957149 0.54830205685146127 0.59662997976402277 0.80152206785255531 0.61800059410430297 0.84569541730933262 0.8612261339292413 0.78710509427570408 0.87972419732417373 0.77430685716925685 0.84938700566548142 0.69635792443120448 0.7351957686477355 0.83321052307750521 0.5067595147316819 0.62182960994070613 0.75550452411720237 0.83470167085909608 0.5047417221679581 0.70217483564822381 0.45319100449822847 0.055285821047293737 0.44668894164900941 0.058186369905862199 0.052962623814851499 0.47064700604831766 0.65826840194418446 0.063321563157854976 0.37266363777902128 0.65186425775003976 0.070376119259144998 0.42298721174608439 0.67515040654003267 0.7015073331120576 0.69691826778821309 0.64193226109163171 0.7349900490573249 0.69288537768391978 0.50609407587179389 0.72235780768828151 0.35474716107253812 0.46394669676486261 0.71111757383613217 0.092140830504989127 0.11005780088326655 0.082218450124780962 0.086576003652330702 0.11122540191563349 0.10863627556668247 0.098882645018459933 0.11008129361955798 0.077336594307599871 0.050910581533685946 0.10442794741958152 0.041484686681115643 0.10041384395029967 0.046587747878018122 0.07376356170376247 0.046622569884576581 0.038467282219161701 0.073164825535816214 0.33818881475700258 0.072434074549089913 -0.015506248598371701 0.038945108927079017 0.072311765100378941 0.047067254830035578 0.042098296353410447 0.036423946621101475 0.048328920062464718 0.045950305058339809 0.057056319881456034 0.079371399287992694 0.088975899195704158 0.074257492297503655 0.062546085333889556 0.091805080864407765 0.082120470149272706 0.071793913700532147 0.074837698531966007 0.045641553687555451 0.079880116407963553 0.062491594667724186 0.075246477891907429 0.063136212754133211 0.085309700584264583 0.060867997831032902 0.075849070768315902 0.061333974033077346 0.060259215784866579 0.075391597238634284 0.059321640282657039 0.075933219507127558 0.067533441533320804 0.076304070144270056 0.084796005757728929 0.067538679899707715 0.086092689206343553 0.07597194334853255 0.092585493901617882 0.086131515024862396 0.092934795116631636 0.10971918007671064 0.07565253653537192 0.092319496553590327 0.085637463442813672 0.092655315445910505 0.10308805266184518 0.085688742569972678 0.092234724834223236 0.11152026309618435 0.10367708284805305 0.079693942044617286 0.099468902869511655 0.082823089907121214 0.073976764763650976 0.064583339714085211 0.16492639114420557 0.078682269400944665 0.082254335379334562 0.059233661079166722 0.081701771691403732 0.059612759579956653 0.065553603709542482 0.060658262794680472 0.066019456285380487 0.048988015146357207 0.070322520048766851 0.037073235446218517 0.1143421432683675 0.059486205314087277 0.065204291511124154 0.048473731340777031 0.13035864305637249 0.1844411647966957 0.15797759946694531 0.071627619583053692 0.18685101536212925 0.16950710668619093 0.073982667509206512 0.11726602268840317 0.18416226470183467 0.15103087961307851 0.18127589259629168 0.13611252506592375 0.18664020590183492 0.14812982709341851 0.17978805221626853 0.18501478588434336 0.12987911435173508 0.13721568173392748 0.17736316452419765 0.23017153713953226 0.20150095837241139 0.2312667536937893 0.24298630378057809 0.20137738138571826 0.18725540349433473 0.18015753028708117 0.2350328209998756 0.24068442952089134 0.19585623769515759 0.24319479560995555 0.17499780082210056 0.24557843268885512 0.17780401175937177 0.24751220336337604 0.17680486616099625 0.20502205134898588 0.072815252706084105 0.16781097241507406 0.18265163800005604 0.24879089666764978 0.20477602335521211 0.2928570627483652 0.1854998881141679 0.28561466721866724 0.096361864134006062 0.28850306406812048 0.16385122676393124 0.093572511404156247 0.22744796023528996 0.30182270386499971 0.27139924241810154 0.24096515911967351 0.28470260194252983 0.24405932484143877 0.22569732913681986 0.24533737651802734 0.27694833513751344 0.30314169183785827 0.27161634714617888 0.31158574313564708 0.28532044282345181 0.24373748915331589 0.28102987394273538 0.2858586518762678 0.32853354771568993 0.28121679045099995 0.32933001483104141 0.37383498820658295 0.28063341545056031 0.31475508499383859 0.35209880393499038 0.36299470312561155 0.3522724614936999 0.36335363698487699 0.40720600811877788 0.38830946312547726 0.25884510066965244 0.40367948289390115 0.35699798540797284 0.40621807650711267 0.39845887066172631 0.29806571552149774 0.39112444757782222 0.16718568724016683 0.30436420510804052 0.31141438041526776 0.36679712596777792 0.39511775588041415 0.25173698833981983 0.1624843371713619 0.3914918510695321 0.25985880960296553 0.403656162757561 0.21450895699704592 0.16540241084999419 0.12336397634621406 0.21595204850908739 0.12213755295697155 0.13728806963629991 0.15387998959440319 0.12954367175232381 0.11286474311205665 0.16474935989466147 0.16160780457277307 0.13857262890343089 0.16076794940453054 0.20242997183193417 0.18336822342589623 0.16510089318120821 0.16182248124860527 0.19932865770109706 0.18747365421086246 0.15685565685985925 0.19457384132824945 0.15524340809414139 0.15705058056263951 0.13517004330514876 0.18608314981489499 0.15542687965959243 0.15728194208864429 0.16081217596309197 0.12445762258290069 0.1386627407451681 0.15783673978687096 0.1348924113714744 0.12658274708534786 0.10961716454500123 0.13440561462741696 0.12647761338648453 0.11182833566681494 0.10371752688720123 0.12532619698034084 0.09980919600358909 0.12364573781995851 0.10551311639376838 0.079435321702339495 0.099926965452065655 0.10469881704045025 0.072612385247176614 0.18255110445013259 0.097166889795109346 0.15313266131358896 0.11766109153882268 0.1132194571015928 0.12411029246146091 0.10542485358118665 0.12535264529173931 0.10437161868204613 0.10504284569464273 0.1307028411890919 0.10456902449704789 0.082461556527324814 0.094291664628862182 0.10323629108629329 0.081851763562330732 0.082518533418236853 0.10398281481225441 0.10463407462767695 0.082163660308907427 0.081768138604748963 0.07219972536110103 0.082416352864115638 0.081274641405958886 0.063631418974