<?xml version="1.0"?>
<VTKFile type="UnstructuredGrid" version="0.1" byte_order="LittleEndian">
<UnstructuredGrid>
<Piece NumberOfPoints="3142" NumberOfCells="1054">
<Points>
<DataArray type="Float64" NumberOfComponents="3" format="ascii">
0 0 0 0.049999999999899652 0 0 0.02576622439977887 0.024532886826226379 0 0 0 0 0.02576622439977887 0.024532886826226379 0 0 0.050000000000207989 0 0.049999999999899652 0 0 0.053064897599215843 0.048131547304697528 0 0.02576622439977887 0.024532886826226379 0 0 0.050000000000207989 0 0.02576622439977887 0.024532886826226379 0 0.053064897599215843 0.048131547304697528 0 0 0.10000000000041601 0 0 0.050000000000207989 0 0.044310582753132287 0.101412518374475 0 0 0.15000000000062411 0 0 0.10000000000041601 0 0.044310582753132287 0.101412518374475 0 0.083411279318303222 0.089699755330707398 0 0.044310582753132287 0.101412518374475 0 0.053064897599215843 0.048131547304697528 0 0 0.050000000000207989 0 0.053064897599215843 0.048131547304697528 0 0.044310582753132287 0.101412518374475 0 0.083411279318303222 0.089699755330707398 0 0.065374659239632718 0.1448908038746782 0 0.044310582753132287 0.101412518374475 0 0.083411279318303222 0.089699755330707398 0 0.1053400320299198 0.12877248826361379 0 0.065374659239632718 0.1448908038746782 0 0.083411279318303222 0.089699755330707398 0 0.12372429750337779 0.095814237875728972 0 0.1053400320299198 0.12877248826361379 0 0.14332333627550789 0.14578431753966009 0 0.1053400320299198 0.12877248826361379 0 0.12372429750337779 0.095814237875728972 0 0.14618258501891079 0.062070108745602003 0 0.12372429750337779 0.095814237875728972 0 0.10266856499169109 0.044518360900210059 0 0.083411279318303222 0.089699755330707398 0 0.10266856499169109 0.044518360900210059 0 0.12372429750337779 0.095814237875728972 0 0.099999999999814668 0 0 0.14999999999970359 0 0 0.10266856499169109 0.044518360900210059 0 0.049999999999899652 0 0 0.099999999999814668 0 0 0.053064897599215843 0.048131547304697528 0 0.099999999999814668 0 0 0.10266856499169109 0.044518360900210059 0 0.053064897599215843 0.048131547304697528 0 0.083411279318303222 0.089699755330707398 0 0.053064897599215843 0.048131547304697528 0 0.10266856499169109 0.044518360900210059 0 0 0.25000000000104028 0 0 0.20000000000083221 0 0.044081577119474857 0.2271058242433576 0 0 0.20000000000083221 0 0.038512288486115001 0.1844147282893184 0 0.044081577119474857 0.2271058242433576 0 0.083105206071467416 0.20007701332709979 0 0.044081577119474857 0.2271058242433576 0 0.038512288486115001 0.1844147282893184 0 0 0.15000000000062411 0 0.065374659239632718 0.1448908038746782 0 0.038512288486115001 0.1844147282893184 0 0 0.15000000000062411 0 0.044310582753132287 0.101412518374475 0 0.065374659239632718 0.1448908038746782 0 0.083105206071467416 0.20007701332709979 0 0.038512288486115001 0.1844147282893184 0 0.065374659239632718 0.1448908038746782 0 0 0.20000000000083221 0 0 0.15000000000062411 0 0.038512288486115001 0.1844147282893184 0 0.065374659239632718 0.1448908038746782 0 0.1053400320299198 0.12877248826361379 0 0.106902708054812 0.16453234188234539 0 0.14332333627550789 0.14578431753966009 0 0.106902708054812 0.16453234188234539 0 0.1053400320299198 0.12877248826361379 0 0.083105206071467416 0.20007701332709979 0 0.065374659239632718 0.1448908038746782 0 0.106902708054812 0.16453234188234539 0 0.083105206071467416 0.20007701332709979 0 0.13737030665753211 0.20313708640667491 0 0.095326043202144745 0.24554465089224409 0 0.083105206071467416 0.20007701332709979 0 0.106902708054812 0.16453234188234539 0 0.13737030665753211 0.20313708640667491 0 0.083105206071467416 0.20007701332709979 0 0.095326043202144745 0.24554465089224409 0 0.044081577119474857 0.2271058242433576 0 0.049706944316556423 0.27522722923869108 0 0.044081577119474857 0.2271058242433576 0 0.095326043202144745 0.24554465089224409 0 0.13737030665753211 0.20313708640667491 0 0.14377654328998779 0.2442024734791064 0 0.095326043202144745 0.24554465089224409 0 0.17933913398461551 0.2350063570234002 0 0.14377654328998779 0.2442024734791064 0 0.13737030665753211 0.20313708640667491 0 0.17933913398461551 0.2350063570234002 0 0.13737030665753211 0.20313708640667491 0 0.18124454140915969 0.18790916706335251 0 0.14332333627550789 0.14578431753966009 0 0.18652628422869419 0.14162325200928061 0 0.18124454140915969 0.18790916706335251 0 0.14332333627550789 0.14578431753966009 0 0.13737030665753211 0.20313708640667491 0 0.106902708054812 0.16453234188234539 0 0.14332333627550789 0.14578431753966009 0 0.18124454140915969 0.18790916706335251 0 0.13737030665753211 0.20313708640667491 0 0.14332333627550789 0.14578431753966009 0 0.16141998738593399 0.10404039647458049 0 0.18652628422869419 0.14162325200928061 0 0.2185883431182947 0.18019736283949719 0 0.18652628422869419 0.14162325200928061 0 0.22985637510995899 0.1298347970200906 0 0.2185883431182947 0.18019736283949719 0 0.22985637510995899 0.1298347970200906 0 0.25557216766470708 0.15874861286892261 0 0.2185883431182947 0.18019736283949719 0 0.25557216766470708 0.15874861286892261 0 0.26429849586623999 0.19346700179430079 0 0.2185883431182947 0.18019736283949719 0 0.18124454140915969 0.18790916706335251 0 0.18652628422869419 0.14162325200928061 0 0.17933913398461551 0.2350063570234002 0 0.18124454140915969 0.18790916706335251 0 0.224700362040408 0.22206622194729711 0 0.2185883431182947 0.18019736283949719 0 0.224700362040408 0.22206622194729711 0 0.18124454140915969 0.18790916706335251 0 0.2185883431182947 0.18019736283949719 0 0.26429849586623999 0.19346700179430079 0 0.224700362040408 0.22206622194729711 0 0.25195515620380449 0.25883339815888678 0 0.21049769590865089 0.26857363548218488 0 0.224700362040408 0.22206622194729711 0 0.17933913398461551 0.2350063570234002 0 0.224700362040408 0.22206622194729711 0 0.21049769590865089 0.26857363548218488 0 0.14999999999970359 0 0 0.184418230509967 0.038773194583122873 0 0.14618258501891079 0.062070108745602003 0 0.19922788606653311 0.085920220746880993 0 0.14618258501891079 0.062070108745602003 0 0.184418230509967 0.038773194583122873 0 0.14999999999970359 0 0 0.19999999999955789 0 0 0.184418230509967 0.038773194583122873 0 0.14999999999970359 0 0 0.14618258501891079 0.062070108745602003 0 0.10266856499169109 0.044518360900210059 0 0.14618258501891079 0.062070108745602003 0 0.16141998738593399 0.10404039647458049 0 0.12372429750337779 0.095814237875728972 0 0.14332333627550789 0.14578431753966009 0 0.12372429750337779 0.095814237875728972 0 0.16141998738593399 0.10404039647458049 0 0.19922788606653311 0.085920220746880993 0 0.18652628422869419 0.14162325200928061 0 0.16141998738593399 0.10404039647458049 0 0.19922788606653311 0.085920220746880993 0 0.16141998738593399 0.10404039647458049 0 0.14618258501891079 0.062070108745602003 0 0.19922788606653311 0.085920220746880993 0 0.22985637510995899 0.1298347970200906 0 0.18652628422869419 0.14162325200928061 0 0.19922788606653311 0.085920220746880993 0 0.24218496799700481 0.089025544070598317 0 0.22985637510995899 0.1298347970200906 0 0.27474541102162192 0.11822029332053539 0 0.22985637510995899 0.1298347970200906 0 0.24218496799700481 0.089025544070598317 0 0.19922788606653311 0.085920220746880993 0 0.22668068146512929 0.045875643423131329 0 0.24218496799700481 0.089025544070598317 0 0.27499999999933927 0.060310814194988557 0 0.24218496799700481 0.089025544070598317 0 0.22668068146512929 0.045875643423131329 0 0.19922788606653311 0.085920220746880993 0 0.184418230509967 0.038773194583122873 0 0.22668068146512929 0.045875643423131329 0 0.19999999999955789 0 0 0.22668068146512929 0.045875643423131329 0 0.184418230509967 0.038773194583122873 0 0.19999999999955789 0 0 0.24999999999941211 0 0 0.22668068146512929 0.045875643423131329 0 0.24999999999941211 0 0 0.29999999999926641 0 0 0.27499999999933927 0.060310814194988557 0 0.24999999999941211 0 0 0.27499999999933927 0.060310814194988557 0 0.22668068146512929 0.045875643423131329 0 0.29999999999926641 0 0 0.32541448401678508 0.046215317981507749 0 0.27499999999933927 0.060310814194988557 0 0.29999999999926641 0 0 0.34999999999912063 0 0 0.32541448401678508 0.046215317981507749 0 0.35312867752657662 0.084946736076730367 0 0.32541448401678508 0.046215317981507749 0 0.3615861437013822 0.03582617922508851 0 0.35312867752657662 0.084946736076730367 0 0.3615861437013822 0.03582617922508851 0 0.39591832466117061 0.056982757562006353 0 0.34999999999912063 0 0 0.3615861437013822 0.03582617922508851 0 0.32541448401678508 0.046215317981507749 0 0.34999999999912063 0 0 0.3999999999989749 0 0 0.3615861437013822 0.03582617922508851 0 0.35312867752657662 0.084946736076730367 0 0.39823268594401579 0.1116623613130045 0 0.36246644853392812 0.1399454205365751 0 0.35312867752657662 0.084946736076730367 0 0.36246644853392812 0.1399454205365751 0 0.32215584939770009 0.1218492143506909 0 0.35312867752657662 0.084946736076730367 0 0.3096713403101819 0.085471541595262421 0 0.32541448401678508 0.046215317981507749 0 0.35312867752657662 0.084946736076730367 0 0.32215584939770009 0.1218492143506909 0 0.3096713403101819 0.085471541595262421 0 0.27474541102162192 0.11822029332053539 0 0.3096713403101819 0.085471541595262421 0 0.32215584939770009 0.1218492143506909 0 0.27499999999933927 0.060310814194988557 0 0.32541448401678508 0.046215317981507749 0 0.3096713403101819 0.085471541595262421 0 0.3096713403101819 0.085471541595262421 0 0.27474541102162192 0.11822029332053539 0 0.27499999999933927 0.060310814194988557 0 0.27499999999933927 0.060310814194988557 0 0.27474541102162192 0.11822029332053539 0 0.24218496799700481 0.089025544070598317 0 0.27474541102162192 0.11822029332053539 0 0.25557216766470708 0.15874861286892261 0 0.22985637510995899 0.1298347970200906 0 0.27474541102162192 0.11822029332053539 0 0.29336099386129338 0.15892013001050981 0 0.25557216766470708 0.15874861286892261 0 0.26429849586623999 0.19346700179430079 0 0.25557216766470708 0.15874861286892261 0 0.29336099386129338 0.15892013001050981 
[...]
<PointData Scalars="tracer_conc,region_id," Vectors="" Tensors="">
<DataArray type="Float64" Name="tracer_conc" format="ascii">
0.12455546282207908 0.15373899782801645 0.13870108082932608 0.12469277042447588 0.13851100372052047 0.12352673314190588 0.15438861124186423 0.15516291390840276 0.13869304608076696 0.12333486271580006 0.13876500553746127 0.15437802548942656 0.12419195436769327 0.12309793206833021 0.14917616422401422 0.10268542816176325 0.12743109643802028 0.15143660164364653 0.17529764291440195 0.15014210183179813 0.15463018536630041 0.12277214529698376 0.15406422032365441 0.14981928017552706 0.17854611044371754 0.14928838629428354 0.14922592507020926 0.17908555040025911 0.18618278679644251 0.14905773316075793 0.17670369775500372 0.2065612820714019 0.1857061829041548 0.21086983747897836 0.18504699383533035 0.20735980594766462 0.22500570814818424 0.20577729335524717 0.19048118867587213 0.17504577500520382 0.19046509145297688 0.20533671078574706 0.18982958950749265 0.2296739746170906 0.1906462612154611 0.15449835365711279 0.18845448021995767 0.15529163407472912 0.18938028775977797 0.19013358686396051 0.15484741014278505 0.17498297847128239 0.15510289311435757 0.18981407931248637 0.60584927784430209 0.15380735084695382 0.43703034537588786 0.16752115187459007 0.071536876049233006 0.40946643942224131 0.18962335408220773 0.41235868288157135 0.069511057913678412 0.090862339623060742 0.12255465985314862 0.12800935821904788 0.10171891943658413 0.15239933043802834 0.1457026910210425 0.16420245599873748 0.12851490441572036 0.12332214711467764 0.11849917760927421 0.086939360992578832 0.10998767316586359 0.14023034886954455 0.18865086131148934 0.1422048860397308 0.18839503182714337 0.14221331729474609 0.18927622317405982 0.16486954681267002 0.12309249247191754 0.151984667133473 0.20159709002279416 0.28612454090625511 0.66858497889485968 0.16925003535976066 0.15784516099388535 0.21106729972210228 0.20396656130075574 0.66645991254757342 0.43563438300108376 0.84833919275912373 0.46953932201651222 0.70929643639873186 0.29024162583577973 0.69778528249918625 0.66436476950154799 0.63182678272480286 0.69808616410533209 0.2889452696694883 0.62376020797451559 0.29756430186195731 0.19597136620660849 0.20375746413849477 0.24639819178594252 0.18488937726528681 0.16940825143225344 0.21209317960353358 0.15742504103809843 0.16952760024310168 0.18732155974227596 0.21250076358026687 0.21059568264777268 0.238196351006771 0.2517563227337678 0.23540699402518425 0.24452806504707963 0.29987447549393265 0.23532289771491877 0.30055063437849711 0.29316957008017458 0.24470256730811821 0.28300762704192811 0.29320933175047864 0.22643496989859643 0.18500647560594616 0.24695856643354203 0.62466572967136158 0.1955571503999925 0.52758885759480045 0.18676781567177159 0.51566220650210137 0.21356376513857409 0.18711366793440565 0.29764627489992351 0.51579507650491796 0.91113643883997175 0.96690902357764086 0.56008337870417602 0.64096089487658203 0.55871515886508416 0.96938853956324844 0.23117550722438063 0.26129339551311387 0.22586813797431596 0.27361016165228519 0.22523084925162729 0.26209055696142619 0.23093570567397612 0.27818147020320133 0.26170661546658658 0.23067272246638193 0.22553180968340236 0.1901631487313272 0.22548175457176758 0.23782989287105241 0.20582324878264582 0.21110804682150605 0.20750700177869533 0.2376646398704334 0.27613491319304595 0.25298971993146779 0.23689140391280694 0.27385973126314056 0.23819265245975924 0.22555890342002968 0.27659936592230111 0.3027371708048292 0.25294205367913364 0.27344122116321251 0.31835171917385213 0.30432381765722827 0.35561874019016576 0.30449340580862888 0.31884573726410359 0.27392718770963831 0.3055492478498813 0.31910112824260622 0.3591070284671361 0.31959292889158214 0.30570220616032129 0.27422640492950701 0.26235424274903224 0.3047936332428991 0.27889231718229146 0.30455536066566907 0.261873522393133 0.27882956575045198 0.33236400250663162 0.3050976480055419 0.33317992600532803 0.39313326125374681 0.36007611167815023 0.33315420931057593 0.35946236103487433 0.30509756347264888 0.3938964915685097 0.42433208646178061 0.3600353483555096 0.39382780310408905 0.45996196233032877 0.42509109496598019 0.45910322829475347 0.42509655830564308 0.4757473755061602 0.45918035640541194 0.4759987908192051 0.52347573709535644 0.460606333941045 0.47494819780945152 0.42507982791432686 0.46095859018910751 0.53202118481603522 0.47498744780894553 0.46027607801367965 0.52191100813341407 0.46352038183371236 0.46005481201194465 0.46329962927764967 0.41198196205297882 0.45862442924382929 0.40100476092370552 0.42506708134417159 0.45948478285636724 0.41219568628033887 0.40223390824187277 0.35312369086727668 0.40193457583180275 0.41173127366770851 0.35948900276767798 0.4244987423085429 0.40087142988413155 0.40100188988897645 0.3543421975943683 0.36030095795156253 0.36002833325905043 0.35418223579196295 0.31918260102814244 0.36116816829843024 0.30171467224093085 0.30009910488384461 0.36183176260691402 0.34641021822210399 0.30157658323076714 0.29374905563802151 0.28325674510636606 0.32582137239153675 0.3684132234620548 0.35078107654525165 0.32653809750648699 0.29358185401615206 0.32638341036313262 0.3501659596541612 0.3615069542803786 0.41828016483850339 0.34704205764161572 0.6908686615458105 0.90388022373468113 0.56132122584519728 0.30075881452128345 0.66378196783041643 0.53772826667490359 0.30245025456290647 0.3984524286245214 0.66268668420656007 0.80464485316948542 0.99591240329532027 0.70114197614982254 0.76005158591847299 0.65332737220763226 0.40572197147183298 0.75782489994035795 0.40888947766494055 0.3566923405357128 0.75419377420442701 0.35947492665012581 0.58610144123141195 0.77758142308123657 0.64595138279054998 1.0366333426495422 0.38982993291365492 0.34569612699663332 0.41954072964368699 0.39010461717333672 0.41978031965311002 0.46116469578071367 0.36724254013266971 0.37656106142653795 0.35386373422923068 0.45874682624601437 0.38819601300327983 0.46053753820046184 0.3858091138193887 0.46040141290756592 0.38803420015051282 0.49541261061826231 0.45887857015104361 0.52514104716145449 0.48184195426304105 0.59279390480006944 0.47551802965225448 0.49549766618428603 0.52537247240947138 0.58593908005517747 0.92615588410176874 1.0309256798047779 0.65054635655326631 0.42063356480758896 0.54359934602454074 0.42524084457783989 0.4221693887464435 0.47328327769766881 0.54227864239778012 0.92118731240194962 0.62375918693693222 0.47228130741688285 0.91562408270327245 0.47723804457890873 0.71930494819940149 0.50792975514742722 0.66566345720207931 0.51378176504650608 0.58116962534200078 0.68862211817140295 0.61138696877253462 0.51051822048561035 0.55116937234818109 0.66288345615851141 0.89234732501180203 0.72061036612874607 0.52488383084412338 0.58950159012325321 0.5838312038630793 0.64889193421319991 0.5656762399011338 0.47595861255642674 0.59265452514498451 0.58960414994708732 0.64885375896344155 0.68683264613151906 0.57893034310674718 0.64504726946343138 0.64338639698067679 0.69075337161339756 0.64308161817731579 0.64560167932917145 0.58327270028936185 0.64499205491302869 0.57934853068020287 0.58151280946626915 0.63952243577137624 0.64500650201282983 0.72137688706360659 0.64499700877230159 0.63950722132383409 0.68701600820458963 0.72038635984817256 0.63737486488606121 0.6092366421686447 0.68719510902732217 0.63731705784133563 0.60922165974175146 0.63731187663867217 0.57834683373379947 0.58215157604448109 0.58047427601528423 0.63918870092352531 0.53277311292610041 0.5788622189978252 0.52396233648897572 0.58204854725359501 0.52290325913751901 0.58038739042384146 0.53294115892643301 0.60905391710953682 0.57829542310381099 0.53258953673832521 0.5238495589768023 0.47480354651240891 0.45812431309478152 0.52385394208846436 0.51905564030740858 0.58314808952676345 0.57923885930273855 0.51798191384815573 0.58244955949092347 0.51928054729848294 0.52410150229374741 0.56762417123177344 0.46335790506699659 0.44932654448969578 0.3865833340531169 0.43236778813116067 0.45181106044387664 0.45630941552800097 0.87701902990820146 0.39327297759292418 0.55844037847468841 0.49991270845143398 0.48105896291945377 0.48459441830677757 0.49563217126339981 0.5588482247940364 0.55348491391009025 0.55921861070529921 0.4948390052157316 0.55355161172234058 0.59464495096893499 0.5594643623098744 0.55560108931277474 0.63703761094711953 0.59398468042532737 0.64378596252325537 0.56082436610163267 0.59545600823149503 0.64345470321371823 0.5956723013935743 0.63608570423379951 0.65326158168343507 0.6453576897518204 0.54217835567032002 0.55917534182239226 0.54112854863155946 0.64578106564110627 0.56722998482830622 0.45019381873284264 0.53415665248192745 0.70434874945887171 0.47768435334138482 0.44471258748635595 0.55520745104871172 0.49099003815944003 0.73874856559069235 1.0591861007971297 0.86423007734456014 0.98685632679797231 0.84853525000757701 0.98990220392658657 0.86282484043843422 0.84216039766590944 1.0433392325104407 0.99883475081907458 0.69949346293346992 0.74349146942522926 0.48072974187069228 1.0541050618152641 0.99707200690501241 0.90787581389250671 0.9029371218701947 1.0300889727146152 0.77349954619417305 1.0573564019783137 1.0220316632006092 1.0305137453508426 1.0269526147492809 1.0307692097134307 1.0219187205948987 0.88916818916352158 0.7698559111965797 1.0339141738750779 0.93192257815898683 1.0329744337931426 1.0646450978295492 0.92994873447433546 1.0672810286650267 0.97850129145843445 1.0523538811787363 0.99662211785878008 1.0645123291193597 0.74137417034829578 0.39762149504953542 0.87083373062726233 0.84019683705820924 0.88165775434016114 1.0462878407930536 0.99910482680451884 1.0488539196278395 0.87857412515978517 0.88044602037810005 0.68498524583178644 1.0352580291295876 0.44993836483863964 0.63618758801600539 0.88312060309448703 1.0377531161237932 0.68158617712995817 0.95640305332206998 0.67960851500270603 0.77078932129001276 0.95900885513150458 0.81672267749604077 1.022704610150805 1.0650439721626439 1.0533652756549281 1.0183094180855614 0.99608796329792393 1.0500668060958007 1.0095418734440225 1.041242830188468 1.016035603168822 1.0420889261157862 1.0093219674891563 0.81356238154987381 1.0682071474570134 0.9737642888290674 1.0329508898342639 1.014348632992929 1.0536171020322693 1.0340584703277993 1.0171331721561492 1.0143676547085163 0.93105080424703002 1.0105167943165112 1.0426828945423958 0.8867560932828652 0.69869027377936799 0.99831147428244971 0.35221086143127983 0.79062238055946465 0.633209193204891 1.0527326741109895 0.97740782818809646 0.76938051556474552 1.0557756080812224 0.76788536519567585 0.7940072848494959 1.0515087249855688 0.82045760623018693 1.0746010709450067 0.35604817377130848 0.81636938333624209 0.78872756059872318 0.35378151945395847 0.47259696437764337 0.81916473695879521 0.29094027979724074 0.3271343862959939 0.2618735044522858 0.34932746844475421 0.34574129869524539 0.2587427460882753 0.29111737357884526 0.29287288533373018 0.32784216925312321 0.37707793303562553 0.59757002062416387 0.24369343503449065 0.59555885082557103 0.29177583793402606 0.24639227915652764 0.44229585967527646 0.33339821123779967 0.37536008851144176 0.44181657297395788 0.35673694141227957 0.33320179889654605 0.4421606479009948 0.3757704615494164 0.46659652523959366 0.38624858037419829 0.45180236038176214 0.37584026118290509 0.41912713287520148 0.29146475854954002 0.59694507758062421 0.48446133000032909 0.44036846105367639 0.4953987558310653 0.43055553549052916 0.497338475528738 0.44193246970413064 0.42766614173394396 0.48092274654359829 0.49946244781127563 0.43289533476533493 0.39140444966049115 0.36713536407112007 0.44049769829607527 0.41689991175854052 0.39077921512138897 0.43049054450510971 0.44158481546685474 0.39095602919999645 0.35677557261308512 0.33160954222516803 0.39006343874652816 0.36718068218986549 0.39071077587335923 0.33145968517149871 0.35628306640546459 0.3085313041202089 0.33164640972952214 0.29644314955553752 0.30689876446736974 0.26530508197142277 0.29276893706929535 0.27596843939125182 0.23808336056674503 0.28906156249558868 0.2588603243346102 0.34529447282141346 0.29646162075250887 0.33501447980736448 0.3074059370832733 0.31105850917027156 0.1991982325256047 0.39179293288832523 0.25432127753579958 0.35904955059073679 0.16626021118121512 0.35976157854591723 0.21201684849037136 0.16622417304223328 0.28880144799908813 0.22819647948541427 0.25836120832105058 0.23110505209731719 0.1879444028544878 0.23630342978734306 0.25397671308351788 0.16538805870067197 0.12240962668056368 0.2528720883427153 0.12301208247314566 0.21005655982357624 0.23060436817320945 0.19707892718142273 0.18790497238908652 0.19777204772519902 0.19840473717084939 0.23427957952625925 0.19751934947284006 0.23496454705305336 0.23469860825519531 0.23521594376194052 0.26824353111739996 0.23517073439900518 0.22956351123071439 0.23804662739873658 0.27550360916465266 0.93064495755527377 1.0444269987081878 0.93962620478684389 1.0289032205757649 0.95627225600167709 1.0569154457804857 1.0299453497568107 0.95334966407314892 0.9564251318171948 0.98222430643615943 0.87004446784935929 0.67894681368321308 0.96591615049539215 1.0787061231009756 0.85575885848286615 1.0764656322856272 0.81960155262529144 0.85718139977250007 0.47910664756776045 0.88327592252037335 0.82001896287077147 0.47794428997020422 0.64847414350988908 0.88485200120514984 0.18529791374329782 0.63646738207560283 0.4163896479606542 0.18691595218619456 0.8164862891923973 0.65015451850940575 0.18770242310828286 0.13855616887885849 0.81400530300084972 0.98460089517439109 0.67779895711867777 0.78587050671123926 1.0149857691891102 0.8614815642915713 1.0150740161610854 0.97566725053174208 1.0149886957760661 0.87398059688735774 0.90272458564316738 0.70093642268705358 1.0052156910941001 0.66040399214154222 0.9672626061487275 1.0024082961167167 0.65988446902357389 1.0038026318722135 0.70186686076035143 0.80295468454566299 0.73496422191850352 0.97052732689670762 0.90337940212935219 0.6660004296409795 0.70129543930661375 0.94481023601037939 0.96970682427964872 0.73467951941513121 0.97583838093845376 0.87489895894424541 0.88445789849558909 0.86565336473650933 0.96125000147239248 0.82426569812571582 0.61930836670117217 0.74769178929581936 0.94485096298015647 0.61889947892460617 0.94435224663627804 0.85262441833380975 0.5592644645990521 0.81298385541748708 0.14012644167056687 0.5565299963635566 0.14095300826368953 0.12750791170758052 0.58228492377346264 0.1381990428201898 0.7929296664780634 0.48599610138122373 0.78970541168853581 0.14203358643872172 0.54571496966112865 0.85340665108663305 0.8087703392325345 0.78745394978391436 0.86606155691656561 0.82499414542670135 0.84272031731051311 0.64304290285510568 0.85733263558452866 0.5963756405487376 0.47081193189749049 0.84749727589872614 0.15687619560416041 0.19665964493038193 0.16848482614736446 0.19721630061328507 0.16174869582830823 0.19804271801650189 0.19664364176482751 0.15110915975580946 0.18725448852188223 0.11013007125062595 0.18715133761415403 0.13473624866047096 0.11441977920401057 0.14258934839146575 0.18318962640198685 0.11418596080782185 0.096405539788761749 0.14222623526716754 0.030318596621635899 0.45118076970266813 0.14253666649067101 0.10187788151880894 0.14137115734471994 0.096686073899553096 0.10277941224236084 0.088205302895843829 0.10033659676590286 0.11422451271384423 0.10510533676037606 0.14724163742351032 0.12235615549613714 0.14082755874054401 0.16468453540378891 0.15667624637449593 0.16812908443344893 0.13777325812421906 0.14787269351492335 0.14773263005182491 0.10493520048572622 0.12314006960713253 0.1212159766551863 0.1420586742256528 0.12003775956068168 0.16039643468109935 0.14478095579507066 0.11869641208211273 0.1207372066662115 0.14416441104594818 0.11725242500652333 0.14489005347887907 0.1313157645979191 0.15948343826953196 0.13133609933022608 0.14537664240812825 0.16142038324405389 0.17162661852516306 0.14494830325533786 0.19859148236215976 0.17206871409825944 0.1614629242933556 0.16062708997818673 0.14440747962646103 0.1711745062371518 0.1606982586096119 0.17159399799464289 0.18799853888959639 0.17101192765142795 0.20081950374574198 0.18874500562799601 0.15653571814816966 0.18307114117633691 0.15337735986896403 0.271775410598668 0.12822975511289092 0.14473165529410945 0.15578231020730504 0.15187783419998388 0.11964187294771669 0.15507620683979864 0.12009492991641042 0.12826030602102112 0.10074640535878129 0.11930515040828391 0.12908001646086667 0.20042072276147715 0.082406386575562859 0.13483074077446799 0.10003170531299997 0.12781995209601071 0.11987594499919273 0.26804831527639655 0.2239811029374594 0.30305652689570806 0.27800394753001695 0.30514344960582407 0.13743088763607847 0.20449764895454453 0.14002449463055355 0.30220878268437817 0.23442355205840587 0.2579383592603991 0.29981957590272346 0.25324807961105567 0.30572184968670341 0.29723678191568392 0.22514510314343539 0.30469745357442918 0.23361170307458401 0.29310919595649271 0.36392877404228613 0.32339771135222406 0.37855708749670136 0.32319943652530847 0.36496608586975821 0.29761934990122041 0.30627960728690024 0.37104009787314668 0.37525396337143774 0.37567317672498785 0.31548110467950441 0.28854732318862775 0.3844205936013167 0.2885186084149422 0.28745251043610581 0.32343419452548428 0.38631476592143893 0.27471487932401034 0.14365717946635864 0.29544907715053259 0.4385236730526309 0.38763773145813846 0.32309011086126377 0.1812531625576799 0.42830915536213143 0.29766397065327205 0.1788693162140883 0.27127331729129428 0.43078428093210241 0.44926014917905965 0.41342470399183079 0.35928022652744468 0.37541619500539181 0.43081817203932926 0.3764005508629758 0.3815531847434851 0.35704844049594675 0.42113943236286239 0.45013065363026655 0.46045109819410779 0.41362273576119735 0.42053105112258571 0.37607294412909903 0.43134284259217298 0.42054873769810908 0.43189740192816473 0.48197099603462767 0.41997708250428895 0.48256165564222608 0.53232174827924872 0.51747864931451493 0.50578332246551527 0.46394283478577458 0.51763069760108515 0.56592192417682152 0.50587554835920256 0.56153375226300284 0.3917144448449385 0.54776153626767143 0.56323088580728697 0.51072705373480876 0.55483928258465909 0.55242918122483775 0.44172909514026693 0.27527032951546476 0.52309220646526411 0.45997446138685311 0.45155594883096961 0.55529433596565747 0.27167990903170519 0.38022526497000347 0.5490916761578043 0.38964794047157852 0.55649193507993977 0.22739582380761844 0.33833852391415392 0.27390328388865726 0.25071876011138 0.33944169599276475 0.2266337079802869 0.23479357302344409 0.26000618222771454 0.20834183623229546 0.27292897837134827 0.27797105739538047 0.24086438093549897 0.30458338441846694 0.27304777622015591 0.32776371652053599 0.27313079224905323 0.32426592121270947 0.27833427857103615 0.26682399708274845 0.30890645766297514 0.31826817946242159 0.26710390062063283 0.2359100927390709 0.26455118840202757 0.26734276045676481 0.26473693673811327 0.30755030581452841 0.27211172523308602 0.24093668837860677 0.21990689179012513 0.26835880982885285 0.22276585880595604 0.23558686630843653 0.19813256934075738 0.2350398388147871 0.22266323252448095 0.1887956135327464 0.20118205383862134 0.22120972510797796 0.19415524754534375 0.1833352312257136 0.21890122875101686 0.19307765290421239 0.15310424402666317 0.18361496700967767 0.18183445330372108 0.2949342675756132 0.14416191932740779 0.20855111530416523 0.25933958543513047 0.20991299109778955 0.19411522890829946 0.21939149269174232 0.22400264363785016 0.22953870973470042 0.18970544652382582 0.19073136018391804 0.17418565136042549 0.19020322071314003 0.15539329030506827 0.15436043718435044 0.15544874978552015 0.18830621537680572 0.18922859697189981 0.15501117082078694 0.19023973965994775 0.15425325783389748 0.13870549279742353 0.15531752417095065 0.12443613154846278 0.13871027526515717 0.15360541662608873 0.12454283269490801 0.12373947175853481 0.13849332291590849 0.12360954780983591 0.15456926131536158 0.13872058397574275 0.12335392495260891 0.14773174514665716 0.1547327319772