<?xml version="1.0"?>
<VTKFile type="UnstructuredGrid" version="0.1" byte_order="LittleEndian">
<UnstructuredGrid>
<Piece NumberOfPoints="3936" NumberOfCells="1312">
<Points>
<DataArray type="Float64" NumberOfComponents="3" format="ascii">
0 0 0 0.0151391371462346 0.0152467156467034 0 0 0.019999999999965 0 0 0 0 0.0151391371462346 0.0152467156467034 0 0.0200000000000833 0 0 0.0151391371462346 0.0152467156467034 0 0 0.019999999999965 0 0.0150869963313612 0.0332370557357666 0 0 0.019999999999965 0 0 0.039999999999912 0 0.0150869963313612 0.0332370557357666 0 0.0151391371462346 0.0152467156467034 0 0.0268315064475681 0.0248689492035553 0 0.0150869963313612 0.0332370557357666 0 0.0151391371462346 0.0152467156467034 0 0.0268315064475681 0.0248689492035553 0 0.0300000000001249 0.0113826439640925 0 0.0200000000000833 0 0 0.0300000000001249 0.0113826439640925 0 0.0400000000001665 0 0 0.0151391371462346 0.0152467156467034 0 0.0200000000000833 0 0 0.0300000000001249 0.0113826439640925 0 0.0300000000001249 0.0113826439640925 0 0.0400000000001665 0 0 0.0446884954602674 0.0219430690117777 0 0.0268315064475681 0.0248689492035553 0 0.0446884954602674 0.0219430690117777 0 0.0307858588372854 0.039072754732285 0 0.0268315064475681 0.0248689492035553 0 0.0300000000001249 0.0113826439640925 0 0.0446884954602674 0.0219430690117777 0 0.0446884954602674 0.0219430690117777 0 0.0595843169827883 0.0409258079336768 0 0.0630772101604759 0.0237852343196632 0 0.0400000000001665 0 0 0.0446884954602674 0.0219430690117777 0 0.0600000000002496 0 0 0.0446884954602674 0.0219430690117777 0 0.0600000000002496 0 0 0.0630772101604759 0.0237852343196632 0 0.0595843169827883 0.0409258079336768 0 0.0448590368789156 0.0448590368789465 0 0.051092066913789 0.0625055339203884 0 0.0595843169827883 0.0409258079336768 0 0.051092066913789 0.0625055339203884 0 0.0696687597647104 0.0523247828649042 0 0.051092066913789 0.0625055339203884 0 0.0648752667960161 0.0680589003449674 0 0.0696687597647104 0.0523247828649042 0 0.0446884954602674 0.0219430690117777 0 0.0595843169827883 0.0409258079336768 0 0.0448590368789156 0.0448590368789465 0 0.0446884954602674 0.0219430690117777 0 0.0448590368789156 0.0448590368789465 0 0.0307858588372854 0.039072754732285 0 0.0448590368789156 0.0448590368789465 0 0.0332958901133708 0.0579980921617808 0 0.0307858588372854 0.039072754732285 0 0.0448590368789156 0.0448590368789465 0 0.0332958901133708 0.0579980921617808 0 0.051092066913789 0.0625055339203884 0 0.0332958901133708 0.0579980921617808 0 0.017936967212708 0.050559805610223 0 0.0161836237390211 0.069137401867804 0 0.0332958901133708 0.0579980921617808 0 0.017936967212708 0.050559805610223 0 0.0307858588372854 0.039072754732285 0 0.0268315064475681 0.0248689492035553 0 0.0307858588372854 0.039072754732285 0 0.0150869963313612 0.0332370557357666 0 0.017936967212708 0.050559805610223 0 0.0307858588372854 0.039072754732285 0 0.0150869963313612 0.0332370557357666 0 0.017936967212708 0.050559805610223 0 0 0.039999999999912 0 0.0150869963313612 0.0332370557357666 0 0.017936967212708 0.050559805610223 0 0 0.039999999999912 0 0 0.0599999999998546 0 0.017936967212708 0.050559805610223 0 0 0.0599999999998546 0 0.0161836237390211 0.069137401867804 0 0 0.0799999999997917 0 0.0140042627379668 0.0847281531235722 0 0.0161836237390211 0.069137401867804 0 0 0.0599999999998546 0 0 0.0799999999997917 0 0.0161836237390211 0.069137401867804 0 0 0.0799999999997917 0 0.0140042627379668 0.0847281531235722 0 0 0.099999999999737 0 0.0140042627379668 0.0847281531235722 0 0.0249740097399344 0.0979713770715158 0 0.0328673567422705 0.077660592191408 0 0.0140042627379668 0.0847281531235722 0 0.0161836237390211 0.069137401867804 0 0.0328673567422705 0.077660592191408 0 0.0332958901133708 0.0579980921617808 0 0.0161836237390211 0.069137401867804 0 0.0328673567422705 0.077660592191408 0 0 0.119999999999788 0 0 0.099999999999737 0 0.0169068624001535 0.115546608792342 0 0 0.119999999999788 0 0.0169068624001535 0.115546608792342 0 0.012113471381661 0.129999999999814 0 0 0.099999999999737 0 0.0249740097399344 0.0979713770715158 0 0.0169068624001535 0.115546608792342 0 0.0140042627379668 0.0847281531235722 0 0 0.099999999999737 0 0.0249740097399344 0.0979713770715158 0 0.0249740097399344 0.0979713770715158 0 0.0169068624001535 0.115546608792342 0 0.0329734027293961 0.116814685247386 0 0.0169068624001535 0.115546608792342 0 0.0329734027293961 0.116814685247386 0 0.0277950023835921 0.130908721271879 0 0.0329734027293961 0.116814685247386 0 0.0454388361613255 0.106104211843955 0 0.0479549046069405 0.129046429396053 0 0.0249740097399344 0.0979713770715158 0 0.0329734027293961 0.116814685247386 0 0.0454388361613255 0.106104211843955 0 0.0249740097399344 0.0979713770715158 0 0.0454388361613255 0.106104211843955 0 0.0386217211136503 0.090839305120049 0 0.0454388361613255 0.106104211843955 0 0.0386217211136503 0.090839305120049 0 0.054443462188383 0.0851178402851247 0 0.0454388361613255 0.106104211843955 0 0.0645941049113302 0.119272770002678 0 0.0627352944912475 0.102377138259497 0 0.0454388361613255 0.106104211843955 0 0.054443462188383 0.0851178402851247 0 0.0627352944912475 0.102377138259497 0 0.0454388361613255 0.106104211843955 0 0.0645941049113302 0.119272770002678 0 0.0479549046069405 0.129046429396053 0 0.0328673567422705 0.077660592191408 0 0.054443462188383 0.0851178402851247 0 0.051092066913789 0.0625055339203884 0 0.0332958901133708 0.0579980921617808 0 0.0328673567422705 0.077660592191408 0 0.051092066913789 0.0625055339203884 0 0.0249740097399344 0.0979713770715158 0 0.0328673567422705 0.077660592191408 0 0.0386217211136503 0.090839305120049 0 0.0328673567422705 0.077660592191408 0 0.0386217211136503 0.090839305120049 0 0.054443462188383 0.0851178402851247 0 0.054443462188383 0.0851178402851247 0 0.051092066913789 0.0625055339203884 0 0.0648752667960161 0.0680589003449674 0 0.054443462188383 0.0851178402851247 0 0.0767647058822376 0.0767647058822157 0 0.0648752667960161 0.0680589003449674 0 0.0767647058822376 0.0767647058822157 0 0.0648752667960161 0.0680589003449674 0 0.0860063448534676 0.0616827195767469 0 0.054443462188383 0.0851178402851247 0 0.0730667616819684 0.092887314985679 0 0.0627352944912475 0.102377138259497 0 0.054443462188383 0.0851178402851247 0 0.0767647058822376 0.0767647058822157 0 0.0730667616819684 0.092887314985679 0 0.0767647058822376 0.0767647058822157 0 0.0911233470988448 0.0931181302744555 0 0.0931430989617576 0.0774904486702512 0 0.0767647058822376 0.0767647058822157 0 0.0730667616819684 0.092887314985679 0 0.0911233470988448 0.0931181302744555 0 0.0767647058822376 0.0767647058822157 0 0.0931430989617576 0.0774904486702512 0 0.0860063448534676 0.0616827195767469 0 0.0645941049113302 0.119272770002678 0 0.0780713777922691 0.108453313621063 0 0.0827277114455161 0.126396591316008 0 0.0645941049113302 0.119272770002678 0 0.0780713777922691 0.108453313621063 0 0.0627352944912475 0.102377138259497 0 0.0730667616819684 0.092887314985679 0 0.0780713777922691 0.108453313621063 0 0.0627352944912475 0.102377138259497 0 0.0911233470988448 0.0931181302744555 0 0.0780713777922691 0.108453313621063 0 0.0960963750435666 0.112845474892192 0 0.0730667616819684 0.092887314985679 0 0.0911233470988448 0.0931181302744555 0 0.0780713777922691 0.108453313621063 0 0.0960963750435666 0.112845474892192 0 0.0827277114455161 0.126396591316008 0 0.0982754036502413 0.134911487159322 0 0.0780713777922691 0.108453313621063 0 0.0960963750435666 0.112845474892192 0 0.0827277114455161 0.126396591316008 0 0.0960963750435666 0.112845474892192 0 0.112082055126701 0.100454295696256 0 0.113358778798196 0.120644195484842 0 0.0960963750435666 0.112845474892192 0 0.113358778798196 0.120644195484842 0 0.0982754036502413 0.134911487159322 0 0.0911233470988448 0.0931181302744555 0 0.0960963750435666 0.112845474892192 0 0.112082055126701 0.100454295696256 0 0.112082055126701 0.100454295696256 0 0.113358778798196 0.120644195484842 0 0.130605077739747 0.109396531477123 0 0.0931430989617576 0.0774904486702512 0 0.103495298514632 0.0693223435918053 0 0.0860063448534676 0.0616827195767469 0 0.0931430989617576 0.0774904486702512 0 0.103495298514632 0.0693223435918053 0 0.113074685089395 0.0832122726526908 0 0.0911233470988448 0.0931181302744555 0 0.0931430989617576 0.0774904486702512 0 0.113074685089395 0.0832122726526908 0 0.0911233470988448 0.0931181302744555 0 0.112082055126701 0.100454295696256 0 0.113074685089395 0.0832122726526908 0 0.112082055126701 0.100454295696256 0 0.113074685089395 0.0832122726526908 0 0.132891422324414 0.0927650835394015 0 0.103495298514632 0.0693223435918053 0 0.113074685089395 0.0832122726526908 0 0.119340009234725 0.0680368411197706 0 0.103495298514632 0.0693223435918053 0 0.119340009234725 0.0680368411197706 0 0.1064380311718 0.0516491262933469 0 0.113074685089395 0.0832122726526908 0 0.119340009234725 0.0680368411197706 0 0.13100188926605 0.0787972983776164 0 0.124727901867103 0.053406275771572 0 0.1064380311718 0.0516491262933469 0 0.124292265137021 0.03680544083986 0 0.119340009234725 0.0680368411197706 0 0.124727901867103 0.053406275771572 0 0.1064380311718 0.0516491262933469 0 0.103495298514632 0.0693223435918053 0 0.1064380311718 0.0516491262933469 0 0.0860063448534676 0.0616827195767469 0 0.1064380311718 0.0516491262933469 0 0.103625725363324 0.0351647762123679 0 0.0875009037295538 0.0414305662732107 0 0.103625725363324 0.0351647762123679 0 0.0918030059782341 0.0198689334227447 0 0.0875009037295538 0.0414305662732107 0 0.1064380311718 0.0516491262933469 0 0.103625725363324 0.0351647762123679 0 0.124292265137021 0.03680544083986 0 0.103625725363324 0.0351647762123679 0 0.124292265137021 0.03680544083986 0 0.112378385660045 0.0251072026161031 0 0.124292265137021 0.03680544083986 0 0.112378385660045 0.0251072026161031 0 0.128982463871103 0.0167345230564017 0 0.112378385660045 0.0251072026161031 0 0.110000000000458 0.0120464149724374 0 0.128982463871103 0.0167345230564017 0 0.110000000000458 0.0120
[...]
<PointData Scalars="A_conc," Vectors="" Tensors="">
<DataArray type="Float64" Name="A_conc" format="ascii">
7.5304714525509e-05 9.61199787014764e-05 7.583811617394e-05 7.48262837393299e-05 9.69715725534788e-05 0.000104017832354032 9.70190740776778e-05 7.5290340994715e-05 9.68640050040819e-05 7.57682090164746e-05 7.55882749121536e-05 9.60113714026229e-05 9.74781113189445e-05 0.000117509622273104 9.73132911807747e-05 9.7041076113811e-05 0.00011814122999033 0.000124080506102784 0.000104897365771957 0.000124163333375672 0.000144743164590398 9.73903475409118e-05 0.000105022944275563 0.000123307047872542 0.000124126926621531 0.00014641869730308 0.000158628707312035 0.000118465004112163 0.000157325990352389 0.00012610020287807 0.000118434544515897 0.000124718533662981 0.000156675188793574 0.000158669839862919 0.000202804016664161 0.000214726034500936 0.000146592499655817 0.000159433691530001 0.00020098561476177 0.000158637783733607 0.000203645272351127 0.000215108307043806 0.000202161951651472 0.000159318289735149 0.000177015379548587 0.000203403638855339 0.000176879348355828 0.000238079088331886 0.000175863862676074 0.000222277241025732 0.000239091954896735 0.0001594773494385 0.00020099502765109 0.000159440199630103 0.00015883027846805 0.000158795144253603 0.00012559390768831 0.000157910408275562 0.000131574116502364 0.000126173008720322 0.00015906372387426 0.000131152501395499 0.00017564367917668 0.000129670610969368 0.000101972339816771 9.89899663078093e-05 0.000130884965936261 0.000101397712579835 0.000125788512343942 0.000118188867146312 0.000125401788765988 9.68256362226757e-05 0.000101788170926539 0.000124631855918252 9.72534741301476e-05 0.000101107260920964 7.50469292163844e-05 9.68588871827202e-05 9.99794893179658e-05 7.55757160785478e-05 7.56533100474909e-05 0.000101286193174044 7.50453440874379e-05 9.85013010412791e-05 7.51927205266956e-05 9.53246460350887e-05 9.81599211803995e-05 7.55683943159327e-05 7.55551690266664e-05 9.73383358836499e-05 7.56225839579165e-05 9.42634638601814e-05 7.5512879670704e-05 9.50503599638388e-05 0.000114097199908625 0.000129503025954132 9.56764208267616e-05 9.86847071824224e-05 0.000128059825619687 0.000131027922876528 9.81668936741103e-05 0.000129663165214613 7.55939897645885e-05 7.55775354465252e-05 9.84324182936945e-05 7.52125630352045e-05 9.93972216962218e-05 9.22030436489103e-05 7.50547433046978e-05 0.000112874815011324 9.95343743602592e-05 9.48860067677885e-05 7.52286144495428e-05 0.000112195099845225 0.000114580570736911 9.99058346101996e-05 0.000129613147561068 9.98380565678975e-05 0.000129848543240454 0.000119726413128245 0.000130212734835464 0.000160654416710337 0.000166940626211259 0.000114572878595848 0.000130576414909434 0.000158474960124087 0.000113690554215783 0.000159528225186665 0.000143192480944559 0.000160979027671985 0.000143499769653792 0.000185380100391341 0.000159674068882379 0.000219682747316071 0.000213852136869799 0.000160850803691159 0.000186608106641212 0.000212738327321044 0.000161111145315826 0.000217375058492229 0.000167753906560966 0.000129334718714415 0.000185260775353249 0.000175735058519622 0.000131828414561739 0.000130367964721842 0.000173605287223194 0.000114178606421012 0.000130617158314806 0.000142912245887163 0.000130600984009867 0.000143714022872803 0.000182985037546429 0.000187117915029513 0.00017678139252316 0.000220325781047264 0.000186910034479569 0.000266394064313057 0.000221517717942117 0.000270141530855729 0.000221256876071198 0.00031271818782567 0.000186584739040156 0.000252015933472448 0.000214561503765038 0.000184986563307817 0.000268545534234958 0.000253399173251748 0.000270068018335673 0.0003427987187474 0.000354346459832561 0.000271336030899443 0.000254905206491845 0.000339043654485968 0.000270292231471727 0.000352698908996556 0.000315916140935748 0.00022012913077487 0.000276586142943863 0.000296831544720374 0.000221298288265966 0.000273916257771429 0.000215038474408432 0.000254744179578469 0.000275462322083804 0.000214029984929139 0.000343479406720166 0.000275938105400382 0.000371227460147444 0.000255114939246197 0.000339742734353382 0.000276985377329111 0.000372747542242454 0.000297904981347819 0.000385746249742789 0.000277403087839036 0.000368615021914492 0.000299018603414305 0.000371374072150118 0.00048643873156519 0.000494784474336205 0.000374007047892522 0.000490918575861446 0.000387799777998003 0.000344411829665776 0.000374109981000236 0.00047930582388727 0.000488915757134306 0.000497842784258138 0.000652604752589332 0.000355348424533721 0.000418419557664751 0.000316112699153617 0.000354515297306512 0.00042207389828705 0.000490454896793955 0.000344128469319311 0.000356608932995845 0.000483421678723649 0.000340129393143019 0.000484337509253351 0.00049137333001707 0.000488397395662652 0.000496057888445497 0.00067358930009865 0.000422055933308492 0.000494976064888038 0.000546445881204153 0.000423458428360574 0.000544300794184565 0.000444391811549279 0.000495430860245774 0.000550172905306464 0.000659715874682295 0.000598970631890051 0.000441081543875757 0.000593649578928687 0.000549282571698731 0.000596899987880871 0.000442607692791343 0.000421164559774872 0.000440584808518531 0.000313435325015299 0.000441002270691792 0.000422235897390407 0.00032166378929546 0.000419464880665158 0.000349222640381845 0.000323970271887046 0.000444289711280541 0.000424183284581081 0.000584809068568868 0.000423906374239447 0.000590192999934641 0.000490002777358226 0.000597197772502935 0.000489106951425974 0.000643497289482086 0.000491845603170267 0.000472308179441747 0.000634785608906588 0.000470255534394197 0.00055425785220062 0.000640570900185751 0.000470377374179232 0.000547938986364116 0.000397223034071501 0.000466154774853926 0.000397654844800618 0.000348703332881295 0.00048750565916342 0.000469440006534492 0.000345781265654141 0.000423141455881271 0.000484618127795644 0.00034810678029876 0.000342592818322963 0.000262739096825484 0.00025978993175024 0.000393384661727854 0.000348188436484518 0.000284399628884182 0.000345387670905075 0.000285128285092125 0.000262198345876428 0.000204489198227774 0.000259744477749953 0.0002168169675517 0.000203303506999198 0.000282351391626667 0.00026118128477058 0.000261971241299169 0.000215800789614189 0.000259154484705663 0.000259030501412129 0.000241208587425153 0.000319670950977659 0.000203089877559133 0.000257760219209796 0.000240839016126089 0.000203679399468223 0.000216452609747405 0.000256887097264245 0.000222911958724457 0.00024080831748166 0.000309907115535188 0.000239307707924411 0.000314968205001928 0.000322254776116308 0.000434573942426138 0.000316580870554199 0.00032438299882352 0.000346888612961155 0.000257809664648915 0.000323111309003389 7.48228143688853e-05 0.000104265603835494 9.97506160598774e-05 7.54086150836307e-05 9.86195616175498e-05 7.56812095813875e-05 0.000105207460548658 0.000141704190832382 0.000100316785685736 0.00014689434266119 0.000200078526365276 0.00014520093457579 0.000104225778544102 0.000145700974321772 0.000144137609934648 0.000195697946684196 0.000156142821425513 0.000145006206891662 0.000203074121939898 0.000197870025716014 0.00014363271139985 0.000198681698448958 0.000172210059925904 0.000230388308456278 0.000197588944732535 0.000155707194093574 0.000172349988061377 0.000154421014866759 0.000121101058256956 0.000134505277263176 0.000155240034366097 0.00014473890607839 0.000120989473896128 0.000142776893181798 9.98582771807965e-05 0.000121008195888878 0.000100143581373368 9.3732864039635e-05 0.000120030353137855 9.94692149333333e-05 7.5211068198099e-05 9.34601491095118e-05 7.51699002838038e-05 9.34051538137484e-05 0.000100829182370889 7.56368650010028e-05 7.56179456542875e-05 9.28257600315919e-05 9.36301170221009e-05 0.00011997531453706 0.000101517548622996 0.000101417204907664 0.000119868900568999 0.000133340578084549 0.000120947767138764 0.00010129053771085 0.000133533663485865 7.56291288932053e-05 9.96780094368838e-05 7.5704633877202e-05 0.000100892596761418 7.52266537696301e-05 9.22603054120177e-05 7.55425945260574e-05 7.55832705964374e-05 9.16898031321726e-05 0.000100068687524311 9.24126790481279e-05 0.000118786196816673 0.000101604778717312 9.24347732091808e-05 0.000118883857922957 0.000130789665921547 0.000119935212418763 0.000164622622862558 0.000120021539074262 0.000134478847107 0.000165441897330821 0.000155516879221442 0.000134446652588623 0.000171307232139453 0.000134052780128171 0.000171886607489487 0.000167413801024983 0.000171238799625686 0.000233677235196518 0.000232263015031917 0.000220366585815516 0.000166450692906093 0.000233057407112813 0.000172738897098764 0.000167995797560381 0.00023018932362977 0.000233956606900417 0.000301061651466502 0.000298221639360092 0.000221429157381947 0.000235101113505341 0.00029459812008197 0.000235291213361864 0.000233769717742969 0.000298374358610017 0.000232305882206439 0.000301112349191677 0.000287732160765011 0.000300778604123443 0.000386375491119966 0.000386110176079463 0.0003024975869593 0.000299482730556667 0.000382642099677409 0.00049853738271434 0.000529773843028937 0.000669695100090902 0.000496574532348773 0.000385319714377104 0.000525721173680211 0.000526169917797212 0.000384731912421478 0.000480518580264104 0.000388153517387739 0.000519138278866673 0.000387871653866728 0.000386708265637566 0.000477831579287761 0.000402171459540775 0.000481636499806449 0.000513642026059167 0.000609718955468616 0.000530220720585268 0.000481604429389673 0.000610762701876329 0.000512353462805072 0.000688000928634914 0.000614227056122949 0.000506505759259949 0.000403448880595021 0.000398139258856157 0.000480755336632618 0.000511137173195591 0.000400928258520024 0.000401833139048858 0.000319785202928747 0.000396803219558766 0.000319418356034772 0.000288811011906745 0.000251547833554581 0.00039618722651604 0.00032145114647311 0.000288926186609789 0.000384517897329299 0.000398855889111547 0.000286466501763474 0.000302767559646753 0.00038139691792072 0.000288579122366809 0.000198727653206758 0.0002325018104451 0.000283365197234544 0.000197680718844208 0.000285467031297853 0.000251030289862828 0.000204835932678293 0.000199206299685885 0.000249120766433031 0.000203869126882024 0.000250702204635914 0.000282120682889558 0.000320768634001966 0.000285168804992284 0.000391878264142569 0.000318731975858141 0.000251129365494588 0.000285159464863844 0.000512712576506192 0.000554943739177907 0.000685472662291914 0.000510610281607485 0.000395666977698553 0.000549603476364393 0.000553037180997411 0.000766134757846889 0.000692022801225232 0.000772561488025244 0.00090091034222151 0.00106412961622585 0.000774079469480725 0.000894190974862472 0.000693817548600533 0.00107915949141258 0.00147285110122941 0.00111099934712245 0.000899946902723638 0.00107670069312102 0.00110701482159295 0.00149371931968982 0.00139389246304874 0.00110188402438677 0.00138547660639958 0.00188641574097124 0.00183724319587277 0.00150414653584844 0.00139796780551484 0.00182194651857305 0.00134515584591019 0.00156429658031151 0.00187262161011503 0.00139632166034449 0.00134947452602412 0.00185559817928721 0.00132799927570437 0.000977700387295721 0.00107530377278447 0.00138315099377161 0.00134002363436732 0.00096830032599203 0.00137291716478077 0.00110776526374153 0.000978828802715845 0.000898713226391722 0.000970473922857651 0.000688503906139363 0.000963039959714748 0.000695023544375657 0.000792036831999182 0.000902109519702166 0.00110248913268645 0.000979149394445318 0.00069524394751008 0.000614573743774312 0.000786611340418566 0.000613491966872822 0.000790005212413254 0.000763774159820986 0.000975700319572573 0.000789620190870001 0.00106746732369733 0.000794537893473925 0.000766274121977323 0.00105204756335101 0.000763347654216732 0.000928519555989812 0.0010658392738608 0.000529533390424577 0.000615138900696761 0.000752175156444523 0.000526353780635561 0.000755943526600307 0.000678225774820315 0.00076482485730688 0.000680369471146726 0.000917567513507979 0.000930059326786166 0.000828167370445133 0.00105506765876455 0.000677049609269034 0.00092253364547869 0.000826967400202479 0.000928780046410817 0.00120389656994422 0.00106376316556714 0.00121287355640946 0.00147430334549246 0.0010636522266596 0.00092923562298341 0.00120523924738194 0.00107712897075962 0.00121446132363665 0.00107749161563135 0.00153257846856893 0.00134324324983586 0.00107080074404319 0.00154578477188102 0.00156570067596336 0.00150018274407338 0.0019006447358586 0.00120990843736586 0.00155784472286115 0.00149588852150991 0.00192251611217883 0.00244942423075085 0.00195396212285115 0.00149075142579024 0.00191408475828933 0.0019436317998572 0.00156213933818244 0.00225840796329421 0.00189284975220247 0.00155970520148625 0.00191500634631618 0.00226697681302373 0.00230187385930564 0.00248175344884658 0.00318753671058377 0.0022978859217894 0.00321153624550643 0.00261983392070448 0.00191510723298077 0.00229759110934668 0.00246723295942517 0.00246906666118889 0.00323719430281336 0.00305722530706273 0.0039437606903201 0.00325603413361011 0.0030653393206426 0.00399167839302302 0.004290914563924 0.00502708962958256 0.00398014680764121 0.00426232125156746 0.00324346564191692 0.00427700968418606 0.00323153710432643 0.00438239327462475 0.00429900355437984 0.00441178571784693 0.0054306841770086 0.00325905364135571 0.00340483240294461 0.00434101319573684 0.00324869629316801 0.00338591767276109 0.00261318064319457 0.0033804048715361 0.00439474001993846 0.00482271231146085 0.00341437886744786 0.00347065434962759 0.0047435533307976 0.00339280107513444 0.00344502287120066 0.00250722284132889 0.00229390445389014 0.00259320675451597 0.00189275881964762 0.00335566487471324 0.00252994355437087 0.00262709560582756 0.00251567103458043 0.00260568920613579 0.0018854065620458 0.00248099020656497 0.00189964175422737 0.00184692156376191 0.00149896482209869 0.00183781923640644 0.00207198307677373 0.00249816615128856 0.00184070805943777 0.00209425035817827 0.00252300523914468 0.00209073534750973 0.00288560252873422 0.00341984324300839 0.00252492600918145 0.00291749318511494 0.0034546889813116 0.00291653417523016 0.00401832917949091 0.00345399326071358 0.00406414700579453 0.0048103565379855 0.00124350483135176 0.00116012194743214 0.000957980468281844 0.00124115651766499 0.00115198738165999 0.000957179435200448 0.00124937010755249 0.00115463830313197 0.00150253665960274 0.00152126091910916 0.00159607597210982 0.00196817503929296 0.0012454838123982 0.00151740070206884 0.00158814336652151 0.00125145210430139 0.00157359896694883 0.00116268100655811 0.00159038018815871 0.00163190179249916 0.00115073308978266 0.00162774091578188 0.0014071017101971 0.00116080011659458 0.00164754919668338 0.00140784322166711 0.00176683248498022 0.00149024249890321 0.0014036612416555 0.00107204149904942 0.00150418230105084 0.00141042748216453 0.00175652730794388 0.00107710121610459 0.0011580809084746 0.000880401959309739 0.0013950242287897 0.00107943314929014 0.00116530380723471 0.00113939712821813 0.000823687434873485 0.000885638094885726 0.00106405768592525 0.0008824203255454 0.000773819905044971 0.000554205839348791 0.000763493928443453 0.000646417115217689 0.000874006524820269 0.000772522207490597 0.000645729308347302 0.000598450226947395 0.000809760539109935 0.000647564028332323 0.000820721294925117 0.000878363701801914 0.00064406259191143 0.000603090537517914 0.000597366833996824 0.000745830155633435 0.000594288749814965 0.000815238103871912 0.000751675252834334 0.00114749475632347 0.000820565128461114 0.000959196740372612 0.000821947128001235 0.000952119055118436 0.000753888103964676 0.00114342236734966 0.000959481056948359 0.000892441985477724 0.000954480558582878 0.000891018545491269 0.000751797847178152 0.000600776501520427 0.000750805994567318 0.000708053806605605 0.000885027846486834 0.000754063167385899 0.000709144079659899 0.00055089574661118 0.000601942018126065 0.000702501952285512 0.000708777056913372 0.000667958900606297 0.000900413495773613 0.000548674210135392 0.000704892435486358 0.000666378837249076 0.000689689978223941 0.000668378924754222 0.000899157461116537 0.000491242745046355 0.000684237170030745 0.000664447422785767 0.000916370856177288 0.000916284583479355 0.0011485670620006 0.000684628270141412 0.000911024726513231 0.000910944201202419 0.000888978584744611 0.000704919414178869 0.000911261336010536 0.00113836457142572 0.000892168132449458 0.000915769248221118 0.000494081886394866 0.000675251753944569 0.000659725146338097 0.00068017356626005 0.000663481756146552 0.000820892947190395 0.000689335698708812 0.000665783599107977 0.000898886459423297 0.000483457572585719 0.000683280609998191 0.000661513069907789 0.000916757229884516 0.000827101305270022 0.00105296254593355 0.000660366094038296 0.000909038611955306 0.000825219325320152 0.000915882390165981 0.00105976788546848 0.00125489062295573 0.00148095804557065 0.00105947805301185 0.00126932909527927 0.000910868213551757 0.00126341477142814 0.0011575926100904 0.00127477099479865 0.00116108480062979 0.00148203906700803 0.00127304400927296 0.00149178863353555 0.0017832233469251 0.0012633642692051 0.00160382729705342 0.00179520853976803 0.00149700700583031 0.00126928584520886 0.00160143055008531 0.00149827452794064 0.00161000687230401 0.00193078497384888 0.00114886725352256 0.000911687382571257 0.00127355828654683 0.00115269008750061 0.00150544399026433 0.00128779377879975 0.000910889515706559 0.0012762654369684 0.00115787954807177 0.0012891801478467 0.00116131391476495 0.00148064233580074 0.00128798438149258 0.00149307237754813 0.001785545642725 0.00149037630856003 0.00180906142728873 0.00180723204070895 0.00151746209063291 0.00128605588687156 0.0017866153497897 0.00151642613743411 0.00180776257838972 0.00192381142423536 0.00181089921233582 0.00193410695378274 0.0024385745923242 0.00181419762928104 0.00250836093930179 0.00181228052909207 0.00257338061215452 0.00248117474689188 0.00349148781527967 0.00179466062059642 0.00255016359858266 0.0024650110899385 0.0019533828120558 0.00181316080543181 0.00244408708555319 0.00160732662312824 0.00194672732356132 0.0018121735475442 0.00257055985738889 0.00248728895205778 0.00342327258841919 0.00254775273573752 0.00179357399582176 0.00247081718175881 0.00247186626221624 0.00194439494201318 0.00246949881085377 0.00248236279933266 0.00247985571812624 0.00303758869213741 0.00306129494174746 0.00349614407275129 0.00378714779904463 0.00246654983917957 0.00305698297023879 0.00346331651447638 0.00396378626646133 0.00304859967296685 0.00379146003933748 0.00349498589352415 0.00380669702747803 0.00474993476184001 0.00345916819911498 0.00508926526879239 0.00480478124411767 0.00397589784639572 0.00481405562590919 0.00504745371676767 0.00398558740513839 0.003802899004145 0.00478607525199826 0.00245005137588061 0.00354527004736178 0.00353821810297628 0.00254826560760173 0.00347937449448397 0.00354861646225976 0.00353914887586459 0.00509319664889437 0.00486215832819295 0.0035023396778572 0.00357711581947681 0.00500020937794946 0.00357859103832753 0.00357089773279436 0.00479284083533565 0.00452169904890357 0.00353777171371704 0.00485262827495611 0.00451284696761411 0.00422222271273614 0.00355539575369909 0.00453750329076017 0.00422842219330863 0.00565711495597494 0.00421653744367197 0.00474001379838462 0.00545663540423656 0.00417004869405415 0.00322355356121877 0.00338384177900901 0.00418431155762912 0.00322516416858738 0.00356307630733468 0.00322183151787188 0.00354256161738526 0.00271455386000342 0.00247821115205121 0.00349182571713933 0.00272714998767528 0.00247179046711435 0.00270322682083994 0.0019859032773952 0.00269447476749027 0.00237534398404815 0.00198862461779306 0.00318870497451361 0.00272141125753067 0.00237781089279391 0.00158784843945133 0.00234435129033396 0.00198743320689722 0.00160199116682041 0.00164710889681825 0.0023091705700839 0.00151072661886385 0.00192725381851355 0.00198210290834854 0.00193478134134318 0.00245438606690912 0.00199305421653638 0.00209446833481392 0.0017662524609326 0.00233453685953418 0.00150276054336246 0.00207044547804448 0.001767314