<?xml version="1.0"?>
<VTKFile type="UnstructuredGrid" version="0.1" byte_order="LittleEndian">
<UnstructuredGrid>
<Piece NumberOfPoints="3936" NumberOfCells="1312">
<Points>
<DataArray type="Float64" NumberOfComponents="3" format="ascii">
0 0 0 0.0151391371462346 0.0152467156467034 0 0 0.019999999999965 0 0 0 0 0.0151391371462346 0.0152467156467034 0 0.0200000000000833 0 0 0.0151391371462346 0.0152467156467034 0 0 0.019999999999965 0 0.0150869963313612 0.0332370557357666 0 0 0.019999999999965 0 0 0.039999999999912 0 0.0150869963313612 0.0332370557357666 0 0.0151391371462346 0.0152467156467034 0 0.0268315064475681 0.0248689492035553 0 0.0150869963313612 0.0332370557357666 0 0.0151391371462346 0.0152467156467034 0 0.0268315064475681 0.0248689492035553 0 0.0300000000001249 0.0113826439640925 0 0.0200000000000833 0 0 0.0300000000001249 0.0113826439640925 0 0.0400000000001665 0 0 0.0151391371462346 0.0152467156467034 0 0.0200000000000833 0 0 0.0300000000001249 0.0113826439640925 0 0.0300000000001249 0.0113826439640925 0 0.0400000000001665 0 0 0.0446884954602674 0.0219430690117777 0 0.0268315064475681 0.0248689492035553 0 0.0446884954602674 0.0219430690117777 0 0.0307858588372854 0.039072754732285 0 0.0268315064475681 0.0248689492035553 0 0.0300000000001249 0.0113826439640925 0 0.0446884954602674 0.0219430690117777 0 0.0446884954602674 0.0219430690117777 0 0.0595843169827883 0.0409258079336768 0 0.0630772101604759 0.0237852343196632 0 0.0400000000001665 0 0 0.0446884954602674 0.0219430690117777 0 0.0600000000002496 0 0 0.0446884954602674 0.0219430690117777 0 0.0600000000002496 0 0 0.0630772101604759 0.0237852343196632 0 0.0595843169827883 0.0409258079336768 0 0.0448590368789156 0.0448590368789465 0 0.051092066913789 0.0625055339203884 0 0.0595843169827883 0.0409258079336768 0 0.051092066913789 0.0625055339203884 0 0.0696687597647104 0.0523247828649042 0 0.051092066913789 0.0625055339203884 0 0.0648752667960161 0.0680589003449674 0 0.0696687597647104 0.0523247828649042 0 0.0446884954602674 0.0219430690117777 0 0.0595843169827883 0.0409258079336768 0 0.0448590368789156 0.0448590368789465 0 0.0446884954602674 0.0219430690117777 0 0.0448590368789156 0.0448590368789465 0 0.0307858588372854 0.039072754732285 0 0.0448590368789156 0.0448590368789465 0 0.0332958901133708 0.0579980921617808 0 0.0307858588372854 0.039072754732285 0 0.0448590368789156 0.0448590368789465 0 0.0332958901133708 0.0579980921617808 0 0.051092066913789 0.0625055339203884 0 0.0332958901133708 0.0579980921617808 0 0.017936967212708 0.050559805610223 0 0.0161836237390211 0.069137401867804 0 0.0332958901133708 0.0579980921617808 0 0.017936967212708 0.050559805610223 0 0.0307858588372854 0.039072754732285 0 0.0268315064475681 0.0248689492035553 0 0.0307858588372854 0.039072754732285 0 0.0150869963313612 0.0332370557357666 0 0.017936967212708 0.050559805610223 0 0.0307858588372854 0.039072754732285 0 0.0150869963313612 0.0332370557357666 0 0.017936967212708 0.050559805610223 0 0 0.039999999999912 0 0.0150869963313612 0.0332370557357666 0 0.017936967212708 0.050559805610223 0 0 0.039999999999912 0 0 0.0599999999998546 0 0.017936967212708 0.050559805610223 0 0 0.0599999999998546 0 0.0161836237390211 0.069137401867804 0 0 0.0799999999997917 0 0.0140042627379668 0.0847281531235722 0 0.0161836237390211 0.069137401867804 0 0 0.0599999999998546 0 0 0.0799999999997917 0 0.0161836237390211 0.069137401867804 0 0 0.0799999999997917 0 0.0140042627379668 0.0847281531235722 0 0 0.099999999999737 0 0.0140042627379668 0.0847281531235722 0 0.0249740097399344 0.0979713770715158 0 0.0328673567422705 0.077660592191408 0 0.0140042627379668 0.0847281531235722 0 0.0161836237390211 0.069137401867804 0 0.0328673567422705 0.077660592191408 0 0.0332958901133708 0.0579980921617808 0 0.0161836237390211 0.069137401867804 0 0.0328673567422705 0.077660592191408 0 0 0.119999999999788 0 0 0.099999999999737 0 0.0169068624001535 0.115546608792342 0 0 0.119999999999788 0 0.0169068624001535 0.115546608792342 0 0.012113471381661 0.129999999999814 0 0 0.099999999999737 0 0.0249740097399344 0.0979713770715158 0 0.0169068624001535 0.115546608792342 0 0.0140042627379668 0.0847281531235722 0 0 0.099999999999737 0 0.0249740097399344 0.0979713770715158 0 0.0249740097399344 0.0979713770715158 0 0.0169068624001535 0.115546608792342 0 0.0329734027293961 0.116814685247386 0 0.0169068624001535 0.115546608792342 0 0.0329734027293961 0.116814685247386 0 0.0277950023835921 0.130908721271879 0 0.0329734027293961 0.116814685247386 0 0.0454388361613255 0.106104211843955 0 0.0479549046069405 0.129046429396053 0 0.0249740097399344 0.0979713770715158 0 0.0329734027293961 0.116814685247386 0 0.0454388361613255 0.106104211843955 0 0.0249740097399344 0.0979713770715158 0 0.0454388361613255 0.106104211843955 0 0.0386217211136503 0.090839305120049 0 0.0454388361613255 0.106104211843955 0 0.0386217211136503 0.090839305120049 0 0.054443462188383 0.0851178402851247 0 0.0454388361613255 0.106104211843955 0 0.0645941049113302 0.119272770002678 0 0.0627352944912475 0.102377138259497 0 0.0454388361613255 0.106104211843955 0 0.054443462188383 0.0851178402851247 0 0.0627352944912475 0.102377138259497 0 0.0454388361613255 0.106104211843955 0 0.0645941049113302 0.119272770002678 0 0.0479549046069405 0.129046429396053 0 0.0328673567422705 0.077660592191408 0 0.054443462188383 0.0851178402851247 0 0.051092066913789 0.0625055339203884 0 0.0332958901133708 0.0579980921617808 0 0.0328673567422705 0.077660592191408 0 0.051092066913789 0.0625055339203884 0 0.0249740097399344 0.0979713770715158 0 0.0328673567422705 0.077660592191408 0 0.0386217211136503 0.090839305120049 0 0.0328673567422705 0.077660592191408 0 0.0386217211136503 0.090839305120049 0 0.054443462188383 0.0851178402851247 0 0.054443462188383 0.0851178402851247 0 0.051092066913789 0.0625055339203884 0 0.0648752667960161 0.0680589003449674 0 0.054443462188383 0.0851178402851247 0 0.0767647058822376 0.0767647058822157 0 0.0648752667960161 0.0680589003449674 0 0.0767647058822376 0.0767647058822157 0 0.0648752667960161 0.0680589003449674 0 0.0860063448534676 0.0616827195767469 0 0.054443462188383 0.0851178402851247 0 0.0730667616819684 0.092887314985679 0 0.0627352944912475 0.102377138259497 0 0.054443462188383 0.0851178402851247 0 0.0767647058822376 0.0767647058822157 0 0.0730667616819684 0.092887314985679 0 0.0767647058822376 0.0767647058822157 0 0.0911233470988448 0.0931181302744555 0 0.0931430989617576 0.0774904486702512 0 0.0767647058822376 0.0767647058822157 0 0.0730667616819684 0.092887314985679 0 0.0911233470988448 0.0931181302744555 0 0.0767647058822376 0.0767647058822157 0 0.0931430989617576 0.0774904486702512 0 0.0860063448534676 0.0616827195767469 0 0.0645941049113302 0.119272770002678 0 0.0780713777922691 0.108453313621063 0 0.0827277114455161 0.126396591316008 0 0.0645941049113302 0.119272770002678 0 0.0780713777922691 0.108453313621063 0 0.0627352944912475 0.102377138259497 0 0.0730667616819684 0.092887314985679 0 0.0780713777922691 0.108453313621063 0 0.0627352944912475 0.102377138259497 0 0.0911233470988448 0.0931181302744555 0 0.0780713777922691 0.108453313621063 0 0.0960963750435666 0.112845474892192 0 0.0730667616819684 0.092887314985679 0 0.0911233470988448 0.0931181302744555 0 0.0780713777922691 0.108453313621063 0 0.0960963750435666 0.112845474892192 0 0.0827277114455161 0.126396591316008 0 0.0982754036502413 0.134911487159322 0 0.0780713777922691 0.108453313621063 0 0.0960963750435666 0.112845474892192 0 0.0827277114455161 0.126396591316008 0 0.0960963750435666 0.112845474892192 0 0.112082055126701 0.100454295696256 0 0.113358778798196 0.120644195484842 0 0.0960963750435666 0.112845474892192 0 0.113358778798196 0.120644195484842 0 0.0982754036502413 0.134911487159322 0 0.0911233470988448 0.0931181302744555 0 0.0960963750435666 0.112845474892192 0 0.112082055126701 0.100454295696256 0 0.112082055126701 0.100454295696256 0 0.113358778798196 0.120644195484842 0 0.130605077739747 0.109396531477123 0 0.0931430989617576 0.0774904486702512 0 0.103495298514632 0.0693223435918053 0 0.0860063448534676 0.0616827195767469 0 0.0931430989617576 0.0774904486702512 0 0.103495298514632 0.0693223435918053 0 0.113074685089395 0.0832122726526908 0 0.0911233470988448 0.0931181302744555 0 0.0931430989617576 0.0774904486702512 0 0.113074685089395 0.0832122726526908 0 0.0911233470988448 0.0931181302744555 0 0.112082055126701 0.100454295696256 0 0.113074685089395 0.0832122726526908 0 0.112082055126701 0.100454295696256 0 0.113074685089395 0.0832122726526908 0 0.132891422324414 0.0927650835394015 0 0.103495298514632 0.0693223435918053 0 0.113074685089395 0.0832122726526908 0 0.119340009234725 0.0680368411197706 0 0.103495298514632 0.0693223435918053 0 0.119340009234725 0.0680368411197706 0 0.1064380311718 0.0516491262933469 0 0.113074685089395 0.0832122726526908 0 0.119340009234725 0.0680368411197706 0 0.13100188926605 0.0787972983776164 0 0.124727901867103 0.053406275771572 0 0.1064380311718 0.0516491262933469 0 0.124292265137021 0.03680544083986 0 0.119340009234725 0.0680368411197706 0 0.124727901867103 0.053406275771572 0 0.1064380311718 0.0516491262933469 0 0.103495298514632 0.0693223435918053 0 0.1064380311718 0.0516491262933469 0 0.0860063448534676 0.0616827195767469 0 0.1064380311718 0.0516491262933469 0 0.103625725363324 0.0351647762123679 0 0.0875009037295538 0.0414305662732107 0 0.103625725363324 0.0351647762123679 0 0.0918030059782341 0.0198689334227447 0 0.0875009037295538 0.0414305662732107 0 0.1064380311718 0.0516491262933469 0 0.103625725363324 0.0351647762123679 0 0.124292265137021 0.03680544083986 0 0.103625725363324 0.0351647762123679 0 0.124292265137021 0.03680544083986 0 0.112378385660045 0.0251072026161031 0 0.124292265137021 0.03680544083986 0 0.112378385660045 0.0251072026161031 0 0.128982463871103 0.0167345230564017 0 0.112378385660045 0.0251072026161031 0 0.110000000000458 0.0120464149724374 0 0.128982463871103 0.0167345230564017 0 0.110000000000458 0.0120
[...]
<PointData Scalars="A_conc," Vectors="" Tensors="">
<DataArray type="Float64" Name="A_conc" format="ascii">
1.20090203080881e-08 1.74562014420093e-08 1.22628989135102e-08 1.18104099760895e-08 1.77920413588434e-08 1.96215026330758e-08 1.78223651102084e-08 1.20328744714596e-08 1.77609198446519e-08 1.22256868295817e-08 1.21485871612866e-08 1.7421484451082e-08 1.80107891324621e-08 2.38783350035699e-08 1.79434325298375e-08 1.78020804536567e-08 2.41682061492006e-08 2.59682780955189e-08 1.99684996730149e-08 2.59724608371062e-08 3.25596726678441e-08 1.79688140662856e-08 2.00320676357486e-08 2.55892317608676e-08 2.59476737072087e-08 3.33756081496567e-08 3.79251247939831e-08 2.43053968827144e-08 3.72487523258438e-08 2.66591437933617e-08 2.43037703162052e-08 2.62641627335619e-08 3.69280645485121e-08 3.79114543565348e-08 5.51350985879556e-08 6.02381403728798e-08 3.34518066909241e-08 3.83618901592955e-08 5.37690553431344e-08 3.79156287793348e-08 5.52875120633055e-08 6.05330736597607e-08 5.47743495606697e-08 3.81673786891205e-08 4.49496035825043e-08 5.55143616631968e-08 4.48644429122487e-08 7.02489597451853e-08 4.42039141490641e-08 6.36857685499719e-08 7.08988008133243e-08 3.8371755027976e-08 5.40843375008583e-08 3.82372579910171e-08 3.80235324902422e-08 3.78928092097681e-08 2.63880381768274e-08 3.74389096715594e-08 2.84736236335519e-08 2.66999985277727e-08 3.8041240719146e-08 2.82443303883087e-08 4.41682145449454e-08 2.76018097943758e-08 1.92641822009998e-08 1.83964178733747e-08 2.81408031263882e-08 1.89900620129934e-08 2.6518317818213e-08 2.41778986430632e-08 2.63375840448188e-08 1.77149235539261e-08 1.91769702724311e-08 2.59903910871496e-08 1.79132763502803e-08 1.88971007219738e-08 1.19272412887894e-08 1.77518395095358e-08 1.8455114026727e-08 1.21408889984289e-08 1.21757711907811e-08 1.89798164279505e-08 1.1925785671707e-08 1.81971712930902e-08 1.19758179815053e-08 1.73294484847822e-08 1.80299757189979e-08 1.21448349362828e-08 1.21168705917908e-08 1.77210181684109e-08 1.21524947269111e-08 1.68963218294479e-08 1.20924093307119e-08 1.71877347632167e-08 2.27698413439071e-08 2.76052918495849e-08 1.74747364910068e-08 1.82409255297932e-08 2.69437948183746e-08 2.82416764418197e-08 1.79992613434169e-08 2.76597706268071e-08 1.21465826806288e-08 1.2118818648732e-08 1.80170689381889e-08 1.19880281606132e-08 1.83920777209711e-08 1.64597797086768e-08 1.19063438036281e-08 2.22760927367891e-08 1.84547726671112e-08 1.71351606555509e-08 1.19818308867905e-08 2.19743979607642e-08 2.30024239350335e-08 1.85944520822627e-08 2.76256937853935e-08 1.85576585655334e-08 2.77334749777169e-08 2.45920105528165e-08 2.78682548741817e-08 3.85865706309015e-08 4.08658481279998e-08 2.29953333039704e-08 2.80768222504495e-08 3.74738172034321e-08 2.25463387684458e-08 3.80097126034767e-08 3.22869301186451e-08 3.87680008980454e-08 3.2430835852161e-08 4.78373456345514e-08 3.79577889867416e-08 6.21761782059699e-08 5.98092822296995e-08 3.86904094352183e-08 4.85326759634396e-08 5.91253023766721e-08 3.88312999990091e-08 6.07976200065983e-08 4.13088090836351e-08 2.74158164378874e-08 4.78020421784334e-08 4.4222401682002e-08 2.86299779497027e-08 2.79857600720218e-08 4.3085519549433e-08 2.2795522500662e-08 2.81283108979214e-08 3.21580924653617e-08 2.81107033162463e-08 3.25652244973015e-08 4.65541925024929e-08 4.88447789611698e-08 4.47979469576907e-08 6.23805413967054e-08 4.87301065239312e-08 8.30788183835812e-08 6.30911581916763e-08 8.55505406027947e-08 6.28579596740841e-08 1.06772914248509e-07 4.84919032049788e-08 7.65508014729036e-08 6.02356887382204e-08 4.742721677292e-08 8.45580573377025e-08 7.74504402637031e-08 8.54961948020164e-08 1.23198887342502e-07 1.29769942246373e-07 8.64742532834555e-08 7.84433304485789e-08 1.20330201481257e-07 8.56046540532176e-08 1.28304400967373e-07 1.09153250112993e-07 6.23253671844974e-08 8.88875748499066e-08 9.86152163087015e-08 6.3176079778405e-08 8.70170325759773e-08 6.0542133781568e-08 7.83658711818415e-08 8.80423212917286e-08 5.98378679408165e-08 1.23777607319158e-07 8.82832125347647e-08 1.39079549725153e-07 7.86173521989592e-08 1.20901249550033e-07 8.91182520838907e-08 1.40251141128021e-07 9.92788173877213e-08 1.47803723245676e-07 8.94694036338495e-08 1.36948575821352e-07 1.00205417983706e-07 1.38798607401168e-07 2.11060545484155e-07 2.15914483641495e-07 1.41293262297025e-07 2.12472969372969e-07 1.4955191258001e-07 1.2450222745616e-07 1.41450497553791e-07 2.04506859477535e-07 2.13454590892692e-07 2.18826062332698e-07 3.281647565188e-07 1.30409807073425e-07 1.66764649161597e-07 1.09302966551962e-07 1.29620793297892e-07 1.69832696284122e-07 2.12544162437035e-07 1.24223601921082e-07 1.31613900768658e-07 2.06239565646164e-07 1.20536012128835e-07 2.09013141587613e-07 2.13422037151289e-07 2.12820860530587e-07 2.17828694827091e-07 3.43106882788832e-07 1.69748521268256e-07 2.16798451470228e-07 2.5142957330277e-07 1.71278861959245e-07 2.49594517636422e-07 1.84356297222394e-07 2.17201523514147e-07 2.55200808654444e-07 3.34328896270966e-07 2.9022709735316e-07 1.80879368282212e-07 2.85708120624648e-07 2.54574553592477e-07 2.88022075089798e-07 1.82518604266885e-07 1.69260957014613e-07 1.80960429278641e-07 1.06901192432691e-07 1.8120537327649e-07 1.69939782579173e-07 1.11360243171205e-07 1.67491283826362e-07 1.2769950307789e-07 1.13389881183143e-07 1.84160544131398e-07 1.7166373881707e-07 2.76828679500867e-07 1.71280404818921e-07 2.82292072914493e-07 2.13917465502555e-07 2.89505711422388e-07 2.12883244727075e-07 3.24259951259219e-07 2.1593233555481e-07 2.02724103655404e-07 3.14956122832229e-07 2.00485295102065e-07 2.57223741076925e-07 3.20922426934273e-07 2.00650166055503e-07 2.50992282104385e-07 1.54204513347429e-07 1.96879406922855e-07 1.54726256156856e-07 1.27323114553559e-07 2.1181583880099e-07 2.00071446384883e-07 1.24513856208106e-07 1.70661045645925e-07 2.08977044248023e-07 1.26738580661875e-07 1.22525620738905e-07 8.2624985218248e-08 8.10194768616555e-08 1.51194803353258e-07 1.26885332929183e-07 9.22302592671506e-08 1.24664100210786e-07 9.28610535342473e-08 8.21707007486381e-08 5.57554329058517e-08 8.05041591783955e-08 6.1607149144273e-08 5.49165729823833e-08 9.09296149407491e-08 8.14471651005007e-08 8.20791524043772e-08 6.0845081268136e-08 8.0581418094975e-08 8.0443512830393e-08 7.22685498320592e-08 1.10199696218829e-07 5.52658137289088e-08 7.95770506467057e-08 7.20186144802564e-08 5.5650570928581e-08 6.12997166936445e-08 7.90288863012034e-08 6.40890264969346e-08 7.20130124723546e-08 1.04816509642528e-07 7.08364308585824e-08 1.08493874685008e-07 1.12141507343933e-07 1.75775013324791e-07 1.09722363942545e-07 1.13765293478396e-07 1.25819607201039e-07 7.94761356394045e-08 1.12740624171565e-07 1.18222953408651e-08 1.97479486366695e-08 1.85392404375044e-08 1.20603065515868e-08 1.80896540330182e-08 1.21845471226653e-08 2.0136923174093e-08 3.14287045094238e-08 1.87737895207202e-08 3.36809914975553e-08 5.33299950353993e-08 3.31034672918857e-08 1.96645969728004e-08 3.30881817848279e-08 3.25760131670469e-08 5.18778261557105e-08 3.71005232770012e-08 3.30335439232726e-08 5.5024949979351e-08 5.31511830203348e-08 3.22191505572635e-08 5.35584483926662e-08 4.30120865822818e-08 6.67722342246029e-08 5.29125275259327e-08 3.6845356953754e-08 4.31008190893975e-08 3.61913902863861e-08 2.50577260607343e-08 2.94744314551074e-08 3.66264676763684e-08 3.29040185384021e-08 2.50024322429147e-08 3.19584766643417e-08 1.85657988458334e-08 2.50244801763834e-08 1.86996310761577e-08 1.6934137524736e-08 2.45846449986276e-08 1.84247390692437e-08 1.19902074863864e-08 1.68235661052751e-08 1.19774500637659e-08 1.67979783041524e-08 1.8832490927653e-08 1.21630071509634e-08 1.21588919439157e-08 1.65721024022396e-08 1.68869996643474e-08 2.45557213426953e-08 1.91164661075483e-08 1.90730665958364e-08 2.46579057111119e-08 2.89103135691187e-08 2.4992310415532e-08 1.90107230839088e-08 2.90084031040689e-08 1.21636160488504e-08 1.83785793955847e-08 1.22014302461737e-08 1.88639584063487e-08 1.20050246201942e-08 1.6484291180854e-08 1.21254881730229e-08 1.21526477435732e-08 1.6259436487389e-08 1.86659713702369e-08 1.65432211064194e-08 2.41716431938717e-08 1.91584801016399e-08 1.65512500427915e-08 2.42183865663501e-08 2.81764279523953e-08 2.46873933540661e-08 3.967063651869e-08 2.47232944904577e-08 2.94504658593984e-08 4.01198636757136e-08 3.67533332894486e-08 2.94422312037879e-08 4.2531900192288e-08 2.92152426122524e-08 4.28620502918831e-08 4.11519910486449e-08 4.238218861441e-08 6.85443935194443e-08 6.80396364173005e-08 6.26017833334925e-08 4.04868211884538e-08 6.813816946924e-08 4.33364489533677e-08 4.14679655721247e-08 6.63909208423846e-08 6.85844871959799e-08 1.01292235394348e-07 9.96903898139644e-08 6.32567927427167e-08 6.94490128036351e-08 9.70842157781112e-08 6.95774284178882e-08 6.90139376094064e-08 9.93720896982493e-08 6.79162258797274e-08 1.0137040128104e-07 9.42385858241012e-08 1.00905401653396e-07 1.48398488030639e-07 1.48454304524716e-07 1.02371019295445e-07 1.00618238590154e-07 1.45298863729321e-07 2.19711953950077e-07 2.41347329272315e-07 3.4211677770363e-07 2.17838016057729e-07 1.47115764452302e-07 2.37334926427933e-07 2.37886509204639e-07 1.46867634169017e-07 2.07208476183591e-07 1.49902347998507e-07 2.31162298051283e-07 1.49963319168138e-07 1.48753544468265e-07 2.04695613310835e-07 1.58175784446028e-07 2.08269770237307e-07 2.30522457576101e-07 2.96995760197036e-07 2.4191782627701e-07 2.08191854736196e-07 2.98077820076358e-07 2.29162045373109e-07 3.58157763931798e-07 3.01770141314431e-07 2.23526044201962e-07 1.59472535758194e-07 1.55194219759765e-07 2.07453960912606e-07 2.28024918425132e-07 1.56971990384127e-07 1.58023488713472e-07 1.10934540372722e-07 1.54080131248988e-07 1.10872288238285e-07 9.50933596721287e-08 7.71375920029294e-08 1.53234402049985e-07 1.12440339227299e-07 9.51415698306549e-08 1.46932332410431e-07 1.55348002497718e-07 9.31069184443124e-08 1.02622258561214e-07 1.44475061964761e-07 9.48308742635515e-08 5.35799529212e-08 6.80865323595614e-08 9.12565608580402e-08 5.28623299321636e-08 9.27527387255842e-08 7.68025054258043e-08 5.60561670298813e-08 5.39473833868722e-08 7.54699449688896e-08 5.53804497167257e-08 7.64745119947181e-08 9.08704760654947e-08 1.11760277725896e-07 9.29582708338935e-08 1.5003650500627e-07 1.10198743566529e-07 7.67589123717329e-08 9.29882272167524e-08 2.29504688853865e-07 2.58083370458429e-07 3.55153756997057e-07 2.27415832450027e-07 1.5273283301729e-07 2.52772737162679e-07 2.55822162277211e-07 4.20483793651647e-07 3.62509807981861e-07 4.27747645056723e-07 5.43167062764158e-07 6.93545317876576e-07 4.29900426076861e-07 5.34510947127545e-07 3.64570529743287e-07 7.14625182071995e-07 1.13524301056563e-06 7.50208787670368e-07 5.41691272312317e-07 7.11125505122111e-07 7.44168926208368e-07 1.16923350396718e-06 1.06055868539949e-06 7.35464532516508e-07 1.04320100509338e-06 1.67467488899562e-06 1.61562733265601e-06 1.18680516675429e-06 1.0675672374726e-06 1.58562529636051e-06 1.00056080523172e-06 1.26449996852924e-06 1.64846353721811e-06 1.06369079088188e-06 1.00884863598189e-06 1.61773714277596e-06 9.74482577147416e-07 6.15939662817303e-07 7.11860711707818e-07 1.04217621768988e-06 9.93717460129483e-07 6.00859370055452e-07 1.02657010071687e-06 7.45973781108393e-07 6.17692721450234e-07 5.40714843967527e-07 6.06605867258721e-07 3.57439003284489e-07 5.96548577635769e-07 3.66167648792101e-07 4.45336581972952e-07 5.45116472412912e-07 7.3804911832386e-07 6.18415128682221e-07 3.66415199944015e-07 3.01934132097153e-07 4.38750013014527e-07 3.00479922332088e-07 4.42910138412247e-07 4.22105884595477e-07 6.13215556927499e-07 4.41714590258261e-07 7.00639702928108e-07 4.48488439580132e-07 4.25222299250075e-07 6.79759791357548e-07 4.20970212988294e-07 5.6881325361596e-07 6.99220541711012e-07 2.41181041126465e-07 3.02739071878167e-07 4.08586578485241e-07 2.37353061522213e-07 4.12766875320453e-07 3.51593594250304e-07 4.23221653451952e-07 3.53940024823965e-07 5.54504321155229e-07 5.70844319195374e-07 4.77383809692529e-07 6.88627052921356e-07 3.49518513862389e-07 5.60854225081239e-07 4.75979571548758e-07 5.68815134207412e-07 8.42286225568236e-07 7.01152255712092e-07 8.5597966041663e-07 1.1427845941099e-06 7.00862976649347e-07 5.69499840503044e-07 8.44508471085805e-07 7.15250244348741e-07 8.58611145628106e-07 7.15683000674565e-07 1.21069199521013e-06 9.98082088566767e-07 7.04275383849164e-07 1.23266282470443e-06 1.26698176913791e-06 1.18627890631307e-06 1.69191987145024e-06 8.50214396687989e-07 1.25302088792537e-06 1.17883038330766e-06 1.73493531900765e-06 2.48714538843282e-06 1.77368673306805e-06 1.16740677872244e-06 1.71808871480614e-06 1.75337537047113e-06 1.26006709041183e-06 2.19188989045869e-06 1.68659630271257e-06 1.25486620296803e-06 1.71950420926599e-06 2.21125733552406e-06 2.28451470018246e-06 2.55958136543062e-06 3.70421120718617e-06 2.27329173302461e-06 3.76225063707085e-06 2.77265284785864e-06 1.71832095330916e-06 2.27514869706701e-06 2.52701469327909e-06 2.52643860186505e-06 3.82661931423561e-06 3.5102291726674e-06 5.14997958782402e-06 3.87563692658408e-06 3.530477444632e-06 5.28684438929853e-06 5.90016064888397e-06 7.47066061786107e-06 5.25319025793766e-06 5.81582134810278e-06 3.83914427438489e-06 5.86372123093608e-06 3.80266533687997e-06 6.06583297194309e-06 5.93007639950472e-06 6.15384530141842e-06 8.39856729262333e-06 3.88306122543991e-06 4.14140194026562e-06 5.94573538277859e-06 3.85561913735327e-06 4.0914963593967e-06 2.75420285513061e-06 4.06607985645771e-06 6.10409544296648e-06 7.01531418177715e-06 4.16984564036201e-06 4.27856303888885e-06 6.77731164131629e-06 4.11312904898145e-06 4.21033400006463e-06 2.58047998725622e-06 2.2649258196765e-06 2.71292217976386e-06 1.6850017154795e-06 4.01703138448502e-06 2.63950429437609e-06 2.79117796761225e-06 2.60709948132291e-06 2.7424066626706e-06 1.66814940202743e-06 2.53160899597482e-06 1.70002373502212e-06 1.63446980242043e-06 1.17634484105243e-06 1.6151053943517e-06 1.92267072860763e-06 2.56809012255742e-06 1.62063221743617e-06 1.96705775898103e-06 2.62340309481547e-06 1.95797532320819e-06 3.18878429668546e-06 4.14051377101351e-06 2.62761207029101e-06 3.26431537745885e-06 4.23010522298332e-06 3.26041241988979e-06 5.2864396437812e-06 4.22648433440656e-06 5.41583274987225e-06 6.97556626008763e-06 8.8707079996761e-07 7.99440344418074e-07 5.96005406134178e-07 8.82814318263303e-07 7.91600593967061e-07 5.94535230329546e-07 8.95523887088245e-07 7.95735876229015e-07 1.18041398172535e-06 1.2126056968572e-06 1.30218713659425e-06 1.78218668770054e-06 8.8854763855345e-07 1.20572445244244e-06 1.28806675485127e-06 8.99533601186712e-07 1.26418481214589e-06 8.03253208052832e-07 1.29347952264339e-06 1.34103602901511e-06 7.8225504045316e-07 1.33498782699457e-06 1.07506954741649e-06 8.00567943304324e-07 1.36993439240242e-06 1.07571704365552e-06 1.52008599949869e-06 1.16278445121913e-06 1.0691339171235e-06 7.01611670871089e-07 1.18618736813021e-06 1.08068276809037e-06 1.49904953606131e-06 7.11169437519939e-07 7.97533398875144e-07 5.2292522284439e-07 1.0550510380318e-06 7.14308167312146e-07 8.08638754174613e-07 7.70285105269717e-07 4.74851845457117e-07 5.31102326296171e-07 6.92964793804629e-07 5.25892569185215e-07 4.29088496355332e-07 2.56982795733091e-07 4.17040385531174e-07 3.27337902357809e-07 5.15282384375749e-07 4.2760545265438e-07 3.2651923762555e-07 2.90804026196726e-07 4.57723668877439e-07 3.28788527424243e-07 4.71179488134468e-07 5.21663350000703e-07 3.243155500333e-07 2.94623649133942e-07 2.89581869340718e-07 4.04379299556849e-07 2.85815687679374e-07 4.64017563650982e-07 4.1131208101655e-07 7.80952938768221e-07 4.70271243256166e-07 5.98060647910411e-07 4.72341813151308e-07 5.88418268463908e-07 4.13937082052976e-07 7.78955273417585e-07 5.98146753189353e-07 5.3666609134168e-07 5.91323388111342e-07 5.34771375234045e-07 4.1097613614413e-07 2.91810227902247e-07 4.10179518387374e-07 3.76067831519409e-07 5.269390546972e-07 4.14118478555785e-07 3.77363349106329e-07 2.56190596530899e-07 2.93326744397987e-07 3.69603843128997e-07 3.76591288675382e-07 3.43294114750054e-07 5.36495301492297e-07 2.53524810011847e-07 3.72045476893695e-07 3.41539175764994e-07 3.60697422650147e-07 3.44149222276229e-07 5.35362703171401e-07 2.12518062189111e-07 3.54550781619651e-07 3.39743442871631e-07 5.57535222202916e-07 5.57587201315887e-07 7.81911414684149e-07 3.5416879086484e-07 5.50454870236197e-07 5.50501756619302e-07 5.32098577780769e-07 3.71640976629032e-07 5.50302430044977e-07 7.71176130503185e-07 5.36385042072384e-07 5.56235786719387e-07 2.14708851761351e-07 3.47991064935074e-07 3.35632265165296e-07 3.53564090327652e-07 3.39787458968582e-07 4.68303906263155e-07 3.60349821521822e-07 3.42803982721353e-07 5.35270569020785e-07 2.07364227533971e-07 3.53589465478295e-07 3.37996453941011e-07 5.58423742361862e-07 4.75846110214432e-07 6.85184564793679e-07 3.35837912547654e-07 5.48238879808402e-07 4.73604147237689e-07 5.57154913019768e-07 6.94838238563159e-07 8.93571867209222e-07 1.15316615672708e-06 6.93958221797663e-07 9.15569332199649e-07 5.49371839031082e-07 9.06874446031605e-07 7.95150622588454e-07 9.24633977560682e-07 8.00227648713107e-07 1.1560990650421e-06 9.21616581004627e-07 1.17265643089522e-06 1.52779593459092e-06 9.03920342208062e-07 1.30922349988012e-06 1.55040907774455e-06 1.18014480213247e-06 9.1495511210254e-07 1.30511357606588e-06 1.18202060800004e-06 1.32065188516903e-06 1.72856731856935e-06 7.86521743460131e-07 5.50141297663447e-07 9.14351814798948e-07 7.92366475443745e-07 1.18522649912281e-06 9.36216086703311e-07 5.49153923258575e-07 9.1914982524195e-07 7.95733216808403e-07 9.39273048014965e-07 8.0075908408934e-07 1.1539834676103e-06 9.36890115408843e-07 1.17518268792241e-06 1.53136011538243e-06 1.16949133306602e-06 1.57467602860759e-06 1.57134638111085e-06 1.20588084179798e-06 9.32835881162986e-07 1.53224710824756e-06 1.20364604491515e-06 1.57108708691828e-06 1.72856453928085e-06 1.57632996871908e-06 1.7492307256691e-06 2.46291942212322e-06 1.5846708622865e-06 2.5590693051078e-06 1.58109807551704e-06 2.70195653892665e-06 2.55579773186239e-06 4.24364000962814e-06 1.54111960163164e-06 2.64975327897878e-06 2.51999880825935e-06 1.77277944957608e-06 1.58413022417088e-06 2.47509277304794e-06 1.31510775475226e-06 1.75945310469364e-06 1.5822036491077e-06 2.69330738281636e-06 2.57172803411892e-06 4.12244944839491e-06 2.64261459456777e-06 1.54038970808405e-06 2.53461325421008e-06 2.53601485947423e-06 1.75249995146859e-06 2.52883661469374e-06 2.55992277594238e-06 2.55209781058903e-06 3.46175456603773e-06 3.52016915920106e-06 4.31143859471202e-06 4.86433099784498e-06 2.51796530261845e-06 3.51024582752791e-06 4.22497658483389e-06 5.20457508967948e-06 3.48334416597065e-06 4.8740997497898e-06 4.3055519786905e-06 4.92124771043784e-06 6.82244600990467e-06 4.19158579634882e-06 7.58868914132787e-06 6.99406228822609e-06 5.23626425444293e-06 7.01445197691202e-06 7.53591915497714e-06 5.2673335007125e-06 4.90653783242486e-06 6.92639538225528e-06 2.47404826553318e-06 4.38217917883493e-06 4.37398969151503e-06 2.63435008667507e-06 4.26443935446815e-06 4.3877380042336e-06 4.34410006977355e-06 7.60065821966156e-06 7.1168595908728e-06 4.32570746503088e-06 4.46404180191941e-06 7.31682025185141e-06 4.47057699385201e-06 4.46124759877453e-06 6.90330330166676e-06 6.37498615611867e-06 4.35829712380839e-06 7.08472848483192e-06 6.35019981254115e-06 5.75875241516009e-06 4.4146299512646e-06 6.42688832967936e-06 5.77671363881524e-06 8.90518663981663e-06 5.73649776202181e-06 6.88273777761331e-06 8.45735615112612e-06 5.60435965448886e-06 3.81494872645808e-06 4.1142289005588e-06 5.6475575987691e-06 3.82078349862124e-06 4.4389556097533e-06 3.81216476061614e-06 4.38358468906792e-06 2.92422471949148e-06 2.54873226500249e-06 4.25344555795299e-06 2.9581196036887e-06 2.53512744445535e-06 2.90215521225203e-06 1.81494326002852e-06 2.88193356821254e-06 2.38896937808333e-06 1.82171391639427e-06 3.72776156191276e-06 2.94423322360967e-06 2.39345959996771e-06 1.28476657625838e-06 2.323