<?xml version="1.0"?>
<VTKFile type="UnstructuredGrid" version="0.1" byte_order="LittleEndian">
<UnstructuredGrid>
<Piece NumberOfPoints="3936" NumberOfCells="1312">
<Points>
<DataArray type="Float64" NumberOfComponents="3" format="ascii">
0 0 0 0 0.019999999999965 0 0.0151391371462346 0.0152467156467034 0 0 0 0 0.0151391371462346 0.0152467156467034 0 0.0200000000000833 0 0 0.0400000000001665 0 0 0.0200000000000833 0 0 0.0300000000001249 0.0113826439640925 0 0.0200000000000833 0 0 0.0151391371462346 0.0152467156467034 0 0.0300000000001249 0.0113826439640925 0 0.0268315064475681 0.0248689492035553 0 0.0300000000001249 0.0113826439640925 0 0.0151391371462346 0.0152467156467034 0 0.0268315064475681 0.0248689492035553 0 0.0151391371462346 0.0152467156467034 0 0.0150869963313612 0.0332370557357666 0 0 0.019999999999965 0 0 0.039999999999912 0 0.0150869963313612 0.0332370557357666 0 0 0.019999999999965 0 0.0150869963313612 0.0332370557357666 0 0.0151391371462346 0.0152467156467034 0 0 0.039999999999912 0 0.017936967212708 0.050559805610223 0 0.0150869963313612 0.0332370557357666 0 0 0.0599999999998546 0 0.0161836237390211 0.069137401867804 0 0.017936967212708 0.050559805610223 0 0 0.039999999999912 0 0 0.0599999999998546 0 0.017936967212708 0.050559805610223 0 0.017936967212708 0.050559805610223 0 0.0161836237390211 0.069137401867804 0 0.0332958901133708 0.0579980921617808 0 0.017936967212708 0.050559805610223 0 0.0332958901133708 0.0579980921617808 0 0.0307858588372854 0.039072754732285 0 0.017936967212708 0.050559805610223 0 0.0307858588372854 0.039072754732285 0 0.0150869963313612 0.0332370557357666 0 0.0268315064475681 0.0248689492035553 0 0.0150869963313612 0.0332370557357666 0 0.0307858588372854 0.039072754732285 0 0.0448590368789156 0.0448590368789465 0 0.0446884954602674 0.0219430690117777 0 0.0307858588372854 0.039072754732285 0 0.0448590368789156 0.0448590368789465 0 0.0307858588372854 0.039072754732285 0 0.0332958901133708 0.0579980921617808 0 0.0448590368789156 0.0448590368789465 0 0.0332958901133708 0.0579980921617808 0 0.051092066913789 0.0625055339203884 0 0.0448590368789156 0.0448590368789465 0 0.051092066913789 0.0625055339203884 0 0.0595843169827883 0.0409258079336768 0 0.051092066913789 0.0625055339203884 0 0.0648752667960161 0.0680589003449674 0 0.0696687597647104 0.0523247828649042 0 0.051092066913789 0.0625055339203884 0 0.0696687597647104 0.0523247828649042 0 0.0595843169827883 0.0409258079336768 0 0.0448590368789156 0.0448590368789465 0 0.0595843169827883 0.0409258079336768 0 0.0446884954602674 0.0219430690117777 0 0.0630772101604759 0.0237852343196632 0 0.0446884954602674 0.0219430690117777 0 0.0595843169827883 0.0409258079336768 0 0.0268315064475681 0.0248689492035553 0 0.0307858588372854 0.039072754732285 0 0.0446884954602674 0.0219430690117777 0 0.0268315064475681 0.0248689492035553 0 0.0446884954602674 0.0219430690117777 0 0.0300000000001249 0.0113826439640925 0 0.0400000000001665 0 0 0.0300000000001249 0.0113826439640925 0 0.0446884954602674 0.0219430690117777 0 0.0630772101604759 0.0237852343196632 0 0.0600000000002496 0 0 0.0446884954602674 0.0219430690117777 0 0.0400000000001665 0 0 0.0446884954602674 0.0219430690117777 0 0.0600000000002496 0 0 0.0800000000003329 0 0 0.0600000000002496 0 0 0.0746745652029224 0.0147668031116578 0 0.0630772101604759 0.0237852343196632 0 0.0746745652029224 0.0147668031116578 0 0.0600000000002496 0 0 0.0630772101604759 0.0237852343196632 0 0.0740753596843851 0.0338725385252028 0 0.0746745652029224 0.0147668031116578 0 0.0918030059782341 0.0198689334227447 0 0.0746745652029224 0.0147668031116578 0 0.0740753596843851 0.0338725385252028 0 0.0918030059782341 0.0198689334227447 0 0.0800000000003329 0 0 0.0746745652029224 0.0147668031116578 0 0.100000000000416 0 0 0.0800000000003329 0 0 0.0918030059782341 0.0198689334227447 0 0.0918030059782341 0.0198689334227447 0 0.110000000000458 0.0120464149724374 0 0.100000000000416 0 0 0.100000000000416 0 0 0.110000000000458 0.0120464149724374 0 0.120000000000499 0 0 0.120000000000499 0 0 0.110000000000458 0.0120464149724374 0 0.128982463871103 0.0167345230564017 0 0.112378385660045 0.0251072026161031 0 0.128982463871103 0.0167345230564017 0 0.110000000000458 0.0120464149724374 0 0.112378385660045 0.0251072026161031 0 0.124292265137021 0.03680544083986 0 0.128982463871103 0.0167345230564017 0 0.112378385660045 0.0251072026161031 0 0.0918030059782341 0.0198689334227447 0 0.103625725363324 0.0351647762123679 0 0.112378385660045 0.0251072026161031 0 0.110000000000458 0.0120464149724374 0 0.0918030059782341 0.0198689334227447 0 0.0875009037295538 0.0414305662732107 0 0.103625725363324 0.0351647762123679 0 0.0918030059782341 0.0198689334227447 0 0.0875009037295538 0.0414305662732107 0 0.1064380311718 0.0516491262933469 0 0.103625725363324 0.0351647762123679 0 0.112378385660045 0.0251072026161031 0 0.103625725363324 0.0351647762123679 0 0.124292265137021 0.03680544083986 0 0.1064380311718 0.0516491262933469 0 0.124292265137021 0.03680544083986 0 0.103625725363324 0.0351647762123679 0 0.124727901867103 0.053406275771572 0 0.124292265137021 0.03680544083986 0 0.1064380311718 0.0516491262933469 0 0.124727901867103 0.053406275771572 0 0.1064380311718 0.0516491262933469 0 0.119340009234725 0.0680368411197706 0 0.103495298514632 0.0693223435918053 0 0.1064380311718 0.0516491262933469 0 0.0860063448534676 0.0616827195767469 0 0.0875009037295538 0.0414305662732107 0 0.0860063448534676 0.0616827195767469 0 0.1064380311718 0.0516491262933469 0 0.0875009037295538 0.0414305662732107 0 0.0696687597647104 0.0523247828649042 0 0.0860063448534676 0.0616827195767469 0 0.0875009037295538 0.0414305662732107 0 0.0918030059782341 0.0198689334227447 0 0.0740753596843851 0.0338725385252028 0 0.0875009037295538 0.0414305662732107 0 0.0740753596843851 0.0338725385252028 0 0.0696687597647104 0.0523247828649042 0 0.0630772101604759 0.0237852343196632 0 0.0595843169827883 0.0409258079336768 0 0.0740753596843851 0.0338725385252028 0 0.0696687597647104 0.0523247828649042 0 0.0740753596843851 0.0338725385252028 0 0.0595843169827883 0.0409258079336768 0 0.0696687597647104 0.0523247828649042 0 0.0648752667960161 0.0680589003449674 0 0.0860063448534676 0.0616827195767469 0 0.0767647058822376 0.0767647058822157 0 0.0860063448534676 0.0616827195767469 0 0.0648752667960161 0.0680589003449674 0 0.0767647058822376 0.0767647058822157 0 0.0648752667960161 0.0680589003449674 0 0.054443462188383 0.0851178402851247 0 0.0767647058822376 0.0767647058822157 0 0.054443462188383 0.0851178402851247 0 0.0730667616819684 0.092887314985679 0 0.054443462188383 0.0851178402851247 0 0.0627352944912475 0.102377138259497 0 0.0730667616819684 0.092887314985679 0 0.0767647058822376 0.0767647058822157 0 0.0911233470988448 0.0931181302744555 0 0.0931430989617576 0.0774904486702512 0 0.0767647058822376 0.0767647058822157 0 0.0730667616819684 0.092887314985679 0 0.0911233470988448 0.0931181302744555 0 0.0767647058822376 0.0767647058822157 0 0.0931430989617576 0.0774904486702512 0 0.0860063448534676 0.0616827195767469 0 0.103495298514632 0.0693223435918053 0 0.0860063448534676 0.0616827195767469 0 0.0931430989617576 0.0774904486702512 0 0.103495298514632 0.0693223435918053 0 0.0931430989617576 0.0774904486702512 0 0.113074685089395 0.0832122726526908 0 0.103495298514632 0.0693223435918053 0 0.119340009234725 0.0680368411197706 0 0.1064380311718 0.0516491262933469 0 0.103495298514632 0.0693223435918053 0 0.113074685089395 0.0832122726526908 0 0.119340009234725 0.0680368411197706 0 0.13100188926605 0.0787972983776164 0 0.119340009234725 0.0680368411197706 0 0.113074685089395 0.0832122726526908 0 0.112082055126701 0.100454295696256 0 0.132891422324414 0.0927650835394015 0 0.113074685089395 0.0832122726526908 0 0.112082055126701 0.100454295696256 0 0.113074685089395 0.0832122726526908 0 0.0911233470988448 0.0931181302744555 0 0.0911233470988448 0.0931181302744555 0 0.113074685089395 0.0832122726526908 0 0.0931430989617576 0.0774904486702512 0 0.112082055126701 0.100454295696256 0 0.0911233470988448 0.0931181302744555 0 0.0960963750435666 0.112845474892192 0 0.112082055126701 0.100454295696256 0 0.113358778798196 0.120644195484842 0 0.130605077739747 0.109396531477123 0 0.112082055126701 0.100454295696256 0 0.0960963750435666 0.112845474892192 0 0.113358778798196 0.120644195484842 0 0.0982754036502413 0.134911487159322 0 0.113358778798196 0.120644195484842 0 0.0960963750435666 0.112845474892192 0 0.0982754036502413 0.134911487159322 0 0.0960963750435666 0.112845474892192 0 0.0827277114455161 0.126396591316008 0 0.0780713777922691 0.108453313621063 0 0.0827277114455161 0.126396591316008 0 0.0960963750435666 0.112845474892192 0 0.0780713777922691 0.108453313621063 0 0.0960963750435666 0.112845474892192 0 0.0911233470988448 0.0931181302744555 0 0.0780713777922691 0.108453313621063 0 0.0911233470988448 0.0931181302744555 0 0.0730667616819684 0.092887314985679 0 0.0780713777922691 0.108453313621063 0 0.0730667616819684 0.092887314985679 0 0.0627352944912475 0.102377138259497 0 0.0780713777922691 0.108453313621063 0 0.0627352944912475 0.102377138259497 0 0.0645941049113302 0.119272770002678 0 0.0780713777922691 0.108453313621063 0 0.0645941049113302 0.119272770002678 0 0.0827277114455161 0.126396591316008 0 0.0479549046069405 0.129046429396053 0 0.0645941049113302 0.119272770002678 0 0.0454388361613255 0.106104211843955 0 0.0479549046069405 0.129046429396053 0 0.0454388361613255 0.106104211843955 0 0.0329734027293961 0.116814685247386 0 0.0454388361613255 0.106104211843955 0 0.054443462188383 0.0851178402851247 0 0.0386217211136503 0.090839305120049 0 0.0454388361613255 0.106104211843955 0 0.0249740097399344 0.0979713770715158 0 0.0329734027293961 0.116814685247386 0 0.0454388361613255 0.106104211843955 0 0.0386217211136503 0.090839305120049 0 0.0249740097399344 0.0979713770715158 0 0.0454388361613255 0.106104211843955 0 0.0627352944912475 0.102377138259497 0 0.054443462188383 0.0851178402851247 0 0.
[...]
<PointData Scalars="A_conc," Vectors="" Tensors="">
<DataArray type="Float64" Name="A_conc" format="ascii">
0 0 0 0 0 0 0 0 0 0 0 0 0 0 0 0 0 0 0 0 0 0 0 0 0 0 0 0 0 0 0 0 0 0 0 0 0 0 0 0 0 0 0 0 0 0 0 0 0 0 0 0 0 0 0 0 0 0 0 0 0 0 0 0 0 0 0 0 0 0 0 0 0 0 0 0 0 0 0 0 0 0 0 0 0 0 0 0 0 0 0 0 0 0 0 0 0 0 0 0 0 0 0 0 0 0 0 0 0 0 0 0 0 0 0 0 0 0 0 0 0 0 0 0 0 0 0 0 0 0 0 0 0 0 0 0 0 0 0 0 0 0 0 0 0 0 0 0 0 0 0 0 0 0 0 0 0 0 0 0 0 0 0 0 0 0 0 0 0 0 0 0 0 0 0 0 0 0 0 0 0 0 0 0 0 0 0 0 0 0 0 0 0 0 0 0 0 0 0 0 0 0 0 0 0 0 0 0 0 0 0 0 0 0 0 0 0 0 0 0 0 0 0 0 0 0 0 0 0 0 0 0 0 0 0 0 0 0 0 0 0 0 0 0 0 0 0 0 0 0 0 0 0 0 0 0 0 0 0 0 0 0 0 0 0 0 0 0 0 0 0 0 0 0 0 0 0 0 0 0 0 0 0 0 0 0 0 0 0 0 0 0 0 0 0 0 0 0 0 0 0 0 0 0 0 0 0 0 0 0 0 0 0 0 0 0 0 0 0 0 0 0 0 0 0 0 0 0 0 0 0 0 0 0 0 0 0 0 0 0 0 0 0 0 0 0 0 0 0 0 0 0 0 0 0 0 0 0 0 0 0 0 0 0 0 0 0 0 0 0 0 0 0 0 0 0 0 0 0 0 0 0 0 0 0 0 0 0 0 0 0 0 0 0 0 0 0 0 0 0 0 0 0 0 0 0 0 0 0 0 0 0 0 0 0 0 0 0 0 0 0 0 0 0 0 0 0 0 0 0 0 0 0 0 0 0 0 0 0 0 0 0 0 0 0 0 0 0 0 0 0 0 0 0 0 0 0 0 0 0 0 0 0 0 0 0 0 0 0 0 0 0 0 0 0 0 0 0 0 0 0 0 0 0 0 0 0 0 0 0 0 0 0 0 0 0 0 0 0 0 0 0 0 0 0 0 0 0 0 0 0 0 0 0 0 0 0 0 0 0 0 0 0 0 0 0 0 0 0 0 0 0 0 0 0 0 0 0 0 0 0 0 0 0 0 0 0 0 0 0 0 0 0 0 0 0 0 0 0 0 0 0 0 0 0 0 0 0 0 0 0 0 0 0 0 0 0 0 0 0 0 0 0 0 0 0 0 0 0 0 0 0 0 0 0 0 0 0 0 0 0 0 0 0 0 0 0 0 0 0 0 0 0 0 0 0 0 0 0 0 0 0 0 0 0 0 0 0 0 0 0 0 0 0 0 0 0 0 0 0 0 0 0 0 0 0 0 0 0 0 0 0 0 0 0 0 0 0 0 0 0 0 0 0 0 0 0 0 0 0 0 0 0 0 0 0 0 0 0 0 0 0 0 0 0 0 0 0 0 0 0 0 0 0 0 0 0 0 0 0 0 0 0 0 0 0 0 0 0 0 0 0 0 0 0 0 0 0 0 0 0 0 0 0 0 0 0 0 0 0 0 0 0 0 0 0 0 0 0 0 0 0 0 0 0 0 0 0 0 0 0 0 0 0 0 0 0 0 0 0 0 0 0 0 0 0 0 0 0 0 0 0 0 0 0 0 0 0 0 0 0 0 0 0 0 0 0 0 0 0 0 0 0 0 0 0 0 0 0 0 0 0 0 0 0 0 0 0 0 0 0 0 0 0 0 0 0 0 0 0 0 0 0 0 0 0 0 0 0 0 0 0 0 0 0 0 0 0 0 0 0 0 0 0 0 0 0 0 0 0 0 0 0 0 0 0 0 0 0 0 0 0 0 0 0 0 0 0 0 0 0 0 0 0 0 0 0 0 0 0 0 0 0 0 0 0 0 0 0 0 0 0 0 0 0 0 0 0 0 0 0 0 0 0 0 0 0 0 0 0 0 0 0 0 0 0 0 0 0 0 0 0 0 0 0 0 0 0 0 0 0 0 0 0 0 0 0 0 0 0 0 0 0 0 0 0 0 0 0 0 0 0 0 0 0 0 0 0 0 0 0 0 0 0 0 0 0 0 0 0 0 0 0 0 0 0 0 0 0 0 0 0 0 0 0 0 0 0 0 0 0 0 0 0 0 0 0 0 0 0 0 0 0 0 0 0 0 0 0 0 0 0 0 0 0 0 0 0 0 0 0 0 0 0 0 0 0 0 0 0 0 0 0 0 0 0 0 0 0 0 0 0 0 0 0 0 0 0 0 0 0 0 0 0 0 0 0 0 0 0 0 0 0 0 0 0 0 0 0 0 0 0 0 0 0 0 0 0 0 0 0 0 0 0 0 0 0 0 0 0 0 0 0 0 0 0 0 0 0 0 0 0 0 0 0 0 0 0 0 0 0 0 0 0 0 0 0 0 0 0 0 0 0 0 0 0 0 0 0 0 0 0 0 0 0 0 0 0 0 0 0 0 0 0 0 0 0 0 0 0 0 0 0 0 0 0 0 0 0 0 0 0 0 0 0 0 0 0 0 0 0 0 0 0 0 0 0 0 0 0 0 0 0 0 0 0 0 0 0 0 0 0 0 0 0 0 0 0 0 0 0 0 0 0 0 0 0 0 0 0 0 0 0 0 0 0 0 0 0 0 0 0 0 0 0 0 0 0 0 0 0 0 0 0 0 0 0 0 0 0 0 0 0 0 0 0 0 0 0 0 0 0 0 0 0 0 0 0 0 0 0 0 0 0 0 0 0 0 0 0 0 0 0 0 0 0 0 0 0 0 0 0 0 0 0 0 0 0 0 0 0 0 0 0 0 0 0 0 0 0 0 0 0 0 0 0 0 0 0 0 0 0 0 0 0 0 0 0 0 0 0 0 0 0 0 0 0 0 0 0 0 0 0 0 0 0 0 0 0 0 0 0 0 0 0 0 0 0 0 0 0 0 0 0 0 0 0 0 0 0 0 0 0 0 0 0 0 0 0 0 0 0 0 0 0 0 0 0 0 0 0 0 0 0 0 0 0 0 0 0 0 0 0 0 0 0 0 0 0 0 0 0 0 0 0 0 0 0 0 0 0 0 0 0 0 0 0 0 0 0 0 0 0 0 0 0 0 0 0 0 0 0 0 0 0 0 0 0 0 0 0 0 0 0 0 0 0 0 0 0 0 0 0 0 0 0 0 0 0 0 0 0 0 0 0 0 0 0 0 0 0 0 0 0 0 0 0 0 0 0 0 0 0 0 0 0 0 0 0 0 0 0 0 0 0 0 0 0 0 0 0 0 0 0 0 0 0 0 0 0 0 0 0 0 0 0 0 0 0 0 0 0 0 0 0 0 0 0 0 0 0 0 0 0 0 0 0 0 0 0 0 0 0 0 0 0 0 0 0 0 0 0 0 0 0 0 0 0 0 0 0 0 0 0 0 0 0 0 0 0 0 0 0 0 0 0 0 0 0 0 0 0 0 0 0 0 0 0 0 0 0 0 0 0 0 0 0 0 0 0 0 0 0 0 0 0 0 0 0 0 0 0 0 0 0 0 0 0 0 0 0 0 0 0 0 0 0 0 0 0 0 0 0 0 0 0 0 0 0 0 0 0 0 0 0 0 0 0 0 0 0 0 0 0 0 0 0 0 0 0 0 0 0 0 0 0 0 0 0 0 0 0 0 0 0 0 0 0 0 0 0 0 0 0 0 0 0 0 0 0 0 0 0 0 0 0 0 0 0 0 0 0 0 0 0 0 0 0 0 0 0 0 0 0 0 0 0 0 0 0 0 0 0 0 0 0 0 0 0 0 0 0 0 0 0 0 0 0 0 0 0 0 0 0 0 0 0 0 0 0 0 0 0 0 0 0 0 0 0 0 0 0 0 0 0 0 0 0 0 0 0 0 0 0 0 0 0 0 0 0 0 0 0 0 0 0 0 0 0 0 0 0 0 0 0 0 0 0 0 0 0 0 0 0 0 0 0 0 0 0 0 0 0 0 0 0 0 0 0 0 0 0 0 0 0 0 0 0 0 0 0 0 0 0 0 0 0 0 0 0 0 0 0 0 0 0 0 0 0 0 0 0 0 0 0 0 0 0 0 0 0 0 0 0 0 0 0 0 0 0 0 0 0 0 0 0 0 0 0 0 0 0 0 0 0 0 0 0 0 0 0 0 0 0 0 0 0 0 0 0 0 0 0 0 0 0 0 0 0 0 0 0 0 0 0 0 0 0 0 0 0 0 0 0 0 0 0 0 0 0 0 0 0 0 0 0 0 0 0 0 0 0 0 0 0 0 0 0 0 0 0 0 0 0 0 0 0 0 0 0 0 0 0 0 0 0 0 0 0 0 0 0 0 0 0 0 0 0 0 0 0 0 0 0 0 0 0 0 0 0 0 0 0 0 0 0 0 0 0 0 0 0 0 0 0 0 0 0 0 0 0 0 0 0 0 0 0 0 0 0 0 0 0 0 0 0 0 0 0 0 0 0 0 0 0 0 0 0 0 0 0 0 0 0 0 0 0 0 0 0 0 0 0 0 0 0 0 0 0 0 0 0 0 0 0 0 0 0 0 0 0 0 0 0 0 0 0 0 0 0 0 0 0 0 0 0 0 0 0 0 0 0 0 0 0 0 0 0 0 0 0 0 0 0 0 0 0 0 0 0 0 0 0 0 0 0 0 0 0 0 0 0 0 0 0 0 0 0 0 0 0 0 0 0 0 0 0 0 0 0 0 0 0 0 0 0 0 0 0 0 0 0 0 0 0 0 0 0 0 0 0 0 0 0 0 0 0 0 0 0 0 0 0 0 0 0 0 0 0 0 0 0 0 0 0 0 0 0 0 0 0 0 0 0 0 0 0 0 0 0 0 0 0 0 0 0 0 0 0 0 0 0 0 0 0 0 0 0 0 0 0 0 0 0 0 0 0 0 0 0 0 0 0 0 0 0 0 0 0 0 0 0 0 0 0 0 0 0 0 0 0 0 0 0 0 0 0 0 0 0 0 0 0 0 0 0 0 0 0 0 0 0 0 0 0 0 0 0 0 0 0 0 0 0 0 0 0 0 0 0 0 0 0 0 0 0 0 0 0 0 0 0 0 0 0 0 0 0 0 0 0 0 0 0 0 0 0 0 0 0 0 0 0 0 0 0 0 0 0 0 0 0 0 0 0 0 0 0 0 0 0 0 0 0 0 0 0 0 0 0 0 0 0 0 0 0 0 0 0 0 0 0 0 0 0 0 0 0 0 0 0 0 0 0 0 0 0 0 0 0 0 0 0 0 0 0 0 0 0 0 0 0 0 0 0 0 0 0 0 0 0 0 0 0 0 0 0 0 0 0 0 0 0 0 0 0 0 0 0 0 0 0 0 0 0 0 0 0 0 0 0 0 0 0 0 0 0 0 0 0 0 0 0 0 0 0 0 0 0 0 0 0 0 0 0 0 0 0 0 0 0 0 0 0 0 0 0 0 0 0 0 0 0 0 0 0 0 0 0 0 0 0 0 0 0 0 0 0 0 0 0 0 0 0 0 0 0 0 0 0 0 0 0 0 0 0 0 0 0 0 0 0 0 0 0 0 0 0 0 0 0 0 0 0 0 0 0 0 0 0 0 0 0 0 0 0 0 0 0 0 0 0 0 0 0 0 0 0 0 0 0 0 0 0 0 0 0 0 0 0 0 0 0 0 0 0 0 0 0 0 0 0 0 0 0 0 0 0 0 0 0 0 0 0 0 0 0 0 0 0 0 0 0 0 0 0 0 0 0 0 0 0 0 0 0 0 0 0 0 0 0 0 0 0 0 0 0 0 0 0 0 0 0 0 0 0 0 0 0 0 0 0 0 0 0 0 0 0 0 0 0 0 0 0 0 0 0 0 0 0 0 0 0 0 0 0 0 0 0 0 0 0 0 0 0 0 0 0 0 0 0 0 0 0 0 0 0 0 0 0 0 0 0 0 0 0 0 0 0 0 0 0 0 0 0 0 0 0 0 0 0 0 0 0 0 0 0 0 0 0 0 0 0 0 0 0 0 0 0 0 0 0 0 0 0 0 0 0 0 0 0 0 0 0 0 0 0 0 0 0 0 0 0 0 0 0 0 0 0 0 0 0 0 0 0 0 0 0 0 0 0 0 0 0 0 0 0 0 0 0 0 0 0 0 0 0 0 0 0 0 0 0 0 0 0 0 0 0 0 0 0 0 0 0 0 0 0 0 0 0 0 0 0 0 0 0 0 0 0 0 0 0 0 0 0 0 0 0 0 0 0 0 0 0 0 0 0 0 0 0 0 0 0 0 0 0 0 0 0 0 0 0 0 0 0 0 0 0 0 0 0 0 0 0 0 0 0 0 0 0 0 0 0 0 0 0 0 0 0 0 0 0 0 0 0 0 0 0 0 0 0 0 0 0 0 0 0 0 0 0 0 0 0 0 0 0 0 0 0 0 0 0 0 0 0 0 0 0 0 0 0 0 0 0 0 0 0 0 0 0 0 0 0 0 0 0 0 0 0 0 0 0 0 0 0 0 0 0 0 0 0 0 0 0 0 0 0 0 0 0 0 0 0 0 0 0 0 0 0 0 0 0 0 0 0 0 0 0 0 0 0 0 0 0 0 0 0 0 0 0 0 0 0 0 0 0 0 0 0 0 0 0 0 0 0 0 0 0 0 0 0 0 0 0 0 0 0 0 0 0 0 0 0 0 0 0 0 0 0 0 0 0 0 0 0 0 0 0 0 0 0 0 0 0 0 0 0 0 0 0 0 0 0 0 0 0 0 0 0 0 0 0 0 0 0 0 0 0 0 0 0 0 0 0 0 0 0 0 0 0 0 0 0 0 0 0 0 0 0 0 0 0 0 0 0 0 0 0 0 0 0 0 0 0 0 0 0 0 0 0 0 0 0 0 0 0 0 0 0 0 0 0 0 0 0 0 0 0 0 0 0 0 0 0 0 0 0 0 0 0 0 0 0 0 0 0 0 0 0 0 0 0 0 0 0 0 0 0 0 0 0 0 0 0 0 0 0 0 0 0 0 0 0 0 0 0 0 0 0 0 0 0 0 0 0 0 0 0 0 0 0 0 0 0 0 0 0 0 0 0 0 0 0 0 0 0 0 0 0 0 0 0 0 0 0 0 0 0 0 0 0 0 0 0 0 0 0 0 0 0 0 0 0 0 0 0 0 0 0 0 0 0 0 0 0 0 0 0 0 0 0 0 0 0 0 0 0 0 0 0 0 0 0 0 0 0 0 0 0 0 0 0 0 0 0 0 0 0 0 0 0 0 0 0 0 0 0 0 0 0 0 0 0 0 0 0 0 0 0 0 0 0 0 0 0 0 0 0 0 0 0 0 0 0 0 0 0 0 0 0 0 0 0 0 0 0 0 0 0 0 0 0 0 0 0 0 0 0 0 0 0 0 0 0 0 0 0 0 0 0 0 0 0 0 0 0 0 0 0 0 0 0 0 0 0 0 0 0 0 0 0 0 0 0 0 0 0 0 0 0 0 0 0 0 0 0 0 0 0 0 0 0 0 0 0 0 0 0 0 0 0 0 0 0 0 0 0 0 0 0 0 0 0 0 0 0 0 0 0 0 0 0 0 0 0 0 0 0 0 0 0 0 0 0 0 0 0 0 0 0 0 0 0 0 0 0 0 0 0 0 0 0 0 0 0 0 0 0 0 0 0 0 0 0 0 0 0 0 0 0 0 0 0 0 0 0 0 0 0 0 0 0 0 0 0 0 0 0 0 0 0 0 0 0 0 0 0 0 0 0 0 0 0 0 0 0 0 0 0 0 0 0 0 0 0 0 0 0 0 0 0 0 0 0 0 0 0 0 0 0 0 0 0 0 0 0 0 0 0 0 0 0 0 0 0 0 0 0 0 0 0 0 0 0 0 0 0 0 0 0 0 0 0 0 0 0 0 0 0 0 0 0 0 0 0 0 0 0 0 0 0 0 0 0 0 0 0 0 0 0 0 0 0 0 0 0 0 0 0 0 0 0 0 0 0 0 0 0 0 0 0 0 0 0 0 0 0 0 0 0 0 0 0 0 0 0 0 0 0 0 0 0 0 0 0 0 0 0 0 0 0 0 0 0 0 0 0 0 0 0 0 0 0 0 0 0 0 0 0 0 0 0 0 0 0 0 0 0 0 0 0 0 0 0 0 0 0 0 0 0 0 0 0 0 0 0 0 0 0 0 0 0 0 0 0 0 0 0 0 0 0 0 0 0 0 0 0 0 0 0 0 0 0 0 0 0 0 0 0 0 0 0 0 0 0 0 0 0 0 0 0 0 0 0 0 0 0 0 0 0 0 0 0 0 0 0 0 0 0 0 0 0 0 0 0 0 0 0 0 0 0 0 0 0 0 0 0 0 0 0 0 0 0 0 0 0 0 0 0 0 0 0 0 0 0 0 0 0 0 0 0 0 0 0 0 0 0 0 0 0 0 0 0 0 0 0 0 0 0 0 0 0 0 0 0 0 0 0 0 0 0 0 0 0 0 0 0 0 0 0 0 0 0 0 0 0 0 0 0 0 0 0 0 0 0 0 0 0 0 0 0 0 0 0 0 0 0 0 0 0 0 0 0 0 0 0 0 0 0 0 0 0 0 0 0 0 0 0 0 0 0 0 0 0 0 0 0 0 0 0 0 0 0 0 0 0 0 0 0 0 0 0 0 0 0 0 0 0 0 0 0 0 0 0 0 0 0 0 0 0 0 0 0 0 0 0 0 0 0 0 0 0 0 0 0 0 0 0 0 0 0 0 0 0 0 0 
</DataArray>
</PointData>
</Piece>
</UnstructuredGrid>
</VTKFile>
