<?xml version="1.0"?>
<VTKFile type="UnstructuredGrid" version="0.1" byte_order="LittleEndian">
<UnstructuredGrid>
<Piece NumberOfPoints="2400" NumberOfCells="800">
<Points>
<DataArray type="Float64" NumberOfComponents="3" format="ascii">
0.050000000000000037 0 0 0 0.049999999999899652 0 0 0 0 0.050000000000000037 0 0 0.050000000000000037 0.049999999999899652 0 0 0.049999999999899652 0 0.099999999999999978 0 0 0.050000000000000037 0.049999999999899652 0 0.050000000000000037 0 0 0.14999999999999999 0 0 0.099999999999999978 0.049999999999899652 0 0.099999999999999978 0 0 0.099999999999999978 0 0 0.099999999999999978 0.049999999999899652 0 0.050000000000000037 0.049999999999899652 0 0.099999999999999978 0.049999999999899652 0 0.099999999999999978 0.099999999999814668 0 0.050000000000000037 0.099999999999814668 0 0.099999999999999978 0.049999999999899652 0 0.050000000000000037 0.099999999999814668 0 0.050000000000000037 0.049999999999899652 0 0.14999999999999999 0.049999999999899652 0 0.099999999999999978 0.099999999999814668 0 0.099999999999999978 0.049999999999899652 0 0.14999999999999999 0.099999999999814668 0 0.099999999999999978 0.14999999999970359 0 0.099999999999999978 0.099999999999814668 0 0.099999999999999978 0.099999999999814668 0 0.050000000000000037 0.14999999999970359 0 0.050000000000000037 0.099999999999814668 0 0.050000000000000037 0.049999999999899652 0 0.050000000000000037 0.099999999999814668 0 0 0.099999999999814668 0 0.050000000000000037 0.049999999999899652 0 0 0.099999999999814668 0 0 0.049999999999899652 0 0.050000000000000037 0.099999999999814668 0 0 0.14999999999970359 0 0 0.099999999999814668 0 0.050000000000000037 0.099999999999814668 0 0.050000000000000037 0.14999999999970359 0 0 0.14999999999970359 0 0.050000000000000037 0.14999999999970359 0 0.050000000000000037 0.19999999999955789 0 0 0.19999999999955789 0 0.050000000000000037 0.14999999999970359 0 0 0.19999999999955789 0 0 0.14999999999970359 0 0.050000000000000037 0.19999999999955789 0 0 0.24999999999941211 0 0 0.19999999999955789 0 0.050000000000000037 0.19999999999955789 0 0.050000000000000037 0.24999999999941211 0 0 0.24999999999941211 0 0.099999999999999978 0.19999999999955789 0 0.050000000000000037 0.24999999999941211 0 0.050000000000000037 0.19999999999955789 0 0.099999999999999978 0.19999999999955789 0 0.099999999999999978 0.24999999999941211 0 0.050000000000000037 0.24999999999941211 0 0.14999999999999999 0.19999999999955789 0 0.099999999999999978 0.24999999999941211 0 0.099999999999999978 0.19999999999955789 0 0.14999999999999999 0.14999999999970359 0 0.099999999999999978 0.19999999999955789 0 0.099999999999999978 0.14999999999970359 0 0.099999999999999978 0.14999999999970359 0 0.099999999999999978 0.19999999999955789 0 0.050000000000000037 0.19999999999955789 0 0.099999999999999978 0.14999999999970359 0 0.050000000000000037 0.19999999999955789 0 0.050000000000000037 0.14999999999970359 0 0.099999999999999978 0.099999999999814668 0 0.099999999999999978 0.14999999999970359 0 0.050000000000000037 0.14999999999970359 0 0.14999999999999999 0.099999999999814668 0 0.14999999999999999 0.14999999999970359 0 0.099999999999999978 0.14999999999970359 0 0.20000000000000001 0.099999999999814668 0 0.20000000000000001 0.14999999999970359 0 0.14999999999999999 0.14999999999970359 0 0.20000000000000001 0.14999999999970359 0 0.20000000000000001 0.19999999999955789 0 0.14999999999999999 0.19999999999955789 0 0.20000000000000001 0.14999999999970359 0 0.14999999999999999 0.19999999999955789 0 0.14999999999999999 0.14999999999970359 0 0.14999999999999999 0.14999999999970359 0 0.14999999999999999 0.19999999999955789 0 0.099999999999999978 0.19999999999955789 0 0.14999999999999999 0.19999999999955789 0 0.14999999999999999 0.24999999999941211 0 0.099999999999999978 0.24999999999941211 0 0.20000000000000001 0.19999999999955789 0 0.20000000000000001 0.24999999999941211 0 0.14999999999999999 0.24999999999941211 0 0.20000000000000001 0.19999999999955789 0 0.14999999999999999 0.24999999999941211 0 0.14999999999999999 0.19999999999955789 0 0.25 0.19999999999955789 0 0.20000000000000001 0.24999999999941211 0 0.20000000000000001 0.19999999999955789 0 0.25 0.19999999999955789 0 0.25 0.24999999999941211 0 0.20000000000000001 0.24999999999941211 0 0.25 0.14999999999970359 0 0.25 0.19999999999955789 0 0.20000000000000001 0.19999999999955789 0 0.25 0.14999999999970359 0 0.20000000000000001 0.19999999999955789 0 0.20000000000000001 0.14999999999970359 0 0.25 0.099999999999814668 0 0.25 0.14999999999970359 0 0.20000000000000001 0.14999999999970359 0 0.25 0.049999999999899652 0 0.25 0.099999999999814668 0 0.20000000000000001 0.099999999999814668 0 0.25 0.049999999999899652 0 0.20000000000000001 0.099999999999814668 0 0.20000000000000001 0.049999999999899652 0 0.25 0.099999999999814668 0 0.20000000000000001 0.14999999999970359 0 0.20000000000000001 0.099999999999814668 0 0.20000000000000001 0.099999999999814668 0 0.14999999999999999 0.14999999999970359 0 0.14999999999999999 0.099999999999814668 0 0.14999999999999999 0.049999999999899652 0 0.14999999999999999 0.099999999999814668 0 0.099999999999999978 0.099999999999814668 0 0.20000000000000001 0.049999999999899652 0 0.14999999999999999 0.099999999999814668 0 0.14999999999999999 0.049999999999899652 0 0.20000000000000001 0.049999999999899652 0 0.20000000000000001 0.099999999999814668 0 0.14999999999999999 0.099999999999814668 0 0.20000000000000001 0 0 0.20000000000000001 0.049999999999899652 0 0.14999999999999999 0.049999999999899652 0 0.14999999999999999 0 0 0.14999999999999999 0.049999999999899652 0 0.099999999999999978 0.049999999999899652 0 0.20000000000000001 0 0 0.14999999999999999 0.049999999999899652 0 0.14999999999999999 0 0 0.25 0 0 0.20000000000000001 0.049999999999899652 0 0.20000000000000001 0 0 0.25 0 0 0.25 0.049999999999899652 0 0.20000000000000001 0.049999999999899652 0 0.29999999999999999 0 0 0.25 0.049999999999899652 0 0.25 0 0 0.29999999999999999 0 0 0.29999999999999999 0.049999999999899652 0 0.25 0.049999999999899652 0 0.29999999999999999 0.049999999999899652 0 0.25 0.099999999999814668 0 0.25 0.049999999999899652 0 0.29999999999999999 0.099999999999814668 0 0.25 0.14999999999970359 0 0.25 0.099999999999814668 0 0.29999999999999999 0.049999999999899652 0 0.29999999999999999 0.099999999999814668 0 0.25 0.099999999999814668 0 0.34999999999999998 0.049999999999899652 0 0.29999999999999999 0.099999999999814668 0 0.29999999999999999 0.049999999999899652 0 0.34999999999999998 0.049999999999899652 0 0.34999999999999998 0.099999999999814668 0 0.29999999999999999 0.099999999999814668 0 0.34999999999999998 0.099999999999814668 0 0.29999999999999999 0.14999999999970359 0 0.29999999999999999 0.099999999999814668 0 0.40000000000000002 0.099999999999814668 0 0.34999999999999998 0.14999999999970359 0 0.34999999999999998 0.099999999999814668 0 0.40000000000000002 0.049999999999899652 0 0.34999999999999998 0.099999999999814668 0 0.34999999999999998 0.049999999999899652 0 0.34999999999999998 0 0 0.34999999999999998 0.049999999999899652 0 0.29999999999999999 0.049999999999899652 0 0.34999999999999998 0 0 0.29999999999999999 0.049999999999899652 0 0.29999999999999999 0 0 0.40000000000000002 0 0 0.34999999999999998 0.049999999999899652 0 0.34999999999999998 0 0 0.40000000000000002 0 0 0.40000000000000002 0.049999999999899652 0 0.34999999999999998 0.049999999999899652 0 0.45000000000000001 0 0 0.45000000000000001 0.049999999999899652 0 0.40000000000000002 0.049999999999899652 0 0.45000000000000001 0 0 0.40000000000000002 0.049999999999899652 0 0.40000000000000002 0 0 0.5 0 0 0.45000000000000001 0.049999999999899652 0 0.45000000000000001 0 0 0.5 0 0 0.5 0.049999999999899652 0 0.45000000000000001 0.049999999999899652 0 0.5 0.049999999999899652 0 0.45000000000000001 0.099999999999814668 0 0.45000000000000001 0.049999999999899652 0 0.5 0.049999999999899652 0 0.5 0.099999999999814668 0 0.45000000000000001 0.099999999999814668 0 0.5 0.099999999999814668 0 0.45000000000000001 0.14999999999970359 0 0.45000000000000001 0.099999999999814668 0 0.45000000000000001 0.099999999999814668 0 0.40000000000000002 0.14999999999970359 0 0.40000000000000002 0.099999999999814668 0 0.45000000000000001 0.049999999999899652 0 0.40000000000000002 0.099999999999814668 0 0.40000000000000002 0.049999999999899652 0 0.45000000000000001 0.049999999999899652 0 0.45000000000000001 0.099999999999814668 0 0.40000000000000002 0.099999999999814668 0 0.40000000000000002 0.049999999999899652 0 0.40000000000000002 0.099999999999814668 0 0.34999999999999998 0.099999999999814668 0 0.40000000000000002 0.099999999999814668 0 0.40000000000000002 0.14999999999970359 0 0.34999999999999998 0.14999999999970359 0 0.40000000000000002 0.14999999999970359 0 0.40000000000000002 0.19999999999955789 0 0.34999999999999998 0.19999999999955789 0 0.45000000000000001 0.14999999999970359 0 0.45000000000000001 0.19999999999955789 0 0.40000000000000002 0.19999999999955789 0 0.45000000000000001 0.14999999999970359 0 0.40000000000000002 0.19999999999955789 0 0.40000000000000002 0.14999999999970359 0 0.45000000000000001 0.099999999999814668 0 0.45000000000000001 0.14999999999970359 0 0.40000000000000002 0.14999999999970359 0 0.5 0.099999999999814668 0 0.5 0.14999999999970359 0 0.45000000000000001 0.14999999999970359 0 0.5 0.14999999999970359 0 0.5 0.19999999999955789 0 0.45000000000000001 0.19999999999955789 0 0.5 0.14999999999970359 0 0.45000000000000001 0.19999999999955789 0 0.45000000000000001 0.14999999999970359 0 0.5 0.19999999999955789 0 0.45000000000000001 0.24999999999941211 0 0.45000000000000001 0.19999999999955789 0 0.5 0.19999999999955789 0 0.5 0.24999999999941211 0 0.45000000000000001 0.24999999999941211 0 0.45000000000000001 0.19999999999955789 0 0.45000000000000001 0.24999999999941211 0 0.40000000000000002 0.24999999999941211 0 0.45000000000000001 0.19999999999955789 0 0.40000000000000002 0.24999999999941211 0 0.40000000000000002 0.19999999999955789 0 0.40000000000000
[...]
<PointData Scalars="tracer_conc," Vectors="" Tensors="">
<DataArray type="Float64" Name="tracer_conc" format="ascii">
5.5370317865270788 4.5619703107144511 5.0484478243462227 5.4997853424687069 5.051493208680351 4.5992988503387053 5.9399883871932229 5.0331896861034027 5.5151364390321769 6.2860776173442625 5.4388328783714872 5.9204625671938125 5.9052277829215924 5.4564183537605562 5.0669313254544646 5.4406103855923407 5.060893549163719 4.6708702533052247 5.4725255003137923 4.6389234997106561 5.0514155972333157 5.8187379405190365 5.0445304191314122 5.4566690134681997 5.4226507309430287 4.7148162633899826 5.0608023758627159 5.0764053942964695 4.3091664856998433 4.6555286668501044 5.0350919493920436 4.6559462089331944 4.2032989184308613 5.0690325810068977 4.1682443575322967 4.584735164439893 4.6728517512962551 3.8385436031041249 4.1887798114971231 4.6399176361264356 4.3255010281604109 3.8726139245103499 4.3105949656879536 4.0558858200429171 3.6026999866972536 4.3421021467394896 3.5701579980726286 3.8583822531944727 4.0720978257027607 3.3569595168820237 3.5887577739331857 4.0421727217902639 3.8413498570388893 3.387827541675827 4.4759172859739111 3.8272475534752157 4.0556628996819262 4.4477998772227174 4.2465062773858291 3.8553961085936619 4.8222700918710872 4.2329852233664251 4.461006223204266 5.092077913566559 4.4463058346706701 4.7305082050069069 4.7161747734923116 4.4609597033804436 4.0702718236424111 4.7457840593000205 4.0406162899690408 4.3252042422249151 5.0454604437281301 4.7305031053355657 4.3401939328493775 5.3929400784316242 5.0776970882180388 4.7445732972877641 5.6885820712806687 5.3729572622123767 5.0902706634114141 5.3594522502268429 5.103594259067572 4.8204529024899063 5.3859493084603098 4.7938868525902851 5.0775512278284181 5.0637137552687355 4.8082222732592532 4.4746871313233498 4.7954105448555362 4.5938473521562653 4.2598544680533132 5.0912654377598052 4.8893438793031372 4.6056959450670067 5.116252204674872 4.580647242749663 4.8081182717870856 5.3662324478236059 4.8766078006806826 5.1033863192135716 5.3434644260989339 5.1411549646138566 4.8994713516293009 5.6114702860438168 5.3552138083829179 5.1141090165920842 5.6357588442713764 5.0897185629099759 5.3727079591018914 5.9404511092268946 5.6244036881605277 5.3838169576398327 6.3353791850776373 5.9545051459785165 5.7143152376733743 6.3620259696108938 5.6875685933990061 6.0986250177120143 5.9660984221971471 5.3580392448283565 5.7028561594346083 5.71642961192752 5.0623251573528467 5.4077895682540129 5.788044123365081 5.4080308582058816 5.0752209370867059 6.1124517573842461 5.3919669103589101 5.8036179475714178 6.0836148880791727 5.7031990153422729 5.4208609122046276 6.5481474484291686 6.0987038527268744 5.8168604665654771 6.2526361783238524 5.803549933988327 5.4712589173286164 6.5795231507437437 5.7863564039519328 6.267483607576235 6.828784715552497 6.0820341732504417 6.5625710569329572 6.7998383153017814 6.3499740643779559 6.1102559835079839 7.0431819719506255 6.3339205458028287 6.8138117874391257 7.0168860077815731 6.5665710398871573 6.3596393031107805 6.5767748788934135 5.9394014632203813 6.3497799033681401 6.1809877152831225 5.610039177520779 5.9540986095217106 6.5525188240942205 6.1711779550080399 5.9637847798416814 6.7666337299789898 6.1566624682631783 6.5662869209982242 6.7448635454677088 6.3630984869909293 6.1785743843019931 6.3710611169704574 5.827548457998958 6.170737140571541 6.5465581793162579 6.0204674071586437 6.3626441769921902 6.9417982576577275 6.3492079286536161 6.7579917457932517 7.2091088524557598 6.7583465301909929 6.574297206692246 7.2326506916745457 6.5511886088381557 7.0304003349381334 7.407378613818504 6.7436590695285847 7.222169391323404 7.3866041021784188 6.9354320740730602 6.76413791468193 7.5594725407387662 7.1079683570895984 6.9393410531406623 7.577543524819375 6.9214382566596413 7.3992301929533815 7.753088881242328 7.0946438448762574 7.5717014964784299 7.7375712687324683 7.2858668709933836 7.1101043387965754 7.2886070423267224 6.7008243540657686 7.1075207715977413 7.2741113511183482 6.8920289443670733 6.7154266407321321 6.8946890411638231 6.3735198639074149 6.712977637533136 6.7177417008198512 6.1990235784724836 6.5399891673506731 7.1124644734959785 6.5271963899412393 6.9350223612250472 7.095644691519758 6.7134146131997108 6.5441506549862201 6.9225291040745356 6.5404419166427248 6.3686216244677629 6.5283574356694674 6.2113893321568261 6.0388070060375929 6.2005004282100842 5.9435087772146309 5.7699293684033091 6.3750202844516064 6.1182380993470122 5.9465831385204737 6.3892363313352813 5.932273503060367 6.2110203588104644 6.7020373380245726 6.3851451994304673 6.2148443365112049 6.8813801822225695 6.564969957147726 6.3869054872207389 6.5556606465855092 6.29955792628511 6.1195916150000507 6.5673935365911333 6.1078004041603577 6.3847880400499362 6.301569106253643 5.8974725564984638 6.1179130305488085 6.2915964434576974 6.0895966559912464 5.9075142703984627 6.1093991321343069 5.9066692881525231 5.7334989382215129 6.1219493059607268 5.7208516019207556 5.9431753795734288 5.9338635682566379 5.7308844228234115 5.5561859929910833 5.7546293548391541 5.5517113740487316 5.3649787237043656 5.7724033491660967 5.3470865725698093 5.5720549244450721 5.9490282418347942 5.540908611142827 5.7646966236482671 6.2172690661590666 5.7530472051407306 6.0331717067770319 6.3503275911296999 6.0335391690282858 5.8484305426333787 6.0219271158152248 5.7650261415423554 5.5791524180958127 6.0412646113272421 5.5596932179049263 5.8409388258417367 5.8289940520902093 5.572366839531063 5.3638883818017735 6.1577463792919866 5.841290288945002 5.6334268233968876 5.8508623528454882 5.3419016040146294 5.6240886845607747 5.5815980209130656 5.1289897292092794 5.3549394373281203 5.5612669785427249 5.358601642163408 5.1494339783083571 5.367433378370138 4.9651363051960509 5.1408739362239366 5.3486350728482179 5.1939219242309544 4.9840624745918412 5.2023407689468097 4.844537859714598 4.9758561424061556 5.080629716883557 4.7622404059705978 4.8541934037264136 5.1849284592450999 5.0725977786363101 4.8621082960942754 5.3792023061722194 5.2665508072927967 5.0781697849378284 5.3940069708207572 5.0631972543306354 5.1935554571071583 5.2726708177728687 4.9811061236725926 5.0721553215295359 5.4511774106357107 5.1760897047310506 5.2660868124036684 5.5719465816441573 5.2578726954584418 5.3870899706537374 5.5424595768613756 5.3874769597954097 5.1998814896866739 5.5586743667069207 5.1835316182257341 5.3582819898950769 5.7359665832983699 5.377808237641001 5.5513725512084404 5.7224012429962476 5.5673281189968158 5.3915067164100057 5.899016474026852 5.7441420917301347 5.5694561895421435 5.9099071024752838 5.5584425422759649 5.730539451175428 6.0910778299379862 5.7361106071271442 5.9063293881427157 6.082854226204943 5.9286228091723165 5.7444375285630702 5.9295223215784221 5.6176822403363813 5.7437494120001409 5.9228744127690378 5.8105611620493134 5.6244841369831482 5.8108871801027639 5.5370495941920757 5.6242510128174219 5.6269547320509492 5.3577875632023 5.4465302030407274 5.7374777799365786 5.6247240412200314 5.4486659828820212 5.7468693965395996 5.4391090858798714 5.5669330607556864 5.5598273415062973 5.4470036799606136 5.2701616572484751 5.4402378226671519 5.3649199223365658 5.1872465285816611 5.3585999107647888 5.3172859330261817 5.1390347574986404 5.5451364686369207 5.3106406335659155 5.3643493328494376 5.5378304695469796 5.4961643698333269 5.3182234466019773 5.6187847795652148 5.5433468553702454 5.3661756932039033 5.8055204001275804 5.7302332904909976 5.542630906713141 5.7255801582187509 5.6837168674354857 5.4950655222970122 5.7300424449480696 5.4903234818977626 5.5427756258832988 5.6831018541850282 5.4750888954902992 5.495485221948825 5.6791180075073955 5.6685739874042866 5.4794184909925567 5.4907508846213515 5.4807833642135506 5.3024697568667003 5.4975997944346187 5.2952835513666745 5.3166076816385006 5.3111020366503388 5.301741894441049 5.1232081406638414 5.1291414900787551 5.120400137386075 4.9307070930340959 5.1415508795847833 4.9179820804589731 4.9409374994501203 5.3207653288577781 5.113217352428177 5.1353885404448221 5.3687047404068755 5.1286588427415145 5.1834342904534543 5.2590167073360901 5.1839945721492686 4.99497189750746 5.176921254495241 5.1360562618810981 4.9465854732591206 5.1897611359500884 4.9334834662176377 4.9891883535865178 4.9819473487627821 4.9415828926957648 4.730215739010605 5.0643481426956622 4.9897264869885918 4.7787213776853479 4.9974288565730882 4.7144867162911899 4.7710161347816156 4.9490360292474165 4.6989404089664033 4.7226254741608056 4.9339773161631806 4.9258481854413416 4.7142981009436289 4.7149825938957601 4.7074378370084311 4.4637491662817439 4.7325395778521493 4.4459186746749326 4.4702755068094735 4.461989893121042 4.4549741475507751 4.1695655847610773 4.1656011778708937 4.159025290261642 3.8234307547889546 4.4818054593654502 4.1495151973303877 4.1744705132798066 4.5304104795261795 4.1651306920922462 4.2230299349158678 4.5101809716955836 4.4708112002090186 4.1855458669065264 4.2138589255459777 4.1749005889492592 3.8394409110322583 4.2966980819775573 4.2233530996727868 3.8881406283185878 4.592924516075608 4.5191925242563595 4.2341971476406437 4.7810570696538726 4.461501528375682 4.5187638279042908 4.763082573713076 4.7232299824559911 4.4796994558820886 4.8456877593296834 4.7715135268407334 4.5282889208825789 4.8644527159415807 4.5093470581498289 4.6020833631154359 4.9864118224193099 4.5917841683804737 4.7239207505029075 4.9665294095962178 4.8545955666545826 4.6118039085228544 5.1305310783013285 4.9761830399466556 4.7339194324180909 5.1517835516594888 4.7125582363730771 4.8891300289760586 4.8781356027966707 4.724179804916159 4.4400250394120233 4.9016176789818999 4.4164687658130042 4.5937379604154103 4.5821533353432358 4.4285566226982809 4.0941057725594634 4.4178301630154762 4.3066762876027163 3.9718080236888724 4.7360622941321262 4.2955769424106807 4.4284024921212337 4.7139399859364071 4.6024171622733547 4.3178009806404614 4.6139380900379301 4.2130433759701944 4.3064477814903261 4.3196030205642506 3.8651497287357306 3.9590949376326563 3.9730445973489052 3.4592529074383931 3.5535926359627883 4.0700562031985639 3.9591726493926394 3.5672520359812201 4.0953480932457849 3.5419057043808935 3.6756829536299964 4.4418381857161657 3.9477517580369326 4.0811292149160003 4.6075146774794211 4.0687230315248391 4.2465472246822307 4.2610950111666073 3.6629316246352905 3.8411554551066542 4.2344623529047354 4.0811329021349723 3.6895992644402802 3.8287774392398841 3.6758891840506549 3.2220271249688142 3.8571344372477347 3.192804659069973 3.3741600941166374 3.6912529467959581 3.0719171533071932 3.2085977141801787 3.6643073771508576 3.5538443139296549 3.0996700528424777 3.568831609659485 2.9893703197221302 3.0864253860889632 3.485059544263001 2.9414298960597942 3.0028167580357041 3.4600654601035203 3.4218076419928867 2.967182817436294 3.54303210719327 3.4703755733160802 3.0159411751379985 3.9488454314075163 3.8757789855856357 3.483537931892946 4.2359840741579662 3.8171850709042703 3.8756071456197527 3.8659385063341349 3.8272710749875363 3.4347978533332553 3.8893651781737177 3.411245364190957 3.4700519119464759 3.8406483017786872 3.3955659881092668 3.4213919529872485 4.1873149113313852 3.8015378389628602 3.8269929744492934 3.8176293307946718 3.8113594650040956 3.4187563218754113 3.411705753673925 3.4058549503501645 2.9511207422908936 3.4362813698377961 2.9257751735482631 2.9541075992418073 3.4202236951345344 2.9416199341567082 2.9380210905049959 3.3956575619500113 3.4217466650285093 2.9669900024549887 3.4361212763335676 2.9897498795418751 2.9537934023386971 3.4847573202625686 3.0724827648132691 3.0022141953267494 3.411155009905626 3.4702663110212373 3.0155751883358928 3.8171405797358937 3.8757888360229988 3.4832547082095524 3.8405042198372796 3.459622145820874 3.4211096249102355 3.8890946689627119 3.5424574886089477 3.4695114846733355 4.2358018859926743 3.9484504245361225 3.8751820809289383 4.1872158598753213 3.8656206236340811 3.8267697370195921 3.8016192942347278 3.8272710956515672 3.4346473719315216 3.8246168455750356 3.4114299181173431 3.4053329640492498 4.1713149520503299 3.8174215292154625 3.8109695904147451 4.1496225412462442 4.1749519980614282 3.839342610938886 4.4460437999210258 4.4709035850956127 4.1854871216869771 4.4658374634280973 4.1654086131933772 4.1584827154158726 4.7166074608091462 4.4618081207953768 4.4543260274123346 4.6990728665564179 4.7233558986335353 4.4796669704051819 4.7324876462466694 4.5099556614345975 4.4701434364492201 4.7145790070899523 4.7717687389679178 4.5282373098178352 4.7809673766441803 4.5926829137077885 4.5185167161783166 4.5302866268925426 4.2963936669818406 4.2227023472029295 4.4615710409132214 4.5193826915099367 4.2340938217769084 4.4817361043017989 4.2135956351068931 4.1742971728494114 4.1651534603715383 4.2234633473663017 3.8879596053427083 4.2129973549420487 4.3068594190143878 3.9715751265457642 4.2954930150418749 4.4288316211772312 4.0938660873328656 4.6137895478568565 4.4175289145769536 4.3060049505083837 4.5918019741457652 4.7245988946837922 4.4399293985090367 4.5093761139556889 4.6027151591584801 4.3176810642786885 4.7623076612635797 4.8549861902456071 4.6117595881554214 4.8446087419105375 4.9767167746920666 4.7339210787190966 4.8643537685041505 4.7137231903593442 4.6017561551846464 4.9863465488884451 4.8779975597243403 4.7235675871217362 4.9652527407149796 5.1418397678253154 4.8995683184887637 4.7126076448194603 4.8898986376741895 4.6056763310126225 4.7359337164517123 4.581912814850952 4.4279043623801568 4.4163924454734804 4.5942356243856999 4.2596648326185953 4.0684698578992586 4.2466842946055676 3.8549904839500857 4.0949484349012675 3.8281240639395606 3.6748007574553689 4.4416010904059622 4.2340752043240553 4.0804545338676528 4.3193695818090374 4.0696332925644745 3.9585116899343018 3.8649963807336256 3.9592111562338976 3.5668714074336272 3.9726830796640193 3.6636569229421316 3.5528435376568335 3.9475234010792888 4.0812261050325231 3.689173246224184 3.5415354293872965 3.6757679678004931 3.221452015738651 3.4590021134672111 3.5537115199153217 3.0991702700688655 3.568423158711949 3.1935451789757394 3.0855871924392853 3.6907913699439114 3.3578495275279159 3.2076045717834281 3.6625021338385357 3.8412820532255458 3.3872516291222938 3.8566871826748241 3.5711501582969762 3.3731193978258758 3.8268363255352873 4.0559132540002771 3.6022057561242535 4.260725866294397 4.0416012234152179 3.8402407920783732 4.6073359899680026 4.4475222920576982 4.2458703931473663 4.2327719049054515 4.4612521901124262 4.0699597073033198 4.4756592843015657 4.3101905529696642 4.0548353085705111 4.4462068136873105 4.7309344978510559 4.3400450571585925 4.8222234187352333 4.716083354141821 4.4604350849365924 5.0922426880477385 5.0456267987425285 4.7301610953915656 4.7457244109707037 4.639747956948491 4.3245883277303001 4.0403120135908352 4.3256537483894473 3.872274179537337 4.0717396881339472 3.8395629670105165 3.5877967214883277 4.3419027297765576 4.1689499915737258 3.8576294300381759 4.3090662679377694 4.6562221280577667 4.2031233556664054 4.6391240319370732 5.0523211264116874 4.5994168488748599 4.6728706126237132 4.5641895452713257 4.1882737577822935 5.068978822231176 5.0291018696882386 4.5839628344965924 5.0338859996869765 5.5166156398024082 5.0674787202358358 5.4729330062692121 5.5003144483086466 5.0512155367323839 5.4394103579045918 5.9216909947694116 5.5352691276693786 5.819451864797232 5.9060188706618257 5.4566703001573114 5.4231004728816732 5.4410985776706378 5.0608087324480664 5.0766361652160095 5.0352042553865397 4.6552358650543315 5.0448699480857373 5.4576699993495179 5.0674196977656605 4.7149074322892677 5.061479210796973 4.6709435670611041 5.0626550678733864 5.4088697040181613 5.0755651532951207 5.3585490816465091 5.704238137927458 5.4214326178459453 5.7170595557212236 5.7887407387210432 5.4080445588966768 5.6883903546293499 6.100328784396134 5.8178437908737459 5.3925854869109378 5.8050098936735086 5.4720040083758157 5.7871543110235519 6.269029395332967 5.9395960049040442 6.0830156052954525 6.5644322227062784 6.2852007869064668 6.1134013825315812 6.2535998685961669 5.8038890158778198 6.3631275550327446 6.5493011721713046 6.0991505523037572 6.3350285236440262 6.8158849436105484 6.5785165459022403 5.9403472517299862 6.3516964428953795 6.1114307993417132 5.9668406313621745 6.0844785497895906 5.7033103115699131 5.610654590690646 5.9556884123993283 5.715057649254951 5.3422825300769183 5.6254123406484782 5.3842812826343147 5.3664176455297428 5.3596722867306648 5.1032221533399191 5.6361825469091249 5.6890896982334844 5.3727914369787344 5.3862756557456875 5.3933023472112245 5.0774423412499345 4.7940113083464224 5.0783716362093045 4.7446764414991467 5.1163514109488677 5.0638030800708682 4.8077712862657949 5.0900070085301126 5.3738240157965391 5.0905837693430955 4.8767441015418971 5.1042987290555262 4.8205685812391863 4.5806371409709126 4.8087446757004653 4.4746115204590247 4.9015677411536744 4.7952984985372034 4.5932655194529364 5.1518088509598599 5.0912707205186756 4.8888249632991112 5.129206010074177 5.3560570052239589 5.1143587331040097 5.3674723962592505 5.3435303385338839 5.1407001707171309 5.34730964332865 5.5733068162981034 5.3642040117842624 5.5586562701987106 5.5613243425232959 5.3582068883111287 5.7358060595675013 5.7545929146548866 5.5513690390894936 5.5410549073133586 5.7660246792400391 5.5794539878067546 5.7725405980872644 5.8292768498695313 5.5721293025421454 5.7533614246963598 6.0346783143371967 5.848969044982212 5.9490034251846851 6.0221092147806496 5.7648323470434999 6.2174740501383088 6.3508208813920426 6.0335326736825809 6.041643038292607 6.1583375669551748 5.8412573088390412 5.5600866345108839 5.8423894631221325 5.6339706757133108 5.5817995912323237 5.6117596799055525 5.3549151499222774 5.8513075005657145 5.9410406675562442 5.6243149809149964 5.828185338064487 6.1724434541300655 5.9646251959942518 6.1576449038816978 6.5683116290706742 6.3609305577123534 6.181761346854854 6.3363465544442237 5.9546959848726839 6.5779396949619935 6.8011225321354072 6.3505064645965339 6.5523470755476678 7.032570175849699 6.8277092523751781 6.7677626739383809 7.0182155219918974 6.5671436917431487 6.7447788765972163 7.2243185327666337 7.0420569628239855 6.9427768189501604 7.2103829063912395 6.7588984084986787 6.5470960854968325 6.745767817788745 6.363340226902884 6.3501286423838215 6.760021045792409 6.5756143133961853 6.3717727675968279 6.5535059051113116 6.1714161407079438 6.0210295579942477 6.3643809795200044 6.1794255468744526 6.19939479936194 6.5416724131743429 6.3693801010599227 6.3735506178636587 6.7145169000400839 6.5446884808678689 6.7012395702713352 7.1092228603778116 6.9403812262874318 6.7179633811587101 6.9232235226483629 6.540634101540844 6.5279386489530955 6.9369494277240058 6.7653777732189182 6.9224146069610883 7.4012330913583311 7.2314584665943125 7.09534631026977 7.5734078969557483 7.4060713327247303 7.1131497000782931 7.3877028363379571 6.9358879899431134 7.2888078676916743 7.5602439098075598 7.1082361062403754 7.2734173221464538 7.7506791622175459 7.5760493807694198 6.8799864065620948 7.2867273731017814 7.1107876633100515 6.8944030692677005 7.0959633361637291 6.7134961624156571 6.5536150732091407 6.8929153598642783 6.7155754889380326 6.2892539382447481 6.565938384929745 6.3866958781503067 6.3008074200168043 6.3746042541344927 6.1180824062442332 6.566796297177258 6.7019160330132959 6.3850902483019745 6.3891313535029219 6.5286266977612799 6.211375538826287 5.9323973667678276 6.2125192042083839 6.0392381932591599 6.1075909652791456 6.3862175383034661 6.2150400039090856 6.1216380576591565 6.2004621546087728 5.9433404446288352 5.8971343604520312 6.1192613132345635 5.9465425857055605 5.7208201329029444 5.9445327937538188 5.7701205579319099 5.9094967212510703 5.9336255322854967 5.7305879443779899 6.0902781802414783 6.108819501544227 5.9064203887431512 6.0805075572889447 6.3005645709929006 6.1191594843278088 5.9207589424219975 6.0905729614316559 5.9