<?xml version="1.0"?>
<VTKFile type="UnstructuredGrid" version="0.1" byte_order="LittleEndian">
<UnstructuredGrid>
<Piece NumberOfPoints="2400" NumberOfCells="800">
<Points>
<DataArray type="Float64" NumberOfComponents="3" format="ascii">
0.050000000000000037 0 0 0 0.049999999999899652 0 0 0 0 0.050000000000000037 0 0 0.050000000000000037 0.049999999999899652 0 0 0.049999999999899652 0 0.099999999999999978 0 0 0.050000000000000037 0.049999999999899652 0 0.050000000000000037 0 0 0.14999999999999999 0 0 0.099999999999999978 0.049999999999899652 0 0.099999999999999978 0 0 0.099999999999999978 0 0 0.099999999999999978 0.049999999999899652 0 0.050000000000000037 0.049999999999899652 0 0.099999999999999978 0.049999999999899652 0 0.099999999999999978 0.099999999999814668 0 0.050000000000000037 0.099999999999814668 0 0.099999999999999978 0.049999999999899652 0 0.050000000000000037 0.099999999999814668 0 0.050000000000000037 0.049999999999899652 0 0.14999999999999999 0.049999999999899652 0 0.099999999999999978 0.099999999999814668 0 0.099999999999999978 0.049999999999899652 0 0.14999999999999999 0.099999999999814668 0 0.099999999999999978 0.14999999999970359 0 0.099999999999999978 0.099999999999814668 0 0.099999999999999978 0.099999999999814668 0 0.050000000000000037 0.14999999999970359 0 0.050000000000000037 0.099999999999814668 0 0.050000000000000037 0.049999999999899652 0 0.050000000000000037 0.099999999999814668 0 0 0.099999999999814668 0 0.050000000000000037 0.049999999999899652 0 0 0.099999999999814668 0 0 0.049999999999899652 0 0.050000000000000037 0.099999999999814668 0 0 0.14999999999970359 0 0 0.099999999999814668 0 0.050000000000000037 0.099999999999814668 0 0.050000000000000037 0.14999999999970359 0 0 0.14999999999970359 0 0.050000000000000037 0.14999999999970359 0 0.050000000000000037 0.19999999999955789 0 0 0.19999999999955789 0 0.050000000000000037 0.14999999999970359 0 0 0.19999999999955789 0 0 0.14999999999970359 0 0.050000000000000037 0.19999999999955789 0 0 0.24999999999941211 0 0 0.19999999999955789 0 0.050000000000000037 0.19999999999955789 0 0.050000000000000037 0.24999999999941211 0 0 0.24999999999941211 0 0.099999999999999978 0.19999999999955789 0 0.050000000000000037 0.24999999999941211 0 0.050000000000000037 0.19999999999955789 0 0.099999999999999978 0.19999999999955789 0 0.099999999999999978 0.24999999999941211 0 0.050000000000000037 0.24999999999941211 0 0.14999999999999999 0.19999999999955789 0 0.099999999999999978 0.24999999999941211 0 0.099999999999999978 0.19999999999955789 0 0.14999999999999999 0.14999999999970359 0 0.099999999999999978 0.19999999999955789 0 0.099999999999999978 0.14999999999970359 0 0.099999999999999978 0.14999999999970359 0 0.099999999999999978 0.19999999999955789 0 0.050000000000000037 0.19999999999955789 0 0.099999999999999978 0.14999999999970359 0 0.050000000000000037 0.19999999999955789 0 0.050000000000000037 0.14999999999970359 0 0.099999999999999978 0.099999999999814668 0 0.099999999999999978 0.14999999999970359 0 0.050000000000000037 0.14999999999970359 0 0.14999999999999999 0.099999999999814668 0 0.14999999999999999 0.14999999999970359 0 0.099999999999999978 0.14999999999970359 0 0.20000000000000001 0.099999999999814668 0 0.20000000000000001 0.14999999999970359 0 0.14999999999999999 0.14999999999970359 0 0.20000000000000001 0.14999999999970359 0 0.20000000000000001 0.19999999999955789 0 0.14999999999999999 0.19999999999955789 0 0.20000000000000001 0.14999999999970359 0 0.14999999999999999 0.19999999999955789 0 0.14999999999999999 0.14999999999970359 0 0.14999999999999999 0.14999999999970359 0 0.14999999999999999 0.19999999999955789 0 0.099999999999999978 0.19999999999955789 0 0.14999999999999999 0.19999999999955789 0 0.14999999999999999 0.24999999999941211 0 0.099999999999999978 0.24999999999941211 0 0.20000000000000001 0.19999999999955789 0 0.20000000000000001 0.24999999999941211 0 0.14999999999999999 0.24999999999941211 0 0.20000000000000001 0.19999999999955789 0 0.14999999999999999 0.24999999999941211 0 0.14999999999999999 0.19999999999955789 0 0.25 0.19999999999955789 0 0.20000000000000001 0.24999999999941211 0 0.20000000000000001 0.19999999999955789 0 0.25 0.19999999999955789 0 0.25 0.24999999999941211 0 0.20000000000000001 0.24999999999941211 0 0.25 0.14999999999970359 0 0.25 0.19999999999955789 0 0.20000000000000001 0.19999999999955789 0 0.25 0.14999999999970359 0 0.20000000000000001 0.19999999999955789 0 0.20000000000000001 0.14999999999970359 0 0.25 0.099999999999814668 0 0.25 0.14999999999970359 0 0.20000000000000001 0.14999999999970359 0 0.25 0.049999999999899652 0 0.25 0.099999999999814668 0 0.20000000000000001 0.099999999999814668 0 0.25 0.049999999999899652 0 0.20000000000000001 0.099999999999814668 0 0.20000000000000001 0.049999999999899652 0 0.25 0.099999999999814668 0 0.20000000000000001 0.14999999999970359 0 0.20000000000000001 0.099999999999814668 0 0.20000000000000001 0.099999999999814668 0 0.14999999999999999 0.14999999999970359 0 0.14999999999999999 0.099999999999814668 0 0.14999999999999999 0.049999999999899652 0 0.14999999999999999 0.099999999999814668 0 0.099999999999999978 0.099999999999814668 0 0.20000000000000001 0.049999999999899652 0 0.14999999999999999 0.099999999999814668 0 0.14999999999999999 0.049999999999899652 0 0.20000000000000001 0.049999999999899652 0 0.20000000000000001 0.099999999999814668 0 0.14999999999999999 0.099999999999814668 0 0.20000000000000001 0 0 0.20000000000000001 0.049999999999899652 0 0.14999999999999999 0.049999999999899652 0 0.14999999999999999 0 0 0.14999999999999999 0.049999999999899652 0 0.099999999999999978 0.049999999999899652 0 0.20000000000000001 0 0 0.14999999999999999 0.049999999999899652 0 0.14999999999999999 0 0 0.25 0 0 0.20000000000000001 0.049999999999899652 0 0.20000000000000001 0 0 0.25 0 0 0.25 0.049999999999899652 0 0.20000000000000001 0.049999999999899652 0 0.29999999999999999 0 0 0.25 0.049999999999899652 0 0.25 0 0 0.29999999999999999 0 0 0.29999999999999999 0.049999999999899652 0 0.25 0.049999999999899652 0 0.29999999999999999 0.049999999999899652 0 0.25 0.099999999999814668 0 0.25 0.049999999999899652 0 0.29999999999999999 0.099999999999814668 0 0.25 0.14999999999970359 0 0.25 0.099999999999814668 0 0.29999999999999999 0.049999999999899652 0 0.29999999999999999 0.099999999999814668 0 0.25 0.099999999999814668 0 0.34999999999999998 0.049999999999899652 0 0.29999999999999999 0.099999999999814668 0 0.29999999999999999 0.049999999999899652 0 0.34999999999999998 0.049999999999899652 0 0.34999999999999998 0.099999999999814668 0 0.29999999999999999 0.099999999999814668 0 0.34999999999999998 0.099999999999814668 0 0.29999999999999999 0.14999999999970359 0 0.29999999999999999 0.099999999999814668 0 0.40000000000000002 0.099999999999814668 0 0.34999999999999998 0.14999999999970359 0 0.34999999999999998 0.099999999999814668 0 0.40000000000000002 0.049999999999899652 0 0.34999999999999998 0.099999999999814668 0 0.34999999999999998 0.049999999999899652 0 0.34999999999999998 0 0 0.34999999999999998 0.049999999999899652 0 0.29999999999999999 0.049999999999899652 0 0.34999999999999998 0 0 0.29999999999999999 0.049999999999899652 0 0.29999999999999999 0 0 0.40000000000000002 0 0 0.34999999999999998 0.049999999999899652 0 0.34999999999999998 0 0 0.40000000000000002 0 0 0.40000000000000002 0.049999999999899652 0 0.34999999999999998 0.049999999999899652 0 0.45000000000000001 0 0 0.45000000000000001 0.049999999999899652 0 0.40000000000000002 0.049999999999899652 0 0.45000000000000001 0 0 0.40000000000000002 0.049999999999899652 0 0.40000000000000002 0 0 0.5 0 0 0.45000000000000001 0.049999999999899652 0 0.45000000000000001 0 0 0.5 0 0 0.5 0.049999999999899652 0 0.45000000000000001 0.049999999999899652 0 0.5 0.049999999999899652 0 0.45000000000000001 0.099999999999814668 0 0.45000000000000001 0.049999999999899652 0 0.5 0.049999999999899652 0 0.5 0.099999999999814668 0 0.45000000000000001 0.099999999999814668 0 0.5 0.099999999999814668 0 0.45000000000000001 0.14999999999970359 0 0.45000000000000001 0.099999999999814668 0 0.45000000000000001 0.099999999999814668 0 0.40000000000000002 0.14999999999970359 0 0.40000000000000002 0.099999999999814668 0 0.45000000000000001 0.049999999999899652 0 0.40000000000000002 0.099999999999814668 0 0.40000000000000002 0.049999999999899652 0 0.45000000000000001 0.049999999999899652 0 0.45000000000000001 0.099999999999814668 0 0.40000000000000002 0.099999999999814668 0 0.40000000000000002 0.049999999999899652 0 0.40000000000000002 0.099999999999814668 0 0.34999999999999998 0.099999999999814668 0 0.40000000000000002 0.099999999999814668 0 0.40000000000000002 0.14999999999970359 0 0.34999999999999998 0.14999999999970359 0 0.40000000000000002 0.14999999999970359 0 0.40000000000000002 0.19999999999955789 0 0.34999999999999998 0.19999999999955789 0 0.45000000000000001 0.14999999999970359 0 0.45000000000000001 0.19999999999955789 0 0.40000000000000002 0.19999999999955789 0 0.45000000000000001 0.14999999999970359 0 0.40000000000000002 0.19999999999955789 0 0.40000000000000002 0.14999999999970359 0 0.45000000000000001 0.099999999999814668 0 0.45000000000000001 0.14999999999970359 0 0.40000000000000002 0.14999999999970359 0 0.5 0.099999999999814668 0 0.5 0.14999999999970359 0 0.45000000000000001 0.14999999999970359 0 0.5 0.14999999999970359 0 0.5 0.19999999999955789 0 0.45000000000000001 0.19999999999955789 0 0.5 0.14999999999970359 0 0.45000000000000001 0.19999999999955789 0 0.45000000000000001 0.14999999999970359 0 0.5 0.19999999999955789 0 0.45000000000000001 0.24999999999941211 0 0.45000000000000001 0.19999999999955789 0 0.5 0.19999999999955789 0 0.5 0.24999999999941211 0 0.45000000000000001 0.24999999999941211 0 0.45000000000000001 0.19999999999955789 0 0.45000000000000001 0.24999999999941211 0 0.40000000000000002 0.24999999999941211 0 0.45000000000000001 0.19999999999955789 0 0.40000000000000002 0.24999999999941211 0 0.40000000000000002 0.19999999999955789 0 0.40000000000000
[...]
<PointData Scalars="tracer_conc," Vectors="" Tensors="">
<DataArray type="Float64" Name="tracer_conc" format="ascii">
5.6235781335129476 4.6436953795407589 5.1315622347583281 5.593546382476795 5.1375588698700305 4.6738857181218414 6.0504179696363778 5.1223235476541236 5.6064604596018581 6.433964964310289 5.5511727788622283 6.0351181610252551 6.022250561408514 5.5658468315960059 5.149691794098457 5.5524027486202314 5.1558702047318929 4.7393218645657811 5.578509160413935 4.7131750818581963 5.1374411445459991 5.9621365274093918 5.1420330094821916 5.5660511911981958 5.5517943195848334 4.7899721711943126 5.1557611482187706 5.1681029579859308 4.3610484918900765 4.7271182799205071 5.1236381216529976 4.7275416581076071 4.2635607388957393 5.1512865416038531 4.2349525170519975 4.6625572071279491 4.7408383584069211 3.8828155133847204 4.2521927239630548 4.7136363563204586 4.3751333114833724 3.9110230749242634 4.3617770377402323 4.0784746883481864 3.6142011248204744 4.3882845469375749 3.5867399046559356 3.8998012402599165 4.0914324587802993 3.3436630128099725 3.6031316881250057 4.0657268228150238 3.8347375294129726 3.3702734983808811 4.5189184943920901 3.8217628760325293 4.0781596766161226 4.4946637917353929 4.2633068338033722 3.8460813168587218 4.9028239548294881 4.250836536530354 4.5069216932321421 5.199440772312891 4.4939036725713883 4.8034692935575878 4.7906408410993091 4.5069500042229924 4.0899957914598177 4.8156529198095699 4.0649089101993692 4.3747738865028367 5.1424401884110793 4.8035256588161994 4.3868067626965148 5.5268768208926966 5.1878395849810994 4.8149414163120507 5.8709462865393478 5.5317473583187295 5.1982757755912727 5.5194228997451509 5.2354922810669837 4.9016521573352918 5.5424494494552246 4.8785520827180466 5.1876711888132565 5.1751834125770726 4.8913865671700654 4.5181957641957045 4.8793348267348255 4.6478802334908993 4.2743535623890505 5.2237809274078604 4.9922049360769076 4.6579425628089197 5.246029071901444 4.6356270448369292 4.8912462245679658 5.5541938048539672 4.9802783126836765 5.2352642579626982 5.5334803517545366 5.3018099131465393 5.0010879020958035 5.8288071738342353 5.5447640808955683 5.2445857319274252 5.8503154686668077 5.2229761629884521 5.5314918443441279 6.1800723976014291 5.8407174157362309 5.5410136241502563 6.5896638845593642 6.1925599861590008 5.8932121520365506 6.6123296648828829 5.870469707843835 6.2936482961898355 6.2022627395022214 5.518705904042525 5.8835266058389335 5.8946412065375497 5.174490680726354 5.5398645694024387 5.9367645075607527 5.5400847234122974 5.1674031269831673 6.3048725152075837 5.5264363218009445 5.9500899466765915 6.2807148695847639 5.8838323487579975 5.5506363664934053 6.7504646484462727 6.2936911009969752 5.9608994371519524 6.4065829302076258 5.9500169287414888 5.5777351832351236 6.7764965844248435 5.9355893072003845 6.4191929805190613 7.0837004572417674 6.2796039420141039 6.7627851685728766 7.0593205601236368 6.6022998657109957 6.3033662193582787 7.3620714097196283 6.5886276568567679 7.0713250548587183 7.3395573663633353 6.8822739824038628 6.6106314903224046 6.8910042578655029 6.179559133251999 6.6021584373280477 6.4811772914223305 5.8280676683216726 6.1921910486631031 6.8700249144721228 6.4727214138282934 6.2006379105554714 7.1480676348527084 6.4601411874655597 6.8820543931065696 7.1288773667812553 6.7314515618239934 6.4794400658793254 6.7385925958498483 6.1090502987269435 6.4723134595952398 6.9820485169256656 6.3688285031817609 6.7310299612282281 7.39100446829171 6.7193321234250298 7.1404377157272387 7.5982408646915767 7.1407114871519077 6.8891982723605656 7.6187775893649476 6.869067143225533 7.3512370100097781 7.8612945746691612 7.1279927573757922 7.6096075153853908 7.8427337035085136 7.3850167082491271 7.1462430882463552 8.0803026126326056 7.6225110017871138 7.3892576635909579 8.0970158444930593 7.3727774335905707 7.8538235384938888 8.3328242881064885 7.6107062844433715 8.0911813671832604 8.3176828138291139 7.8600034893986894 7.6256649205471039 7.8636486147432896 7.2032452003471805 7.6222183363619838 7.8493767389608653 7.4529518758360886 7.2175380235274647 7.4566024323821729 6.8548714044031982 7.2140337565094361 7.2190391323658387 6.6149305893714914 6.9758015609918758 7.627226463321656 6.9645722062277873 7.3847168072435503 7.6115099809608822 7.2143997801087609 6.9803628618740889 7.3736056676462276 6.9762099615250275 6.7368324084546529 6.9652118208755232 6.6260466753064735 6.3857806324415787 6.6157409977184978 6.3322003042379018 6.0907529383155996 6.8557154625580035 6.5730090678194069 6.3360488127742887 6.8699510665740409 6.3217438374973822 6.6256802890405693 7.2039431041747903 6.8653996732877332 6.6301055046416222 7.4430375719022921 7.1056723157231962 6.8684537250207089 7.0966476089612343 6.8154235147785069 6.5758260888254458 7.1092409746174674 6.5632199608981532 6.8650728029359627 6.8187395665695583 6.3249172520651236 6.572700990088026 6.8072643011852909 6.5786988505280499 6.3364210516575241 6.5641043858087338 6.3339616291444409 6.0951107523179235 6.5773430330741398 6.0817953062825252 6.3318557573514171 6.3226132347533399 6.0915631974697071 5.8487687162760702 6.0754545598810168 5.8439465972259983 5.5894695825442664 6.0925280203606675 5.5722796291204517 5.8254006240426177 6.3377494439911475 5.8335273587513088 6.0853143241737699 6.631791481527741 6.0745994042052969 6.380124291799512 6.7199244705874452 6.3805014679979593 6.1278504344060094 6.3696125378188775 6.0856674815938181 5.832164695436453 6.3875440585822627 5.8141153243355177 6.1208775113889038 6.1098115681906568 5.8257364540942538 5.5525543369757173 6.460692445988145 6.1212389219378318 5.8486844258239152 6.1295927873968923 5.5326565218966222 5.840396946488557 5.8339167784748325 5.2903045499100765 5.5444703100601762 5.8149556748645423 5.5832795996363531 5.3093786209055791 5.5912345712210021 5.0978022416667148 5.3015205761384614 5.5731255367182202 5.3906711509989034 5.1160321153045185 5.3983728436979543 4.9519986169592149 5.1084001839797759 5.2522164414506269 4.8500997509495889 4.962018732355638 5.3810645506817814 5.2447706645971524 4.969445765174485 5.6430557590447536 5.5068208862585051 5.2504221397006559 5.6584021117111911 5.2349268005066163 5.3903204727090532 5.512865756085727 5.1333756152751961 5.2443831742484024 5.7610758429716133 5.3965332332392917 5.5064119625807777 5.9057066160012148 5.4975766500644774 5.6516969574349147 5.8343794243898577 5.6520679447013817 5.3965932709687445 5.8505621425557619 5.3802831001369196 5.5829470642987484 6.0968377718996996 5.6422763602307162 5.8435951638083807 6.0826487812325478 5.9007547284315294 5.656586028308519 6.3257666900965077 6.144714335047313 5.9039453002731497 6.3379764932946516 5.8916363879679903 6.0912182147957097 6.5816284443341928 6.1363489471831265 6.3336501576139161 6.5712989368415613 6.3917163615092507 6.1467393957141532 6.3941741984043761 5.9939938625652891 6.1443788261227938 6.3849072943815566 6.2508015058414372 6.0033660070249439 6.2527534193723175 5.8947510839977983 6.0014282425112544 6.0050298556071198 5.6475880433095753 5.7560556420254398 6.1370967212931671 6.0018051697820125 5.7592764445029188 6.1483459751471257 5.7478941743807459 5.9003882779793466 5.8924052968860101 5.7564615324636383 5.5110252607849386 5.74852123062918 5.6557502967553281 5.4092698512873048 5.6480305755272049 5.5963289533648872 5.3491194452181769 5.9050102587841238 5.5883929245194812 5.6552912734583911 5.8951488039762436 5.8434488681601788 5.5984752343450817 5.9945860536545172 5.9021777224992134 5.6582066711957975 6.24437257337856 6.1527268572600065 5.9032887108227898 6.1464435080820357 6.0949860341511988 5.8441625103241819 6.1541862081401284 5.8362084056076391 5.9017463686488494 6.0960067663044351 5.8168390288319447 5.8429550615011934 6.0886063361757765 6.0759912740052977 5.8245049141266483 5.8363889096336559 5.8241055202810124 5.5786506192486645 5.8459377307905713 5.5688342012440506 5.5958080761435518 5.5886246214885889 5.5767407334651757 5.3291793823164157 5.3371487072304102 5.3256963590654189 5.0677358085074209 5.3510048168218818 5.0536291625385523 5.0820560506073962 5.6003476906557994 5.3171935484047381 5.3449336397548404 5.6600441559759629 5.3368842811724573 5.4048980238111914 5.4982241054153489 5.4053590790389654 5.1481958798681013 5.3970035999417609 5.3454560809181713 5.0877566182160336 5.4111341171986549 5.0734126335962948 5.1423534213535191 5.1338604436716553 5.0825559453994034 4.8062595963181085 5.235583324082369 5.1427922852598584 4.866897754222772 5.1500036431604483 4.7899200491850094 4.8596358561465998 5.0895753985458425 4.7700702328651676 4.7991085769828583 5.0736951269020834 5.0626756340650951 4.7861809504672914 4.7902087855355093 4.7795963698411068 4.4768953152266606 4.8079350475216174 4.4589669565082533 4.4885389902092143 4.4791509844329616 4.4688955688155998 4.1330801038718175 4.1338011002174246 4.1238312481005082 3.7490516638768847 4.4984747556835094 4.1135909145788618 4.1436116784689165 4.5592512762519224 4.1335271417854775 4.2044073368128094 4.5396781017106109 4.4889244174108303 4.1532351850898515 4.1944298935083442 4.1439073648593068 3.7692340484357576 4.2968877516530766 4.2046426064852822 3.8301684296173528 4.6419787035526996 4.5495498763783875 4.2141049260183365 4.8685694079441149 4.478865678866792 4.5492250119176063 4.8505882460999068 4.7995625743733337 4.4970169395066044 4.9526549818477141 4.8600290889293252 4.5577921737869191 4.9711112923985219 4.5391948340643067 4.6518483080375246 5.1176897320352586 4.6413302336506241 4.7985298665280816 5.0985786356900435 4.9623611584102187 4.6605588406286023 5.2911397723432527 5.1087066305719944 4.8074254373809104 5.3110272654502158 4.7874360274155912 4.9919821722049429 4.9810984145664143 4.7987689841460348 4.4640715416600596 5.0025378343013811 4.442560387798653 4.6477457525761414 4.6364278042663258 4.4542244675151341 4.0803507313145619 4.4433087776033933 4.3073779523831268 3.9331784574282542 4.8088804358999502 4.2962536897898982 4.4540741837385509 4.7882011433794398 4.6521227896539257 4.3170186514102227 4.6620169758691858 4.1939591989376375 4.3071927547824975 4.3181973995542222 3.8087941057028689 3.9224639082240667 3.9339165504463489 3.3795000927681018 3.4934683444621508 4.058357417681183 3.9225364238265672 3.5047631550997465 4.0810872946885253 3.4819625095904851 3.6405554135723692 4.4652504349324245 3.9111927084695162 4.0694739926666914 4.6591191066790723 4.0576281340620222 4.2632844831995174 4.2750848898400839 3.6284736515224196 3.8344460652019809 4.251616434444986 4.069511925963047 3.6520046413746443 3.8225970002047491 3.6408449372443377 3.1761812400010805 3.8474738612521699 3.1504427823189656 3.3593559570917528 3.6533539551751959 3.0039939591885818 3.1654013490912631 3.6292528257385435 3.4937766786075395 3.0289228276523277 3.5060742206042428 2.9015815399810103 3.0182541561782226 3.4029759147422447 2.8410664607574669 2.9152440776280053 3.3799953379351955 3.3299843909451803 2.8648453858721119 3.4826243307642555 3.3908546245828965 2.9258375219919865 3.9118092827761535 3.8196938927093287 3.4016946158799488 4.2152811277950875 3.7482918786699595 3.8195717119133912 3.8092486588644134 3.7588828922555755 3.3407175724113469 3.8309043297331029 3.3189516473451763 3.3905091874239139 3.7699642760620415 3.2989607675667041 3.329587214645874 4.1544066808082807 3.7283256082088467 3.7587007359745299 3.7485506587989201 3.7387691383190402 3.3205120384547473 3.319247018062744 3.3098368302606751 2.8446277290774868 3.3419801849164745 2.8210895173649555 2.8542848584871012 3.3217685945245807 2.8411844820219181 2.8340550670623825 3.2990403286051504 3.3299598659101619 2.8647383252126639 3.3418944162346427 2.9018160131791753 2.8541094575008112 3.4028197985444648 3.0043411091848462 2.9149160680371189 3.3189281540030091 3.3908158976804725 2.9256405102956604 3.7482630236138954 3.81973098124385 3.4015368048899117 3.7698827587927188 3.3797208902104212 3.3294340018289192 3.8307568088417008 3.4822911179170539 3.3902237955525183 4.215173252567217 3.911591346453835 3.8193600170944801 4.1543456095091686 3.8090644053782201 3.7585858257798419 3.7283719027439157 3.7588977699886064 3.3406308441080945 3.7497731983130063 3.3190624329969913 3.3093777981532329 4.1342450946541485 3.7484282947997709 3.7385219249183441 4.113651882717142 4.1439562209487129 3.769172282106739 4.4590387252255281 4.4890011316682319 4.15318845284893 4.478349659942821 4.1336810165033295 4.1234700684743899 4.7878575273601518 4.4790258629576902 4.4684446772417461 4.7701445810323087 4.7996625385892751 4.4969731248119569 4.8078784616031891 4.5395111878372241 4.4884853127541735 4.7899359979214031 4.8602291780226503 4.5577177270440714 4.8684700418673774 4.6417946321717984 4.5491310269430301 4.5591596290310745 4.2967005697312617 4.2042594660873549 4.4788862147567698 4.5497058388683573 4.2140246799814003 4.4984220364165282 4.1942633336585438 4.1435299151127829 4.1335304114572518 4.2047451153340925 3.8300589078756109 4.1939201570078355 4.3075432313146713 3.9330480559480514 4.2962006679101599 4.4544650394214838 4.080236842914255 4.661913240991665 4.4431382201062224 4.3070092060451453 4.6413080015908053 4.7991002321272971 4.4640111098654156 4.5391798104632528 4.6523629009591492 4.3169303848270628 4.8500741216146555 4.9626618345154352 4.6604793747240256 4.9519612427595989 5.1091090025990873 4.8073774563268916 4.9709962070855642 4.7880362433115593 4.6517401849120459 5.117598068671751 4.9809984946707004 4.7984453362849138 5.0977945814702288 5.3023163908673849 5.0011164516761992 4.7874459248505659 4.9926361189591075 4.6579533138366198 4.8088029671272752 4.6363196572345915 4.4538982802118285 4.4425326332805497 4.648210780844229 4.2743005182277223 4.057522707257835 4.2635114154941762 3.8459314765105481 4.0809093008821851 3.8222882573727697 3.6401438576056107 4.4651431171610758 4.2514590912153336 4.0691883074881394 4.3180703121471797 4.0581457441587832 3.9221904901580915 3.8087060703198796 3.9226096062756568 3.5045642109231463 3.9337328897368509 3.6289052206424617 3.4930913733121236 3.9110753306686075 4.0696400600051241 3.6518060088917466 3.4818054553821116 3.6408435964739692 3.1759152231475034 3.3793925318581426 3.4937433321773597 3.028668638201188 3.505877289296389 3.1508954212675211 3.0178175138603627 3.6531570775376068 3.3442088475640808 3.1649177444204066 3.6283143581348485 3.8347983337514386 3.3700484752605746 3.8473247219932296 3.587359395628865 3.358898900927874 3.8216566434988462 4.0786262069133858 3.6140696257879044 4.2749626233979985 4.06551268209315 3.8340680294770157 4.6590789801067718 4.4946120569030423 4.2630462639342195 4.2507920439545694 4.507252290639661 4.0899440633718607 4.5189056625937516 4.3617072231152125 4.077886455434526 4.4939715227244106 4.803944269943087 4.386896075053154 4.902903028554813 4.7907435956183893 4.5067951817511052 5.19969072374034 5.1427402953362922 4.8035170717644071 4.8158028775459387 4.7137451094307758 4.3746697311840705 4.064912535160258 4.3753951264092699 3.9110252846567941 4.0913789043661053 3.8834805550470501 3.6027777127271117 4.3883662084313775 4.2354427432168418 3.8996163435670761 4.3612192023208838 4.7279117886794282 4.2636901453735927 4.7135692883520326 5.1383749008110202 4.6742448035733508 4.7410884588071589 4.6455221748973843 4.2521690449464664 5.1514786471472203 5.1156182791391869 4.6622623430283454 5.1231154015806002 5.607832660845224 5.1466167916715531 5.5789854225205131 5.5941856703610009 5.1375705139173489 5.5517837720804462 6.0361652537068586 5.6224915941018274 5.9627784417665275 6.0230140910522563 5.566261136303889 5.5522582600123691 5.5529392076363155 5.1560485959707973 5.1684697831737996 5.123951417286694 4.7272328415789104 5.1424495631347726 5.566936618717981 5.1502788586131398 4.7902000557130755 5.1564189417583801 4.7395875319528606 5.1748303822191017 5.5407753361630139 5.167802421839057 5.5191136295159327 5.884631677271333 5.5511402557675682 5.8951783640501301 5.9373927105064039 5.5402923439927267 5.8711261310050435 6.2949682562341707 5.9617260124165705 5.5270007603341043 5.9512118153366202 5.5784437860891272 5.9363082453166793 6.4204098880304059 6.0504694605145311 6.2804067742509853 6.764197898115647 6.4335868053992593 6.3056361027270356 6.4074097169430742 5.9504451733592765 6.6131451318683476 6.7513770183341109 6.2941462499631742 6.5894638913343124 7.0728570205461034 6.7759436771080326 6.1802377259050791 6.603604403149677 6.3042814521789188 6.2028116556327353 6.2814022495150201 5.8840627099375489 5.8284756055789728 6.1934228722647688 5.8937772192287339 5.5328676078673196 5.8414501508886554 5.541348373752097 5.5543043560280463 5.5196123536892907 5.2353752453371296 5.850616154282644 5.8713611073007455 5.5317838870677383 5.5427548298319129 5.5272563716844001 5.1878556314570767 4.8787198380277577 5.1883966823746084 4.8151476382164748 5.2461524227253067 5.1753520445005448 4.8912509731921494 5.223198641549005 5.5324117788360816 5.1985702289422866 4.980368099999569 5.2360339001724503 4.9017812707932888 4.635671638950738 4.8918226168295948 4.5182502148256347 5.0025341089031681 4.8793396149152901 4.6476306966438896 5.3110083346073047 5.2237982331381412 4.9919684851413049 5.2903775288469177 5.5453794294519341 5.244741290603435 5.5911326183171619 5.5334514116929352 5.3015830729561984 5.5722560415700473 5.8263883896998898 5.5526689327000298 5.8502908572312773 5.8148012622128995 5.5830586934085025 6.0962883323608805 6.0750707654928267 5.8437293978458111 5.8333059360978199 6.0863158741358703 5.8321481892507157 6.0923610625762521 6.1098299645796326 5.8256238384575951 6.0745028546632671 6.3812162673884574 6.128031509284857 6.3372689829987889 6.3693863136023046 6.0855352892336851 6.6314729505100525 6.7199475735867349 6.3804694489287206 6.3875603772362837 6.4609589208797571 6.121259047102285 5.8142281952903527 6.1219912104225322 5.8489899282597966 5.8339379386955716 5.8289545700182179 5.5446558540579511 6.1298055707424668 6.1804588101317997 5.8407579941082144 6.1093675219074344 6.4735858684949781 6.2011960758590963 6.4607485184861302 6.883524708941005 6.6115692975332934 6.4816501564383069 6.5903499155908829 6.1927902068868868 6.8917788523370564 7.0602657917272218 6.6027556932186302 6.869854625002386 7.3527739836480812 7.0829928546570127 7.1486788961695238 7.3404430634664823 6.8826770806978157 7.1286208372085813 7.6110045122990266 7.3612060692501169 7.3912982435878112 7.598941197324506 7.1409860973903134 6.981990024061715 7.1292446357017853 6.7315534950360014 6.7197472694692539 7.1418057095285921 6.8900600823096791 6.7388735047874828 6.8706155881142488 6.4729135430708116 6.3689377290033935 6.7322400432536522 6.4798945228375135 6.614682652048975 6.9768316267781865 6.7370544564942216 6.854077075616372 7.2147529906357857 6.9801860121891659 7.2027787658838589 7.6229064993025277 7.3895426789686276 7.2184556441410379 7.3735836434272697 6.9761577660220295 6.9646423680974143 7.3858322795972846 7.1468988627610361 7.3731069696349287 7.8549048155682994 7.6177289173149294 7.6105665204067519 8.0917363166697864 7.8600156778956887 7.6270114211615416 7.8430887221939338 7.3850666938914182 7.8626874625940406 8.0801129341344211 7.6222205134085197 7.8477281455835834 8.3282296605239825 8.0954389068900579 7.4410189973302243 7.8598181539080443 7.6253723160106848 7.455260326379789 7.6108868467571487 7.2141209103373267 7.0941758893432638 7.4529284096324515 7.2167480476694994 6.8046256989652738 7.1059032307768764 6.867345973511692 6.8171161801408484 6.8545047164744819 6.5728043754146093 7.1076812559107072 7.202949142312657 6.8651565869928657 6.8691226092848749 6.9648304140491222 6.6259266270806911 6.3212965230841824 6.6266615092136938 6.3857116066155681 6.5622422501057827 6.86585106376506 6.6296230131554212 6.5763907710683789 6.61511961769284 6.3320348999773817 6.3238817714310551 6.5735373418659018 6.3353814854769626 6.0812479259556325 6.3328055031078856 6.0904874216751468 6.3370124273311257 6.3218658872372728 6.0913526125297759 6.5800794776667679 6.562821820276227 6.333771765833661 6.5687318720922052 6.8158558176187931 6.574559399322446 6.3826169151605017 6.57925000804