<?xml version="1.0"?>
<VTKFile type="UnstructuredGrid" version="0.1" byte_order="LittleEndian">
<UnstructuredGrid>
<Piece NumberOfPoints="2400" NumberOfCells="800">
<Points>
<DataArray type="Float64" NumberOfComponents="3" format="ascii">
1.000000000000000e+00 0.000000000000000e+00 0.000000000000000e+00 1.000000000000000e+00 4.999999999989965e-02 0.000000000000000e+00 9.500000000000000e-01 4.999999999989965e-02 0.000000000000000e+00 1.000000000000000e+00 0.000000000000000e+00 0.000000000000000e+00 9.500000000000000e-01 4.999999999989965e-02 0.000000000000000e+00 9.500000000000000e-01 0.000000000000000e+00 0.000000000000000e+00 9.500000000000000e-01 0.000000000000000e+00 0.000000000000000e+00 9.500000000000000e-01 4.999999999989965e-02 0.000000000000000e+00 9.000000000000000e-01 4.999999999989965e-02 0.000000000000000e+00 9.500000000000000e-01 0.000000000000000e+00 0.000000000000000e+00 9.000000000000000e-01 4.999999999989965e-02 0.000000000000000e+00 9.000000000000000e-01 0.000000000000000e+00 0.000000000000000e+00 9.000000000000000e-01 0.000000000000000e+00 0.000000000000000e+00 9.000000000000000e-01 4.999999999989965e-02 0.000000000000000e+00 8.500000000000000e-01 4.999999999989965e-02 0.000000000000000e+00 9.000000000000000e-01 0.000000000000000e+00 0.000000000000000e+00 8.500000000000000e-01 4.999999999989965e-02 0.000000000000000e+00 8.500000000000000e-01 0.000000000000000e+00 0.000000000000000e+00 8.500000000000000e-01 0.000000000000000e+00 0.000000000000000e+00 8.500000000000000e-01 4.999999999989965e-02 0.000000000000000e+00 8.000000000000000e-01 4.999999999989965e-02 0.000000000000000e+00 8.500000000000000e-01 0.000000000000000e+00 0.000000000000000e+00 8.000000000000000e-01 4.999999999989965e-02 0.000000000000000e+00 8.000000000000000e-01 0.000000000000000e+00 0.000000000000000e+00 8.000000000000000e-01 0.000000000000000e+00 0.000000000000000e+00 8.000000000000000e-01 4.999999999989965e-02 0.000000000000000e+00 7.500000000000000e-01 4.999999999989965e-02 0.000000000000000e+00 8.000000000000000e-01 0.000000000000000e+00 0.000000000000000e+00 7.500000000000000e-01 4.999999999989965e-02 0.000000000000000e+00 7.500000000000000e-01 0.000000000000000e+00 0.000000000000000e+00 7.500000000000000e-01 0.000000000000000e+00 0.000000000000000e+00 7.500000000000000e-01 4.999999999989965e-02 0.000000000000000e+00 7.000000000000000e-01 4.999999999989965e-02 0.000000000000000e+00 7.500000000000000e-01 0.000000000000000e+00 0.000000000000000e+00 7.000000000000000e-01 4.999999999989965e-02 0.000000000000000e+00 7.000000000000000e-01 0.000000000000000e+00 0.000000000000000e+00 7.000000000000000e-01 0.000000000000000e+00 0.000000000000000e+00 7.000000000000000e-01 4.999999999989965e-02 0.000000000000000e+00 6.500000000000000e-01 4.999999999989965e-02 0.000000000000000e+00 7.000000000000000e-01 0.000000000000000e+00 0.000000000000000e+00 6.500000000000000e-01 4.999999999989965e-02 0.000000000000000e+00 6.500000000000000e-01 0.000000000000000e+00 0.000000000000000e+00 6.500000000000000e-01 0.000000000000000e+00 0.000000000000000e+00 6.500000000000000e-01 4.999999999989965e-02 0.000000000000000e+00 6.000000000000000e-01 4.999999999989965e-02 0.000000000000000e+00 6.500000000000000e-01 0.000000000000000e+00 0.000000000000000e+00 6.000000000000000e-01 4.999999999989965e-02 0.000000000000000e+00 6.000000000000000e-01 0.000000000000000e+00 0.000000000000000e+00 6.000000000000000e-01 0.000000000000000e+00 0.000000000000000e+00 6.000000000000000e-01 4.999999999989965e-02 0.000000000000000e+00 5.500000000000000e-01 4.999999999989965e-02 0.000000000000000e+00 6.000000000000000e-01 0.000000000000000e+00 0.000000000000000e+00 5.500000000000000e-01 4.999999999989965e-02 0.000000000000000e+00 5.500000000000000e-01 0.000000000000000e+00 0.000000000000000e+00 5.500000000000000e-01 0.000000000000000e+00 0.000000000000000e+00 5.500000000000000e-01 4.999999999989965e-02 0.000000000000000e+00 5.000000000000000e-01 4.999999999989965e-02 0.000000000000000e+00 5.500000000000000e-01 0.000000000000000e+00 0.000000000000000e+00 5.000000000000000e-01 4.999999999989965e-02 0.000000000000000e+00 5.000000000000000e-01 0.000000000000000e+00 0.000000000000000e+00 5.000000000000000e-01 0.000000000000000e+00 0.000000000000000e+00 5.000000000000000e-01 4.999999999989965e-02 0.000000000000000e+00 4.500000000000000e-01 4.999999999989965e-02 0.000000000000000e+00 5.000000000000000e-01 0.000000000000000e+00 0.000000000000000e+00 4.500000000000000e-01 4.999999999989965e-02 0.000000000000000e+00 4.500000000000000e-01 0.000000000000000e+00 0.000000000000000e+00 4.500000000000000e-01 0.000000000000000e+00 0.000000000000000e+00 4.500000000000000e-01 4.999999999989965e-02 0.000000000000000e+00 4.000000000000000e-01 4.999999999989965e-02 0.000000000000000e+00 4.500000000000000e-01 0.000000000000000e+00 0.000000000000000e+00 4.000000000000000e-01 4.999999999989965e-02 0.000000000000000e+00 4.000000000000000e-01 0.000000000000000e+00 0.000000000000000e+00 4.000000000000000e-01 0.000000000000000e+00 0.000000000000000e+00 4.000000000000000e-01 4.999999999989965e-02 0.000000000000000e+00 3.500000000000000e-01 4.999999999989965e-02 0.000000000000000e+00 4.000000000000000e-01 0.000000000000000e+00 0.000000000000000e+00 3.500000000000000e-01 4.999999999989965e-02 0.000000000000000e+00 3.500000000000000e-01 0.000000000000000e+00 0.000000000000000e+00 3.500000000000000e-01 0.000000000000000e+00 0.000000000000000e+00 3.500000000000000e-01 4.999999999989965e-02 0.000000000000000e+00 3.000000000000000e-01 4.999999999989965e-02 0.000000000000000e+00 3.500000000000000e-01 0.000000000000000e+00 0.000000000000000e+00 3.000000000000000e-01 4.999999999989965e-02 0.000000000000000e+00 3.000000000000000e-01 0.000000000000000e+00 0.000000000000000e+00 3.000000000000000e-01 0.000000000000000e+00 0.000000000000000e+00 3.000000000000000e-01 4.999999999989965e-02 0.000000000000000e+00 2.500000000000000e-01 4.999999999989965e-02 0.000000000000000e+00 3.000000000000000e-01 0.000000000000000e+00 0.000000000000000e+00 2.500000000000000e-01 4.999999999989965e-02 0.000000000000000e+00 2.500000000000000e-01 0.000000000000000e+00 0.000000000000000e+00 2.500000000000000e-01 0.000000000000000e+00 0.000000000000000e+00 2.500000000000000e-01 4.999999999989965e-02 0.000000000000000e+00 2.000000000000000e-01 4.999999999989965e-02 0.000000000000000e+00 2.500000000000000e-01 0.000000000000000e+00 0.000000000000000e+00 2.000000000000000e-01 4.999999999989965e-02 0.000000000000000e+00 2.000000000000000e-01 0.000000000000000e+00 0.000000000000000e+00 2.000000000000000e-01 0.000000000000000e+00 0.000000000000000e+00 2.000000000000000e-01 4.999999999989965e-02 0.000000000000000e+00 1.500000000000000e-01 4.999999999989965e-02 0.000000000000000e+00 2.000000000000000e-01 0.000000000000000e+00 0.000000000000000e+00 1.500000000000000e-01 4.999999999989965e-02 0.000000000000000e+00 1.500000000000000e-01 0.000000000000000e+00 0.000000000000000e+00 1.500000000000000e-01 0.000000000000000e+00 0.000000000000000e+00 1.500000000000000e-01 4.999999999989965e-02 0.000000000000000e+00 9.999999999999998e-02 4.999999999989965e-02 0.000000000000000e+00 1.500000000000000e-01 0.000000000000000e+00 0.000000000000000e+00 9.999999999999998e-02 4.999999999989965e-02 0.000000000000000e+00 9.999999999999998e-02 0.000000000000000e+00 0.000000000000000e+00 9.999999999999998e-02 0.000000000000000e+00 0.000000000000000e+00 9.999999999999998e-02 4.999999999989965e-02 0.000000000000000e+00 5.000000000000004e-02 4.999999999989965e-02 0.000000000000000e+00 9.999999999999998e-02 0.000000000000000e+00 0.000000000000000e+00 5.000000000000004e-02 4.999999999989965e-02 0.000000000000000e+00 5.000000000000004e-02 0.000000000000000e+00 0.000000000000000e+00 5.000000000000004e-02 0.000000000000000e+00 0.000000000000000e+00 5.000000000000004e-02 4.999999999989965e-02 0.000000000000000e+00 0.000000000000000e+00 4.999999999989965e-02 0.000000000000000e+00 5.000000000000004e-02 0.000000000000000e+00 0.000000000000000e+00 0.000000000000000e+00 4.999999999989965e-02 0.000000000000000e+00 0.000000000000000e+00 0.000000000000000e+00 0.000000000000000e+00 1.000000000000000e+00 4.999999999989965e-02 0.000000000000000e+00 1.000000000000000e+00 9.999999999981467e-02 0.000000000000000e+00 9.500000000000000e-01 9.999999999981467e-02 0.000000000000000e+00 1.000000000000000e+00 4.999999999989965e-02 0.000000000000000e+00 9.500000000000000e-01 9.999999999981467e-02 0.000000000000000e+00 9.500000000000000e-01 4.999999999989965e-02 0.000000000000000e+00 9.500000000000000e-01 4.999999999989965e-02 0.000000000000000e+00 9.500000000000000e-01 9.999999999981467e-02 0.000000000000000e+00 9.000000000000000e-01 9.999999999981467e-02 0.000000000000000e+00 9.500000000000000e-01 4.999999999989965e-02 0.000000000000000e+00 9.000000000000000e-01 9.999999999981467e-02 0.000000000000000e+00 9.000000000000000e-01 4.999999999989965e-02 0.000000000000000e+00 9.000000000000000e-01 4.999999999989965e-02 0.000000000000000e+00 9.000000000000000e-01 9.999999999981467e-02 0.000000000000000e+00 8.500000000000000e-01 9.999999999981467e-02 0.000000000000000e+00 9.000000000000000e-01 4.999999999989965e-02 0.000000000000000e+00 8.500000000000000e-01 9.999999999981467e-02 0.000000000000000e+00 8.500000000000000e-01 4.999999999989965e-02 0.000000000000000e+00 8.500000000000000e-01 4.999999999989965e-02 0.000000000000000e+00 8.500000000000000e-01 9.999999999981467e-02 0.000000000000000e+00 8.000000000000000e-01 9.999999999981467e-02 0.000000000000000e+00 8.500000000000000e-01 4.999999999989965e-02 0.000000000000000e+00 8.000000000000000e-01 9.999999999981467e-02 0.000000000000000e+00 8.000000000000000e-01 4.999999999989965e-02 0.000000000000000e+00 8.000000000000000e-01 4.999999999989965e-02 0.000000000000000e+00 8.000000000000000e-01 9.999999999981467e-02 0.000000000000000e+00 7.500000000000000e-01 9.999999999981467e-02 0.000000000000000e+00 8.000000000000000e-01 4.999999999989965e-02 0.0000000000000
[...]
<PointData Scalars="tracer_conc," Vectors="" Tensors="">
<DataArray type="Float64" Name="tracer_conc" format="ascii">
1.012078825214565e+01 9.959494663051945e+00 1.012477209625460e+01 1.041303720147574e+01 9.899876238778798e+00 1.037790986328553e+01 1.030055583292495e+01 9.938915242116932e+00 9.817314743100750e+00 1.040843485354592e+01 9.725301232800037e+00 1.020358399685323e+01 1.016234408513404e+01 9.759497938713233e+00 9.532829521536627e+00 1.022893541540201e+01 9.471744543286063e+00 9.949395055813810e+00 9.921294236355438e+00 9.496953677371224e+00 9.217663906464987e+00 9.964912505665531e+00 9.176938338314192e+00 9.655283315697355e+00 9.633565524448215e+00 9.196977964810314e+00 8.899939259072770e+00 9.663577906088545e+00 8.871569663884465e+00 9.350270959415143e+00 9.332308730035345e+00 8.888517787419051e+00 8.595080870848740e+00 9.354404508926928e+00 8.573908496458001e+00 9.052883551748955e+00 9.037145347118660e+00 8.589105687204674e+00 8.311177580510185e+00 9.055056596209280e+00 8.293757207647738e+00 8.773094643719380e+00 8.758578409796685e+00 8.308118327477542e+00 8.050838123381169e+00 8.774856149273573e+00 8.034794874102285e+00 8.514639324520164e+00 8.500663025743307e+00 8.048951643343415e+00 7.812564757473819e+00 8.517068081178872e+00 7.796253509095815e+00 8.276747226675216e+00 8.262842509238384e+00 7.810638781926294e+00 7.591904034745328e+00 8.280577102221066e+00 7.574200912453566e+00 8.055459481878898e+00 8.041307803236323e+00 7.589104983291985e+00 7.382370188501060e+00 8.061171343600877e+00 7.362529266271893e+00 7.844635135423419e+00 7.830024970701872e+00 7.378139429675191e+00 7.176158552091350e+00 7.852524153378882e+00 7.153709629828843e+00 7.636713558802469e+00 7.621510486818004e+00 7.170137633785254e+00 6.964689777315439e+00 7.646935093851935e+00 6.939368037884674e+00 7.423292571338215e+00 7.407418801004640e+00 6.956667835095487e+00 6.739037652937202e+00 7.435889011562608e+00 6.710740206107070e+00 7.195581951286989e+00 7.179003401681640e+00 6.728917897610834e+00 6.490294822855749e+00 7.210493765907344e+00 6.459059282087574e+00 6.944788664797644e+00 6.927508002584234e+00 6.478077333279670e+00 6.209922880696388e+00 6.961854439226757e+00 6.175921749910201e+00 6.662480314385644e+00 6.644534145032640e+00 6.195700003640308e+00 5.890117273010242e+00 6.681431922708363e+00 5.853660157993029e+00 6.340956500677004e+00 6.322414932756420e+00 5.874076682404183e+00 5.524194336765190e+00 6.361411486629791e+00 5.485730490789001e+00 5.973635566445914e+00 5.954609693105457e+00 5.506631631543833e+00 5.106979042333665e+00 5.994959676343017e+00 5.067144503152092e+00 5.555447259650930e+00 5.536204067389596e+00 5.088625076992641e+00 4.635185595688639e+00 5.578568307771019e+00 4.592739875662361e+00 5.084122767545634e+00 1.001515191830173e+01 9.941759274676143e+00 9.812551114118619e+00 1.009873781843174e+01 9.736341434665288e+00 9.942104792215440e+00 9.944670564420298e+00 9.713323273885219e+00 9.509232938668877e+00 1.001225402324631e+01 9.454458566650963e+00 9.763593794547388e+00 9.751438914013470e+00 9.455174372165738e+00 9.185952482028013e+00 9.800903242385735e+00 9.143383378071643e+00 9.500408187802263e+00 9.485093203517435e+00 9.151837899753284e+00 8.849592213913883e+00 9.520282600784421e+00 8.818445779210698e+00 9.199195182231856e+00 9.184415322125425e+00 8.829083915212669e+00 8.518909502915998e+00 9.209917186125026e+00 8.495851954795578e+00 8.889830880520050e+00 8.876045713100840e+00 8.507170787564371e+00 8.205820032111218e+00 8.895509644626927e+00 8.187823552345243e+00 8.589772961568901e+00 8.576736342885560e+00 8.199492324646085e+00 7.916613361050291e+00 8.592951620804737e+00 7.901237301466820e+00 8.308325077948645e+00 8.295646977540951e+00 7.913291110286224e+00 7.652824562726871e+00 8.310685464087767e+00 7.638212135198046e+00 8.048838739634297e+00 8.036150880105318e+00 7.650781637934879e+00 7.412293404237057e+00 8.051509475264638e+00 7.397089076658681e+00 7.810314704010179e+00 7.797319469160012e+00 7.410305477532413e+00 7.190149197806447e+00 7.814046792141949e+00 7.173400612339793e+00 7.588652222583978e+00 7.575129027429474e+00 7.187365907038184e+00 6.979638859312821e+00 7.593932476541884e+00 6.960705327960915e+00 7.377619864270035e+00 7.363416245116595e+00 6.975486778447122e+00 6.772784026122414e+00 7.384747360853138e+00 6.751260932604750e+00 7.169598005717511e+00 7.154616993786759e+00 6.766893056648342e+00 6.560891172516526e+00 7.178733913823826e+00 6.536554403532869e+00 6.956145172372300e+00 6.940334174912767e+00 6.553041538125938e+00 6.334958351740926e+00 6.967341611159795e+00 6.307729442168891e+00 6.728444321515732e+00 6.711787666189942e+00 6.325046381074726e+00 6.086027779404890e+00 6.741656962291180e+00 6.055957572251740e+00 6.477683625233184e+00 6.460199149925278e+00 6.074048089382856e+00 5.805527879380787e+00 6.492773192989441e+00 5.772793957317370e+00 6.195417423682853e+00 6.177156368726526e+00 5.791568392245427e+00 5.485633705433806e+00 6.212145741713104e+00 5.450544793114577e+00 5.873936924637333e+00 5.854986407599342e+00 5.469879075025366e+00 5.119652504407910e+00 5.891958795950008e+00 5.082652090298470e+00 5.506659188565980e+00 5.487158233939294e+00 5.102397204420891e+00 4.702408106550267e+00 5.525429743995701e+00 4.664081017493902e+00 5.088526701919359e+00 5.068733414806611e+00 4.684356632295115e+00 4.230619140680058e+00 5.108839264937860e+00 4.189893708604933e+00 4.617225235744131e+00 9.967734400622707e+00 9.924089535582127e+00 9.642844011150943e+00 1.000281334528168e+01 9.610344639277351e+00 9.721611049112681e+00 9.740177623840559e+00 9.584921958380441e+00 9.284193107100954e+00 9.773828016028501e+00 9.255225666244474e+00 9.457281054924863e+00 9.461492231856326e+00 9.244640302591602e+00 8.920159237938922e+00 9.493098019340175e+00 8.892792893390075e+00 9.154071880829948e+00 9.149556473050836e+00 8.892268618042067e+00 8.557184978643658e+00 9.174733806839964e+00 8.535142351224295e+00 8.830792448341104e+00 8.822931109599020e+00 8.539504430632313e+00 8.209105610996501e+00 8.842391661911764e+00 8.191784150961992e+00 8.508296155543844e+00 8.499076532649408e+00 8.198747439336689e+00 7.884587346779040e+00 8.514625857855780e+00 7.870425278002715e+00 8.200113604381214e+00 8.190210807893415e+00 7.879007006150817e+00 7.587829216591827e+00 8.203702900574280e+00 7.575180362912534e+00 7.913513861323982e+00 7.903079789940673e+00 7.584976481579641e+00 7.319030620718883e+00 7.916089009115066e+00 7.306479196212783e+00 7.650706910032421e+00 7.639698741082072e+00 7.317336300990455e+00 7.075168178221214e+00 7.653445790741743e+00 7.061611038533433e+00 7.410019674720639e+00 7.398340125411823e+00 7.073477337472706e+00 6.850806897738656e+00 7.413714229401309e+00 6.835440760421275e+00 7.186938439744327e+00 7.174493019210937e+00 6.848299563758499e+00 6.638821309967351e+00 7.192106470818987e+00 6.621096139027224e+00 6.974971626088726e+00 6.961688671505518e+00 6.634937013917127e+00 6.430985593348404e+00 6.981934688754952e+00 6.410553337424482e+00 6.766332423717103e+00 6.752167433720554e+00 6.425359464079352e+00 6.218441009411578e+00 6.775267579810791e+00 6.195113718932819e+00 6.552470356748001e+00 6.537405133043236e+00 6.210855167851516e+00 5.992075098070309e+00 6.563440722892048e+00 5.965798086935624e+00 6.324496657329277e+00 6.308538260651049e+00 5.982426439093620e+00 5.742856365185422e+00 6.337465317692608e+00 5.713696775179520e+00 6.073552246871528e+00 6.056733737147825e+00 5.731139646881121e+00 5.462164735581950e+00 6.088384724815027e+00 5.430312085899102e+00 5.791160890708679e+00 5.773544035564098e+00 5.448468009620758e+00 5.142144544724997e+00 5.807622008011483e+00 5.107917019832957e+00 5.469595330222289e+00 5.451275057705447e+00 5.126652767256878e+00 4.776085174001645e+00 5.487342729379225e+00 4.739933318890535e+00 5.102263546118060e+00 5.083384234456759e+00 4.759092908820707e+00 4.358800965961387e+00 5.120763112853430e+00 4.321309700210604e+00 4.684104338338064e+00 4.664924808506691e+00 4.340999127498544e+00 3.886993875584958e+00 4.704123952264340e+00 3.847132788812535e+00 4.212752580442527e+00 9.940779504559787e+00 9.911564274211477e+00 9.536685993246786e+00 9.958306253635492e+00 9.520919956856934e+00 9.589959693049218e+00 9.608328699363113e+00 9.499255261677980e+00 9.123172681405700e+00 9.624862740228913e+00 9.108387261985035e+00 9.246875321608822e+00 9.255832319400778e+00 9.096084400341917e+00 8.719246988071690e+00 9.273677707457344e+00 8.703591399450714e+00 8.894192096893358e+00 8.895536296709437e+00 8.698956750928796e+00 8.329002129369176e+00 8.911211355736224e+00 8.315383257717606e+00 8.541003528105275e+00 8.538009749579615e+00 8.315761344810291e+00 7.962242967305619e+00 8.550946788511617e+00 7.950909098065402e+00 8.199777166959656e+00 8.194300872399875e+00 7.954566405447092e+00 7.625013843440276e+00 8.205243733787089e+00 7.615196552495181e+00 7.879603088697221e+00 7.872558155412755e+00 7.621134263113836e+00 7.319634037591963e+00 7.882656665648949e+00 7.310255792323391e+00 7.585214672980482e+00 7.577003139794773e+00 7.317929959885889e+00 7.045002112286208e+00 7.587387763869621e+00 7.035023690089784e+00 7.317300567213458e+00 7.308074663997973e+00 7.044140545157103e+00 6.797202944424172e+00 7.319688763600017e+00 6.785764605962494e+00 7.073244507486920e+00 7.063046622023731e+00 6.796160286394347e+00 6.570192177243182e+00 7.076605074245474e+00 6.556647509975718e+00 6.847933580317163e+00 6.836766038935855e+00 6.568222753507585e+00 6.356428612979081e+00 6.852770316227440e+00 6.340329189454899e+00 6.634488636781684e+00 6.622345967215812e+00 6.353014900381762e+00 6.147403207545886e+00 6.641118016517510e+00 6.128467283883618e+00 6.424868955684798e+00 6.411751611587627e+00 6.142205752762498e+00 5.934064638578034e+00 6.433466657335505e+00 5.912147884979155e+00 6.210356292258788e+00 6.196276500749815e+00 5.926880986586770e+00 5.707169913601572e+00 6.220985407459311e+00 5.682246598329734e+00 5.981950539664513e+00 5.966935931486462e+00 5.697906571130697e+00 5.457599613120282e+00 5.994574460732226e+00 5.429756331072713e+00 5.730718827578577e+00 5.714816421131729e+00 5.446257503843017e+00 5.176675197617802e+00 5.745203322067003e+00 5.146114764468372e+00 5.448136601747430e+00 5.431417760814078e+00 5.163346445457376e+00 4.856503153332444e+00 5.464246655452584e+00 4.823552991947086e+00 5.126446014826827e+00 5.109012357103413e+00 4.841375437136066e+00 4.490349608219977e+00 5.143839806663820e+00 4.455466598897060e+00 4.759036996816537e+00 4.741036714350881e+00 4.473719201057586e+00 4.073016369197150e+00 4.777185080075502e+00 4.036789007939785e+00 4.340838357008988e+00 4.322530562850119e+00 4.055562312735395e+00 3.601197729168768e+00 4.360441524337427e+00 3.562676390828181e+00 3.869436098260639e+00 9.923312485195147e+00 9.902723215074436e+00 9.464667665574538e+00 9.933001418988068e+00 9.456303707847557e+00 9.502679416091492e+00 9.517610060013231e+00 9.439180211539210e+00 9.007472774146526e+00 9.525090870112908e+00 9.000783111806147e+00 9.098061797089132e+00 9.107377222196002e+00 8.989470042381710e+00 8.569327738464843e+00 9.116090651176116e+00 8.561756874438560e+00 8.700666489993759e+00 8.704427305145787e+00 8.555847719108826e+00 8.154273528822911e+00 8.712535100940361e+00 8.147428075429449e+00 8.317082025088355e+00 8.316938530210948e+00 8.145727870724230e+00 7.769815272926405e+00 8.323998750812585e+00 7.763846454366774e+00 7.955476253186741e+00 7.952651678330708e+00 7.765332161715652e+00 7.420138333622979e+00 7.959074189409219e+00 7.414529781527880e+00 7.621662285881079e+00 7.616913085203747e+00 7.418461560072630e+00 7.106098190102246e+00 7.623477650726112e+00 7.100068610711685e+00 7.318137526212399e+00 7.311882584567402e+00 7.105959110649795e+00 6.825492172025664e+00 7.319421921972184e+00 6.818250728008795e+00 7.044099587751328e+00 7.036556362316058e+00 6.825787132739478e+00 6.573601233013598e+00 7.045797143307029e+00 6.564474497337335e+00 6.795939202318833e+00 6.787218137498259e+00 6.573452694162600e+00 6.343805396847379e+00 6.798723870711986e+00 6.332280091707308e+00 6.567879863692314e+00 6.558040286796582e+00 6.342560405514206e+00 6.128156766330386e+00 6.572208597572438e+00 6.113877394715991e+00 6.352597251191787e+00 6.341677414193435e+00 6.125356954591187e+00 5.917861830549153e+00 6.358759573452224e+00 5.900610741315268e+00 6.141751143336904e+00 6.129783561915918e+00 5.913205812634683e+00 5.703671974295108e+00 6.149906850001168e+00 5.683348767581960e+00 5.926421536721665e+00 5.913441340587700e+00 5.696982035567729e+00 5.476208480640441e+00 5.936624110567855e+00 5.452817459156869e+00 5.697472522722044e+00 5.683523452178106e+00 5.467407368338058e+00 5.226259440728067e+00 5.709679364798347e+00 5.199907752476268e+00 5.445880219815491e+00 5.431020550910773e+00 5.215358841000174e+00 4.945084144104503e+00 5.459953244820512e+00 4.915988733732391e+00 5.163059748025291e+00 5.147368732689860e+00 4.932183366725570e+00 4.624748237703458e+00 5.178761436670604e+00 4.593246308484597e+00 4.841214216395731e+00 4.824799003311365e+00 4.610039755187878e+00 4.258492156676342e+00 4.858201382906996e+00 4.225047423138659e+00 4.473709416019670e+00 4.456721313754465e+00 4.242275220339430e+00 3.841103420719627e+00 4.491456526129295e+00 3.806308582247771e+00 4.055460009434097e+00 4.038156407957785e+00 3.824044735638118e+00 3.369269425831480e+00 4.074597850024704e+00 3.332264348780462e+00 3.583999699423519e+00 9.911226929499493e+00 9.896513826829423e+00 9.414259780702171e+00 9.916651133191399e+00 9.409816318051929e+00 9.441888501626348e+00 9.453237459846369e+00 9.396721243894003e+00 8.924484604252243e+00 9.455610163593475e+00 8.922574893099689e+00 8.991210515683038e+00 8.999301378756497e+00 8.913074832886835e+00 8.459252227257338e+00 9.002082659793899e+00 8.457111841750640e+00 8.557356926772510e+00 8.561651722159109e+00 8.451336463248989e+00 8.023562267913135e+00 8.564175328041072e+00 8.021798994288401e+00 8.146883649935560e+00 8.148106598302357e+00 8.019297763612599e+00 7.623821958322770e+00 8.150368591951459e+00 7.622250850050683e+00 7.766112751891579e+00 7.764928423389455e+00 7.622516256678168e+00 7.263078483751517e+00 7.767371650299531e+00 7.261159610476895e+00 7.418894543970274e+00 7.415792181157162e+00 7.263738813802965e+00 6.941160583986528e+00 7.419071930556657e+00 6.938215039641288e+00 7.106099859613706e+00 7.101397485604951e+00 6.942754293195144e+00 6.655022444415439e+00 7.106189858037134e+00 6.650390863535871e+00 6.825700737443960e+00 6.819593840515012e+00 6.656627767727864e+00 6.399289636156455e+00 6.826484701298157e+00 6.392419270939694e+00 6.573201700833997e+00 6.565810896429953e+00 6.400160488020449e+00 6.166850679803201e+00 6.575251603812096e+00 6.157326031055355e+00 6.342198654004315e+00 6.333603393903029e+00 6.166426220409284e+00 5.949398189825563e+00 6.345907363980324e+00 5.936938180783545e+00 6.124928220762812e+00 6.115187326939481e+00 5.947283617738173e+00 5.737880587692092e+00 6.130544663112628e+00 5.722322200039089e+00 5.912745561807853e+00 5.901909110078104e+00 5.733818052863443e+00 5.522866732427337e+00 5.920403555846335e+00 5.504148774354126e+00 5.696520741540470e+00 5.684637653887101e+00 5.516708224551015e+00 5.294850462402371e+00 5.706256970880366e+00 5.273004965378684e+00 5.466974120531620e+00 5.454098489402980e+00 5.286538954783278e+00 5.044532008086995e+00 5.478735006003401e+00 5.019685556062221e+00 5.214984198888373e+00 5.201181885278925e+00 5.034092938319984e+00 4.763110999390261e+00 5.228624412146199e+00 4.735494104417834e+00 4.931900593705802e+00 4.917256359050628e+00 4.750653004483164e+00 4.442613456690108e+00 4.947177834612079e+00 4.412572795792552e+00 4.609883364318367e+00 4.594508323147168e+00 4.428335279486491e+00 4.076254498047237e+00 4.626451601987428e+00 4.044260439042834e+00 4.242271023378197e+00 4.226318595459911e+00 4.060459142882479e+00 3.658807156556795e+00 4.259608231676860e+00 3.625456576435828e+00 3.823961542976159e+00 3.807684751873939e+00 3.642149245543788e+00 3.186953155536512e+00 3.842630065068786e+00 3.151478369974407e+00 3.352436793250368e+00 9.902654054915150e+00 9.892298263447204e+00 9.379089215686577e+00 9.905397842307801e+00 9.377017647971742e+00 9.399032137302241e+00 9.407222298334263e+00 9.367340583006500e+00 8.866133350126505e+00 9.406560209323754e+00 8.867126761760590e+00 8.914654245954971e+00 8.920998451820639e+00 8.859649635957485e+00 8.380790983608614e+00 8.919920438631797e+00 8.382260100307148e+00 8.452679678036301e+00 8.456532355925169e+00 8.377318274412023e+00 7.929225127018189e+00 8.455092515418585e+00 7.931114105388508e+00 8.020301695617308e+00 8.021905141515438e+00 7.928625756847315e+00 7.517372128688103e+00 8.020495358831202e+00 7.519178788075473e+00 7.623164187338928e+00 7.622802809100982e+00 7.518957720830128e+00 7.147644255232668e+00 7.622012344616798e+00 7.148714481554064e+00 7.264059792177991e+00 7.261981639549327e+00 7.150535130766317e+00 6.819207598410491e+00 7.262468082870709e+00 6.818863900231288e+00 6.942802101371474e+00 6.939193265757588e+00 6.822511317684286e+00 6.528422349925482e+00 6.941572106144194e+00 6.526058260745952e+00 6.656464343754828e+00 6.651456848282213e+00 6.531346546353628e+00 6.269424129333760e+00 6.656236395746388e+00 6.264554199409085e+00 6.399844945052312e+00 6.393533670578615e+00 6.271328581993606e+00 6.034717992306153e+00 6.401092140756693e+00 6.026990560256581e+00 6.166009333300185e+00 6.158466792119158e+00 6.035123203701763e+00 5.815707118965136e+00 6.169056633016202e+00 5.804894682223337e+00 5.946806672860998e+00 5.938093070043463e+00 5.814278518916892e+00 5.603127221470873e+00 5.951856822094503e+00 5.589108807584910e+00 5.733314596690274e+00 5.723484375682982e+00 5.599650510782705e+00 5.387394043543713e+00 5.740470154403387e+00 5.370140110961165e+00 5.516207299238987e+00 5.505314247445740e+00 5.381752186016572e+00 5.158893082958214e+00 5.525483830615628e+00 5.138458836903481e+00 5.286068605314759e+00 5.274171175568180e+00 5.151050810685194e+00 4.908249106882214e+00 5.297398277400893e+00 4.884777784981241e+00 5.033682974883916e+00 5.020850602241506e+00 4.898246989059016e+00 4.626610061188906e+00 5.046910850801154e+00 4.600344002282739e+00 4.750336161417414e+00 4.736656427024621e+00 4.614567157004761e+00 4.305967345317503e+00 4.765213506517680e+00 4.277261575771511e+00 4.428145721131209e+00 4.413731896959808e+00 4.292089463623180e+00 3.939513727932817e+00 4.444322558878376e+00 3.908844513782933e+00 4.060422777012566e+00 4.045429244775711e+00 3.924107998691098e+00 3.522009227810865e+00 4.077379803736140e+00 3.489977357593792e+00 3.642048058464679e+00 3.626721414016492e+00 3.505719637860862e+00 3.050132055481283e+00 3.660286292863270e+00 3.016057078931660e+00 3.170457259580349e+00 9.896590513842469e+00 9.889683988417158e+00 9.355501947911440e+00 9.897478028908884e+00 9.354989484406085e+00 9.369376370477228e+00 9.374818620785653e+00 9.348269207623947e+00 8.827227236188419e+00 9.372312761931452e+00 8.829986120852855e+00 8.861116036796641e+00 8.865557466809742e+00 8.824565768722897e+00 8.328143695209002e+00 8.861996802611410e+00 8.331952582035985e+00 8.378526502835001e+00 8.381405114049738e+00 8.328232384231844e+00 7.865482081631205e+00 8.377264336894719e+00 7.869866397219762e+00 7.929491967126734e+00 7.930814068114039e+00 7.867939234770687e+00 7.444987007777231e+00 7.926766677813432e+00 7.449212177265971e+00 7.519474052896276e+00 7.519292686597586e+00 7.449076593065383e+00 7.068738085535774e+00 7.516074229845580e+00 7.072033853200787e+00 7.150734773030720e+00 7.149119329748418e+00 7.073621334981928e+00 6.735504415107152e+00 7.147434318360629e+00 6.737158365230133e+00 6.822449125068259e+00 6.819465540358424e+00 6.740369256804064e+00 6.441262277810298e+00 6.819919266512706e+00 6.440679380434783e+00 6.531083711848455e+00 6.526790077213810e+00 6.445405226301342e+00 6.179814547607913e+00 6.529855019280491e+00 6.176541534614898e+00 6.270922630394526e+00 6.265371123797494e+00 6.182676826343926e+00 5.943396693886581e+00 6.271382862090332e+00 5.937119402541828e+00 6.034623113985064e+00 6.027862797140422e+00 5.944566625185856e+00 5.723203286768240e+00 6.03703379969964