<?xml version="1.0"?>
<VTKFile type="UnstructuredGrid" version="0.1" byte_order="LittleEndian">
<UnstructuredGrid>
<Piece NumberOfPoints="2400" NumberOfCells="800">
<Points>
<DataArray type="Float64" NumberOfComponents="3" format="ascii">
0 0 0 0.050000000000000037 0 0 0 0.049999999999899652 0 0.050000000000000037 0 0 0.050000000000000037 0.049999999999899652 0 0 0.049999999999899652 0 0.050000000000000037 0.049999999999899652 0 0 0.049999999999899652 0 0 0.099999999999814668 0 0 0.099999999999814668 0 0.050000000000000037 0.099999999999814668 0 0 0.14999999999970359 0 0.050000000000000037 0.049999999999899652 0 0 0.099999999999814668 0 0.050000000000000037 0.099999999999814668 0 0.050000000000000037 0.049999999999899652 0 0.050000000000000037 0.099999999999814668 0 0.099999999999999978 0.049999999999899652 0 0.050000000000000037 0.099999999999814668 0 0.099999999999999978 0.099999999999814668 0 0.099999999999999978 0.049999999999899652 0 0.050000000000000037 0.099999999999814668 0 0.099999999999999978 0.099999999999814668 0 0.050000000000000037 0.14999999999970359 0 0.099999999999999978 0.099999999999814668 0 0.099999999999999978 0.14999999999970359 0 0.14999999999999999 0.099999999999814668 0 0.099999999999999978 0.099999999999814668 0 0.099999999999999978 0.049999999999899652 0 0.14999999999999999 0.049999999999899652 0 0.099999999999999978 0.049999999999899652 0 0.099999999999999978 0 0 0.14999999999999999 0 0 0.050000000000000037 0 0 0.050000000000000037 0.049999999999899652 0 0.099999999999999978 0 0 0.050000000000000037 0.049999999999899652 0 0.099999999999999978 0.049999999999899652 0 0.099999999999999978 0 0 0.050000000000000037 0.24999999999941211 0 0 0.24999999999941211 0 0.050000000000000037 0.19999999999955789 0 0 0.24999999999941211 0 0 0.19999999999955789 0 0.050000000000000037 0.19999999999955789 0 0 0.19999999999955789 0 0.050000000000000037 0.19999999999955789 0 0.050000000000000037 0.14999999999970359 0 0 0.19999999999955789 0 0 0.14999999999970359 0 0.050000000000000037 0.14999999999970359 0 0.050000000000000037 0.099999999999814668 0 0 0.14999999999970359 0 0.050000000000000037 0.14999999999970359 0 0.099999999999999978 0.099999999999814668 0 0.050000000000000037 0.14999999999970359 0 0.099999999999999978 0.14999999999970359 0 0.099999999999999978 0.14999999999970359 0 0.099999999999999978 0.19999999999955789 0 0.14999999999999999 0.14999999999970359 0 0.050000000000000037 0.19999999999955789 0 0.099999999999999978 0.14999999999970359 0 0.099999999999999978 0.19999999999955789 0 0.050000000000000037 0.19999999999955789 0 0.050000000000000037 0.14999999999970359 0 0.099999999999999978 0.14999999999970359 0 0.050000000000000037 0.24999999999941211 0 0.050000000000000037 0.19999999999955789 0 0.099999999999999978 0.19999999999955789 0 0.099999999999999978 0.19999999999955789 0 0.099999999999999978 0.24999999999941211 0 0.14999999999999999 0.19999999999955789 0 0.050000000000000037 0.24999999999941211 0 0.099999999999999978 0.19999999999955789 0 0.099999999999999978 0.24999999999941211 0 0.14999999999999999 0.24999999999941211 0 0.20000000000000001 0.19999999999955789 0 0.20000000000000001 0.24999999999941211 0 0.099999999999999978 0.24999999999941211 0 0.14999999999999999 0.24999999999941211 0 0.14999999999999999 0.19999999999955789 0 0.14999999999999999 0.24999999999941211 0 0.14999999999999999 0.19999999999955789 0 0.20000000000000001 0.19999999999955789 0 0.14999999999999999 0.19999999999955789 0 0.20000000000000001 0.14999999999970359 0 0.20000000000000001 0.19999999999955789 0 0.14999999999999999 0.19999999999955789 0 0.14999999999999999 0.14999999999970359 0 0.20000000000000001 0.14999999999970359 0 0.099999999999999978 0.19999999999955789 0 0.14999999999999999 0.19999999999955789 0 0.14999999999999999 0.14999999999970359 0 0.099999999999999978 0.14999999999970359 0 0.14999999999999999 0.14999999999970359 0 0.14999999999999999 0.099999999999814668 0 0.14999999999999999 0.14999999999970359 0 0.20000000000000001 0.14999999999970359 0 0.20000000000000001 0.099999999999814668 0 0.20000000000000001 0.14999999999970359 0 0.25 0.099999999999814668 0 0.25 0.14999999999970359 0 0.20000000000000001 0.19999999999955789 0 0.25 0.14999999999970359 0 0.25 0.19999999999955789 0 0.20000000000000001 0.14999999999970359 0 0.20000000000000001 0.19999999999955789 0 0.25 0.14999999999970359 0 0.20000000000000001 0.19999999999955789 0 0.20000000000000001 0.24999999999941211 0 0.25 0.19999999999955789 0 0.20000000000000001 0.24999999999941211 0 0.25 0.24999999999941211 0 0.25 0.19999999999955789 0 0.14999999999999999 0.049999999999899652 0 0.20000000000000001 0.049999999999899652 0 0.20000000000000001 0 0 0.14999999999999999 0 0 0.14999999999999999 0.049999999999899652 0 0.20000000000000001 0 0 0.099999999999999978 0.049999999999899652 0 0.14999999999999999 0 0 0.14999999999999999 0.049999999999899652 0 0.099999999999999978 0.099999999999814668 0 0.14999999999999999 0.049999999999899652 0 0.14999999999999999 0.099999999999814668 0 0.14999999999999999 0.14999999999970359 0 0.14999999999999999 0.099999999999814668 0 0.20000000000000001 0.099999999999814668 0 0.14999999999999999 0.049999999999899652 0 0.14999999999999999 0.099999999999814668 0 0.20000000000000001 0.049999999999899652 0 0.14999999999999999 0.099999999999814668 0 0.20000000000000001 0.099999999999814668 0 0.20000000000000001 0.049999999999899652 0 0.20000000000000001 0.099999999999814668 0 0.20000000000000001 0.049999999999899652 0 0.25 0.049999999999899652 0 0.20000000000000001 0.14999999999970359 0 0.20000000000000001 0.099999999999814668 0 0.25 0.099999999999814668 0 0.20000000000000001 0.099999999999814668 0 0.25 0.049999999999899652 0 0.25 0.099999999999814668 0 0.20000000000000001 0.049999999999899652 0 0.25 0 0 0.25 0.049999999999899652 0 0.20000000000000001 0.049999999999899652 0 0.20000000000000001 0 0 0.25 0 0 0.25 0 0 0.25 0.049999999999899652 0 0.29999999999999999 0 0 0.25 0.049999999999899652 0 0.29999999999999999 0.049999999999899652 0 0.29999999999999999 0 0 0.29999999999999999 0.049999999999899652 0 0.29999999999999999 0 0 0.34999999999999998 0 0 0.29999999999999999 0.049999999999899652 0 0.34999999999999998 0.049999999999899652 0 0.34999999999999998 0 0 0.34999999999999998 0.049999999999899652 0 0.34999999999999998 0 0 0.40000000000000002 0 0 0.34999999999999998 0.099999999999814668 0 0.34999999999999998 0.14999999999970359 0 0.40000000000000002 0.099999999999814668 0 0.34999999999999998 0.049999999999899652 0 0.34999999999999998 0.099999999999814668 0 0.40000000000000002 0.049999999999899652 0 0.29999999999999999 0.049999999999899652 0 0.34999999999999998 0.049999999999899652 0 0.29999999999999999 0.099999999999814668 0 0.34999999999999998 0.049999999999899652 0 0.34999999999999998 0.099999999999814668 0 0.29999999999999999 0.099999999999814668 0 0.34999999999999998 0.099999999999814668 0 0.29999999999999999 0.099999999999814668 0 0.29999999999999999 0.14999999999970359 0 0.29999999999999999 0.049999999999899652 0 0.29999999999999999 0.099999999999814668 0 0.25 0.099999999999814668 0 0.25 0.049999999999899652 0 0.29999999999999999 0.049999999999899652 0 0.25 0.099999999999814668 0 0.29999999999999999 0.099999999999814668 0 0.25 0.099999999999814668 0 0.25 0.14999999999970359 0 0.25 0.14999999999970359 0 0.29999999999999999 0.14999999999970359 0 0.25 0.19999999999955789 0 0.29999999999999999 0.14999999999970359 0 0.25 0.19999999999955789 0 0.29999999999999999 0.19999999999955789 0 0.29999999999999999 0.099999999999814668 0 0.25 0.14999999999970359 0 0.29999999999999999 0.14999999999970359 0 0.25 0.24999999999941211 0 0.25 0.19999999999955789 0 0.29999999999999999 0.19999999999955789 0 0.25 0.24999999999941211 0 0.29999999999999999 0.19999999999955789 0 0.29999999999999999 0.24999999999941211 0 0.29999999999999999 0.24999999999941211 0 0.34999999999999998 0.19999999999955789 0 0.34999999999999998 0.24999999999941211 0 0.29999999999999999 0.19999999999955789 0 0.29999999999999999 0.24999999999941211 0 0.34999999999999998 0.19999999999955789 0 0.34999999999999998 0.19999999999955789 0 0.34999999999999998 0.24999999999941211 0 0.40000000000000002 0.19999999999955789 0 0.34999999999999998 0.099999999999814668 0 0.29999999999999999 0.14999999999970359 0 0.34999999999999998 0.14999999999970359 0 0.29999999999999999 0.19999999999955789 0 0.34999999999999998 0.19999999999955789 0 0.34999999999999998 0.14999999999970359 0 0.29999999999999999 0.14999999999970359 0 0.29999999999999999 0.19999999999955789 0 0.34999999999999998 0.14999999999970359 0 0.34999999999999998 0.19999999999955789 0 0.34999999999999998 0.14999999999970359 0 0.40000000000000002 0.14999999999970359 0 0.34999999999999998 0.14999999999970359 0 0.40000000000000002 0.14999999999970359 0 0.40000000000000002 0.099999999999814668 0 0.34999999999999998 0.19999999999955789 0 0.40000000000000002 0.14999999999970359 0 0.40000000000000002 0.19999999999955789 0 0.40000000000000002 0.19999999999955789 0 0.45000000000000001 0.19999999999955789 0 0.45000000000000001 0.14999999999970359 0 0.40000000000000002 0.14999999999970359 0 0.40000000000000002 0.19999999999955789 0 0.45000000000000001 0.14999999999970359 0 0.40000000000000002 0.14999999999970359 0 0.45000000000000001 0.14999999999970359 0 0.45000000000000001 0.099999999999814668 0 0.34999999999999998 0.24999999999941211 0 0.40000000000000002 0.24999999999941211 0 0.40000000000000002 0.19999999999955789 0 0.40000000000000002 0.24999999999941211 0 0.40000000000000002 0.19999999999955789 0 0.45000000000000001 0.19999999999955789 0 0.40000000000000002 0.24999999999941211 0 0.45000000000000001 0.24999999999941211 0 0.45000000000000001 0.19999999999955789 0 0.45000000000000001 0.24999999999941211 0 0.45000000000000001 0.19999999999955789 0 0.5 0.19999999999955789 0 0.45000000000000001 0.24999999999941211 0 0.5 0.19999999999955789 0 0.5 0.24999999999941211 0 0.45000000000000001 0.19999999999955789 0 0.45000000000000001 0.14999999999970359
[...]
<PointData Scalars="tracer_conc," Vectors="" Tensors="">
<DataArray type="Float64" Name="tracer_conc" format="ascii">
5.1315622347756893 5.6235781335307138 4.6436953795581015 5.5935463824953118 5.1375588698875987 4.673885718138683 5.1512865416203573 4.6625572071445402 4.2349525170695266 4.2521927239804134 4.7408383584249911 3.882815513403719 5.123638121669436 4.2635607389132266 4.7275416581253138 5.1374411445648986 4.7131750818765559 5.5785091604347805 4.7393218645842978 5.1558702047518414 5.552402748640211 4.7271182799389759 5.1681029580058429 4.3610484919094681 5.155761148240197 4.78997217121365 5.551794319605496 5.1420330095022591 5.56605119121771 5.9621365274305553 5.5511727788820719 6.0351181610442968 6.4339649643311105 5.6064604596199281 5.1223235476720026 6.0504179696560039 5.1496917941164861 5.5658468316157572 6.0222505614277599 3.8347375294263135 3.3702734983942619 4.0657268228309524 3.3436630128232894 3.6031316881406661 4.0914324587961568 3.6142011248362858 4.078474688364226 4.3617770377595519 3.5867399046738395 3.8998012402783591 4.3882845469562053 4.7136363563401344 3.9110230749422876 4.3751333115024744 5.1424401884323467 4.3868067627163869 4.8035256588359543 4.8034692935773107 4.4939036725877166 5.1994407723315925 4.0899957914764968 4.7906408411186359 4.5069500042393251 4.0649089102165892 4.374773886522461 4.8156529198288531 3.8217628760454012 4.0781596766318042 4.5189184944089735 4.506921693247941 4.2508365365446261 4.9028239548457817 3.8460813168723056 4.4946637917513845 4.2633068338175821 4.657942562823755 5.2237809274248939 4.9922049360922918 4.2743535624032516 4.6478802335057683 4.8793348267512808 4.6356270448518506 4.8912462245846244 5.2460290719185494 4.9016521573516858 5.5194228997639394 5.2354922810840216 4.8785520827347399 5.1876711888313176 5.5424494494742893 4.5181957642112822 4.8913865671867951 5.1751834125948797 4.8149414163315836 5.1878395850001855 5.5268768209133734 5.1982757756097993 5.5317473583374897 5.8709462865596231 5.5410136241689045 6.1800723976221308 5.8407174157554733 5.2445857319445048 5.8288071738535656 5.5447640809131995 5.5314918443630123 5.2229761630059395 5.8503154686859311 5.2352642579798738 4.9802783126991015 5.5541938048715425 5.0010879021111139 5.3018099131624794 5.5334803517720648 5.9608994371720438 6.293691101016611 6.7504646484661173 6.4191929805394485 5.9355893072207815 6.7764965844443941 5.5777351832564879 6.4065829302278567 5.9500169287622962 5.1674031270055565 5.9367645075819642 5.5400847234330435 5.1744906807464019 5.5398645694222672 5.8946412065570097 5.9500899466977497 5.5264363218216443 6.3048725152270437 5.5506363665121983 5.8838323487776103 6.2807148696049433 5.8704697078640677 6.2936482962098346 6.6123296649033652 5.5187059040620721 5.883526605858961 6.2022627395226522 5.8932121520560932 6.5896638845805287 6.192559986179953 6.303366219378125 7.0593205601433962 6.60229986573139 6.279603942033666 6.7627851685925604 7.0837004572613438 7.0713250548786668 6.588627656876934 7.362071409739781 6.6106314903437307 6.8822739824244401 7.3395573663820333 6.8690671432451103 7.3512370100290774 7.6187775893833285 6.8891982723800282 7.1407114871703747 7.5982408647102018 7.1279927573943827 7.6096075154038481 7.8612945746875438 6.7310299612478453 6.3688285032013514 6.9820485169448796 7.1404377157463825 6.7193321234449312 7.391004468310447 6.8820543931271514 7.1480676348705767 6.4601411874872241 7.128877366800614 6.7314515618436097 6.4794400658997571 6.7385925958694006 6.4723134596154424 6.109050298746709 6.8700249144950716 6.4727214138501363 6.2006379105760896 6.602158437349714 6.8910042578877411 6.1795591332732949 6.4811772914432844 6.1921910486843279 5.8280676683414221 5.8403969465081227 6.1295927874164402 5.5326565219145554 6.1098115682102465 5.5525543369935102 5.8257364541122891 6.4606924460092285 5.8486844258436195 6.1212389219572607 5.2903045499260228 5.5444703100781014 5.8339167784928545 5.3093786209214766 5.8149556748824951 5.5832795996525375 5.5894695825604011 6.0754545598991943 5.8439465972423932 5.8254006240606726 5.5722796291367027 6.0925280203787082 6.0853143241920922 5.8335273587675784 6.3377494440098134 6.7199244706076033 6.1278504344256426 6.3805014680172683 5.8321646954545656 6.0856674816119449 6.3696125378383579 6.1208775114083425 5.8141153243540264 6.3875440586017085 6.07459940422416 6.3801242918184977 6.6317914815474541 6.38578063246079 6.6260466753258713 6.9652118208950169 6.09075293833458 6.6157409977384729 6.3322003042557506 6.3360488127923107 6.5730090678368311 6.8557154625764332 6.6256802890599449 6.3217438375159647 6.86995106659203 6.6301055046604338 6.8653996733060048 7.2039431041934234 5.8487687162927884 6.0915631974858044 6.3226132347718371 6.0817953062988082 6.3318557573697438 6.5773430330916574 6.0951107523341133 6.3339616291600587 6.5641043858262655 6.3249172520809029 6.5727009901055657 6.818739566586232 6.3364210516731641 6.8072643012019238 6.5786988505431756 6.5632199609159043 6.8650728029546215 7.1092409746349459 6.5758260888426845 7.0966476089789712 6.8154235147951931 6.868453725038675 7.4430375719206658 7.1056723157409216 6.8548714044214956 7.2140337565284529 7.4566024324009392 7.2032452003662701 7.6222183363814793 7.8636486147626927 7.2175380235457611 7.4529518758554172 7.8493767389808253 7.6256649205653622 7.8600034894195874 8.3176828138498173 8.0911813672023278 7.6107062844621893 8.3328242881265613 8.0803026126515825 7.6225110018067941 7.389257663609258 8.0970158445104996 7.8538235385120165 7.3727774336089524 7.1462430882652654 7.8427337035263918 7.385016708267683 6.7368324084738189 7.3736056676654735 6.9762099615446038 6.6149305893909682 7.219039132384764 6.975801561011977 7.2143997801288542 7.6115099809806166 6.9803628618930063 7.627226463339813 7.3847168072625697 6.9645722062473832 5.655291273466486 5.5883929245244888 5.905010258792144 5.5984752343500164 5.8434488681652788 5.8951488039841591 5.6582066712039563 5.9021777225070728 5.9945860536654552 5.6557502967634141 5.7485212306402369 5.4092698512954582 5.6480305755353548 5.5963289533697953 5.3491194452230122 5.5886246214936115 5.5767407334667514 5.3291793823177178 5.5786506192503129 5.8363889096386297 5.8241055202824752 5.5958080761487423 5.5688342012455658 5.8459377307959599 5.8429550615061379 5.8168390288335372 6.0960067663089941 5.8245049141281893 6.0759912740065714 6.0886063361803577 5.8441625103291166 6.1464435080897921 6.094986034155756 5.8362084056129166 5.9017463686570952 6.1541862081476761 5.9032887108307799 6.2443725733890245 6.1527268572676883 6.0033660070356234 6.3849072943945311 6.25080150585186 5.9939938625760849 6.1443788261362311 6.3941741984172671 5.8947510840059021 6.0014282425219987 6.2527534193826826 6.1467393957276082 6.5712989368567651 6.391716361522076 6.3336501576298865 6.1363489471965895 6.5816284443495645 6.0912182148119198 6.3379764933105438 5.8916363879817064 6.3257666901123475 6.1447143350607911 5.9039453002868338 6.0826487812488086 5.9007547284451842 5.6565860283225113 5.6475880433177892 6.0050298556180683 5.756055642036344 6.1483459751607441 5.9003882779931862 5.7478941743917504 6.0018051697928341 6.1370967213067376 5.7592764445139437 5.8924052968998906 5.7564615324746251 5.5110252607960932 5.7610758429825699 5.5064119625920238 5.3965332332475615 5.9057066160150828 5.4975766500756862 5.6516969574487774 5.5068208862696757 5.6430557590587718 5.2504221397117199 5.6584021117251382 5.3903204727230456 5.2349268005177052 5.5128657560968755 5.2443831742594238 5.1333756152833567 5.8435951638248147 6.0968377719161779 5.6422763602448409 5.8343794244062446 5.6520679447156157 5.3965932709828461 5.5829470643150829 5.8505621425722572 5.3802831001509013 5.5731255367346106 5.3906711510127838 5.116032115318089 5.3015205761546076 5.5912345712374254 5.0978022416802693 5.381064550695867 5.2447706646084233 4.9694457651853776 5.3983728437116847 5.1084001839935329 4.9519986169703722 5.252216441461762 4.9620187323666958 4.8500997509575718 4.859635856154549 5.1500036431684508 4.7899200491895684 5.133860443679696 5.0825559454041169 4.8062595963226311 5.2355833240938594 4.8668977542306333 5.1427922852679382 5.4982241054269112 5.148195879876325 5.405359079047102 5.1423534213616575 5.4111341172069389 5.0734126336009462 5.397003599950021 5.3454560809229106 5.0877566182207508 5.660044155984151 5.4048980238193929 5.3368842811772614 5.6003476906608372 5.3171935484061201 5.3449336397596303 5.3510048168267117 5.0536291625397345 5.0820560506121089 5.3256963590667477 5.3371487072352393 5.0677358085085737 5.0626756340663022 5.0736951269067854 4.7861809504683714 5.0895753985506342 4.7991085769874493 4.7700702328661784 4.7902087855400568 4.7795963698422073 4.4768953152275177 4.8079350475261675 4.4589669565091619 4.4885389902135859 4.8505882461079954 4.7995625743779895 4.4970169395108552 4.9526549818590881 4.86002908893742 4.5577921737945841 4.8685694079521324 4.4788656788711139 4.5492250119252891 4.5592512762596504 4.2044073368205073 4.1335271417898563 4.4889244174152267 4.5396781017184455 4.1532351850941502 4.5495498763861164 4.2141049260259891 4.6419787035637068 4.2046426064932065 4.2968877516639159 3.8301684296252074 4.1944298935161983 4.1439073648634821 3.7692340484401239 4.1338011002217669 4.1238312481012729 3.7490516638775939 4.4688955688165093 4.4791509844373536 4.1330801038725866 4.498474755687865 4.1436116784731443 4.1135909145797056 4.9919821722205944 5.3110272654663966 4.7874360274288117 5.2911397723594291 5.1087066305857611 4.8074254373941381 5.1176897320489969 4.7985298665413678 4.6413302336615683 5.0985786357041798 4.9623611584214986 4.6605588406393617 4.9711112924096659 4.5391948340722719 4.6518483080484305 4.1939591989456018 4.662016975880138 4.3071927547933235 4.3073779523939004 4.4433087776164095 3.9331784574387476 4.8088804359134381 4.2962536898005101 4.4540741837517466 4.7882011433928904 4.6521227896648645 4.3170186514208595 4.9810984145819299 4.7987689841594845 4.4640715416729089 4.6364278042811646 4.4542244675281077 4.0803507313269982 4.6477457525911703 5.0025378343170033 4.4425603878114197 3.8344460652157455 4.275084889854738 3.6284736515337759 4.263284483213976 4.6591191066941127 4.057628134074208 4.2516164344593514 4.0695119259753154 3.6520046413862879 4.0583574176934905 3.922536423837069 3.5047631551096337 4.0810872947008487 3.4819625096004989 3.6405554135841691 4.465250434945383 4.0694739926796091 3.9111927084799318 4.3181973995649123 3.9224639082349344 3.8087941057109238 3.9339165504566975 3.4934683444725905 3.3795000927763192 3.50607422061438 3.0182541561876319 2.9015815399890821 3.0039939591986129 3.6533539551866658 3.1654013491026043 3.4937766786174858 3.0289228276620435 3.6292528257502523 3.8225970002182601 3.6408449372557006 3.1761812400120077 3.847473861265557 3.3593559571047695 3.1504427823300469 3.7699642760662178 3.3295872146501586 3.2989607675674306 3.7387691383196184 3.7485506588032944 3.320512038455278 4.154406680812663 3.7283256082096052 3.7587007359787759 4.2152811278032107 3.7482918786744839 3.8195717119211974 3.9118092827874955 3.8196938927171979 3.4016946158878678 3.7588828922598547 3.8092486588722716 3.3407175724156839 3.8309043297410477 3.3905091874317312 3.3189516473496132 3.3799953379428334 2.8648453858766985 3.3299843909495657 3.482624330775669 3.3908546245907427 2.9258375219998833 3.4029759147500784 2.9152440776358994 2.8410664607618803 2.8542848584915861 3.3419801849209883 2.821089517366095 3.3192470180670046 3.3098368302614332 2.8446277290786024 3.3217685945255835 2.8340550670634368 2.8411844820193881 3.2990403286056837 2.8647383252106611 3.3299598659075604 3.7497731983134153 3.3093777981537107 3.3190624329939094 3.728371902744565 3.3406308441048012 3.7588977699854738 4.134245094655034 3.738521924918869 3.7484282947968732 3.8193600170891169 3.9115913464451291 4.2151732525613292 3.758585825777236 3.8090644053726614 4.1543456095066595 3.748263023611285 3.8197309812382811 3.4015368048845369 3.3294340018263857 3.7698827587897816 3.3797208902054821 3.8307568088361661 3.3902237955470418 3.4822911179086034 3.3189281540007696 3.3908158976751488 2.9256405102903367 2.854109457498657 3.3418944162324165 2.9018160131738715 3.4028197985391224 2.9149160680317259 3.0043411091763996 3.0178175138519907 3.5058772892879224 3.1508954212561209 3.4818054553733884 3.1759152231364092 3.6408435964624553 3.3793925318528197 3.028668638192896 3.4937433321688425 3.3442088475502763 3.1649177444091445 3.6531570775262021 3.3700484752471995 3.6283143581230872 3.8347983337374822 3.8459314764961041 4.0575227072461173 4.2635114154793206 3.6401438575940182 3.8222882573584935 4.0809093008701849 4.0691883074763711 4.2514590912005676 4.4651431171490952 3.8087060703146434 3.5045642109146873 3.9226096062669833 3.4930913733037086 3.6289052206306707 3.9337328897281578 3.6518060088801287 4.0696400599931462 3.9110753306594668 4.0581457441468496 3.9221904901491658 4.3180703121384223 3.9330480559394241 4.3075432313054973 4.1939201570018225 4.0802368429025151 4.2962006679009264 4.4544650394091869 4.307009206035719 4.4431382200940162 4.6619132409818294 4.4640111098530957 4.7991002321146512 4.6413080015811028 4.3169303848173497 4.6523629009495178 4.5391798104564334 4.2743005182128959 4.6482107808289346 4.4425326332683301 4.6363196572194703 4.4538982801993576 4.8088029671145911 4.6579533138213414 4.9926361189437136 4.7874459248380523 4.980998494655366 4.7984453362723194 5.1175980686591993 5.0011164516610931 5.3023163908520496 5.0977945814574834 4.7880362432987456 4.6517401849021578 4.9709962070759897 4.8073774563142253 4.9519612427498627 5.1091090025865249 4.6604793747140825 4.8500741216081922 4.9626618345057638 4.6417946321617309 4.5491310269366316 4.868470041861146 4.5395111878310344 4.4884853127515569 4.8078784616004677 4.5577177270377609 4.7899359979187741 4.8602291780163345 4.7701445810334944 4.4969731248091938 4.7996625385867144 4.7878575273613562 4.4684446772427826 4.4790258629548658 4.4590387252263977 4.4890011316656722 4.1531884528463507 4.478349659943718 4.1234700684752008 4.1336810165006499 4.1136518827177992 3.7691722821040661 4.1439562209462055 3.8300589078700171 4.1335304114549327 4.2047451153284214 4.2967005697216667 4.5591596290245908 4.2042594660817301 4.5497058388621623 4.478886214754243 4.214024679975374 4.4984220364138539 4.1435299151103946 4.1942633336526907 6.0230140910347476 5.5662611362857222 5.9627784417500136 5.5789854224996933 5.5941856703456256 5.1375705138979972 6.0361652536889938 5.551783772061988 5.6224915940834217 5.607832660827639 5.1466167916536811 5.1231154015624663 5.1156182791217386 4.662262343010716 5.1514786471289673 4.6742448035557294 5.1383749007910833 4.7135692883305005 4.6455221748780451 4.2521690449271823 4.7410884587872006 4.2636901453549152 4.7279117886589042 4.3612192023015961 4.7395875319293248 5.1564189417352235 4.7902000556921207 5.5669366186963138 5.1502788585901156 5.1424495631143508 5.1239514172653253 4.7272328415566349 5.1684697831518394 5.5529392076171655 5.156048595947941 5.5522582599936294 5.1427402953147316 4.8035170717425695 5.1996907237196419 4.7907435955974425 4.5067951817343097 4.9029030285362483 4.8039442699227042 4.3868960750345227 4.4939715227066364 4.361707223097806 4.0778864554186445 4.5189056625741282 4.7137451094089338 4.8158028775251491 4.3746697311660672 4.2354427431958026 4.3883662084138235 3.8996163435497171 3.8834805550306553 4.0913789043518385 3.6027777127125149 4.3753951263931983 3.9110252846389302 4.0649125351473128 3.8216566434839905 4.0786262068977877 3.6140696257734204 3.3588989009143675 3.8473247219793585 3.5873593956134937 3.8340680294626015 4.274962623382442 4.0655126820766325 4.2507920439397129 4.0899440633548352 4.5072522906216834 4.263046263919203 4.6590789800914294 4.4946120568855381 4.6356716389352854 4.5182502148081474 4.891822616811754 4.9803680999844753 4.9017812707749266 5.2360339001543306 4.6476306966285055 5.0025341088876614 4.8793396148973214 4.9919684851259376 5.2237982331203945 5.3110083345922678 5.2447412905861572 5.5453794294345347 5.290377528831554 5.2353752453191671 5.5196123536692525 5.5543043560109577 5.5413483737322755 5.8414501508694645 5.5328676078498793 5.5317838870474425 5.871361107278946 5.8506161542639328 5.5427548298113969 5.1878556314362942 5.5272563716604353 5.2231986415304528 5.5324117788159635 5.1985702289221063 4.8912509731732516 5.2461524227072154 5.1753520444793057 4.8151476381939506 4.8787198380089585 5.1883966823530567 5.1678024218187391 5.1748303821971122 5.540775336141988 5.5784437860731293 5.5270007603162368 5.9512118153190787 5.8711261309852203 6.2949682562156273 5.9617260123989704 5.5402923439740013 5.8951783640299515 5.9373927104892434 5.519113629494754 5.5511402557475069 5.8846316772524991 5.8937772192082258 6.1934228722457636 5.8284756055594409 6.3042814521599624 6.6036044031307188 6.1802377258856636 5.8840627099183509 6.2814022494961037 6.2028116556128499 6.2941462499447054 6.7513770183160497 6.6131451318487828 6.7759436770898924 7.0728570205268264 6.5894638913149404 6.2804067742327447 6.7641978980978825 6.4335868053826522 6.3056361027083714 5.9504451733427954 6.4074097169259767 6.0504694604992286 5.9363082452997684 6.4204098880134923 7.5989411973034198 7.1409860973702468 7.391298243566645 7.1486788961490655 7.3404430634463802 6.8826770806779614 7.6110045122783223 7.1286208371880297 7.361206069230156 7.3527739836282722 7.0829928546374719 6.8698546249826311 7.0602657917075318 6.6027556931990601 6.8917788523175201 6.6115692975140483 6.8835247089210316 6.4607485184667865 6.5903499155716174 6.1927902068681755 6.4816501564188851 6.2011960758401834 6.4735858684758032 6.1093675218886183 6.4798945228178928 6.7322400432339453 6.3689377289844291 6.8706155880941226 6.4729135430512352 6.7388735047677413 7.1418057095082235 6.8900600822897449 6.7197472694493481 7.1292446356809247 6.7315534950160849 6.9819900240418704 6.7199475735669987 6.3804694489097269 6.6314729504911281 6.3693863135833446 6.0855352892166925 6.3372689829814766 6.3812162673696973 6.128031509266175 6.0745028546458757 6.1098299645608272 5.8256238384400669 6.0923610625591218 6.4609589208601914 6.3875603772174587 6.1212590470838286 6.1804588101124027 6.1298055707235806 5.8407579940899454 5.8289545699992047 5.8339379386781909 5.5446558540403617 6.1219912104035474 5.8489899282412363 5.814228195272463 5.8263883896825428 5.5526689326824936 5.5722560415547235 5.5334514116752445 5.3015830729405637 5.5911326183020016 5.8148012621955099 5.583058693393208 5.8502908572161658 5.8321481892331386 6.0863158741185028 5.833305936082767 6.0750707654755063 5.8437293978307574 6.0962883323460613 6.0904874216573344 6.3328055030908192 6.0812479259409375 6.3353814854599451 6.5735373418495993 6.3238817714170814 6.3218658872203521 6.091352612514914 6.3370124273170516 6.56282182025996 6.3337717658195896 6.5800794776535323 6.5745593993062492 6.5687318720787795 6.8158558176033184 6.5728043753982694 6.8545047164565203 6.8171161801255113 6.8673459734940598 7.1059032307597434 6.804625698949498 6.8651565869750062 7.2029491422937824 7.1076812558937705 6.8691226092669888 6.6259266270621335 6.9648304140294446 6.5622422500890405 6.8658510637470647 6.6296230131368876 6.3320348999600462 6.5763907710519947 6.6151196176739138 6.3857116065961375 6.3212965230663443 6.6266615091947658 6.737054456474044 6.6146826520302069 6.9768316267585497 7.146898862739695 6.9646423680777803 7.3858322795765359 6.9761577660022844 7.2184556441222147 7.373583643406536 7.2027787658655589 7.6229064992825455 7.3895426789476657 6.8540770755983536 6.9801860121694963 7.2147529906169749 7.2167480476510377 7.4529284096145689 7.0941758893260456 7.6253723159915578 7.8598181538898668 7.4410189973125114 7.2141209103185044 7.6108868467377766 7.4552603263622217 7.6222205133890411 8.0801129341146094 7.8626874625761607 8.0954389068705552 8.3282296605058512 7.8477281455654584 7.6105665203869073 8.0917363166505183 7.8600156778741672 7.62701142114076 7.38506669387026 7.8430887221721584 7.6177289172924931 7.3731069696136 7.8549048155467069 5.3508910220041237 5.082045766793752 5.133630235668