<?xml version="1.0"?>
<VTKFile type="UnstructuredGrid" version="0.1" byte_order="LittleEndian">
<UnstructuredGrid>
<Piece NumberOfPoints="505" NumberOfCells="131">
<Points>
<DataArray type="Float64" NumberOfComponents="3" format="ascii">
0 0.50023418051147772 -0.80910018661861283 0.36400213509809493 0.30340182266465199 -0.71803582340462213 0.42348748445510859 0.67651247978210449 -0.75231254100799561 0 0.50017861225427096 -0.49773060372977418 0.36400213509809493 0.30340182266465199 -0.71803582340462213 0 0.50017861225427096 -0.49773060372977418 0.42348748445510859 0.33558750152587891 -0.41138750314712519 0.42348748445510859 0.67651247978210449 -0.75231254100799561 0.764412522315979 0.33558750152587891 -0.75231254100799561 0.36400213509809493 0.30340182266465199 -0.71803582340462213 0.42348748445510859 0.33558750152587891 -0.41138750314712519 0.42348748445510859 0.67651247978210449 -0.75231254100799561 0.36400213509809493 0.30340182266465199 -0.71803582340462213 0.19232253086422449 0.50146053791918455 -1 0.42348748445510859 0.67651247978210449 -0.75231254100799561 0.49631982208178133 0.49903983155338327 -1 0 0.50023418051147772 -0.80910018661861283 0.36400213509809493 0.30340182266465199 -0.71803582340462213 0.19232253086422449 0.50146053791918455 -1 0.42348748445510859 0.67651247978210449 -0.75231254100799561 0 0.50023418051147772 -0.80910018661861283 0.19232253086422449 0.50146053791918455 -1 0 0.50000000000205869 -1 0 0.75000000000034661 -1 0 0.75000000000034661 -1 0.27852182539691328 0.7214781746031842 -1 0 0.50023418051147772 -0.80910018661861283 0.19232253086422449 0.50146053791918455 -1 0 0.50023418051147772 -0.80910018661861283 0.27852182539691328 0.7214781746031842 -1 0 0.75000000000034661 -1 0 0.72340718694886286 -0.72340718694880013 0.27852182539691328 0.7214781746031842 -1 0.42348748445510859 0.67651247978210449 -0.75231254100799561 0 0.50023418051147772 -0.80910018661861283 0.19232253086422449 0.50146053791918455 -1 0 0.50023418051147772 -0.80910018661861283 0.42348748445510859 0.67651247978210449 -0.75231254100799561 0.27852182539691328 0.7214781746031842 -1 0 0.72340718694886286 -0.72340718694880013 0 0.72340718694886286 -0.72340718694880013 0 0.50023418051147772 -0.80910018661861283 0.42348748445510859 0.67651247978210449 -0.75231254100799561 0 0.50017861225427096 -0.49773060372977418 0 0.50017861225427096 -0.49773060372977418 0.42348748445510859 0.67651247978210449 -0.75231254100799561 0 0.80935234175974147 -0.50021433470480037 0.42348748445510859 0.67651247978210449 -0.41138750314712519 0 0.80935234175974147 -0.50021433470480037 0.42348748445510859 0.67651247978210449 -0.75231254100799561 0 0.50017861225427096 -0.49773060372977418 0 0.72340718694886286 -0.72340718694880013 0 0.72340718694886286 -0.72340718694880013 0.27558237801302449 1 -0.72147817460308317 0 0.80935234175974147 -0.50021433470480037 0.42348748445510859 0.67651247978210449 -0.75231254100799561 0.27558237801302449 1 -0.72147817460308317 0 0.80935234175974147 -0.50021433470480037 0.42348748445510859 0.67651247978210449 -0.41138750314712519 0.19378306878302151 1 -0.49999999999974709 0 0.80935234175974147 -0.50021433470480037 0.27558237801302449 1 -0.72147817460308317 0 1 -0.74999999999934164 0.19378306878302151 1 -0.49999999999974709 0 0.80935234175974147 -0.50021433470480037 0 1 -0.74999999999934164 0 1 -0.49999999999869432 0.19378306878302151 1 -0.49999999999974709 0.27558237801302449 1 -0.72147817460308317 0 0.72340718694886286 -0.72340718694880013 0 0.80935234175974147 -0.50021433470480037 0 1 -0.74999999999934164 0.27558237801302449 1 -0.72147817460308317 0 0.72340718694886286 -0.72340718694880013 0.27852182539691328 0.7214781746031842 -1 0.42348748445510859 0.67651247978210449 -0.75231254100799561 0.27558237801302449 1 -0.72147817460308317 0 1 -0.74999999999934164 0.14141650744674819 1 -0.85809358465604513 0 0.85590277777789092 -0.85590277777763279 0 1 -0.74999999999934164 0.14141650744674819 1 -0.85809358465604513 0 0.85590277777789092 -0.85590277777763279 0 1 -1 0.27558237801302449 1 -0.72147817460308317 0 0.72340718694886286 -0.72340718694880013 0 1 -0.74999999999934164 0 0.85590277777789092 -0.85590277777763279 0.14141650744674819 1 -0.85809358465604513 0.14190641534415949 0.85809358465625163 -1 0 0.85590277777789092 -0.85590277777763279 0 1 -1 0.14190641534415949 0.85809358465625163 -1 0 0.85590277777789092 -0.85590277777763279 0 0.75000000000034661 -1 0.27852182539691328 0.7214781746031842 -1 0 0.85590277777789092 -0.85590277777763279 0 0.72340718694886286 -0.72340718694880013 0 0.75000000000034661 -1 0.27852182539691328 0.7214781746031842 -1 0.14190641534415949 0.85809358465625163 -1 0 0.85590277777789092 -0.85590277777763279 0 1 -1 0 0.75000000000034661 -1 0.27558237801302449 1 -0.72147817460308317 0 0.72340718694886286 -0.72340718694880013 0 0.85590277777789092 -0.85590277777763279 0.27852182539691328 0.7214781746031842 -1 0.14190641534415949 0.85809358465625163 -1 0.27558237801302449 1 -0.72147817460308317 0 0.85590277777789092 -0.85590277777763279 0.27852182539691328 0.7214781746031842 -1 0.14190641534415949 0.85809358465625163 -1 0.14141650744674819 1 -0.85809358465604513 0.25000000000104028 1 -1 0 1 -1 0.27558237801302449 1 -0.72147817460308317 0.14141650744674819 1 -0.85809358465604513 0.25000000000104028 1 -1 0.14190641534415949 0.85809358465625163 -1 0.14190641534415949 0.85809358465625163 -1 0.27558237801302449 1 -0.72147817460308317 0.27852182539691328 0.7214781746031842 -1 0.25000000000104028 1 -1 0.14141650744674819 1 -0.85809358465604513 0.27558237801302449 1 -0.72147817460308317 0 0.85590277777789092 -0.85590277777763279 0.14190641534415949 0.85809358465625163 -1 0.27558237801302449 1 -0.72147817460308317 0.27852182539691328 0.7214781746031842 -1 0.25000000000104028 1 -1 0.49967339473549249 1 -0.80913800705467398 0.27558237801302449 1 -0.72147817460308317 0.42348748445510859 0.67651247978210449 -0.75231254100799561 0.27852182539691328 0.7214781746031842 -1 0.49967339473549249 1 -0.80913800705467398 0.42348748445510859 0.67651247978210449 -0.75231254100799561 0.4995456570474846 0.80901946774026934 -1 0.27852182539691328 0.7214781746031842 -1 0.49967339473549249 1 -0.80913800705467398 0.27852182539691328 0.7214781746031842 -1 0.4995456570474846 0.80901946774026934 -1 0.25000000000104028 1 -1 0.49967339473549249 1 -0.80913800705467398 0.4995456570474846 0.80901946774026934 -1 0.50000000000205869 1 -1 0.25000000000104028 1 -1 0.49967339473549249 1 -0.80913800705467398 0.49999999999996553 1 -0.50000000000003098 0.27558237801302449 1 -0.72147817460308317 0.42348748445510859 0.67651247978210449 -0.75231254100799561 0.42348748445510859 0.67651247978210449 -0.41138750314712519 0.42348748445510859 0.67651247978210449 -0.41138750314712519 0 0.80935234175974147 -0.50021433470480037 0.27558237801302449 1 -0.72147817460308317 0.42348748445510859 0.67651247978210449 -0.75231254100799561 0.27558237801302449 1 -0.72147817460308317 0.49999999999996553 1 -0.50000000000003098 0.42348748445510859 0.67651247978210449 -0.75231254100799561 0.49967339473549249 1 -0.80913800705467398 0.19378306878302151 1 -0.49999999999974709 0.27558237801302449 1 -0.72147817460308317 0.49999999999996553 1 -0.50000000000003098 0.42348748445510859 0.67651247978210449 -0.41138750314712519 0.42348748445510859 0.67651247978210449 -0.75231254100799561 0 0.50017861225427096 -0.49773060372977418 0.42348748445510859 0.33558750152587891 -0.41138750314712519 0.42348748445510859 0.67651247978210449 -0.41138750314712519 0.49631982208178133 0.49903983155338327 -1 0.19232253086422449 0.50146053791918455 -1 0.42348748445510859 0.67651247978210449 -0.75231254100799561 0.27852182539691328 0.7214781746031842 -1 0.4995456570474846 0.80901946774026934 -1 0.49631982208178133 0.49903983155338327 -1 0.42348748445510859 0.67651247978210449 -0.75231254100799561 0.27852182539691328 0.7214781746031842 -1 0.764412522315979 0.33558750152587891 -0.75231254100799561 0.764412522315979 0.67651247978210449 -0.75231254100799561 0.49631982208178133 0.49903983155338327 -1 0.42348748445510859 0.67651247978210449 -0.75231254100799561 0.764412522315979 0.67651247978210449 -0.75231254100799561 0.764412522315979 0.33558750152587891 -0.75231254100799561 0.49631982208178133 0.49903983155338327 -1 0.80868366410180859 0.49988146068535011 -1 0 0.75000000000034661 -1 0 0.50000000000205869 -1 0.19232253086422449 0.50146053791918455 -1 0.42348748445510859 0.67651247978210449 -0.75231254100799561 0.49631982208178133 0.49903983155338327 -1 0.72106926594561294 0.72137148922016592 -1 0.764412522315979 0.67651247978210449 -0.75231254100799561 0.42348748445510859 0.67651247978210449 -0.75231254100799561 0.72106926594561294 0.72137148922016592 -1 0.49631982208178133 0.49903983155338327 -1 0.4995456570474846 0.80901946774026934 -1 0.72106926594561294 0.72137148922016592 -1 0.764412522315979 0.67651247978210449 -0.75231254100799561 0.49631982208178133 0.49903983155338327 -1 0.80868366410180859 0.49988146068535011 -1 0.764412522315979 0.67651247978210449 -0.75231254100799561 0.42348748445510859 0.67651247978210449 -0.75231254100799561 0.42348748445510859 0.33558750152587891 -0.41138750314712519 0.42348748445510859 0.67651247978210449 -0.41138750314712519 0.49999999999996553 1 -0.50000000000003098 0.49967339473549249 1 -0.80913800705467398 0.764412522315979 0.67651247978210449 -0.75231254100799561 0.42348748445510859 0.67651247978210449 -0.75231254100799561 0.49999999999996553 1 -0.50000000000003098 0.764412522315979 0.67651247978210449 -0.75231254100799561 0.42348748445510859 0.67651247978210449 -0.41138750314712519 0.42348748445510859 0.67651247978210449 -0.75231254100799561 0.27852182539691328 0.7214781746031842 -1 0 0.75000000000034661 -1 0.19232253086422449 0.50146053791918455 -1 0.764412522315979 0.67651247978210449 -0.75231254100799561 0.49967339473549249 1 -0.80913800705467398 0.49999999999996553 1 -0.50000000000003098 0.72147817460319108 1 -0.72147817460312469 0.49967339473549249 1 -0.80913800705
[...]
<PointData Scalars="pressure_p0," Vectors="velocity_p0," Tensors="anisotropy,">
<DataArray type="Float64" Name="pressure_p0" format="ascii">
-0.48488261854225978 -0.48488261854225978 -0.48488261854225978 -0.48488261854225978 -0.39676424097137519 -0.39676424097137519 -0.39676424097137519 -0.39676424097137519 -0.58956753779822368 -0.58956753779822368 -0.58956753779822368 -0.58956753779822368 -1.3757637513911951 -1.3757637513911951 -1.3757637513911951 -1.3757637513911951 -0.9187436736890161 -0.9187436736890161 -0.9187436736890161 -0.9187436736890161 -0.70887375148917764 -0.70887375148917764 -0.70887375148917764 -0.70887375148917764 -1.2418221565100653 -1.2418221565100653 -1.2418221565100653 -1.2418221565100653 -0.60822416364441068 -0.60822416364441068 -0.60822416364441068 -0.60822416364441068 -1.1639430783027471 -1.1639430783027471 -1.1639430783027471 -1.1639430783027471 -0.71034574930793948 -0.71034574930793948 -0.71034574930793948 -0.71034574930793948 -0.28874909880992605 -0.28874909880992605 -0.28874909880992605 -0.28874909880992605 -0.20870331226998021 -0.20870331226998021 -0.20870331226998021 -0.20870331226998021 -0.19280814616909278 -0.19280814616909278 -0.19280814616909278 -0.19280814616909278 -0.28806439375399712 -0.28806439375399712 -0.28806439375399712 -0.28806439375399712 -0.1182236144536595 -0.1182236144536595 -0.1182236144536595 -0.1182236144536595 -0.036640651332406952 -0.036640651332406952 -0.036640651332406952 -0.036640651332406952 -0.016927684155486771 -0.016927684155486771 -0.016927684155486771 -0.016927684155486771 -0.068590288641856942 -0.068590288641856942 -0.068590288641856942 -0.068590288641856942 -0.65930360965834955 -0.65930360965834955 -0.65930360965834955 -0.65930360965834955 -0.062184411111909269 -0.062184411111909269 -0.062184411111909269 -0.062184411111909269 -0.060077960605156078 -0.060077960605156078 -0.060077960605156078 -0.060077960605156078 -0.10481950574154777 -0.10481950574154777 -0.10481950574154777 -0.10481950574154777 -0.38931761629272776 -0.38931761629272776 -0.38931761629272776 -0.38931761629272776 -1.1472210406845407 -1.1472210406845407 -1.1472210406845407 -1.1472210406845407 -0.59652545210100094 -0.59652545210100094 -0.59652545210100094 -0.59652545210100094 -0.54387240395272696 -0.54387240395272696 -0.54387240395272696 -0.54387240395272696 -0.49831100697088426 -0.49831100697088426 -0.49831100697088426 -0.49831100697088426 -0.81034385815720955 -0.81034385815720955 -0.81034385815720955 -0.81034385815720955 -0.56112788912826894 -0.56112788912826894 -0.56112788912826894 -0.56112788912826894 -0.35595300754159465 -0.35595300754159465 -0.35595300754159465 -0.35595300754159465 -1.0266509914935678 -1.0266509914935678 -1.0266509914935678 -1.0266509914935678 -0.30870491557752433 -0.30870491557752433 -0.30870491557752433 -0.30870491557752433 -0.59303552426449957 -0.59303552426449957 -0.59303552426449957 -0.59303552426449957 -0.68582882417766977 -0.68582882417766977 -0.68582882417766977 -0.68582882417766977 -1.1502870244632963 -1.1502870244632963 -1.1502870244632963 -1.1502870244632963 -1.2393847864195118 -1.2393847864195118 -1.2393847864195118 -1.2393847864195118 -0.69484759212567049 -0.69484759212567049 -0.69484759212567049 -0.69484759212567049 -0.23665112035469466 -0.23665112035469466 -0.23665112035469466 -0.23665112035469466 -0.25142000109854051 -0.25142000109854051 -0.25142000109854051 -0.25142000109854051 -0.24544658099552741 -0.24544658099552741 -0.24544658099552741 -0.24544658099552741 -0.096662865288271213 -0.096662865288271213 -0.096662865288271213 -0.096662865288271213 -0.28956874906759833 -0.28956874906759833 -0.28956874906759833 -0.28956874906759833 -1.6981448786970252 -1.6981448786970252 -1.6981448786970252 -1.6981448786970252 -1.6610497151997319 -1.6610497151997319 -1.6610497151997319 -1.6610497151997319 -1.1366593230630158 -1.1366593230630158 -1.1366593230630158 -1.1366593230630158 -1.3114274299087363 -1.3114274299087363 -1.3114274299087363 -1.3114274299087363 -3.738640933362301 -3.738640933362301 -3.738640933362301 -1.3493976073316201 -1.3493976073316201 -1.3493976073316201 -1.3493976073316201 -1.7183613814418002 -1.7183613814418002 -1.7183613814418002 -1.7183613814418002 -1.6297439973869614 -1.6297439973869614 -1.6297439973869614 -1.6297439973869614 -0.44253624696485649 -0.44253624696485649 -0.44253624696485649 -0.44253624696485649 -0.46290298692372028 -0.46290298692372028 -0.46290298692372028 -0.46290298692372028 -0.38234193293455243 -0.38234193293455243 -0.38234193293455243 -0.38234193293455243 -3.7386682613626996 -3.7386682613626996 -3.7386682613626996 -0.2414787380614532 -0.2414787380614532 -0.2414787380614532 -0.2414787380614532 -0.92550873277924373 -0.92550873277924373 -0.92550873277924373 -0.92550873277924373 -0.70004385457066998 -0.70004385457066998 -0.70004385457066998 -0.70004385457066998 -1.2611178451921041 -1.2611178451921041 -1.2611178451921041 -1.2611178451921041 -1.1932854496827336 -1.1932854496827336 -1.1932854496827336 -1.1932854496827336 -0.64225663735999661 -0.64225663735999661 -0.64225663735999661 -0.64225663735999661 -0.61204728485844673 -0.61204728485844673 -0.61204728485844673 -0.61204728485844673 -3.7385841428354656 -3.7385841428354656 -3.7385841428354656 -1.1455142442945352 -1.1455142442945352 -1.1455142442945352 -1.1455142442945352 -0.59992699517411807 -0.59992699517411807 -0.59992699517411807 -0.59992699517411807 -0.54468531887445748 -0.54468531887445748 -0.54468531887445748 -0.54468531887445748 -1.2716424943196984 -1.2716424943196984 -1.2716424943196984 -1.2716424943196984 -0.94656361443457482 -0.94656361443457482 -0.94656361443457482 -0.94656361443457482 -0.5056756252793152 -0.5056756252793152 -0.5056756252793152 -0.5056756252793152 -0.60504715549531618 -0.60504715549531618 -0.60504715549531618 -0.60504715549531618 -0.34390013489670379 -0.34390013489670379 -0.34390013489670379 -0.34390013489670379 -0.31016277668408315 -0.31016277668408315 -0.31016277668408315 -0.31016277668408315 -0.6184128997023125 -0.6184128997023125 -0.6184128997023125 -0.6184128997023125 -0.35837277870921658 -0.35837277870921658 -0.35837277870921658 -0.35837277870921658 -0.5627297503669757 -0.5627297503669757 -0.5627297503669757 -0.5627297503669757 -0.39114127772652385 -0.39114127772652385 -0.39114127772652385 -0.39114127772652385 -0.059794918889414905 -0.059794918889414905 -0.059794918889414905 -0.059794918889414905 -0.060804822402474604 -0.060804822402474604 -0.060804822402474604 -0.060804822402474604 -0.099524458520048806 -0.099524458520048806 -0.099524458520048806 -0.099524458520048806 -3.7385855970442212 -3.7385855970442212 -3.7385855970442212 -0.77920339126073523 -0.77920339126073523 -0.77920339126073523 -0.77920339126073523 -3.738633083045483 -3.738633083045483 -3.738633083045483 -3.7386352501943745 -3.7386352501943745 -3.7386352501943745 -0.7844346245576963 -0.7844346245576963 -0.7844346245576963 -0.7844346245576963 -0.29185021905711023 -0.29185021905711023 -0.29185021905711023 -0.29185021905711023 -1.3309788106650218 -1.3309788106650218 -1.3309788106650218 -1.3309788106650218 -3.7386711522490477 -3.7386711522490477 -3.7386711522490477 -3.7386467920595119 -3.7386467920595119 -3.7386467920595119 -1.1105768804801999 -1.1105768804801999 -1.1105768804801999 -1.1105768804801999 -3.7387299386700343 -3.7387299386700343 -3.7387299386700343 -3.7387287299002967 -3.7387287299002967 -3.7387287299002967 -3.738726702092019 -3.738726702092019 -3.738726702092019 -3.7387308893967002 -3.7387308893967002 -3.7387308893967002 -3.7386463425378431 -3.7386463425378431 -3.7386463425378431 -3.7386699770066034 -3.7386699770066034 -3.7386699770066034 -3.7386294981842187 -3.7386294981842187 -3.7386294981842187 -3.7386268458413512 -3.7386268458413512 -3.7386268458413512 -3.7385793978504354 -3.7385793978504354 -3.7385793978504354 -3.7385780684156376 -3.7385780684156376 -3.7385780684156376 -3.7386605273253406 -3.7386605273253406 -3.7386605273253406 -0.080998020774534718 -0.080998020774534718 -0.080998020774534718 -0.080998020774534718 -0.029221926155142793 -0.029221926155142793 -0.029221926155142793 -0.029221926155142793 -0.090014032984848641 -0.090014032984848641 -0.090014032984848641 -0.090014032984848641 -0.063374956389813761 -0.063374956389813761 -0.063374956389813761 -0.063374956389813761 -0.0094026821675971678 -0.0094026821675971678 -0.0094026821675971678 -0.0094026821675971678 -0.043509185807367096 -0.043509185807367096 -0.043509185807367096 -0.043509185807367096 -0.0025507364473216511 -0.0025507364473216511 -0.0025507364473216511 -0.0025507364473216511 -0.00092602388749505986 -0.00092602388749505986 -0.00092602388749505986 -0.00092602388749505986 -0.0049734390018586344 -0.0049734390018586344 -0.0049734390018586344 -0.0049734390018586344 -0.0062144525207216278 -0.0062144525207216278 -0.0062144525207216278 -0.0062144525207216278 -0.014714723678709143 -0.014714723678709143 -0.014714723678709143 -0.014714723678709143 -0.00094567901253128346 -0.00094567901253128346 -0.00094567901253128346 -0.00094567901253128346 -0.0026038891534667084 -0.0026038891534667084 -0.0026038891534667084 -0.0026038891534667084 -0.0049948026350357701 -0.0049948026350357701 -0.0049948026350357701 -0.0049948026350357701 -0.0025218581918125247 -0.0025218581918125247 -0.0025218581918125247 -0.0025218581918125247 -0.0010108964168389488 -0.0010108964168389488 -0.0010108964168389488 -0.0010108964168389488 -0.0055954112450855931 -0.0055954112450855931 -0.0055954112450855931 -0.0055954112450855931 -0.0026635967598834143 -0.0026635967598834143 -0.0026635967598834143 -0.0026635967598834143 -0.010912783414784751 -0.010912783414784751 -0.010912783414784751 -0.010912783414784751 -0.011694376181068597 -0.011694376181068597 -0.011694376181068597 -0.011694376181068597 -0.017831491051132048 -0.017831491051132048 -0.017831491051132048 -0.017831491051132048 -0.079509690259028321 -0.079509690259028321 -0.079509690259028321 -0.079509690259028321 -0.063199765558576204 -0.063199765558576204 -0.063199765558576204 -0.063199765558576204 -0.13618944606201377 -0.13618944606201377 -0.13618944606201377 -0.13618944606201377 -0.075858032400666617 -0.075858032400666617 -0.075858032400666617 -0.075858032400666617 -0.059126231448692543 -0.059126231448692543 -0.059126231448692543 -0.059126231448692543 -0.041114936271925251 -0.041114936271925251 -0.041114936271925251 -0.041114936271925251 -0.036546394729630852 -0.036546394729630852 -0.036546394729630852 -0.036546394729630852 -0.0076719981322374408 -0.0076719981322374408 -0.0076719981322374408 -0.0076719981322374408 -0.0073940707349238726 -0.0073940707349238726 -0.0073940707349238726 -0.0073940707349238726 -0.0036402249429720421 -0.0036402249429720421 -0.0036402249429720421 -0.0036402249429720421 -0.029787703945540006 -0.029787703945540006 -0.029787703945540006 -0.029787703945540006 
</DataArray>
<DataArray type="Float64" Name="velocity_p0" NumberOfComponents="3" format="ascii">