<?xml version="1.0"?>
<VTKFile type="UnstructuredGrid" version="0.1" byte_order="LittleEndian">
<UnstructuredGrid>
<Piece NumberOfPoints="503" NumberOfCells="131">
<Points>
<DataArray type="Float64" NumberOfComponents="3" format="ascii">
0 0 -1 0 0 -0.74999999999934164 0.14138946044788619 0.141933462342688 -1 0 0.1419064153440632 -0.85809358465605046 0 0 -1 0.14138946044788619 0.141933462342688 -1 0 0 -0.74999999999934164 0.14192670059260701 0 -0.85802340138044431 0 0 -0.74999999999934164 0.17663550269374309 0.2000173280584561 -0.80767327345777706 0.14138946044788619 0.141933462342688 -1 0 0.1419064153440632 -0.85809358465605046 0 0 -0.74999999999934164 0.14138946044788619 0.141933462342688 -1 0.17663550269374309 0.2000173280584561 -0.80767327345777706 0.14192670059260701 0 -0.85802340138044431 0.17663550269374309 0.2000173280584561 -0.80767327345777706 0 0.27852182539691489 -0.72147817460311425 0 0.1419064153440632 -0.85809358465605046 0 0 -0.74999999999934164 0 0.27852182539691489 -0.72147817460311425 0.17663550269374309 0.2000173280584561 -0.80767327345777706 0 0.1419064153440632 -0.85809358465605046 0 0.25000000000104028 -1 0.17663550269374309 0.2000173280584561 -0.80767327345777706 0 0.1419064153440632 -0.85809358465605046 0 0.25000000000104028 -1 0.14138946044788619 0.141933462342688 -1 0 0.1419064153440632 -0.85809358465605046 0 0 -1 0 0.25000000000104028 -1 0.14138946044788619 0.141933462342688 -1 0.17663550269374309 0.2000173280584561 -0.80767327345777706 0.27542009602191558 0.2786841073879448 -1 0.14138946044788619 0.141933462342688 -1 0 0.25000000000104028 -1 0.24999999999941211 0 -1 0.17663550269374309 0.2000173280584561 -0.80767327345777706 0.27542009602191558 0.2786841073879448 -1 0.14138946044788619 0.141933462342688 -1 0.27864353689002019 0 -0.72105707495041649 0.17663550269374309 0.2000173280584561 -0.80767327345777706 0.14192670059260701 0 -0.85802340138044431 0 0 -0.74999999999934164 0.27864353689002019 0 -0.72105707495041649 0.17663550269374309 0.2000173280584561 -0.80767327345777706 0.24999999999941211 0 -1 0.14192670059260701 0 -0.85802340138044431 0.17663550269374309 0.2000173280584561 -0.80767327345777706 0.14192670059260701 0 -0.85802340138044431 0.14138946044788619 0.141933462342688 -1 0.24999999999941211 0 -1 0.14192670059260701 0 -0.85802340138044431 0.24999999999941211 0 -1 0 0 -1 0.14138946044788619 0.141933462342688 -1 0.17663550269374309 0.2000173280584561 -0.80767327345777706 0.24999999999941211 0 -1 0.49924645474497431 0.19077333889470441 -1 0.27864353689002019 0 -0.72105707495041649 0 0 -1 0.14138946044788619 0.141933462342688 -1 0 0.25000000000104028 -1 0.49924645474497431 0.19077333889470441 -1 0.24999999999941211 0 -1 0.17663550269374309 0.2000173280584561 -0.80767327345777706 0.27542009602191558 0.2786841073879448 -1 0.49924645474497431 0.19077333889470441 -1 0.17663550269374309 0.2000173280584561 -0.80767327345777706 0.36400213509809493 0.30340182266465199 -0.71803582340462213 0.27542009602191558 0.2786841073879448 -1 0.49924645474497431 0.19077333889470441 -1 0.27864353689002019 0 -0.72105707495041649 0.24999999999941211 0 -1 0.50013523499221102 0 -0.80867011855167226 0.49999999999869432 0 -1 0.49924645474497431 0.19077333889470441 -1 0.24999999999941211 0 -1 0.50013523499221102 0 -0.80867011855167226 0.49924645474497431 0.19077333889470441 -1 0.36400213509809493 0.30340182266465199 -0.71803582340462213 0.27864353689002019 0 -0.72105707495041649 0.50013523499221102 0 -0.80867011855167226 0.27864353689002019 0 -0.72105707495041649 0.36400213509809493 0.30340182266465199 -0.71803582340462213 0.49924645474497431 0.19077333889470441 -1 0.17663550269374309 0.2000173280584561 -0.80767327345777706 0.19099722793781729 0 -0.49920550623183851 0.50109540343913672 0 -0.49621010312562502 0.36400213509809493 0.30340182266465199 -0.71803582340462213 0.42348748445510859 0.33558750152587891 -0.41138750314712519 0.24999999999941211 0 -1 0.27542009602191558 0.2786841073879448 -1 0.14138946044788619 0.141933462342688 -1 0.27542009602191558 0.2786841073879448 -1 0 0.25000000000104028 -1 0.14138946044788619 0.141933462342688 -1 0.27864353689002019 0 -0.72105707495041649 0.17663550269374309 0.2000173280584561 -0.80767327345777706 0.19099722793781729 0 -0.49920550623183851 0.36400213509809493 0.30340182266465199 -0.71803582340462213 0.36400213509809493 0.30340182266465199 -0.71803582340462213 0.27864353689002019 0 -0.72105707495041649 0.50013523499221102 0 -0.80867011855167226 0.50109540343913672 0 -0.49621010312562502 0.19099722793781729 0 -0.49920550623183851 0.36400213509809493 0.30340182266465199 -0.71803582340462213 0.50109540343913672 0 -0.49621010312562502 0.27864353689002019 0 -0.72105707495041649 0 0 -1 0.24999999999941211 0 -1 0.14138946044788619 0.141933462342688 -1 0.36400213509809493 0.30340182266465199 -0.71803582340462213 0 0.190861992945314 -0.49999999999972489 0.19099722793781729 0 -0.49920550623183851 0.42348748445510859 0.33558750152587891 -0.41138750314712519 0 0 -0.49999999999869432 0 0 -0.74999999999934164 0 0.190861992945314 -0.49999999999972489 0.19099722793781729 0 -0.49920550623183851 0 0 -0.74999999999934164 0.19099722793781729 0 -0.49920550623183851 0 0.27852182539691489 -0.72147817460311425 0 0.190861992945314 -0.49999999999972489 0 0.27852182539691489 -0.72147817460311425 0.19099722793781729 0 -0.49920550623183851 0 0 -0.74999999999934164 0.17663550269374309 0.2000173280584561 -0.80767327345777706 0.17663550269374309 0.2000173280584561 -0.80767327345777706 0.19099722793781729 0 -0.49920550623183851 0 0 -0.74999999999934164 0.27864353689002019 0 -0.72105707495041649 0 0.27852182539691489 -0.72147817460311425 0.36400213509809493 0.30340182266465199 -0.71803582340462213 0.19099722793781729 0 -0.49920550623183851 0.17663550269374309 0.2000173280584561 -0.80767327345777706 0.19099722793781729 0 -0.49920550623183851 0.36400213509809493 0.30340182266465199 -0.71803582340462213 0 0.27852182539691489 -0.72147817460311425 0 0.190861992945314 -0.49999999999972489 0 0.50017861225427096 -0.49773060372977418 0 0.190861992945314 -0.49999999999972489 0.36400213509809493 0.30340182266465199 -0.71803582340462213 0.42348748445510859 0.33558750152587891 -0.41138750314712519 0.36400213509809493 0.30340182266465199 -0.71803582340462213 0 0.190861992945314 -0.49999999999972489 0 0.50017861225427096 -0.49773060372977418 0 0.27852182539691489 -0.72147817460311425 0.36400213509809493 0.30340182266465199 -0.71803582340462213 0 0.50023418051147772 -0.80910018661861283 0 0.27852182539691489 -0.72147817460311425 0 0.50017861225427096 -0.49773060372977418 0.24999999999941211 0 -1 0.49999999999869432 0 -1 0.49924645474497431 0.19077333889470441 -1 0.49924645474497431 0.19077333889470441 -1 0.27542009602191558 0.2786841073879448 -1 0.36400213509809493 0.30340182266465199 -0.71803582340462213 0.49631982208178133 0.49903983155338327 -1 0.27542009602191558 0.2786841073879448 -1 0.17663550269374309 0.2000173280584561 -0.80767327345777706 0.36400213509809493 0.30340182266465199 -0.71803582340462213 0.19232253086422449 0.50146053791918455 -1 0.36400213509809493 0.30340182266465199 -0.71803582340462213 0.27542009602191558 0.2786841073879448 -1 0.19232253086422449 0.50146053791918455 -1 0.49631982208178133 0.49903983155338327 -1 0.24999999999941211 0 -1 0.49924645474497431 0.19077333889470441 -1 0.27542009602191558 0.2786841073879448 -1 0 0.27852182539691489 -0.72147817460311425 0.36400213509809493 0.30340182266465199 -0.71803582340462213 0.19232253086422449 0.50146053791918455 -1 0 0.50023418051147772 -0.80910018661861283 0.19232253086422449 0.50146053791918455 -1 0.36400213509809493 0.30340182266465199 -0.71803582340462213 0 0.27852182539691489 -0.72147817460311425 0.17663550269374309 0.2000173280584561 -0.80767327345777706 0.27542009602191558 0.2786841073879448 -1 0.17663550269374309 0.2000173280584561 -0.80767327345777706 0.19232253086422449 0.50146053791918455 -1 0 0.25000000000104028 -1 0 0.25000000000104028 -1 0.19232253086422449 0.50146053791918455 -1 0 0.27852182539691489 -0.72147817460311425 0.17663550269374309 0.2000173280584561 -0.80767327345777706 0.19232253086422449 0.50146053791918455 -1 0 0.25000000000104028 -1 0 0.50023418051147772 -0.80910018661861283 0 0.50000000000205869 -1 0 0.27852182539691489 -0.72147817460311425 0.19232253086422449 0.50146053791918455 -1 0 0.25000000000104028 -1 0 0.50023418051147772 -0.80910018661861283 0.27542009602191558 0.2786841073879448 -1 0.49924645474497431 0.19077333889470441 -1 0.49631982208178133 0.49903983155338327 -1 0.27542009602191558 0.2786841073879448 -1 0.49631982208178133 0.49903983155338327 -1 0.19232253086422449 0.50146053791918455 -1 0.27542009602191558 0.2786841073879448 -1 0.19232253086422449 0.50146053791918455 -1 0 0.25000000000104028 -1 0 0.25000000000104028 -1 0.19232253086422449 0.50146053791918455 -1 0 0.50000000000205869 -1 1 0.74999999999934164 -1 1 0.49999999999972489 -0.80913800705468164 0.80868366410180859 0.49988146068535011 -1 1 0.49999999999869432 -1 1 0.24999999999941211 -1 1 0.49999999999972489 -0.80913800705468164 0.80868366410180859 0.49988146068535011 -1 0.764412522315979 0.33558750152587891 -0.75231254100799561 1 0.49999999999869432 -1 1 0.49999999999972489 -0.80913800705468164 0.80868366410180859 0.49988146068535011 -1 1 0.24999999999941211 -1 0.764412522315979 0.33558750152587891 -0.75231254100799561 1 0.24999999999941211 -1 1 0.27852182539678272 -0.72147817460312469 1 0.14190641534373399 -0.85809358465589558 1 0.49999999999972489 -0.80913800705468164 1 0.24999999999941211 -1 1 0.27852182539678272 -0.72147817460312469 0.764412522315979 0.33558750152587891 -0.75231254100799561 1 0.24999999999941211 -1 0.764412522315979 0.33558750152587891 -0.75231254100799561 0.80868366410180859 0.49988146068535011 -1 0.72147817460313113 0.27852182539678161 -1 0.764412522315979 0.33558750152587891 -0.75231254100799561 1 0.24999999999941211 -1 0.85809358465589669 0.14190641534373391 -1 0.72147817460313113 0.27852182539678161 -1 1 0.2499
[...]
<PointData Scalars="pressure_p0," Vectors="velocity_p0," Tensors="anisotropy,">
<DataArray type="Float64" Name="pressure_p0" format="ascii">
-0.23772883656916122 -0.23772883656916122 -0.23772883656916122 -0.23772883656916122 -0.23899852484216505 -0.23899852484216505 -0.23899852484216505 -0.23899852484216505 -0.33386161783958307 -0.33386161783958307 -0.33386161783958307 -0.33386161783958307 -0.3378957504087407 -0.3378957504087407 -0.3378957504087407 -0.3378957504087407 -0.13257696761558818 -0.13257696761558818 -0.13257696761558818 -0.13257696761558818 -0.2367868510497726 -0.2367868510497726 -0.2367868510497726 -0.2367868510497726 -0.62432677452603025 -0.62432677452603025 -0.62432677452603025 -0.62432677452603025 -0.55706459215385784 -0.55706459215385784 -0.55706459215385784 -0.55706459215385784 -1.1812535831632998 -1.1812535831632998 -1.1812535831632998 -1.1812535831632998 -1.192527314593522 -1.192527314593522 -1.192527314593522 -1.192527314593522 -0.14511390159432869 -0.14511390159432869 -0.14511390159432869 -0.14511390159432869 -0.26091985751053426 -0.26091985751053426 -0.26091985751053426 -0.26091985751053426 -0.63871495537939926 -0.63871495537939926 -0.63871495537939926 -0.63871495537939926 -0.55965893149552493 -0.55965893149552493 -0.55965893149552493 -0.55965893149552493 -0.71758159090329254 -0.71758159090329254 -0.71758159090329254 -0.71758159090329254 -3.7385601119031397 -3.7385601119031397 -3.7385601119031397 -1.3925842874005958 -1.3925842874005958 -1.3925842874005958 -1.3925842874005958 -1.1870028660088097 -1.1870028660088097 -1.1870028660088097 -1.1870028660088097 -0.45072856828979119 -0.45072856828979119 -0.45072856828979119 -0.45072856828979119 -0.73546548752138541 -0.73546548752138541 -0.73546548752138541 -0.73546548752138541 -0.5744194343163711 -0.5744194343163711 -0.5744194343163711 -0.5744194343163711 -0.73613384391777692 -0.73613384391777692 -0.73613384391777692 -0.73613384391777692 -0.1714331142219262 -0.1714331142219262 -0.1714331142219262 -0.1714331142219262 -3.7386089473941029 -3.7386089473941029 -3.7386089473941029 -3.7386087307818974 -3.7386087307818974 -3.7386087307818974 -0.2964019493790947 -0.2964019493790947 -0.2964019493790947 -0.2964019493790947 -0.2224011626702202 -0.2224011626702202 -0.2224011626702202 -0.2224011626702202 -0.13798045259999864 -0.13798045259999864 -0.13798045259999864 -0.13798045259999864 -3.7385602871756767 -3.7385602871756767 -3.7385602871756767 -0.17351740638263957 -0.17351740638263957 -0.17351740638263957 -0.17351740638263957 -0.015461302446789327 -0.015461302446789327 -0.015461302446789327 -0.015461302446789327 -0.033578554130542795 -0.033578554130542795 -0.033578554130542795 -0.033578554130542795 -0.11263914506258181 -0.11263914506258181 -0.11263914506258181 -0.11263914506258181 -0.094545085247821209 -0.094545085247821209 -0.094545085247821209 -0.094545085247821209 -0.32059475459553155 -0.32059475459553155 -0.32059475459553155 -0.32059475459553155 -0.16809432981594835 -0.16809432981594835 -0.16809432981594835 -0.16809432981594835 -0.18977604583328117 -0.18977604583328117 -0.18977604583328117 -0.18977604583328117 -0.1576273653473213 -0.1576273653473213 -0.1576273653473213 -0.1576273653473213 -0.24643368608681962 -0.24643368608681962 -0.24643368608681962 -0.24643368608681962 -3.7386323672153217 -3.7386323672153217 -3.7386323672153217 -1.6311774341502336 -1.6311774341502336 -1.6311774341502336 -1.6311774341502336 -1.2133849943138504 -1.2133849943138504 -1.2133849943138504 -1.2133849943138504 -1.6655264656691133 -1.6655264656691133 -1.6655264656691133 -1.6655264656691133 -3.7386516939526766 -3.7386516939526766 -3.7386516939526766 -0.60208223732243793 -0.60208223732243793 -0.60208223732243793 -0.60208223732243793 -0.75485624824879172 -0.75485624824879172 -0.75485624824879172 -0.75485624824879172 -1.3781262999301229 -1.3781262999301229 -1.3781262999301229 -1.3781262999301229 -0.6944606295412532 -0.6944606295412532 -0.6944606295412532 -0.6944606295412532 -0.73507821969070186 -0.73507821969070186 -0.73507821969070186 -0.73507821969070186 -0.44723428785027175 -0.44723428785027175 -0.44723428785027175 -0.44723428785027175 -3.7387227359643624 -3.7387227359643624 -3.7387227359643624 -3.7387240447983721 -3.7387240447983721 -3.7387240447983721 -3.7386524057912998 -3.7386524057912998 -3.7386524057912998 -3.7386338558737915 -3.7386338558737915 -3.7386338558737915 -0.72927106942678011 -0.72927106942678011 -0.72927106942678011 -0.72927106942678011 -0.78106984615471675 -0.78106984615471675 -0.78106984615471675 -0.78106984615471675 -0.72986986032248602 -0.72986986032248602 -0.72986986032248602 -0.72986986032248602 -0.27989490468007799 -0.27989490468007799 -0.27989490468007799 -0.27989490468007799 -0.31022071921940808 -0.31022071921940808 -0.31022071921940808 -0.31022071921940808 -1.3206813980387353 -1.3206813980387353 -1.3206813980387353 -1.3206813980387353 -1.2455193065702796 -1.2455193065702796 -1.2455193065702796 -1.2455193065702796 -0.68584346848694555 -0.68584346848694555 -0.68584346848694555 -0.68584346848694555 -0.55423577383110578 -0.55423577383110578 -0.55423577383110578 -0.55423577383110578 -0.059173401693918624 -0.059173401693918624 -0.059173401693918624 -0.059173401693918624 -0.059180955527126822 -0.059180955527126822 -0.059180955527126822 -0.059180955527126822 -0.096238072653110393 -0.096238072653110393 -0.096238072653110393 -0.096238072653110393 -0.38870687063191378 -0.38870687063191378 -0.38870687063191378 -0.38870687063191378 -1.0157051138748776 -1.0157051138748776 -1.0157051138748776 -1.0157051138748776 -0.35299268844068993 -0.35299268844068993 -0.35299268844068993 -0.35299268844068993 -0.55952636326339356 -0.55952636326339356 -0.55952636326339356 -0.55952636326339356 -0.30445690471948483 -0.30445690471948483 -0.30445690471948483 -0.30445690471948483 -0.88317049795039648 -0.88317049795039648 -0.88317049795039648 -0.88317049795039648 -0.3201888844962833 -0.3201888844962833 -0.3201888844962833 -0.3201888844962833 -0.52062891714747661 -0.52062891714747661 -0.52062891714747661 -0.52062891714747661 -0.77713802267393328 -0.77713802267393328 -0.77713802267393328 -0.77713802267393328 -0.58272043394293915 -0.58272043394293915 -0.58272043394293915 -0.58272043394293915 -0.70775371039023938 -0.70775371039023938 -0.70775371039023938 -0.70775371039023938 -1.2489846207116984 -1.2489846207116984 -1.2489846207116984 -1.2489846207116984 -0.66922954024945869 -0.66922954024945869 -0.66922954024945869 -0.66922954024945869 -1.1109033559820007 -1.1109033559820007 -1.1109033559820007 -1.1109033559820007 -1.3154783934772809 -1.3154783934772809 -1.3154783934772809 -1.3154783934772809 -1.6767729304905452 -1.6767729304905452 -1.6767729304905452 -1.6767729304905452 -1.6280604807808374 -1.6280604807808374 -1.6280604807808374 -1.6280604807808374 -0.22678011397883308 -0.22678011397883308 -0.22678011397883308 -0.22678011397883308 -3.7386372007779332 -3.7386372007779332 -3.7386372007779332 -3.7386357131420671 -3.7386357131420671 -3.7386357131420671 -3.7386576306001227 -3.7386576306001227 -3.7386576306001227 -3.7387250582827249 -3.7387250582827249 -3.7387250582827249 -3.738727185605871 -3.738727185605871 -3.738727185605871 -0.010138904658739244 -0.010138904658739244 -0.010138904658739244 -0.010138904658739244 -3.7386642028716115 -3.7386642028716115 -3.7386642028716115 -0.041423171865249797 -0.041423171865249797 -0.041423171865249797 -0.041423171865249797 -0.0035735057530615973 -0.0035735057530615973 -0.0035735057530615973 -0.0035735057530615973 -0.0089183509696296355 -0.0089183509696296355 -0.0089183509696296355 -0.0089183509696296355 -0.0057740149957751239 -0.0057740149957751239 -0.0057740149957751239 -0.0057740149957751239 -0.031556174960421818 -0.031556174960421818 -0.031556174960421818 -0.031556174960421818 -3.7386378131356155 -3.7386378131356155 -3.7386378131356155 -0.057036448970143455 -0.057036448970143455 -0.057036448970143455 -0.057036448970143455 -0.043287519559232261 -0.043287519559232261 -0.043287519559232261 -0.043287519559232261 -0.071431867330923715 -0.071431867330923715 -0.071431867330923715 -0.071431867330923715 -0.079446399153378949 -0.079446399153378949 -0.079446399153378949 -0.079446399153378949 -3.7385760137995825 -3.7385760137995825 -3.7385760137995825 -0.017145950030904026 -0.017145950030904026 -0.017145950030904026 -0.017145950030904026 -0.060073246153103166 -0.060073246153103166 -0.060073246153103166 -0.060073246153103166 -0.012621397495043873 -0.012621397495043873 -0.012621397495043873 -0.012621397495043873 -0.016120712114314626 -0.016120712114314626 -0.016120712114314626 -0.016120712114314626 -0.010555524226092875 -0.010555524226092875 -0.010555524226092875 -0.010555524226092875 -3.7386225065307976 -3.7386225065307976 -3.7386225065307976 -3.7386257772056122 -3.7386257772056122 -3.7386257772056122 -0.061138264512703391 -0.061138264512703391 -0.061138264512703391 -0.061138264512703391 -0.04795035008208974 -0.04795035008208974 -0.04795035008208974 -0.04795035008208974 -0.051746364409034878 -0.051746364409034878 -0.051746364409034878 -0.051746364409034878 -0.041230592455649417 -0.041230592455649417 -0.041230592455649417 -0.041230592455649417 -0.010077151257247971 -0.010077151257247971 -0.010077151257247971 -0.010077151257247971 -3.7385740167269428 -3.7385740167269428 -3.7385740167269428 -0.036185666720878092 -0.036185666720878092 -0.036185666720878092 -0.036185666720878092 -0.0092066486626904108 -0.0092066486626904108 -0.0092066486626904108 -0.0092066486626904108 -0.00080362745636874207 -0.00080362745636874207 -0.00080362745636874207 -0.00080362745636874207 -0.0042030263709955922 -0.0042030263709955922 -0.0042030263709955922 -0.0042030263709955922 -0.0070543149329837075 -0.0070543149329837075 -0.0070543149329837075 -0.0070543149329837075 -0.0081374324669055576 -0.0081374324669055576 -0.0081374324669055576 -0.0081374324669055576 -0.0044251523751086741 -0.0044251523751086741 -0.0044251523751086741 -0.0044251523751086741 -0.0038390762005560204 -0.0038390762005560204 -0.0038390762005560204 -0.0038390762005560204 -0.00048299871347753232 -0.00048299871347753232 -0.00048299871347753232 -0.00048299871347753232 -0.0028578594804459239 -0.0028578594804459239 -0.0028578594804459239 -0.0028578594804459239 -0.0048269584585866948 -0.0048269584585866948 -0.0048269584585866948 -0.0048269584585866948 -0.0062604649661260675 -0.0062604649661260675 -0.0062604649661260675 -0.0062604649661260675 -0.0083288805694780588 -0.0083288805694780588 -0.0083288805694780588 -0.0083288805694780588 -0.0054051039223527806 -0.0054051039223527806 -0.0054051039223527806 -0.0054051039223527806 -0.00095098582467247961 -0.00095098582467247961 -0.00095098582467247961 -0.00095098582467247961 -0.0010539077079691802 -0.0010539077079691802 -0.0010539077079691802 -0.0010539077079691802 
</DataArray>
<DataArray type="Float64" Name="velocity_p0" NumberOfComponents="3" format="ascii">