<?xml version="1.0"?>
<VTKFile type="UnstructuredGrid" version="0.1" byte_order="LittleEndian">
<UnstructuredGrid>
<Piece NumberOfPoints="512" NumberOfCells="131">
<Points>
<DataArray type="Float64" NumberOfComponents="3" format="ascii">
0.14138946044788619 0.141933462342688 -1 0.24999999999941211 0 -1 0.27542009602191558 0.2786841073879448 -1 0.17663550269374309 0.2000173280584561 -0.80767327345777706 0.14192670059260701 0 -0.85802340138044431 0.24999999999941211 0 -1 0.27864353689002019 0 -0.72105707495041649 0 0 -1 0 0.1419064153440632 -0.85809358465605046 0.14138946044788619 0.141933462342688 -1 0 0.25000000000104028 -1 0 0.1419064153440632 -0.85809358465605046 0.14138946044788619 0.141933462342688 -1 0.17663550269374309 0.2000173280584561 -0.80767327345777706 0 0 -0.74999999999934164 0.14138946044788619 0.141933462342688 -1 0.17663550269374309 0.2000173280584561 -0.80767327345777706 0.14192670059260701 0 -0.85802340138044431 0 0 -0.74999999999934164 0.14138946044788619 0.141933462342688 -1 0.17663550269374309 0.2000173280584561 -0.80767327345777706 0.27542009602191558 0.2786841073879448 -1 0 0.25000000000104028 -1 0.17663550269374309 0.2000173280584561 -0.80767327345777706 0.14192670059260701 0 -0.85802340138044431 0.27864353689002019 0 -0.72105707495041649 0 0 -0.74999999999934164 0 0.1419064153440632 -0.85809358465605046 0.17663550269374309 0.2000173280584561 -0.80767327345777706 0 0 -0.74999999999934164 0 0.27852182539691489 -0.72147817460311425 0 0 -1 0 0.1419064153440632 -0.85809358465605046 0.14138946044788619 0.141933462342688 -1 0 0 -0.74999999999934164 0 0 -1 0.14138946044788619 0.141933462342688 -1 0.14192670059260701 0 -0.85802340138044431 0 0 -0.74999999999934164 0 0 -1 0.14138946044788619 0.141933462342688 -1 0 0.25000000000104028 -1 0 0.1419064153440632 -0.85809358465605046 0.17663550269374309 0.2000173280584561 -0.80767327345777706 0 0.27852182539691489 -0.72147817460311425 0 0.25000000000104028 -1 0.14138946044788619 0.141933462342688 -1 0.17663550269374309 0.2000173280584561 -0.80767327345777706 0.24999999999941211 0 -1 0.27542009602191558 0.2786841073879448 -1 0.14138946044788619 0.141933462342688 -1 0.27542009602191558 0.2786841073879448 -1 0 0.25000000000104028 -1 0 0.1419064153440632 -0.85809358465605046 0.14138946044788619 0.141933462342688 -1 0.17663550269374309 0.2000173280584561 -0.80767327345777706 0 0.25000000000104028 -1 0.14138946044788619 0.141933462342688 -1 0.17663550269374309 0.2000173280584561 -0.80767327345777706 0.14192670059260701 0 -0.85802340138044431 0.24999999999941211 0 -1 0 0 -1 0.14138946044788619 0.141933462342688 -1 0.14192670059260701 0 -0.85802340138044431 0.24999999999941211 0 -1 0 0 -1 0.14138946044788619 0.141933462342688 -1 0.24999999999941211 0 -1 0.24999999999941211 0 -1 0.49924645474497431 0.19077333889470441 -1 0.27864353689002019 0 -0.72105707495041649 0.50013523499221102 0 -0.80867011855167226 0.24999999999941211 0 -1 0.49924645474497431 0.19077333889470441 -1 0.49999999999869432 0 -1 0.50013523499221102 0 -0.80867011855167226 0.17663550269374309 0.2000173280584561 -0.80767327345777706 0.49924645474497431 0.19077333889470441 -1 0.27864353689002019 0 -0.72105707495041649 0.36400213509809493 0.30340182266465199 -0.71803582340462213 0.49924645474497431 0.19077333889470441 -1 0.27864353689002019 0 -0.72105707495041649 0.36400213509809493 0.30340182266465199 -0.71803582340462213 0.50013523499221102 0 -0.80867011855167226 0.17663550269374309 0.2000173280584561 -0.80767327345777706 0.49924645474497431 0.19077333889470441 -1 0.36400213509809493 0.30340182266465199 -0.71803582340462213 0.27542009602191558 0.2786841073879448 -1 0.17663550269374309 0.2000173280584561 -0.80767327345777706 0.24999999999941211 0 -1 0.49924645474497431 0.19077333889470441 -1 0.27864353689002019 0 -0.72105707495041649 0.17663550269374309 0.2000173280584561 -0.80767327345777706 0.24999999999941211 0 -1 0.49924645474497431 0.19077333889470441 -1 0.27542009602191558 0.2786841073879448 -1 0.24999999999941211 0 -1 0.49924645474497431 0.19077333889470441 -1 0.27542009602191558 0.2786841073879448 -1 0.24999999999941211 0 -1 0.49924645474497431 0.19077333889470441 -1 0.49999999999869432 0 -1 0.36400213509809493 0.30340182266465199 -0.71803582340462213 0.50109540343913672 0 -0.49621010312562502 0.42348748445510859 0.33558750152587891 -0.41138750314712519 0.19099722793781729 0 -0.49920550623183851 0.27864353689002019 0 -0.72105707495041649 0.36400213509809493 0.30340182266465199 -0.71803582340462213 0.50109540343913672 0 -0.49621010312562502 0.19099722793781729 0 -0.49920550623183851 0.27864353689002019 0 -0.72105707495041649 0.36400213509809493 0.30340182266465199 -0.71803582340462213 0.50013523499221102 0 -0.80867011855167226 0.50109540343913672 0 -0.49621010312562502 0.17663550269374309 0.2000173280584561 -0.80767327345777706 0.27864353689002019 0 -0.72105707495041649 0.36400213509809493 0.30340182266465199 -0.71803582340462213 0.19099722793781729 0 -0.49920550623183851 0 0 -0.74999999999934164 0 0.27852182539691489 -0.72147817460311425 0.19099722793781729 0 -0.49920550623183851 0 0.190861992945314 -0.49999999999972489 0 0 -0.74999999999934164 0.19099722793781729 0 -0.49920550623183851 0 0 -0.49999999999869432 0 0.190861992945314 -0.49999999999972489 0.36400213509809493 0.30340182266465199 -0.71803582340462213 0.42348748445510859 0.33558750152587891 -0.41138750314712519 0.19099722793781729 0 -0.49920550623183851 0 0.190861992945314 -0.49999999999972489 0.17663550269374309 0.2000173280584561 -0.80767327345777706 0 0 -0.74999999999934164 0 0.27852182539691489 -0.72147817460311425 0.19099722793781729 0 -0.49920550623183851 0 0.27852182539691489 -0.72147817460311425 0.36400213509809493 0.30340182266465199 -0.71803582340462213 0.19099722793781729 0 -0.49920550623183851 0 0.190861992945314 -0.49999999999972489 0.17663550269374309 0.2000173280584561 -0.80767327345777706 0 0.27852182539691489 -0.72147817460311425 0.36400213509809493 0.30340182266465199 -0.71803582340462213 0.19099722793781729 0 -0.49920550623183851 0.17663550269374309 0.2000173280584561 -0.80767327345777706 0.27864353689002019 0 -0.72105707495041649 0 0 -0.74999999999934164 0.19099722793781729 0 -0.49920550623183851 0.36400213509809493 0.30340182266465199 -0.71803582340462213 0 0.50017861225427096 -0.49773060372977418 0.42348748445510859 0.33558750152587891 -0.41138750314712519 0 0.190861992945314 -0.49999999999972489 0.36400213509809493 0.30340182266465199 -0.71803582340462213 0 0.50023418051147772 -0.80910018661861283 0.42348748445510859 0.67651247978210449 -0.75231254100799561 0 0.50017861225427096 -0.49773060372977418 0 0.27852182539691489 -0.72147817460311425 0.36400213509809493 0.30340182266465199 -0.71803582340462213 0 0.50017861225427096 -0.49773060372977418 0 0.190861992945314 -0.49999999999972489 0 0.27852182539691489 -0.72147817460311425 0.36400213509809493 0.30340182266465199 -0.71803582340462213 0 0.50023418051147772 -0.80910018661861283 0 0.50017861225427096 -0.49773060372977418 0.36400213509809493 0.30340182266465199 -0.71803582340462213 0.42348748445510859 0.67651247978210449 -0.75231254100799561 0.764412522315979 0.33558750152587891 -0.75231254100799561 0.42348748445510859 0.33558750152587891 -0.41138750314712519 0.36400213509809493 0.30340182266465199 -0.71803582340462213 0.42348748445510859 0.67651247978210449 -0.75231254100799561 0 0.50017861225427096 -0.49773060372977418 0.42348748445510859 0.33558750152587891 -0.41138750314712519 0.36400213509809493 0.30340182266465199 -0.71803582340462213 0.49631982208178133 0.49903983155338327 -1 0.27542009602191558 0.2786841073879448 -1 0.19232253086422449 0.50146053791918455 -1 0.49924645474497431 0.19077333889470441 -1 0.49631982208178133 0.49903983155338327 -1 0.27542009602191558 0.2786841073879448 -1 0.36400213509809493 0.30340182266465199 -0.71803582340462213 0.49631982208178133 0.49903983155338327 -1 0.19232253086422449 0.50146053791918455 -1 0.42348748445510859 0.67651247978210449 -0.75231254100799561 0.17663550269374309 0.2000173280584561 -0.80767327345777706 0.36400213509809493 0.30340182266465199 -0.71803582340462213 0.27542009602191558 0.2786841073879448 -1 0.19232253086422449 0.50146053791918455 -1 0.49631982208178133 0.49903983155338327 -1 0.27542009602191558 0.2786841073879448 -1 0.19232253086422449 0.50146053791918455 -1 0.49924645474497431 0.19077333889470441 -1 0.36400213509809493 0.30340182266465199 -0.71803582340462213 0.49631982208178133 0.49903983155338327 -1 0.27542009602191558 0.2786841073879448 -1 0.17663550269374309 0.2000173280584561 -0.80767327345777706 0.27542009602191558 0.2786841073879448 -1 0 0.25000000000104028 -1 0.19232253086422449 0.50146053791918455 -1 0.17663550269374309 0.2000173280584561 -0.80767327345777706 0 0.27852182539691489 -0.72147817460311425 0 0.25000000000104028 -1 0.19232253086422449 0.50146053791918455 -1 0.36400213509809493 0.30340182266465199 -0.71803582340462213 0.19232253086422449 0.50146053791918455 -1 0 0.50023418051147772 -0.80910018661861283 0.42348748445510859 0.67651247978210449 -0.75231254100799561 0.27542009602191558 0.2786841073879448 -1 0 0.25000000000104028 -1 0.19232253086422449 0.50146053791918455 -1 0 0.27852182539691489 -0.72147817460311425 0.36400213509809493 0.30340182266465199 -0.71803582340462213 0.19232253086422449 0.50146053791918455 -1 0 0.50023418051147772 -0.80910018661861283 0.17663550269374309 0.2000173280584561 -0.80767327345777706 0 0.27852182539691489 -0.72147817460311425 0.36400213509809493 0.30340182266465199 -0.71803582340462213 0.19232253086422449 0.50146053791918455 -1 0 0.27852182539691489 -0.72147817460311425 0 0.25000000000104028 -1 0.19232253086422449 0.50146053791918455 -1 0 0.50023418051147772 -0.80910018661861283 0.42348748445510859 0.67651247978210449 -0.75231254100799561 0.42348748445510859 0.67651247978210449 -0.41138750314712519 0 0.50017861225427096 -0.49773060372977418 0.42348748445510859 0.33558750152587891 -0.41138750314712519 0.49631982208178133 0.49903983155338327 -
[...]
<PointData Scalars="pressure_p0," Vectors="velocity_p0," Tensors="anisotropy,">
<DataArray type="Float64" Name="pressure_p0" format="ascii">
-3.7386089473573221 -3.7386089473573221 -3.7386089473573221 -0.26091985763879499 -0.26091985763879499 -0.26091985763879499 -0.26091985763879499 -0.55706459331101088 -0.55706459331101088 -0.55706459331101088 -0.55706459331101088 -0.33386161871603176 -0.33386161871603176 -0.33386161871603176 -0.33386161871603176 -0.33789575126491733 -0.33789575126491733 -0.33789575126491733 -0.33789575126491733 -1.1812535861863378 -1.1812535861863378 -1.1812535861863378 -1.1812535861863378 -0.14511390080757239 -0.14511390080757239 -0.14511390080757239 -0.14511390080757239 -0.13257696942900249 -0.13257696942900249 -0.13257696942900249 -0.13257696942900249 -0.23772883723100477 -0.23772883723100477 -0.23772883723100477 -0.23772883723100477 -0.23899852568680657 -0.23899852568680657 -0.23899852568680657 -0.23899852568680657 -3.7385601119330074 -3.7385601119330074 -3.7385601119330074 -0.23678685275507289 -0.23678685275507289 -0.23678685275507289 -0.23678685275507289 -1.1925273167698363 -1.1925273167698363 -1.1925273167698363 -1.1925273167698363 -3.7386087306616504 -3.7386087306616504 -3.7386087306616504 -0.62432677624071031 -0.62432677624071031 -0.62432677624071031 -0.62432677624071031 -0.63871495681553303 -0.63871495681553303 -0.63871495681553303 -0.63871495681553303 -0.55965893302736169 -0.55965893302736169 -0.55965893302736169 -0.55965893302736169 -3.7385602873138502 -3.7385602873138502 -3.7385602873138502 -0.45072856795530802 -0.45072856795530802 -0.45072856795530802 -0.45072856795530802 -0.73546548765811692 -0.73546548765811692 -0.73546548765811692 -0.73546548765811692 -0.7361338469507992 -0.7361338469507992 -0.7361338469507992 -0.7361338469507992 -0.57441943628975289 -0.57441943628975289 -0.57441943628975289 -0.57441943628975289 -1.187002869075835 -1.187002869075835 -1.187002869075835 -1.187002869075835 -0.71758159206171368 -0.71758159206171368 -0.71758159206171368 -0.71758159206171368 -1.3925842901571683 -1.3925842901571683 -1.3925842901571683 -1.3925842901571683 -3.738651693854171 -3.738651693854171 -3.738651693854171 -3.7386323671034445 -3.7386323671034445 -3.7386323671034445 -0.17143311435851802 -0.17143311435851802 -0.17143311435851802 -0.17143311435851802 -0.13798045225203123 -0.13798045225203123 -0.13798045225203123 -0.13798045225203123 -0.22240116353218164 -0.22240116353218164 -0.22240116353218164 -0.22240116353218164 -0.29640195054834551 -0.29640195054834551 -0.29640195054834551 -0.29640195054834551 -0.033578554075378353 -0.033578554075378353 -0.033578554075378353 -0.033578554075378353 -0.015461302571113618 -0.015461302571113618 -0.015461302571113618 -0.015461302571113618 -0.1735174062961703 -0.1735174062961703 -0.1735174062961703 -0.1735174062961703 -0.11263914622475274 -0.11263914622475274 -0.11263914622475274 -0.11263914622475274 -0.16809433023676201 -0.16809433023676201 -0.16809433023676201 -0.16809433023676201 -0.32059475663913461 -0.32059475663913461 -0.32059475663913461 -0.32059475663913461 -0.094545084501463442 -0.094545084501463442 -0.094545084501463442 -0.094545084501463442 -0.18977604556182318 -0.18977604556182318 -0.18977604556182318 -0.18977604556182318 -0.4848826181768181 -0.4848826181768181 -0.4848826181768181 -0.4848826181768181 -0.15762736561632484 -0.15762736561632484 -0.15762736561632484 -0.15762736561632484 -0.24643368682026284 -0.24643368682026284 -0.24643368682026284 -0.24643368682026284 -0.58956753653667304 -0.58956753653667304 -0.58956753653667304 -0.58956753653667304 -0.39676424020450207 -0.39676424020450207 -0.39676424020450207 -0.39676424020450207 -1.6655264665078979 -1.6655264665078979 -1.6655264665078979 -1.6655264665078979 -3.7387227358226376 -3.7387227358226376 -3.7387227358226376 -1.3757637504356928 -1.3757637504356928 -1.3757637504356928 -1.3757637504356928 -1.2133849972305679 -1.2133849972305679 -1.2133849972305679 -1.2133849972305679 -3.7387240446026282 -3.7387240446026282 -3.7387240446026282 -1.6311774339275988 -1.6311774339275988 -1.6311774339275988 -1.6311774339275988 -1.3781263008099365 -1.3781263008099365 -1.3781263008099365 -1.3781263008099365 -0.69446063152426862 -0.69446063152426862 -0.69446063152426862 -0.69446063152426862 -0.91874367449072381 -0.91874367449072381 -0.91874367449072381 -0.91874367449072381 -3.7386524055274482 -3.7386524055274482 -3.7386524055274482 -0.6020822402299727 -0.6020822402299727 -0.6020822402299727 -0.6020822402299727 -0.75485625169296944 -0.75485625169296944 -0.75485625169296944 -0.75485625169296944 -0.44723428864054743 -0.44723428864054743 -0.44723428864054743 -0.44723428864054743 -0.28956874758166973 -0.28956874758166973 -0.28956874758166973 -0.28956874758166973 -1.1366593206040143 -1.1366593206040143 -1.1366593206040143 -1.1366593206040143 -0.4425362448660638 -0.4425362448660638 -0.4425362448660638 -0.4425362448660638 -0.39202137071557297 -0.39202137071557297 -0.39202137071557297 -0.39202137071557297 -0.66200009647346136 -0.66200009647346136 -0.66200009647346136 -0.66200009647346136 -0.17138654855589483 -0.17138654855589483 -0.17138654855589483 -0.17138654855589483 -0.28414373071871074 -0.28414373071871074 -0.28414373071871074 -0.28414373071871074 -0.17509007127453449 -0.17509007127453449 -0.17509007127453449 -0.17509007127453449 -0.34631829712855722 -0.34631829712855722 -0.34631829712855722 -0.34631829712855722 -3.7386642027621102 -3.7386642027621102 -3.7386642027621102 -0.58272043199241708 -0.58272043199241708 -0.58272043199241708 -0.58272043199241708 -0.66922953998860202 -0.66922953998860202 -0.66922953998860202 -0.66922953998860202 -0.77713802072178539 -0.77713802072178539 -0.77713802072178539 -0.77713802072178539 -0.70775371074498006 -0.70775371074498006 -0.70775371074498006 -0.70775371074498006 -1.2489846195928527 -1.2489846195928527 -1.2489846195928527 -1.2489846195928527 -1.1109033573623099 -1.1109033573623099 -1.1109033573623099 -1.1109033573623099 -3.7386378130150342 -3.7386378130150342 -3.7386378130150342 -1.1105768780247691 -1.1105768780247691 -1.1105768780247691 -1.1105768780247691 -1.6767729302207295 -1.6767729302207295 -1.6767729302207295 -1.6767729302207295 -3.7387271854843234 -3.7387271854843234 -3.7387271854843234 -1.3154783915868813 -1.3154783915868813 -1.3154783915868813 -1.3154783915868813 -0.28463844329917609 -0.28463844329917609 -0.28463844329917609 -0.28463844329917609 -0.22678011470545301 -0.22678011470545301 -0.22678011470545301 -0.22678011470545301 -0.069687420314003906 -0.069687420314003906 -0.069687420314003906 -0.069687420314003906 -0.22181391268663994 -0.22181391268663994 -0.22181391268663994 -0.22181391268663994 -0.43073568574659266 -0.43073568574659266 -0.43073568574659266 -0.43073568574659266 -0.26728117030461784 -0.26728117030461784 -0.26728117030461784 -0.26728117030461784 -0.033687044944727587 -0.033687044944727587 -0.033687044944727587 -0.033687044944727587 -0.12233435773757348 -0.12233435773757348 -0.12233435773757348 -0.12233435773757348 -0.067639539644425373 -0.067639539644425373 -0.067639539644425373 -0.067639539644425373 -0.087594390263622465 -0.087594390263622465 -0.087594390263622465 -0.087594390263622465 -0.18043975568871057 -0.18043975568871057 -0.18043975568871057 -0.18043975568871057 -0.17356183462873701 -0.17356183462873701 -0.17356183462873701 -0.17356183462873701 -0.064777549569420681 -0.064777549569420681 -0.064777549569420681 -0.064777549569420681 -0.20183514805565989 -0.20183514805565989 -0.20183514805565989 -0.20183514805565989 -0.15683669477701637 -0.15683669477701637 -0.15683669477701637 -0.15683669477701637 -0.27262027596402572 -0.27262027596402572 -0.27262027596402572 -0.27262027596402572 -0.2804554638962598 -0.2804554638962598 -0.2804554638962598 -0.2804554638962598 -0.13618944496480098 -0.13618944496480098 -0.13618944496480098 -0.13618944496480098 -0.0089183505526176047 -0.0089183505526176047 -0.0089183505526176047 -0.0089183505526176047 -0.041423170181065734 -0.041423170181065734 -0.041423170181065734 -0.041423170181065734 -0.0057740144426978298 -0.0057740144426978298 -0.0057740144426978298 -0.0057740144426978298 -0.01013890431190095 -0.01013890431190095 -0.01013890431190095 -0.01013890431190095 -0.031556172935523326 -0.031556172935523326 -0.031556172935523326 -0.031556172935523326 -0.043287518168412621 -0.043287518168412621 -0.043287518168412621 -0.043287518168412621 -0.057036448229196936 -0.057036448229196936 -0.057036448229196936 -0.057036448229196936 -0.07143186637480102 -0.07143186637480102 -0.07143186637480102 -0.07143186637480102 -0.079446397491653775 -0.079446397491653775 -0.079446397491653775 -0.079446397491653775 -0.060073243910938989 -0.060073243910938989 -0.060073243910938989 -0.060073243910938989 -0.012621397173897628 -0.012621397173897628 -0.012621397173897628 -0.012621397173897628 -0.017145949518344441 -0.017145949518344441 -0.017145949518344441 -0.017145949518344441 -0.016120711963048623 -0.016120711963048623 -0.016120711963048623 -0.016120711963048623 -0.010555524341941916 -0.010555524341941916 -0.010555524341941916 -0.010555524341941916 -0.04123059089309962 -0.04123059089309962 -0.04123059089309962 -0.04123059089309962 -0.047950349573559939 -0.047950349573559939 -0.047950349573559939 -0.047950349573559939 -0.051746362647243749 -0.051746362647243749 -0.051746362647243749 -0.051746362647243749 -0.061138263861731865 -0.061138263861731865 -0.061138263861731865 -0.061138263861731865 -0.0092066480872257626 -0.0092066480872257626 -0.0092066480872257626 -0.0092066480872257626 -0.036185664938987359 -0.036185664938987359 -0.036185664938987359 -0.036185664938987359 -0.010077150907264387 -0.010077150907264387 -0.010077150907264387 -0.010077150907264387 -0.0048269580576638573 -0.0048269580576638573 -0.0048269580576638573 -0.0048269580576638573 -0.0062604645550313077 -0.0062604645550313077 -0.0062604645550313077 -0.0062604645550313077 -0.0054051034455963884 -0.0054051034455963884 -0.0054051034455963884 -0.0054051034455963884 -0.0070543147481336678 -0.0070543147481336678 -0.0070543147481336678 -0.0070543147481336678 -0.0042030260778428688 -0.0042030260778428688 -0.0042030260778428688 -0.0042030260778428688 -0.00080362744259984784 -0.00080362744259984784 -0.00080362744259984784 -0.00080362744259984784 -0.0044251520114671102 -0.0044251520114671102 -0.0044251520114671102 -0.0044251520114671102 -0.00048299863624822414 -0.00048299863624822414 -0.00048299863624822414 -0.00048299863624822414 -0.0083288805246443057 -0.0083288805246443057 -0.0083288805246443057 -0.0083288805246443057 -0.0038390758122656232 -0.0038390758122656232 -0.0038390758122656232 -0.0038390758122656232 -0.0081374322599183768 -0.0081374322599183768 -0.0081374322599183768 -0.0081374322599183768 -0.0028578588894749533 -0.0028578588894749533 -0.0028578588894749533 -0.0028578588894749533 -0.00095098583220542925 -0.00095098583220542925 -0.00095098583220542925 -0.00095098583220542925 -0.0010539076578685832 -0.0010539076578685832 -0.0010539076578685832 -0.0010539076578685832 
</DataArray>
<DataArray type="Float64" Name="velocity_p0" NumberOfComponents="3" format="ascii">