<?xml version="1.0"?>
<VTKFile type="UnstructuredGrid" version="0.1" byte_order="LittleEndian">
<UnstructuredGrid>
<Piece NumberOfPoints="880" NumberOfCells="299">
<Points>
<DataArray type="Float64" NumberOfComponents="3" format="ascii">
-0 0 0 0.18653882694645291 0.22249173546702489 0 0 0.25000000000104189 0 -0 0 0 0.18653882694645291 0.22249173546702489 0 0.24999999999941089 0 0 0.24999999999941089 0 0 0.35015135319464608 0.1900339269648805 0 0.49999999999869182 0 0 0.18653882694645291 0.22249173546702489 0 0.24999999999941089 0 0 0.35015135319464608 0.1900339269648805 0 0.35015135319464608 0.1900339269648805 0 0.49924741621175961 0.21507969613896921 0 0.49999999999869182 0 0 0.35015135319464608 0.1900339269648805 0 0.49924741621175961 0.21507969613896921 0 0.40587285776242238 0.32419148732968017 0 0.37764981543668408 0.41341486499350411 0 0.41576443813007791 0.48093483781626972 0 0.45418244162583959 0.41624787166862259 0 0.37764981543668408 0.41341486499350411 0 0.45418244162583959 0.41624787166862259 0 0.40587285776242238 0.32419148732968017 0 0.41576443813007791 0.48093483781626972 0 0.46566719828045178 0.47702825415921918 0 0.45418244162583959 0.41624787166862259 0 0.41576443813007791 0.48093483781626972 0 0.46566719828045178 0.47702825415921918 0 0.4638583922372429 0.51470588235294135 0 0.46566719828045178 0.47702825415921918 0 0.49954900152271581 0.45107191084564019 0 0.5 0.5 0 0.46566719828045178 0.47702825415921918 0 0.4638583922372429 0.51470588235294135 0 0.5 0.5 0 0.46566719828045178 0.47702825415921918 0 0.49954900152271581 0.45107191084564019 0 0.45418244162583959 0.41624787166862259 0 0.45418244162583959 0.41624787166862259 0 0.49435464945626773 0.33318442629318029 0 0.54876010062294855 0.39662628167175101 0 0.45418244162583959 0.41624787166862259 0 0.49435464945626773 0.33318442629318029 0 0.40587285776242238 0.32419148732968017 0 0.49924741621175961 0.21507969613896921 0 0.49435464945626773 0.33318442629318029 0 0.40587285776242238 0.32419148732968017 0 0.35015135319464608 0.1900339269648805 0 0.40587285776242238 0.32419148732968017 0 0.29145599617909779 0.35026601625021492 0 0.37764981543668408 0.41341486499350411 0 0.40587285776242238 0.32419148732968017 0 0.29145599617909779 0.35026601625021492 0 0.18653882694645291 0.22249173546702489 0 0.35015135319464608 0.1900339269648805 0 0.29145599617909779 0.35026601625021492 0 0.29145599617909779 0.35026601625021492 0 0.32540781287085369 0.49175159894608172 0 0.17872124008781709 0.39692711089439497 0 0.37764981543668408 0.41341486499350411 0 0.29145599617909779 0.35026601625021492 0 0.32540781287085369 0.49175159894608172 0 0.37764981543668408 0.41341486499350411 0 0.41576443813007791 0.48093483781626972 0 0.32540781287085369 0.49175159894608172 0 0.17872124008781709 0.39692711089439497 0 0 0.25000000000104189 0 0 0.50000000000206157 0 0.17872124008781709 0.39692711089439497 0 0 0.50000000000206157 0 0.22453074737734591 0.51613635929252633 0 0.32540781287085369 0.49175159894608172 0 0.17872124008781709 0.39692711089439497 0 0.22453074737734591 0.51613635929252633 0 0.18653882694645291 0.22249173546702489 0 0.29145599617909779 0.35026601625021492 0 0.17872124008781709 0.39692711089439497 0 0.18653882694645291 0.22249173546702489 0 0.17872124008781709 0.39692711089439497 0 0 0.25000000000104189 0 0 0.50000000000206157 0 0.18442368612951149 0.62734948407416979 0 0 0.75000000000034772 0 0.18442368612951149 0.62734948407416979 0 0.22727208279115291 0.72949159435386135 0 0 0.75000000000034772 0 0.18442368612951149 0.62734948407416979 0 0.22727208279115291 0.72949159435386135 0 0.31346558946927339 0.67110784456164874 0 0.18442368612951149 0.62734948407416979 0 0.22453074737734591 0.51613635929252633 0 0.31771010312359771 0.58585679504088894 0 0 0.50000000000206157 0 0.18442368612951149 0.62734948407416979 0 0.22453074737734591 0.51613635929252633 0 0 1 0 0.096516139048187316 0.89789944498939644 0 0 0.75000000000034772 0 0 1 0 0.096516139048187316 0.89789944498939644 0 0.1596341872805197 1 0 0.096516139048187316 0.89789944498939644 0 0 0.75000000000034772 0 0.1644705180525495 0.8200994301041713 0 0.1644705180525495 0.8200994301041713 0 0.2386314078659193 0.92924778694987087 0 0.27155609766735261 0.80398965554903801 0 0.22727208279115291 0.72949159435386135 0 0 0.75000000000034772 0 0.1644705180525495 0.8200994301041713 0 0.22727208279115291 0.72949159435386135 0 0.1644705180525495 0.8200994301041713 0 0.27155609766735261 0.80398965554903801 0 0.096516139048187316 0.89789944498939644 0 0.1644705180525495 0.8200994301041713 0 0.2386314078659193 0.92924778694987087 0 0.096516139048187316 0.89789944498939644 0 0.2386314078659193 0.92924778694987087 0 0.1596341872805197 1 0 0.2386314078659193 0.92924778694987087 0 0.1596341872805197 1 0 0.27591592301363282 1 0 0.36061858902161292 1 0 0.32789203369730929 0.94219211037003092 0 0.27591592301363282 1 0 0.36061858902161292 1 0 0.32789203369730929 0.94219211037003092 0 0.39382242252278338 0.95440420122950598 0 0.2386314078659193 0.92924778694987087 0 0.32789203369730929 0.94219211037003092 0 0.27591592301363282 1 0 0.2386314078659193 0.92924778694987087 0 0.32789203369730929 0.94219211037003092 0 0.31834856208730472 0.88134829947972904 0 0.32789203369730929 0.94219211037003092 0 0.37746652222901839 0.8987532801416368 0 0.39382242252278338 0.95440420122950598 0 0.32789203369730929 0.94219211037003092 0 0.31834856208730472 0.88134829947972904 0 0.37746652222901839 0.8987532801416368 0 0.2386314078659193 0.92924778694987087 0 0.31834856208730472 0.88134829947972904 0 0.27155609766735261 0.80398965554903801 0 0.31834856208730472 0.88134829947972904 0 0.36493375430404612 0.82333914183704071 0 0.37746652222901839 0.8987532801416368 0 0.31834856208730472 0.88134829947972904 0 0.36493375430404612 0.82333914183704071 0 0.27155609766735261 0.80398965554903801 0 0.22727208279115291 0.72949159435386135 0 0.27155609766735261 0.80398965554903801 0 0.32984265945580837 0.74432890077789404 0 0.36493375430404612 0.82333914183704071 0 0.27155609766735261 0.80398965554903801 0 0.32984265945580837 0.74432890077789404 0 0.36493375430404612 0.82333914183704071 0 0.39746869305290999 0.7595658224757349 0 0.32984265945580837 0.74432890077789404 0 0.36493375430404612 0.82333914183704071 0 0.39746869305290999 0.7595658224757349 0 0.42893012659725649 0.81084715169569632 0 0.39746869305290999 0.7595658224757349 0 0.42893012659725649 0.81084715169569632 0 0.44651949253391748 0.77225997208621999 0 0.39746869305290999 0.7595658224757349 0 0.44651949253391748 0.77225997208621999 0 0.43412357948152142 0.72128778687215156 0 0.44651949253391748 0.77225997208621999 0 0.47786860714145291 0.77730227330627721 0 0.47220206448452873 0.74892462649306213 0 0.47786860714145291 0.77730227330627721 0 0.47220206448452873 0.74892462649306213 0 0.5 0.76470588235294124 0 0.47786860714145291 0.77730227330627721 0 0.5 0.79411764705882359 0 0.5 0.76470588235294124 0 0.47062147868881782 0.80650323854033878 0 0.5 0.82352941176470584 0 0.5 0.79411764705882359 0 0.47786860714145291 0.77730227330627721 0 0.47062147868881782 0.80650323854033878 0 0.5 0.79411764705882359 0 0.44651949253391748 0.77225997208621999 0 0.47786860714145291 0.77730227330627721 0 0.47062147868881782 0.80650323854033878 0 0.42893012659725649 0.81084715169569632 0 0.44651949253391748 0.77225997208621999 0 0.47062147868881782 0.80650323854033878 0 0.42893012659725649 0.81084715169569632 0 0.47062147868881782 0.80650323854033878 0 0.46181179062043481 0.83858979842637782 0 0.42893012659725649 0.81084715169569632 0 0.46181179062043481 0.83858979842637782 0 0.42880856207355889 0.86677159981903118 0 0.46181179062043481 0.83858979842637782 0 0.5 0.85294117647058831 0 0.5 0.82352941176470584 0 0.47062147868881782 0.80650323854033878 0 0.46181179062043481 0.83858979842637782 0 0.5 0.82352941176470584 0 0.46181179062043481 0.83858979842637782 0 0.47032448519202857 0.86718057681700655 0 0.5 0.85294117647058831 0 0.47032448519202857 0.86718057681700655 0 0.5 0.88235294117647056 0 0.5 0.85294117647058831 0 0.46181179062043481 0.83858979842637782 0 0.47032448519202857 0.86718057681700655 0 0.42880856207355889 0.86677159981903118 0 0.36493375430404612 0.82333914183704071 0 0.42880856207355889 0.86677159981903118 0 0.37746652222901839 0.8987532801416368 0 0.36493375430404612 0.82333914183704071 0 0.42893012659725649 0.81084715169569632 0 0.42880856207355889 0.86677159981903118 0 0.37746652222901839 0.8987532801416368 0 0.42822627495986648 0.92083108049218854 0 0.39382242252278338 0.95440420122950598 0 0.42880856207355889 0.86677159981903118 0 0.37746652222901839 0.8987532801416368 0 0.42822627495986648 0.92083108049218854 0 0.47032448519202857 0.86718057681700655 0 0.42880856207355889 0.86677159981903118 0 0.46100207326614928 0.89524736819256467 0 0.42880856207355889 0.86677159981903118 0 0.42822627495986648 0.92083108049218854 0 0.46100207326614928 0.89524736819256467 0 0.47032448519202857 0.86718057681700655 0 0.46100207326614928 0.89524736819256467 0 0.5 0.88235294117647056 0 0.46100207326614928 0.89524736819256467 0 0.5 0.91176470588235292 0 0.5 0.88235294117647056 0 0.46100207326614928 0.89524736819256467 0 0.46949408183482899 0.92833826413560594 0 0.5 0.91176470588235292 0 0.46949408183482899 0.92833826413560594 0 0.5 0.94117647058823528 0 0.5 0.91176470588235292 0 0.42822627495986648 0.92083108049218854 0 0.46100207326614928 0.89524736819256467 0 0.46949408183482899 0.92833826413560594 0 0.46949408183482899 0.92833826413560594 0 0.44768478605684647 0.9646709673379662 0 0.47596308696979028 0.95620709615192379 0 0.42822627495986648 0.92083108049218854 0 0.46949408183482899 0.92833826413560594 0 0.44768478605684647 0.9646709673379662 0 0.44768478605684647 0.9646709673379662 0 0.47596308696979028 0.95620709615192379 0 0.47818194888216242 0.97829325975680159 0 0.46949408183482899 0.92833826413560594 0 0.47596308696979028 0.95620709615192379 0 0.5 0.94117647058823528 0 0.47596308696979028 0.95620709615192379 0 0.4781
[...]
<PointData Scalars="" Vectors="displacement," Tensors="">
<DataArray type="Float64" Name="displacement" NumberOfComponents="3" format="ascii">
-2.7007286982612414e-06 1.1634635277283648e-05 0 0.00082986787095630239 -0.0023146527835390019 0 0.0046454817206833653 0.0087994627128887733 0 -2.7007286982612414e-06 1.1634635277283648e-05 0 0.00082986787095630239 -0.0023146527835390019 0 -3.8537138841325251e-06 -9.0497340348665735e-06 0 -3.8537138841325251e-06 -9.0497340348665735e-06 0 -0.001408594126755176 -0.011891588831659927 0 -4.6842803770225544e-06 -2.9985855931930264e-05 0 0.00082986787095630239 -0.0023146527835390019 0 -3.8537138841325251e-06 -9.0497340348665735e-06 0 -0.001408594126755176 -0.011891588831659927 0 -0.001408594126755176 -0.011891588831659927 0 0.0014704571769016139 -0.02527935830273445 0 -4.6842803770225544e-06 -2.9985855931930264e-05 0 -0.001408594126755176 -0.011891588831659927 0 0.0014704571769016139 -0.02527935830273445 0 0.008935496945585741 -0.026161956917286507 0 0.020276512620766636 -0.026989300525716933 0 0.031741606756266395 -0.036640921725920074 0 0.021122510922643969 -0.041830144615564238 0 0.020276512620766636 -0.026989300525716933 0 0.021122510922643969 -0.041830144615564238 0 0.008935496945585741 -0.026161956917286507 0 0.031741606756266395 -0.036640921725920074 0 0.031423718144334277 -0.048691236950848628 0 0.021122510922643969 -0.041830144615564238 0 0.031741606756266395 -0.036640921725920074 0 0.031423718144334277 -0.048691236950848628 0 0.03940039199565995 -0.048985505345966844 0 0.031423718144334277 -0.048691236950848628 0 0.027610285567799361 -0.057218238471423676 0 0.03681448184295795 -0.06404659483734515 0 0.031423718144334277 -0.048691236950848628 0 0.03940039199565995 -0.048985505345966844 0 0.03681448184295795 -0.06404659483734515 0 0.031423718144334277 -0.048691236950848628 0 0.027610285567799361 -0.057218238471423676 0 0.021122510922643969 -0.041830144615564238 0 0.021122510922643969 -0.041830144615564238 0 0.012035517874232106 -0.040678177190491001 0 0.022315132669642138 -0.061135362636826368 0 0.021122510922643969 -0.041830144615564238 0 0.012035517874232106 -0.040678177190491001 0 0.008935496945585741 -0.026161956917286507 0 0.0014704571769016139 -0.02527935830273445 0 0.012035517874232106 -0.040678177190491001 0 0.008935496945585741 -0.026161956917286507 0 -0.001408594126755176 -0.011891588831659927 0 0.008935496945585741 -0.026161956917286507 0 0.011485422443664075 -0.013543235785344793 0 0.020276512620766636 -0.026989300525716933 0 0.008935496945585741 -0.026161956917286507 0 0.011485422443664075 -0.013543235785344793 0 0.00082986787095630239 -0.0023146527835390019 0 -0.001408594126755176 -0.011891588831659927 0 0.011485422443664075 -0.013543235785344793 0 0.011485422443664075 -0.013543235785344793 0 0.031970130063189835 -0.021383703156943799 0 0.017355634789122415 -0.0023488886397861498 0 0.020276512620766636 -0.026989300525716933 0 0.011485422443664075 -0.013543235785344793 0 0.031970130063189835 -0.021383703156943799 0 0.020276512620766636 -0.026989300525716933 0 0.031741606756266395 -0.036640921725920074 0 0.031970130063189835 -0.021383703156943799 0 0.017355634789122415 -0.0023488886397861498 0 0.0046454817206833653 0.0087994627128887733 0 0.031880370601945568 0.018181517723233915 0 0.017355634789122415 -0.0023488886397861498 0 0.031880370601945568 0.018181517723233915 0 0.035045393741426852 -0.0089600343711529491 0 0.031970130063189835 -0.021383703156943799 0 0.017355634789122415 -0.0023488886397861498 0 0.035045393741426852 -0.0089600343711529491 0 0.00082986787095630239 -0.0023146527835390019 0 0.011485422443664075 -0.013543235785344793 0 0.017355634789122415 -0.0023488886397861498 0 0.00082986787095630239 -0.0023146527835390019 0 0.017355634789122415 -0.0023488886397861498 0 0.0046454817206833653 0.0087994627128887733 0 0.031880370601945568 0.018181517723233915 0 0.051165204720880507 -0.0048171202748559967 0 0.069498074635651039 0.020665905703050345 0 0.051165204720880507 -0.0048171202748559967 0 0.067061324144770992 -0.011436223182912823 0 0.069498074635651039 0.020665905703050345 0 0.051165204720880507 -0.0048171202748559967 0 0.067061324144770992 -0.011436223182912823 0 0.059284297527001616 -0.023386903490784552 0 0.051165204720880507 -0.0048171202748559967 0 0.035045393741426852 -0.0089600343711529491 0 0.046911565763950627 -0.022674552916774286 0 0.031880370601945568 0.018181517723233915 0 0.051165204720880507 -0.0048171202748559967 0 0.035045393741426852 -0.0089600343711529491 0 0.10635291391465955 0.021038214060652354 0 0.0913322515979062 0.006922862658369406 0 0.069498074635651039 0.020665905703050345 0 0.10635291391465955 0.021038214060652354 0 0.0913322515979062 0.006922862658369406 0 0.10631818103458876 -0.0022554525178395705 0 0.0913322515979062 0.006922862658369406 0 0.069498074635651039 0.020665905703050345 0 0.080112450997527063 -0.0027157749008705771 0 0.080112450997527063 -0.0027157749008705771 0 0.096148854451897026 -0.013601845016502081 0 0.07814652615072433 -0.018151984219577477 0 0.067061324144770992 -0.011436223182912823 0 0.069498074635651039 0.020665905703050345 0 0.080112450997527063 -0.0027157749008705771 0 0.067061324144770992 -0.011436223182912823 0 0.080112450997527063 -0.0027157749008705771 0 0.07814652615072433 -0.018151984219577477 0 0.0913322515979062 0.006922862658369406 0 0.080112450997527063 -0.0027157749008705771 0 0.096148854451897026 -0.013601845016502081 0 0.0913322515979062 0.006922862658369406 0 0.096148854451897026 -0.013601845016502081 0 0.10631818103458876 -0.0022554525178395705 0 0.096148854451897026 -0.013601845016502081 0 0.10631818103458876 -0.0022554525178395705 0 0.10641833834640198 -0.019020069120599763 0 0.10647957173524299 -0.031253967157666818 0 0.098132692495804488 -0.026513225361462622 0 0.10641833834640198 -0.019020069120599763 0 0.10647957173524299 -0.031253967157666818 0 0.098132692495804488 -0.026513225361462622 0 0.099934220037964497 -0.036039192873643204 0 0.096148854451897026 -0.013601845016502081 0 0.098132692495804488 -0.026513225361462622 0 0.10641833834640198 -0.019020069120599763 0 0.096148854451897026 -0.013601845016502081 0 0.098132692495804488 -0.026513225361462622 0 0.089411767454496055 -0.025099372499432161 0 0.098132692495804488 -0.026513225361462622 0 0.091964286498444597 -0.033665017621998167 0 0.099934220037964497 -0.036039192873643204 0 0.098132692495804488 -0.026513225361462622 0 0.089411767454496055 -0.025099372499432161 0 0.091964286498444597 -0.033665017621998167 0 0.096148854451897026 -0.013601845016502081 0 0.089411767454496055 -0.025099372499432161 0 0.07814652615072433 -0.018151984219577477 0 0.089411767454496055 -0.025099372499432161 0 0.081238166125866373 -0.031815216985334127 0 0.091964286498444597 -0.033665017621998167 0 0.089411767454496055 -0.025099372499432161 0 0.081238166125866373 -0.031815216985334127 0 0.07814652615072433 -0.018151984219577477 0 0.067061324144770992 -0.011436223182912823 0 0.07814652615072433 -0.018151984219577477 0 0.069946964710447312 -0.026414519004254285 0 0.081238166125866373 -0.031815216985334127 0 0.07814652615072433 -0.018151984219577477 0 0.069946964710447312 -0.026414519004254285 0 0.081238166125866373 -0.031815216985334127 0 0.072341736037825621 -0.036615731869173725 0 0.069946964710447312 -0.026414519004254285 0 0.081238166125866373 -0.031815216985334127 0 0.072341736037825621 -0.036615731869173725 0 0.079538760326409538 -0.041164942674991101 0 0.072341736037825621 -0.036615731869173725 0 0.079538760326409538 -0.041164942674991101 0 0.074136071327809139 -0.043801145249326309 0 0.072341736037825621 -0.036615731869173725 0 0.074136071327809139 -0.043801145249326309 0 0.067134365812611604 -0.042172122371605364 0 0.074136071327809139 -0.043801145249326309 0 0.074829278120481638 -0.048266889296421159 0 0.070916607707098442 -0.04755035735361246 0 0.074829278120481638 -0.048266889296421159 0 0.070916607707098442 -0.04755035735361246 0 0.07307043136081906 -0.051393519829580882 0 0.074829278120481638 -0.048266889296421159 0 0.077164679300175593 -0.051349998530530051 0 0.07307043136081906 -0.051393519829580882 0 0.078918337285561302 -0.047176520803978592 0 0.081311076224831663 -0.05132228319057773 0 0.077164679300175593 -0.051349998530530051 0 0.074829278120481638 -0.048266889296421159 0 0.078918337285561302 -0.047176520803978592 0 0.077164679300175593 -0.051349998530530051 0 0.074136071327809139 -0.043801145249326309 0 0.074829278120481638 -0.048266889296421159 0 0.078918337285561302 -0.047176520803978592 0 0.079538760326409538 -0.041164942674991101 0 0.074136071327809139 -0.043801145249326309 0 0.078918337285561302 -0.047176520803978592 0 0.079538760326409538 -0.041164942674991101 0 0.078918337285561302 -0.047176520803978592 0 0.083460107685039336 -0.045870612137994843 0 0.079538760326409538 -0.041164942674991101 0 0.083460107685039336 -0.045870612137994843 0 0.087451073731544218 -0.041107453766005018 0 0.083460107685039336 -0.045870612137994843 0 0.085484455729574554 -0.051299290376995349 0 0.081311076224831663 -0.05132228319057773 0 0.078918337285561302 -0.047176520803978592 0 0.083460107685039336 -0.045870612137994843 0 0.081311076224831663 -0.05132228319057773 0 0.083460107685039336 -0.045870612137994843 0 0.087508439143463471 -0.047064087366161148 0 0.085484455729574554 -0.051299290376995349 0 0.087508439143463471 -0.047064087366161148 0 0.089661704597812822 -0.05129039065293485 0 0.085484455729574554 -0.051299290376995349 0 0.083460107685039336 -0.045870612137994843 0 0.087508439143463471 -0.047064087366161148 0 0.087451073731544218 -0.041107453766005018 0 0.081238166125866373 -0.031815216985334127 0 0.087451073731544218 -0.041107453766005018 0 0.091964286498444597 -0.033665017621998167 0 0.081238166125866373 -0.031815216985334127 0 0.079538760326409538 -0.041164942674991101 0 0.087451073731544218 -0.041107453766005018 0 0.091964286498444597 -0.033665017621998167 0 0.095141729498920885 -0.041002849645455378 0 0.099934220037964497 -0.036039192873643204 0 0.087451073731544218 -0.041107453766005018 0 0.091964286498444597 -0.033665017621998167 0 0.095141729498920885 -0.041002849645455378 0 0.087508439143463471 -0.047064087366161148 0 0.087451073731544218 -0.041107453766005018 0 0.091501221915406133 -0.045715159445902445 0 0.087451073731544218 -0.041107453766005018 0 0.095141729498920885 -0.041002849645455378 0 0.091501221915406133 -0.045715159445902445 0 0.087508439143463471 -0.047064087366161148 0 0.091501221915406133 -0.045715159445902445 0 0.089661704597812822 -0.05129039065293485 0 0.091501221915406133 -0.045715159445902445 0 0.093855771258937279 -0.051286602945648734 0 0.089661704597812822 -0.05129039065293485 0 0.091501221915406133 -0.045715159445902445 0 0.096220334384732459 -0.046924820182189159 0 0.093855771258937279 -0.051286602945648734 0 0.096220334384732459 -0.046924820182189159 0 0.098057082182111566 -0.051288965462333538 0 0.093855771258937279 -0.051286602945648734 0 0.095141729498920885 -0.041002849645455378 0 0.091501221915406133 -0.045715159445902445 0 0.096220334384732459 -0.046924820182189159 0 0.096220334384732459 -0.046924820182189159 0 0.10141823533675749 -0.043793995609186898 0 0.10020778435691266 -0.047848904021648195 0 0.095141729498920885 -0.041002849645455378 0 0.096220334384732459 -0.046924820182189159 0 0.10141823533675749 -0.043793995609186898 0 0.10141823533675749 -0.043793995609186898 0 0.10020778435691266 -0.047848904021648195 0 0.10337379539638877 -0.048167308957616353 0 0.096220334384732459 -0.046924820182189159 0 0.10020778435691266 -0.047848904021648195 0 0.098057082182111566 -0.051288965462333538 0 0.10020778435691266 -0.047848904021648195 0 0.10337379539638877 -0.048167308957616353 0 0.10226949801796806 -0.051292964247950823 0 0.10020778435691266 -0.047848904021648195 0 0.10226949801796806 -0.051292964247950823 0 0.098057082182111566 -0.051288965462333538 0 0.10337379539638877 -0.048167308957616353 0 0.1064881141679562 -0.046601734029465852 0 0.10648641581141988 -0.05129451573215197 0 0.10337379539638877 -0.048167308957616353 0 0.10226949801796806 -0.051292964247950823 0 0.10648641581141988 -0.05129451573215197 0 0.10141823533675749 -0.043793995609186898 0 0.10337379539638877 -0.048167308957616353 0 0.1064881141679562 -0.046601734029465852 0 0.10141823533675749 -0.043793995609186898 0 0.1064881141679562 -0.046601734029465852 0 0.10649196360318747 -0.040144689201513935 0 0.10141823533675749 -0.043793995609186898 0 0.10649196360318747 -0.040144689201513935 0 0.099934220037964497 -0.036039192873643204 0 0.095141729498920885 -0.041002849645455378 0 0.10141823533675749 -0.043793995609186898 0 0.099934220037964497 -0.036039192873643204 0 0.10647957173524299 -0.031253967157666818 0 0.10649196360318747 -0.040144689201513935 0 0.099934220037964497 -0.036039192873643204 0 0.046911565763950627 -0.022674552916774286 0 0.054535971634679339 -0.034784485648400448 0 0.045211823230023838 -0.039523552428487943 0 0.031970130063189835 -0.021383703156943799 0 0.046911565763950627 -0.022674552916774286 0 0.045211823230023838 -0.039523552428487943 0 0.031970130063189835 -0.021383703156943799 0 0.035045393741426852 -0.0089600343711529491 0 0.046911565763950627 -0.022674552916774286 0 0.051165204720880507 -0.0048171202748559967 0 0.046911565763950627 -0.022674552916774286 0 0.059284297527001616 -0.023386903490784552 0 0.067061324144770992 -0.011436223182912823 0 0.069946964710447312 -0.026414519004254285 0 0.059284297527001616 -0.023386903490784552 0 0.072341736037825621 -0.036615731869173725 0 0.069946964710447312 -0.026414519004254285 0 0.063111727561110123 -0.034719744574370597 0 0.069946964710447312 -0.026414519004254285 0 0.059284297527001616 -0.023386903490784552 0 0.063111727561110123 -0.034719744574370597 0 0.046911565763950627 -0.022674552916774286 0 0.059284297527001616 -0.023386903490784552 0 0.054535971634679339 -0.034784485648400448 0 0.059284297527001616 -0.023386903490784552 0 0.054535971634679339 -0.034784485648400448 0 0.063111727561110123 -0.034719744574370597 0 0.054535971634679339 -0.034784485648400448 0 0.063111727561110123 -0.034719744574370597 0 0.059238118867836052 -0.043164799242544329 0 0.054535971634679339 -0.034784485648400448 0 0.059238118867836052 -0.043164799242544329 0 0.052617207862615908 -0.044690150678804171 0 0.072341736037825621 -0.036615731869173725 0 0.063111727561110123 -0.034719744574370597 0 0.067134365812611604 -0.042172122371605364 0 0.063111727561110123 -0.034719744574370597 0 0.067134365812611604 -0.042172122371605364 0 0.059238118867836052 -0.043164799242544329 0 0.067134365812611604 -0.042172122371605364 0 0.067034449411994768 -0.048260725259204433 0 0.070916607707098442 -0.04755035735361246 0 0.074136071327809139 -0.043801145249326309 0 0.067134365812611604 -0.042172122371605364 0 0.070916607707098442 -0.04755035735361246 0 0.067134365812611604 -0.042172122371605364 0 0.063761984712359776 -0.046554276216304952 0 0.059238118867836052 -0.043164799242544329 0 0.067134365812611604 -0.042172122371605364 0 0.063761984712359776 -0.046554276216304952 0 0.067034449411994768 -0.048260725259204433 0 0.063761984712359776 -0.046554276216304952 0 0.067034449411994768 -0.048260725259204433 0 0.06502272449875357 -0.051627345889980095 0 0.063761984712359776 -0.046554276216304952 0 0.061065100771749772 -0.051861592115596412 0 0.06502272449875357 -0.051627345889980095 0 0.067034449411994768 -0.048260725259204433 0 0.069010075349269506 -0.051482670269441373 0 0.06502272449875357 -0.051627345889980095 0 0.070916607707098442 -0.04755035735361246 0 0.069010075349269506 -0.051482670269441373 0 0.07307043136081906 -0.051393519829580882 0 0.067034449411994768 -0.048260725259204433 0 0.070916607707098442 -0.04755035735361246 0 0.069010075349269506 -0.051482670269441373 0 0.059238118867836052 -0.043164799242544329 0 0.059379298940892826 -0.048542439212751157 0 0.055660617020721337 -0.048583492575907383 0 0.059238118867836052 -0.043164799242544329 0 0.055660617020721337 -0.048583492575907383 0 0.052617207862615908 -0.044690150678804171 0 0.063761984712359776 -0.046554276216304952 0 0.059238118867836052 -0.043164799242544329 0 0.059379298940892826 -0.048542439212751157 0 0.063761984712359776 -0.046554276216304952 0 0.059379298940892826 -0.048542439212751157 0 0.061065100771749772 -0.051861592115596412 0 0.059379298940892826 -0.048542439212751157 0 0.057249397743304557 -0.052239625022902442 0 0.061065100771749772 -0.051861592115596412 0 0.059379298940892826 -0.048542439212751157 0 0.055660617020721337 -0.048583492575907383 0 0.057249397743304557 -0.052239625022902442 0 0.055660617020721337 -0.048583492575907383 0 0.053368274959452559 -0.052927472927834125 0 0.057249397743304557 -0.052239625022902442 0 0.051938543176723501 -0.049976286269805714 0 0.049497915447702413 -0.054092875614974827 0 0.053368274959452559 -0.052927472927834125 0 0.055660617020721337 -0.048583492575907383 0 0.051938543176723501 -0.049976286269805714 0 0.053368274959452559 -0.052927472927834125 0 0.048358969255360221 -0.049339647900855349 0 0.045642157987413362 -0.055854976649353232 0 0.049497915447702413 -0.054092875614974827 0 0.051938543176723501 -0.049976286269805714 0 0.048358969255360221 -0.049339647900855349 0 0.049497915447702413 -0.054092875614974827 0 0.048358969255360221 -0.049339647900855349 0 0.052617207862615908 -0.044690150678804171 0 0.045211823230023838 -0.039523552428487943 0 0.051938543176723501 -0.049976286269805714 0 0.048358969255360221 -0.049339647900855349 0 0.052617207862615908 -0.044690150678804171 0 0.055660617020721337 -0.048583492575907383 0 0.051938543176723501 -0.049976286269805714 0 0.052617207862615908 -0.044690150678804171 0 0.054535971634679339 -0.034784485648400448 0 0.052617207862615908 -0.044690150678804171 0 0.045211823230023838 -0.039523552428487943 0 0.031741606756266395 -0.036640921725920074 0 0.031970130063189835 -0.021383703156943799 0 0.045211823230023838 -0.039523552428487943 0 0.031741606756266395 -0.036640921725920074 0 0.045211823230023838 -0.039523552428487943 0 0.03940039199565995 -0.048985505345966844 0 0.045211823230023838 -0.039523552428487943 0 0.03940039199565995 -0.048985505345966844 0 0.044476691936634831 -0.050219833290184819 0 0.048358969255360221 -0.049339647900855349 0 0.045211823230023838 -0.039523552428487943 0 0.044476691936634831 -0.050219833290184819 0 0.048358969255360221 -0.049339647900855349 0 0.044476691936634831 -0.050219833290184819 0 0.045642157987413362 -0.055854976649353232 0 0.044476691936634831 -0.050219833290184819 0 0.041500450023605133 -0.059102084326017434 0 0.045642157987413362 -0.055854976649353232 0 0.03940039199565995 -0.048985505345966844 0 0.044476691936634831 -0.050219833290184819 0 0.041500450023605133 -0.059102084326017434 0 0.03940039199565995 -0.048985505345966844 0 0.03681448184295795 -0.06404659483734515 0 0.041500450023605133 -0.059102084326017434 0 0.043502886987773208 -0.077774215049322915 0 0.043207090327326898 -0.080339472952854277 0 0.049185619317542055 -0.090688431231808794 0 0.03681448184295795 -0.06404659483734515 0 0.043502886987773208 -0.077774215049322915 0 0.043207090327326898 -0.080339472952854277 0 0.036617881184224294 -0.065378575344152604 0 0.041920611795751225 -0.068240045433194105 0 0.043502886987773208 -0.077774215049322915 0 0.048391670969516416 -0.088736705082912079 0 0.049185619317542055 -0.090688431231808794 0 0.041920611795751225 -0.068240045433194105 0 0.046679996876360486 -0.072255078413614074 0 0.048391670969516416 -0.088736705082912079 0 0.049185619317542055 -0.090688431231808794 0 0.053239977924973647 -0.098435120242934396 0 0.049185619317542055 -0.090688431231808794 0 0.046790440199133941 -0.092366166500556235 0 0.056883770850406037 -0.10699155410719006 0 0.043207090327326898 -0.080339472952854277 0 0.046790440199133941 -0.092366166500556235 0 0.034588665607804735 -0.075202697125869453 0 0.043207090327326898 -0.080339472952854277 0 0.049185619317542055 -0.090688431231808794 0 0.046790440199133941 -0.092366166500