<?xml version="1.0"?>
<VTKFile type="UnstructuredGrid" version="0.1" byte_order="LittleEndian">
<UnstructuredGrid>
<Piece NumberOfPoints="880" NumberOfCells="299">
<Points>
<DataArray type="Float64" NumberOfComponents="3" format="ascii">
-0 0 0 0.18653882694645291 0.22249173546702489 0 0 0.25000000000104189 0 -0 0 0 0.18653882694645291 0.22249173546702489 0 0.24999999999941089 0 0 0.24999999999941089 0 0 0.35015135319464608 0.1900339269648805 0 0.49999999999869182 0 0 0.18653882694645291 0.22249173546702489 0 0.24999999999941089 0 0 0.35015135319464608 0.1900339269648805 0 0.35015135319464608 0.1900339269648805 0 0.49924741621175961 0.21507969613896921 0 0.49999999999869182 0 0 0.35015135319464608 0.1900339269648805 0 0.49924741621175961 0.21507969613896921 0 0.40587285776242238 0.32419148732968017 0 0.37764981543668408 0.41341486499350411 0 0.41576443813007791 0.48093483781626972 0 0.45418244162583959 0.41624787166862259 0 0.37764981543668408 0.41341486499350411 0 0.45418244162583959 0.41624787166862259 0 0.40587285776242238 0.32419148732968017 0 0.41576443813007791 0.48093483781626972 0 0.46566719828045178 0.47702825415921918 0 0.45418244162583959 0.41624787166862259 0 0.41576443813007791 0.48093483781626972 0 0.46566719828045178 0.47702825415921918 0 0.4638583922372429 0.51470588235294135 0 0.46566719828045178 0.47702825415921918 0 0.49954900152271581 0.45107191084564019 0 0.5 0.5 0 0.46566719828045178 0.47702825415921918 0 0.4638583922372429 0.51470588235294135 0 0.5 0.5 0 0.46566719828045178 0.47702825415921918 0 0.49954900152271581 0.45107191084564019 0 0.45418244162583959 0.41624787166862259 0 0.45418244162583959 0.41624787166862259 0 0.49435464945626773 0.33318442629318029 0 0.54876010062294855 0.39662628167175101 0 0.45418244162583959 0.41624787166862259 0 0.49435464945626773 0.33318442629318029 0 0.40587285776242238 0.32419148732968017 0 0.49924741621175961 0.21507969613896921 0 0.49435464945626773 0.33318442629318029 0 0.40587285776242238 0.32419148732968017 0 0.35015135319464608 0.1900339269648805 0 0.40587285776242238 0.32419148732968017 0 0.29145599617909779 0.35026601625021492 0 0.37764981543668408 0.41341486499350411 0 0.40587285776242238 0.32419148732968017 0 0.29145599617909779 0.35026601625021492 0 0.18653882694645291 0.22249173546702489 0 0.35015135319464608 0.1900339269648805 0 0.29145599617909779 0.35026601625021492 0 0.29145599617909779 0.35026601625021492 0 0.32540781287085369 0.49175159894608172 0 0.17872124008781709 0.39692711089439497 0 0.37764981543668408 0.41341486499350411 0 0.29145599617909779 0.35026601625021492 0 0.32540781287085369 0.49175159894608172 0 0.37764981543668408 0.41341486499350411 0 0.41576443813007791 0.48093483781626972 0 0.32540781287085369 0.49175159894608172 0 0.17872124008781709 0.39692711089439497 0 0 0.25000000000104189 0 0 0.50000000000206157 0 0.17872124008781709 0.39692711089439497 0 0 0.50000000000206157 0 0.22453074737734591 0.51613635929252633 0 0.32540781287085369 0.49175159894608172 0 0.17872124008781709 0.39692711089439497 0 0.22453074737734591 0.51613635929252633 0 0.18653882694645291 0.22249173546702489 0 0.29145599617909779 0.35026601625021492 0 0.17872124008781709 0.39692711089439497 0 0.18653882694645291 0.22249173546702489 0 0.17872124008781709 0.39692711089439497 0 0 0.25000000000104189 0 0 0.50000000000206157 0 0.18442368612951149 0.62734948407416979 0 0 0.75000000000034772 0 0.18442368612951149 0.62734948407416979 0 0.22727208279115291 0.72949159435386135 0 0 0.75000000000034772 0 0.18442368612951149 0.62734948407416979 0 0.22727208279115291 0.72949159435386135 0 0.31346558946927339 0.67110784456164874 0 0.18442368612951149 0.62734948407416979 0 0.22453074737734591 0.51613635929252633 0 0.31771010312359771 0.58585679504088894 0 0 0.50000000000206157 0 0.18442368612951149 0.62734948407416979 0 0.22453074737734591 0.51613635929252633 0 0 1 0 0.096516139048187316 0.89789944498939644 0 0 0.75000000000034772 0 0 1 0 0.096516139048187316 0.89789944498939644 0 0.1596341872805197 1 0 0.096516139048187316 0.89789944498939644 0 0 0.75000000000034772 0 0.1644705180525495 0.8200994301041713 0 0.1644705180525495 0.8200994301041713 0 0.2386314078659193 0.92924778694987087 0 0.27155609766735261 0.80398965554903801 0 0.22727208279115291 0.72949159435386135 0 0 0.75000000000034772 0 0.1644705180525495 0.8200994301041713 0 0.22727208279115291 0.72949159435386135 0 0.1644705180525495 0.8200994301041713 0 0.27155609766735261 0.80398965554903801 0 0.096516139048187316 0.89789944498939644 0 0.1644705180525495 0.8200994301041713 0 0.2386314078659193 0.92924778694987087 0 0.096516139048187316 0.89789944498939644 0 0.2386314078659193 0.92924778694987087 0 0.1596341872805197 1 0 0.2386314078659193 0.92924778694987087 0 0.1596341872805197 1 0 0.27591592301363282 1 0 0.36061858902161292 1 0 0.32789203369730929 0.94219211037003092 0 0.27591592301363282 1 0 0.36061858902161292 1 0 0.32789203369730929 0.94219211037003092 0 0.39382242252278338 0.95440420122950598 0 0.2386314078659193 0.92924778694987087 0 0.32789203369730929 0.94219211037003092 0 0.27591592301363282 1 0 0.2386314078659193 0.92924778694987087 0 0.32789203369730929 0.94219211037003092 0 0.31834856208730472 0.88134829947972904 0 0.32789203369730929 0.94219211037003092 0 0.37746652222901839 0.8987532801416368 0 0.39382242252278338 0.95440420122950598 0 0.32789203369730929 0.94219211037003092 0 0.31834856208730472 0.88134829947972904 0 0.37746652222901839 0.8987532801416368 0 0.2386314078659193 0.92924778694987087 0 0.31834856208730472 0.88134829947972904 0 0.27155609766735261 0.80398965554903801 0 0.31834856208730472 0.88134829947972904 0 0.36493375430404612 0.82333914183704071 0 0.37746652222901839 0.8987532801416368 0 0.31834856208730472 0.88134829947972904 0 0.36493375430404612 0.82333914183704071 0 0.27155609766735261 0.80398965554903801 0 0.22727208279115291 0.72949159435386135 0 0.27155609766735261 0.80398965554903801 0 0.32984265945580837 0.74432890077789404 0 0.36493375430404612 0.82333914183704071 0 0.27155609766735261 0.80398965554903801 0 0.32984265945580837 0.74432890077789404 0 0.36493375430404612 0.82333914183704071 0 0.39746869305290999 0.7595658224757349 0 0.32984265945580837 0.74432890077789404 0 0.36493375430404612 0.82333914183704071 0 0.39746869305290999 0.7595658224757349 0 0.42893012659725649 0.81084715169569632 0 0.39746869305290999 0.7595658224757349 0 0.42893012659725649 0.81084715169569632 0 0.44651949253391748 0.77225997208621999 0 0.39746869305290999 0.7595658224757349 0 0.44651949253391748 0.77225997208621999 0 0.43412357948152142 0.72128778687215156 0 0.44651949253391748 0.77225997208621999 0 0.47786860714145291 0.77730227330627721 0 0.47220206448452873 0.74892462649306213 0 0.47786860714145291 0.77730227330627721 0 0.47220206448452873 0.74892462649306213 0 0.5 0.76470588235294124 0 0.47786860714145291 0.77730227330627721 0 0.5 0.79411764705882359 0 0.5 0.76470588235294124 0 0.47062147868881782 0.80650323854033878 0 0.5 0.82352941176470584 0 0.5 0.79411764705882359 0 0.47786860714145291 0.77730227330627721 0 0.47062147868881782 0.80650323854033878 0 0.5 0.79411764705882359 0 0.44651949253391748 0.77225997208621999 0 0.47786860714145291 0.77730227330627721 0 0.47062147868881782 0.80650323854033878 0 0.42893012659725649 0.81084715169569632 0 0.44651949253391748 0.77225997208621999 0 0.47062147868881782 0.80650323854033878 0 0.42893012659725649 0.81084715169569632 0 0.47062147868881782 0.80650323854033878 0 0.46181179062043481 0.83858979842637782 0 0.42893012659725649 0.81084715169569632 0 0.46181179062043481 0.83858979842637782 0 0.42880856207355889 0.86677159981903118 0 0.46181179062043481 0.83858979842637782 0 0.5 0.85294117647058831 0 0.5 0.82352941176470584 0 0.47062147868881782 0.80650323854033878 0 0.46181179062043481 0.83858979842637782 0 0.5 0.82352941176470584 0 0.46181179062043481 0.83858979842637782 0 0.47032448519202857 0.86718057681700655 0 0.5 0.85294117647058831 0 0.47032448519202857 0.86718057681700655 0 0.5 0.88235294117647056 0 0.5 0.85294117647058831 0 0.46181179062043481 0.83858979842637782 0 0.47032448519202857 0.86718057681700655 0 0.42880856207355889 0.86677159981903118 0 0.36493375430404612 0.82333914183704071 0 0.42880856207355889 0.86677159981903118 0 0.37746652222901839 0.8987532801416368 0 0.36493375430404612 0.82333914183704071 0 0.42893012659725649 0.81084715169569632 0 0.42880856207355889 0.86677159981903118 0 0.37746652222901839 0.8987532801416368 0 0.42822627495986648 0.92083108049218854 0 0.39382242252278338 0.95440420122950598 0 0.42880856207355889 0.86677159981903118 0 0.37746652222901839 0.8987532801416368 0 0.42822627495986648 0.92083108049218854 0 0.47032448519202857 0.86718057681700655 0 0.42880856207355889 0.86677159981903118 0 0.46100207326614928 0.89524736819256467 0 0.42880856207355889 0.86677159981903118 0 0.42822627495986648 0.92083108049218854 0 0.46100207326614928 0.89524736819256467 0 0.47032448519202857 0.86718057681700655 0 0.46100207326614928 0.89524736819256467 0 0.5 0.88235294117647056 0 0.46100207326614928 0.89524736819256467 0 0.5 0.91176470588235292 0 0.5 0.88235294117647056 0 0.46100207326614928 0.89524736819256467 0 0.46949408183482899 0.92833826413560594 0 0.5 0.91176470588235292 0 0.46949408183482899 0.92833826413560594 0 0.5 0.94117647058823528 0 0.5 0.91176470588235292 0 0.42822627495986648 0.92083108049218854 0 0.46100207326614928 0.89524736819256467 0 0.46949408183482899 0.92833826413560594 0 0.46949408183482899 0.92833826413560594 0 0.44768478605684647 0.9646709673379662 0 0.47596308696979028 0.95620709615192379 0 0.42822627495986648 0.92083108049218854 0 0.46949408183482899 0.92833826413560594 0 0.44768478605684647 0.9646709673379662 0 0.44768478605684647 0.9646709673379662 0 0.47596308696979028 0.95620709615192379 0 0.47818194888216242 0.97829325975680159 0 0.46949408183482899 0.92833826413560594 0 0.47596308696979028 0.95620709615192379 0 0.5 0.94117647058823528 0 0.47596308696979028 0.95620709615192379 0 0.4781
[...]
<PointData Scalars="" Vectors="displacement," Tensors="">
<DataArray type="Float64" Name="displacement" NumberOfComponents="3" format="ascii">
-1.2044151452869226e-05 4.2984071642121069e-05 0 0.032737985663218089 0.026307862605802125 0 5.4737131809389725e-05 1.8862150821987461e-05 0 -1.2044151452869226e-05 4.2984071642121069e-05 0 0.032737985663218096 0.026307862605802129 0 -0.013496928606210849 0.025676770469450296 0 -0.013496928606210849 0.025676770469450296 0 0.046866220447735876 0.014704564217729765 0 -0.085322328948140486 -0.075374501348140388 0 0.032737985663218089 0.026307862605802125 0 -0.013496928606210849 0.025676770469450296 0 0.046866220447735883 0.014704564217729772 0 0.046866220447735883 0.014704564217729772 0 0.070764582931702347 -0.066748235192166133 0 -0.085322328948140486 -0.075374501348140388 0 0.046866220447735883 0.014704564217729772 0 0.070764582931702347 -0.066748235192166133 0 0.13192845008959156 0.0011732046469623721 0 0.16178048295627087 0.0028920184987839379 0 0.20014810047679046 -0.0075629218783627699 0 0.21131770369382208 -0.0015633034884562111 0 0.16178048295627087 0.0028920184987839379 0 0.21131770369382208 -0.0015633034884562111 0 0.13192845008959156 0.0011732046469623721 0 0.20014810047679046 -0.0075629218783627699 0 0.25047426722413013 -0.00058520241207381382 0 0.21131770369382208 -0.0015633034884562111 0 0.20014810047679046 -0.0075629218783627699 0 0.25047426722413013 -0.00058520241207381035 0 0.21928533059583258 -0.011498647350891502 0 0.25047426722413008 -0.00058520241207381469 0 0.26210371937082361 -0.016349454769890366 0 0.30345487288723416 0.020295600302519361 0 0.25047426722413008 -0.00058520241207381469 0 0.21928533059583258 -0.011498647350891504 0 0.30345487288723416 0.020295600302519361 0 0.25047426722413008 -0.00058520241207381469 0 0.26210371937082361 -0.016349454769890366 0 0.21131770369382208 -0.0015633034884562111 0 0.21131770369382208 -0.0015633034884562111 0 0.16181501494172384 -0.047441984261242652 0 0.23349344758613297 -0.085722506840125529 0 0.21131770369382208 -0.0015633034884562111 0 0.16181501494172384 -0.047441984261242652 0 0.13192845008959156 0.0011732046469623721 0 0.070764582931702347 -0.066748235192166133 0 0.16181501494172384 -0.047441984261242638 0 0.13192845008959156 0.0011732046469623721 0 0.046866220447735883 0.014704564217729772 0 0.13192845008959156 0.0011732046469623721 0 0.10093051052361553 0.014377166734129206 0 0.16178048295627087 0.0028920184987839379 0 0.13192845008959156 0.0011732046469623717 0 0.10093051052361553 0.014377166734129206 0 0.032737985663218089 0.026307862605802125 0 0.046866220447735883 0.014704564217729772 0 0.10093051052361553 0.014377166734129206 0 0.10093051052361553 0.014377166734129206 0 0.13424713784819003 -0.012711130856706871 0 0.057977596221740375 0.0081634140754372718 0 0.16178048295627087 0.0028920184987839379 0 0.10093051052361553 0.014377166734129206 0 0.13424713784819003 -0.012711130856706871 0 0.16178048295627087 0.0028920184987839379 0 0.20014810047679046 -0.0075629218783627708 0 0.13424713784819003 -0.012711130856706871 0 0.057977596221740375 0.0081634140754372718 0 5.4737131809389725e-05 1.8862150821987461e-05 0 8.0640870126134597e-05 -9.0122417183566032e-06 0 0.057977596221740375 0.0081634140754372718 0 8.0640870126134597e-05 -9.0122417183566032e-06 0 0.079135016625585114 -0.01310370976245819 0 0.13424713784819003 -0.012711130856706871 0 0.057977596221740375 0.0081634140754372718 0 0.079135016625585114 -0.01310370976245819 0 0.032737985663218089 0.026307862605802125 0 0.10093051052361553 0.014377166734129206 0 0.057977596221740375 0.0081634140754372718 0 0.032737985663218089 0.026307862605802125 0 0.057977596221740375 0.0081634140754372718 0 5.4737131809389725e-05 1.8862150821987461e-05 0 8.0640870126134597e-05 -9.0122417183566032e-06 0 0.043158500307738303 -0.023166296382210336 0 2.6226379962520197e-05 -2.5962144641436625e-05 0 0.043158500307738303 -0.023166296382210336 0 0.033096254869655124 -0.026458744029817037 0 2.6226379962520197e-05 -2.5962144641436625e-05 0 0.043158500307738303 -0.023166296382210336 0 0.033096254869655124 -0.026458744029817037 0 0.058891008733736691 -0.026038429262903333 0 0.043158500307738303 -0.023166296382210336 0 0.079135016625585114 -0.01310370976245819 0 0.093771113447076324 -0.024156282185325197 0 8.0640870126134597e-05 -9.0122417183566032e-06 0 0.043158500307738323 -0.023166296382210332 0 0.079135016625585114 -0.01310370976245819 0 2.2168720990111206e-05 -1.0759600566510232e-05 0 0.0064600094425299077 -0.013539968457504768 0 2.6226379962520197e-05 -2.5962144641436625e-05 0 2.2168720990111206e-05 -1.0759600566510232e-05 0 0.0064600094425299069 -0.013539968457504766 0 0.0090747837831349227 -0.019383923889603326 0 0.0064600094425299077 -0.013539968457504768 0 2.6226379962520197e-05 -2.5962144641436625e-05 0 0.01528156066017762 -0.020652284477929158 0 0.01528156066017762 -0.020652284477929158 0 0.0097596691065746574 -0.022829746054848742 0 0.023197699857976165 -0.02383040479823147 0 0.033096254869655124 -0.026458744029817037 0 2.6226379962521491e-05 -2.5962144641433572e-05 0 0.01528156066017762 -0.020652284477929158 0 0.033096254869655124 -0.026458744029817037 0 0.01528156066017762 -0.020652284477929158 0 0.023197699857976165 -0.02383040479823147 0 0.0064600094425299077 -0.013539968457504768 0 0.01528156066017762 -0.020652284477929158 0 0.0097596691065746574 -0.022829746054848742 0 0.0064600094425299077 -0.013539968457504768 0 0.0097596691065746574 -0.022829746054848742 0 0.0090747837831349227 -0.019383923889603326 0 0.0097596691065746574 -0.022829746054848742 0 0.0090747837831349227 -0.019383923889603326 0 0.0057672757080755336 -0.020837782198918034 0 0.0021210732987283656 -0.012577106862691307 0 0.0087162913655686527 -0.01697398488244603 0 0.0057672757080755336 -0.020837782198918034 0 0.0021210732987283656 -0.012577106862691307 0 0.0087162913655686527 -0.01697398488244603 0 0.0065050486338155272 -0.0084569105819763263 0 0.0097596691065746574 -0.022829746054848742 0 0.0087162913655686527 -0.01697398488244603 0 0.0057672757080755336 -0.020837782198918034 0 0.0097596691065746574 -0.022829746054848742 0 0.0087162913655686527 -0.01697398488244603 0 0.014889894134126683 -0.018365566232801646 0 0.0087162913655686527 -0.01697398488244603 0 0.012766575502607177 -0.011154668106086283 0 0.0065050486338155272 -0.0084569105819763263 0 0.0087162913655686527 -0.01697398488244603 0 0.014889894134126684 -0.018365566232801649 0 0.012766575502607177 -0.011154668106086283 0 0.0097596691065746574 -0.022829746054848742 0 0.014889894134126683 -0.018365566232801646 0 0.023197699857976165 -0.02383040479823147 0 0.014889894134126683 -0.018365566232801646 0 0.022523341623158489 -0.014409293391564285 0 0.012766575502607177 -0.011154668106086283 0 0.014889894134126683 -0.018365566232801646 0 0.022523341623158489 -0.014409293391564285 0 0.023197699857976165 -0.02383040479823147 0 0.033096254869655124 -0.026458744029817037 0 0.023197699857976165 -0.02383040479823147 0 0.03797314212515724 -0.021630570136260581 0 0.022523341623158489 -0.014409293391564285 0 0.023197699857976165 -0.02383040479823147 0 0.03797314212515724 -0.021630570136260581 0 0.022523341623158489 -0.014409293391564285 0 0.03582235293331297 -0.010393794860211535 0 0.03797314212515724 -0.021630570136260581 0 0.022523341623158489 -0.014409293391564285 0 0.03582235293331297 -0.010393794860211535 0 0.025113261953735363 -0.0027918435972425818 0 0.03582235293331297 -0.010393794860211535 0 0.025113261953735363 -0.0027918435972425796 0 0.03327766155422162 0.0014787198495701589 0 0.03582235293331297 -0.010393794860211535 0 0.03327766155422162 0.0014787198495701589 0 0.047375902615266224 -0.0018734496945775629 0 0.03327766155422162 0.0014787198495701589 0 0.03270523717516307 0.0092987377718347971 0 0.039759585088011029 0.0092662050048110556 0 0.03270523717516307 0.0092987377718347971 0 0.039759585088011029 0.0092662050048110556 0 0.036272867826144188 0.015887552963080052 0 0.03270523717516307 0.0092987377718347971 0 0.029502708301948472 0.013258540863932897 0 0.036272867826144188 0.015887552963080052 0 0.026389059032209762 0.0062835039115776859 0 0.023917026889039131 0.011137006095386162 0 0.029502708301948472 0.013258540863932897 0 0.03270523717516307 0.0092987377718347971 0 0.026389059032209762 0.0062835039115776859 0 0.029502708301948472 0.013258540863932897 0 0.03327766155422162 0.0014787198495701589 0 0.032705237175163077 0.0092987377718347988 0 0.026389059032209762 0.0062835039115776859 0 0.025113261953735363 -0.0027918435972425818 0 0.03327766155422162 0.0014787198495701589 0 0.026389059032209762 0.0062835039115776859 0 0.025113261953735363 -0.0027918435972425818 0 0.026389059032209759 0.0062835039115776859 0 0.020879904581904366 0.0034715450486498037 0 0.025113261953735363 -0.0027918435972425818 0 0.020879904581904363 0.0034715450486498055 0 0.01663852320254092 -0.002967355365704387 0 0.020879904581904366 0.0034715450486498037 0 0.019234560004099416 0.009600731206824361 0 0.023917026889039131 0.011137006095386162 0 0.026389059032209762 0.0062835039115776859 0 0.020879904581904366 0.0034715450486498037 0 0.023917026889039131 0.011137006095386162 0 0.020879904581904366 0.0034715450486498037 0 0.016894371277176096 0.0042273103002858792 0 0.019234560004099416 0.009600731206824361 0 0.016894371277176096 0.0042273103002858792 0 0.01516241519190179 0.0083578212267631027 0 0.019234560004099416 0.009600731206824361 0 0.020879904581904366 0.0034715450486498037 0 0.016894371277176096 0.0042273103002858792 0 0.01663852320254092 -0.002967355365704387 0 0.022523341623158489 -0.014409293391564285 0 0.01663852320254092 -0.002967355365704387 0 0.012766575502607177 -0.011154668106086283 0 0.022523341623158489 -0.014409293391564285 0 0.025113261953735363 -0.0027918435972425831 0 0.01663852320254092 -0.002967355365704387 0 0.012766575502607177 -0.011154668106086283 0 0.010083733212466448 -0.0032576211556450407 0 0.0065050486338155272 -0.0084569105819763263 0 0.01663852320254092 -0.002967355365704387 0 0.012766575502607177 -0.011154668106086283 0 0.010083733212466448 -0.0032576211556450407 0 0.016894371277176096 0.0042273103002858792 0 0.01663852320254092 -0.002967355365704387 0 0.013165708526635258 0.0021510726521321534 0 0.01663852320254092 -0.002967355365704387 0 0.010083733212466446 -0.003257621155645042 0 0.013165708526635258 0.0021510726521321534 0 0.016894371277176096 0.0042273103002858792 0 0.013165708526635258 0.0021510726521321534 0 0.01516241519190179 0.0083578212267631027 0 0.013165708526635258 0.0021510726521321534 0 0.011307142444431413 0.0075901682321992698 0 0.01516241519190179 0.0083578212267631027 0 0.013165708526635258 0.0021510726521321534 0 0.0091610649155088528 0.0030400419337279897 0 0.011307142444431413 0.0075901682321992698 0 0.0091610649155088528 0.0030400419337279897 0 0.0076754477095601426 0.0071278347094992419 0 0.011307142444431413 0.0075901682321992698 0 0.010083733212466448 -0.0032576211556450407 0 0.013165708526635258 0.0021510726521321534 0 0.0091610649155088528 0.0030400419337279897 0 0.0091610649155088528 0.0030400419337279897 0 0.0047799173179629258 -0.0004014373071192314 0 0.0057809901573917738 0.0037454792920687896 0 0.010083733212466448 -0.0032576211556450407 0 0.0091610649155088528 0.0030400419337279897 0 0.0047799173179629258 -0.00040143730711923042 0 0.0047799173179629258 -0.00040143730711923042 0 0.0057809901573917738 0.0037454792920687896 0 0.0029021810234421659 0.0039974068080405331 0 0.0091610649155088528 0.0030400419337279897 0 0.0057809901573917738 0.0037454792920687901 0 0.0076754477095601426 0.0071278347094992419 0 0.0057809901573917738 0.0037454792920687896 0 0.0029021810234421659 0.0039974068080405331 0 0.0039240033667665231 0.0069775119999592843 0 0.0057809901573917738 0.0037454792920687896 0 0.0039240033667665231 0.0069775119999592843 0 0.0076754477095601426 0.0071278347094992419 0 0.0029021810234421659 0.0039974068080405331 0 2.0419955147481177e-05 0.0024516251396727558 0 -4.1940745323233579e-06 0.0069589638577379114 0 0.0029021810234421659 0.0039974068080405331 0 0.0039240033667665231 0.0069775119999592834 0 -4.1940745323233579e-06 0.0069589638577379114 0 0.0047799173179629258 -0.00040143730711923042 0 0.0029021810234421659 0.0039974068080405331 0 2.0419955147481268e-05 0.0024516251396727554 0 0.0047799173179629258 -0.00040143730711923042 0 2.0419955147481268e-05 0.0024516251396727554 0 0.00043017410361662035 -0.0041057404056139323 0 0.0047799173179629258 -0.00040143730711923042 0 0.00043017410361662051 -0.0041057404056139331 0 0.0065050486338155272 -0.0084569105819763263 0 0.010083733212466448 -0.0032576211556450407 0 0.0047799173179629258 -0.00040143730711923042 0 0.0065050486338155272 -0.0084569105819763263 0 0.0021210732987283656 -0.012577106862691307 0 0.00043017410361662035 -0.0041057404056139323 0 0.0065050486338155272 -0.0084569105819763263 0 0.093771113447076324 -0.024156282185325197 0 0.086686440634990508 -0.020929044556012261 0 0.14681516231789485 -0.020374341789614194 0 0.13424713784819003 -0.012711130856706871 0 0.093771113447076324 -0.024156282185325197 0 0.14681516231789485 -0.020374341789614194 0 0.13424713784819003 -0.012711130856706871 0 0.0791350166255851 -0.013103709762458192 0 0.093771113447076324 -0.024156282185325197 0 0.043158500307738303 -0.023166296382210336 0 0.093771113447076324 -0.024156282185325197 0 0.058891008733736691 -0.026038429262903333 0 0.033096254869655124 -0.026458744029817037 0 0.03797314212515724 -0.021630570136260581 0 0.058891008733736691 -0.026038429262903333 0 0.03582235293331297 -0.010393794860211535 0 0.03797314212515724 -0.021630570136260581 0 0.05633390806418908 -0.016337667620642725 0 0.03797314212515724 -0.021630570136260581 0 0.058891008733736691 -0.026038429262903336 0 0.05633390806418908 -0.016337667620642725 0 0.093771113447076324 -0.024156282185325197 0 0.058891008733736691 -0.026038429262903333 0 0.086686440634990494 -0.020929044556012261 0 0.058891008733736691 -0.026038429262903333 0 0.086686440634990494 -0.020929044556012261 0 0.05633390806418908 -0.016337667620642725 0 0.086686440634990494 -0.020929044556012261 0 0.05633390806418908 -0.016337667620642725 0 0.071683580503277208 -0.0018453592146313231 0 0.086686440634990494 -0.020929044556012261 0 0.071683580503277208 -0.0018453592146313216 0 0.10470868779233074 -0.001621642499718935 0 0.03582235293331297 -0.010393794860211535 0 0.05633390806418908 -0.016337667620642725 0 0.047375902615266224 -0.0018734496945775629 0 0.05633390806418908 -0.016337667620642725 0 0.047375902615266224 -0.0018734496945775618 0 0.071683580503277208 -0.0018453592146313231 0 0.047375902615266224 -0.0018734496945775629 0 0.048572777590708466 0.011903136779504962 0 0.039759585088011029 0.0092662050048110556 0 0.03327766155422162 0.0014787198495701589 0 0.047375902615266224 -0.0018734496945775629 0 0.039759585088011029 0.0092662050048110556 0 0.047375902615266224 -0.0018734496945775629 0 0.057393851196666505 0.0081849311413672247 0 0.071683580503277208 -0.0018453592146313231 0 0.047375902615266224 -0.0018734496945775629 0 0.057393851196666505 0.0081849311413672247 0 0.048572777590708466 0.011903136779504964 0 0.057393851196666505 0.0081849311413672247 0 0.048572777590708466 0.011903136779504966 0 0.054606969568746097 0.021967329326178585 0 0.057393851196666505 0.0081849311413672247 0 0.066514923211528298 0.024830315522792367 0 0.054606969568746097 0.021967329326178585 0 0.048572777590708466 0.011903136779504964 0 0.044417666269159016 0.018663215991694775 0 0.054606969568746097 0.021967329326178585 0 0.039759585088011029 0.0092662050048110556 0 0.044417666269159016 0.018663215991694775 0 0.036272867826144188 0.015887552963080052 0 0.048572777590708466 0.011903136779504964 0 0.039759585088011029 0.0092662050048110556 0 0.044417666269159016 0.018663215991694775 0 0.071683580503277208 -0.0018453592146313231 0 0.072267548967832801 0.0141895615417706 0 0.08899123992542439 0.013384549278019168 0 0.071683580503277208 -0.0018453592146313231 0 0.08899123992542439 0.013384549278019166 0 0.10470868779233074 -0.001621642499718935 0 0.057393851196666505 0.0081849311413672247 0 0.071683580503277208 -0.0018453592146313261 0 0.072267548967832801 0.0141895615417706 0 0.057393851196666505 0.0081849311413672247 0 0.072267548967832801 0.0141895615417706 0 0.066514923211528298 0.024830315522792367 0 0.072267548967832801 0.0141895615417706 0 0.081488226125632182 0.028457847438818507 0 0.066514923211528298 0.024830315522792367 0 0.072267548967832801 0.0141895615417706 0 0.08899123992542439 0.013384549278019168 0 0.081488226125632182 0.028457847438818507 0 0.08899123992542439 0.013384549278019168 0 0.099819104074529555 0.031460012926937723 0 0.081488226125632182 0.028457847438818507 0 0.10870272127408219 0.015959712565288577 0 0.12394639993827725 0.03469720089490945 0 0.099819104074529555 0.031460012926937723 0 0.08899123992542439 0.013384549278019168 0 0.10870272127408219 0.015959712565288577 0 0.099819104074529555 0.031460012926937723 0 0.13457292834419865 0.0067509677694972958 0 0.1552772167388459 0.035343858106480081 0 0.12394639993827725 0.03469720089490945 0 0.10870272127408219 0.015959712565288577 0 0.13457292834419865 0.0067509677694972958 0 0.12394639993827725 0.03469720089490945 0 0.13457292834419865 0.0067509677694972958 0 0.10470868779233074 -0.001621642499718935 0 0.14681516231789485 -0.020374341789614194 0 0.10870272127408219 0.015959712565288577 0 0.13457292834419865 0.0067509677694972958 0 0.10470868779233074 -0.001621642499718935 0 0.08899123992542439 0.013384549278019168 0 0.10870272127408219 0.015959712565288577 0 0.10470868779233074 -0.001621642499718935 0 0.086686440634990494 -0.020929044556012261 0 0.10470868779233074 -0.0016216424997189392 0 0.14681516231789485 -0.020374341789614194 0 0.20014810047679046 -0.0075629218783627699 0 0.13424713784819003 -0.012711130856706871 0 0.14681516231789485 -0.020374341789614194 0 0.20014810047679046 -0.0075629218783627699 0 0.14681516231789485 -0.020374341789614194 0 0.21928533059583258 -0.011498647350891502 0 0.14681516231789485 -0.020374341789614194 0 0.21928533059583258 -0.011498647350891502 0 0.16945979148352483 0.0031307695232292644 0 0.13457292834419865 0.0067509677694972958 0 0.14681516231789485 -0.020374341789614194 0 0.16945979148352483 0.0031307695232292644 0 0.13457292834419865 0.0067509677694972958 0 0.16945979148352483 0.0031307695232292644 0 0.1552772167388459 0.035343858106480081 0 0.16945979148352483 0.0031307695232292644 0 0.20119563841311405 0.031669706913298325 0 0.1552772167388459 0.035343858106480081 0 0.21928533059583258 -0.011498647350891502 0 0.16945979148352483 0.0031307695232292692 0 0.20119563841311405 0.031669706913298325 0 0.21928533059583258 -0.011498647350891502 0 0.30345487288723416 0.020295600302519354 0 0.20119563841311405 0.031669706913298325 0 0.45894387307061985 0.048372970966353977 0 0.39417403140831697 -0.040687142721370299 0 0.51525527392294168 -0.029566782608509111 0 0.30345487288723416 0.020295600302519361 0 0.45894387307061979 0.048372970966353977 0 0.39417403140831697 -0.040687142721370299 0 0.30606914555924064 0.070713542638578389 0 0.33050498328428957 0.072616627048600016 0 0.45894387307061985 0.048372970966353977 0 0.56216369744344863 0.060634549314253113 0 0.51525527392294168 -0.029566782608509111 0 0.33050498328428957 0.072616627048600016 0 0.35915132917074716 0.069978936820185106 0 0.56216369744344863 0.060634549314253113 0 0.51525527392294179 -0.029566782608509118 0 0.60841188684224234 -0.00062212108973521806 0 0.51525527392294168 -0.029566782608509111 0 0.4445162658713811 -0.10587840150259079 0 0.61259237033460467 -0.089225867870807177 0 0.39417403140831697 -0.040687142721370299 0 0.4445162658713811 -0.10587840150259079 0 0.31733309128816167 -0.066503297106699527 0 0.39417403140831697 -0.040687142721370299 0 0.51525527392294168 -0.029566782608509111 0 0.4445162658713811 -0.10587840150259079 0 0.4445162658713811 -0.10587840150259079 0 0.53138