<?xml version="1.0"?>
<VTKFile type="UnstructuredGrid" version="0.1" byte_order="LittleEndian">
<UnstructuredGrid>
<Piece NumberOfPoints="880" NumberOfCells="299">
<Points>
<DataArray type="Float64" NumberOfComponents="3" format="ascii">
-0 0 0 0.18653882694645291 0.22249173546702489 0 0 0.25000000000104189 0 -0 0 0 0.18653882694645291 0.22249173546702489 0 0.24999999999941089 0 0 0.24999999999941089 0 0 0.35015135319464608 0.1900339269648805 0 0.49999999999869182 0 0 0.18653882694645291 0.22249173546702489 0 0.24999999999941089 0 0 0.35015135319464608 0.1900339269648805 0 0.35015135319464608 0.1900339269648805 0 0.49924741621175961 0.21507969613896921 0 0.49999999999869182 0 0 0.35015135319464608 0.1900339269648805 0 0.49924741621175961 0.21507969613896921 0 0.40587285776242238 0.32419148732968017 0 0.37764981543668408 0.41341486499350411 0 0.41576443813007791 0.48093483781626972 0 0.45418244162583959 0.41624787166862259 0 0.37764981543668408 0.41341486499350411 0 0.45418244162583959 0.41624787166862259 0 0.40587285776242238 0.32419148732968017 0 0.41576443813007791 0.48093483781626972 0 0.46566719828045178 0.47702825415921918 0 0.45418244162583959 0.41624787166862259 0 0.41576443813007791 0.48093483781626972 0 0.46566719828045178 0.47702825415921918 0 0.4638583922372429 0.51470588235294135 0 0.46566719828045178 0.47702825415921918 0 0.49954900152271581 0.45107191084564019 0 0.5 0.5 0 0.46566719828045178 0.47702825415921918 0 0.4638583922372429 0.51470588235294135 0 0.5 0.5 0 0.46566719828045178 0.47702825415921918 0 0.49954900152271581 0.45107191084564019 0 0.45418244162583959 0.41624787166862259 0 0.45418244162583959 0.41624787166862259 0 0.49435464945626773 0.33318442629318029 0 0.54876010062294855 0.39662628167175101 0 0.45418244162583959 0.41624787166862259 0 0.49435464945626773 0.33318442629318029 0 0.40587285776242238 0.32419148732968017 0 0.49924741621175961 0.21507969613896921 0 0.49435464945626773 0.33318442629318029 0 0.40587285776242238 0.32419148732968017 0 0.35015135319464608 0.1900339269648805 0 0.40587285776242238 0.32419148732968017 0 0.29145599617909779 0.35026601625021492 0 0.37764981543668408 0.41341486499350411 0 0.40587285776242238 0.32419148732968017 0 0.29145599617909779 0.35026601625021492 0 0.18653882694645291 0.22249173546702489 0 0.35015135319464608 0.1900339269648805 0 0.29145599617909779 0.35026601625021492 0 0.29145599617909779 0.35026601625021492 0 0.32540781287085369 0.49175159894608172 0 0.17872124008781709 0.39692711089439497 0 0.37764981543668408 0.41341486499350411 0 0.29145599617909779 0.35026601625021492 0 0.32540781287085369 0.49175159894608172 0 0.37764981543668408 0.41341486499350411 0 0.41576443813007791 0.48093483781626972 0 0.32540781287085369 0.49175159894608172 0 0.17872124008781709 0.39692711089439497 0 0 0.25000000000104189 0 0 0.50000000000206157 0 0.17872124008781709 0.39692711089439497 0 0 0.50000000000206157 0 0.22453074737734591 0.51613635929252633 0 0.32540781287085369 0.49175159894608172 0 0.17872124008781709 0.39692711089439497 0 0.22453074737734591 0.51613635929252633 0 0.18653882694645291 0.22249173546702489 0 0.29145599617909779 0.35026601625021492 0 0.17872124008781709 0.39692711089439497 0 0.18653882694645291 0.22249173546702489 0 0.17872124008781709 0.39692711089439497 0 0 0.25000000000104189 0 0 0.50000000000206157 0 0.18442368612951149 0.62734948407416979 0 0 0.75000000000034772 0 0.18442368612951149 0.62734948407416979 0 0.22727208279115291 0.72949159435386135 0 0 0.75000000000034772 0 0.18442368612951149 0.62734948407416979 0 0.22727208279115291 0.72949159435386135 0 0.31346558946927339 0.67110784456164874 0 0.18442368612951149 0.62734948407416979 0 0.22453074737734591 0.51613635929252633 0 0.31771010312359771 0.58585679504088894 0 0 0.50000000000206157 0 0.18442368612951149 0.62734948407416979 0 0.22453074737734591 0.51613635929252633 0 0 1 0 0.096516139048187316 0.89789944498939644 0 0 0.75000000000034772 0 0 1 0 0.096516139048187316 0.89789944498939644 0 0.1596341872805197 1 0 0.096516139048187316 0.89789944498939644 0 0 0.75000000000034772 0 0.1644705180525495 0.8200994301041713 0 0.1644705180525495 0.8200994301041713 0 0.2386314078659193 0.92924778694987087 0 0.27155609766735261 0.80398965554903801 0 0.22727208279115291 0.72949159435386135 0 0 0.75000000000034772 0 0.1644705180525495 0.8200994301041713 0 0.22727208279115291 0.72949159435386135 0 0.1644705180525495 0.8200994301041713 0 0.27155609766735261 0.80398965554903801 0 0.096516139048187316 0.89789944498939644 0 0.1644705180525495 0.8200994301041713 0 0.2386314078659193 0.92924778694987087 0 0.096516139048187316 0.89789944498939644 0 0.2386314078659193 0.92924778694987087 0 0.1596341872805197 1 0 0.2386314078659193 0.92924778694987087 0 0.1596341872805197 1 0 0.27591592301363282 1 0 0.36061858902161292 1 0 0.32789203369730929 0.94219211037003092 0 0.27591592301363282 1 0 0.36061858902161292 1 0 0.32789203369730929 0.94219211037003092 0 0.39382242252278338 0.95440420122950598 0 0.2386314078659193 0.92924778694987087 0 0.32789203369730929 0.94219211037003092 0 0.27591592301363282 1 0 0.2386314078659193 0.92924778694987087 0 0.32789203369730929 0.94219211037003092 0 0.31834856208730472 0.88134829947972904 0 0.32789203369730929 0.94219211037003092 0 0.37746652222901839 0.8987532801416368 0 0.39382242252278338 0.95440420122950598 0 0.32789203369730929 0.94219211037003092 0 0.31834856208730472 0.88134829947972904 0 0.37746652222901839 0.8987532801416368 0 0.2386314078659193 0.92924778694987087 0 0.31834856208730472 0.88134829947972904 0 0.27155609766735261 0.80398965554903801 0 0.31834856208730472 0.88134829947972904 0 0.36493375430404612 0.82333914183704071 0 0.37746652222901839 0.8987532801416368 0 0.31834856208730472 0.88134829947972904 0 0.36493375430404612 0.82333914183704071 0 0.27155609766735261 0.80398965554903801 0 0.22727208279115291 0.72949159435386135 0 0.27155609766735261 0.80398965554903801 0 0.32984265945580837 0.74432890077789404 0 0.36493375430404612 0.82333914183704071 0 0.27155609766735261 0.80398965554903801 0 0.32984265945580837 0.74432890077789404 0 0.36493375430404612 0.82333914183704071 0 0.39746869305290999 0.7595658224757349 0 0.32984265945580837 0.74432890077789404 0 0.36493375430404612 0.82333914183704071 0 0.39746869305290999 0.7595658224757349 0 0.42893012659725649 0.81084715169569632 0 0.39746869305290999 0.7595658224757349 0 0.42893012659725649 0.81084715169569632 0 0.44651949253391748 0.77225997208621999 0 0.39746869305290999 0.7595658224757349 0 0.44651949253391748 0.77225997208621999 0 0.43412357948152142 0.72128778687215156 0 0.44651949253391748 0.77225997208621999 0 0.47786860714145291 0.77730227330627721 0 0.47220206448452873 0.74892462649306213 0 0.47786860714145291 0.77730227330627721 0 0.47220206448452873 0.74892462649306213 0 0.5 0.76470588235294124 0 0.47786860714145291 0.77730227330627721 0 0.5 0.79411764705882359 0 0.5 0.76470588235294124 0 0.47062147868881782 0.80650323854033878 0 0.5 0.82352941176470584 0 0.5 0.79411764705882359 0 0.47786860714145291 0.77730227330627721 0 0.47062147868881782 0.80650323854033878 0 0.5 0.79411764705882359 0 0.44651949253391748 0.77225997208621999 0 0.47786860714145291 0.77730227330627721 0 0.47062147868881782 0.80650323854033878 0 0.42893012659725649 0.81084715169569632 0 0.44651949253391748 0.77225997208621999 0 0.47062147868881782 0.80650323854033878 0 0.42893012659725649 0.81084715169569632 0 0.47062147868881782 0.80650323854033878 0 0.46181179062043481 0.83858979842637782 0 0.42893012659725649 0.81084715169569632 0 0.46181179062043481 0.83858979842637782 0 0.42880856207355889 0.86677159981903118 0 0.46181179062043481 0.83858979842637782 0 0.5 0.85294117647058831 0 0.5 0.82352941176470584 0 0.47062147868881782 0.80650323854033878 0 0.46181179062043481 0.83858979842637782 0 0.5 0.82352941176470584 0 0.46181179062043481 0.83858979842637782 0 0.47032448519202857 0.86718057681700655 0 0.5 0.85294117647058831 0 0.47032448519202857 0.86718057681700655 0 0.5 0.88235294117647056 0 0.5 0.85294117647058831 0 0.46181179062043481 0.83858979842637782 0 0.47032448519202857 0.86718057681700655 0 0.42880856207355889 0.86677159981903118 0 0.36493375430404612 0.82333914183704071 0 0.42880856207355889 0.86677159981903118 0 0.37746652222901839 0.8987532801416368 0 0.36493375430404612 0.82333914183704071 0 0.42893012659725649 0.81084715169569632 0 0.42880856207355889 0.86677159981903118 0 0.37746652222901839 0.8987532801416368 0 0.42822627495986648 0.92083108049218854 0 0.39382242252278338 0.95440420122950598 0 0.42880856207355889 0.86677159981903118 0 0.37746652222901839 0.8987532801416368 0 0.42822627495986648 0.92083108049218854 0 0.47032448519202857 0.86718057681700655 0 0.42880856207355889 0.86677159981903118 0 0.46100207326614928 0.89524736819256467 0 0.42880856207355889 0.86677159981903118 0 0.42822627495986648 0.92083108049218854 0 0.46100207326614928 0.89524736819256467 0 0.47032448519202857 0.86718057681700655 0 0.46100207326614928 0.89524736819256467 0 0.5 0.88235294117647056 0 0.46100207326614928 0.89524736819256467 0 0.5 0.91176470588235292 0 0.5 0.88235294117647056 0 0.46100207326614928 0.89524736819256467 0 0.46949408183482899 0.92833826413560594 0 0.5 0.91176470588235292 0 0.46949408183482899 0.92833826413560594 0 0.5 0.94117647058823528 0 0.5 0.91176470588235292 0 0.42822627495986648 0.92083108049218854 0 0.46100207326614928 0.89524736819256467 0 0.46949408183482899 0.92833826413560594 0 0.46949408183482899 0.92833826413560594 0 0.44768478605684647 0.9646709673379662 0 0.47596308696979028 0.95620709615192379 0 0.42822627495986648 0.92083108049218854 0 0.46949408183482899 0.92833826413560594 0 0.44768478605684647 0.9646709673379662 0 0.44768478605684647 0.9646709673379662 0 0.47596308696979028 0.95620709615192379 0 0.47818194888216242 0.97829325975680159 0 0.46949408183482899 0.92833826413560594 0 0.47596308696979028 0.95620709615192379 0 0.5 0.94117647058823528 0 0.47596308696979028 0.95620709615192379 0 0.4781
[...]
<PointData Scalars="" Vectors="displacement," Tensors="">
<DataArray type="Float64" Name="displacement" NumberOfComponents="3" format="ascii">
-3.508138505029805e-11 -1.3128284833508716e-11 0 -2.6739394332667121e-09 -2.9367821102542213e-08 0 3.284516077061925e-12 -1.3010510645590754e-11 0 -3.508138505029805e-11 -1.3128284833508716e-11 0 -2.6739394332667105e-09 -2.9367821102542213e-08 0 -1.0143610662852756e-08 -3.7743843778666334e-08 0 -1.0143610662852756e-08 -3.7743843778666334e-08 0 -2.8350647963421273e-09 -5.0112409861846899e-08 0 1.0448944197515222e-11 -5.388117997135718e-08 0 -2.6739394332667121e-09 -2.9367821102542213e-08 0 -1.0143610662852756e-08 -3.7743843778666334e-08 0 -2.8350647963421281e-09 -5.0112409861846892e-08 0 -2.8350647963421281e-09 -5.0112409861846892e-08 0 4.5749469726303729e-10 -5.7402678101296509e-08 0 1.0448944197515222e-11 -5.388117997135718e-08 0 -2.8350647963421281e-09 -5.0112409861846892e-08 0 4.5749469726303729e-10 -5.7402678101296509e-08 0 -2.7003005323283682e-09 -5.9510518546222148e-08 0 -3.9805658453921639e-09 -6.2658291039780506e-08 0 -3.9758642321989889e-09 -7.360827440327966e-08 0 -1.613695667049551e-09 -6.9534399029037716e-08 0 -3.9805658453921639e-09 -6.2658291039780506e-08 0 -1.613695667049551e-09 -6.9534399029037716e-08 0 -2.7003005323283682e-09 -5.9510518546222148e-08 0 -3.9758642321989889e-09 -7.360827440327966e-08 0 -1.8056469740330496e-09 -7.645914925180767e-08 0 -1.613695667049551e-09 -6.9534399029037716e-08 0 -3.9758642321989889e-09 -7.360827440327966e-08 0 -1.8056469740330492e-09 -7.6459149251807683e-08 0 -2.7610342020524717e-09 -8.1501817021429492e-08 0 -1.8056469740330498e-09 -7.6459149251807683e-08 0 1.3904416089689456e-10 -7.3444474467807275e-08 0 -1.4266890893811282e-10 -7.9755369440908737e-08 0 -1.8056469740330498e-09 -7.6459149251807683e-08 0 -2.7610342020524717e-09 -8.1501817021429479e-08 0 -1.4266890893811282e-10 -7.9755369440908737e-08 0 -1.8056469740330498e-09 -7.6459149251807683e-08 0 1.3904416089689456e-10 -7.3444474467807275e-08 0 -1.613695667049551e-09 -6.9534399029037716e-08 0 -1.613695667049551e-09 -6.9534399029037716e-08 0 -1.6825233729721779e-10 -6.3559510648457525e-08 0 1.963068443963701e-09 -6.7338593566988447e-08 0 -1.613695667049551e-09 -6.9534399029037716e-08 0 -1.6825233729721779e-10 -6.3559510648457525e-08 0 -2.7003005323283682e-09 -5.9510518546222148e-08 0 4.5749469726303729e-10 -5.7402678101296509e-08 0 -1.6825233729721836e-10 -6.3559510648457525e-08 0 -2.7003005323283682e-09 -5.9510518546222148e-08 0 -2.8350647963421281e-09 -5.0112409861846892e-08 0 -2.7003005323283682e-09 -5.9510518546222148e-08 0 -4.01308688487978e-09 -4.8446303089112951e-08 0 -3.9805658453921639e-09 -6.2658291039780506e-08 0 -2.7003005323283682e-09 -5.9510518546222148e-08 0 -4.01308688487978e-09 -4.8446303089112951e-08 0 -2.6739394332667121e-09 -2.9367821102542213e-08 0 -2.8350647963421281e-09 -5.0112409861846892e-08 0 -4.01308688487978e-09 -4.8446303089112951e-08 0 -4.01308688487978e-09 -4.8446303089112951e-08 0 -6.6900519036349367e-09 -6.1512728242447652e-08 0 -4.4330807767041372e-09 -3.207928682648333e-08 0 -3.9805658453921639e-09 -6.2658291039780506e-08 0 -4.01308688487978e-09 -4.8446303089112951e-08 0 -6.6900519036349367e-09 -6.1512728242447652e-08 0 -3.9805658453921639e-09 -6.2658291039780506e-08 0 -3.9758642321989889e-09 -7.360827440327966e-08 0 -6.6900519036349367e-09 -6.1512728242447652e-08 0 -4.4330807767041372e-09 -3.207928682648333e-08 0 3.284516077061925e-12 -1.3010510645590754e-11 0 -1.1683773505522459e-11 -2.0653480734188122e-11 0 -4.4330807767041372e-09 -3.207928682648333e-08 0 -1.1683773505522459e-11 -2.0653480734188122e-11 0 -6.5252033317425597e-09 -4.3462383406085623e-08 0 -6.6900519036349367e-09 -6.1512728242447652e-08 0 -4.4330807767041372e-09 -3.207928682648333e-08 0 -6.5252033317425597e-09 -4.3462383406085623e-08 0 -2.6739394332667121e-09 -2.9367821102542213e-08 0 -4.01308688487978e-09 -4.8446303089112951e-08 0 -4.4330807767041372e-09 -3.207928682648333e-08 0 -2.6739394332667121e-09 -2.9367821102542213e-08 0 -4.4330807767041372e-09 -3.207928682648333e-08 0 3.284516077061925e-12 -1.3010510645590754e-11 0 -1.1683773505522459e-11 -2.0653480734188122e-11 0 -5.4527424993118444e-09 -3.6365548025005257e-08 0 -4.3888337166968629e-12 1.3424283495255534e-12 0 -5.4527424993118444e-09 -3.6365548025005257e-08 0 -2.8321155487560123e-09 -4.634611075598779e-08 0 -4.3888337166968629e-12 1.3424283495255534e-12 0 -5.4527424993118444e-09 -3.6365548025005257e-08 0 -2.8321155487560123e-09 -4.634611075598779e-08 0 -8.6614478880670042e-09 -7.2501566288013738e-08 0 -5.4527424993118444e-09 -3.6365548025005257e-08 0 -6.5252033317425597e-09 -4.3462383406085623e-08 0 -8.63335475748525e-09 -6.8024514915595989e-08 0 -1.1683773505522459e-11 -2.0653480734188122e-11 0 -5.4527424993118452e-09 -3.6365548025005264e-08 0 -6.5252033317425597e-09 -4.3462383406085623e-08 0 7.8266534250502815e-11 -2.176195466215265e-11 0 1.2245556132135919e-08 -1.2929094345227696e-08 0 -4.3888337166968629e-12 1.3424283495255534e-12 0 7.8266534250502815e-11 -2.176195466215265e-11 0 1.2245556132135922e-08 -1.2929094345227698e-08 0 4.5300544192658858e-08 -3.4028160048322373e-08 0 1.2245556132135919e-08 -1.2929094345227696e-08 0 -4.3888337166968629e-12 1.3424283495255534e-12 0 6.8267929201059804e-09 -2.9340057837588991e-08 0 6.8267929201059804e-09 -2.9340057837588991e-08 0 4.1482739850674548e-08 -5.2259134030226352e-08 0 6.2788198634237599e-09 -6.2954879207411642e-08 0 -2.8321155487560123e-09 -4.634611075598779e-08 0 -4.3888337167009172e-12 1.3424283495276001e-12 0 6.8267929201059804e-09 -2.9340057837588991e-08 0 -2.8321155487560123e-09 -4.634611075598779e-08 0 6.8267929201059804e-09 -2.9340057837588991e-08 0 6.2788198634237599e-09 -6.2954879207411642e-08 0 1.2245556132135919e-08 -1.2929094345227696e-08 0 6.826792920105982e-09 -2.9340057837588995e-08 0 4.1482739850674548e-08 -5.2259134030226352e-08 0 1.2245556132135919e-08 -1.2929094345227696e-08 0 4.1482739850674548e-08 -5.2259134030226352e-08 0 4.5300544192658858e-08 -3.4028160048322373e-08 0 4.1482739850674548e-08 -5.2259134030226352e-08 0 4.5300544192658858e-08 -3.4028160048322373e-08 0 8.009171775037891e-08 -7.1372425342370775e-08 0 1.1423549665541841e-07 -1.1628751462212693e-07 0 6.2951668576132336e-08 -9.1005295680924279e-08 0 8.009171775037891e-08 -7.1372425342370775e-08 0 1.1423549665541841e-07 -1.1628751462212693e-07 0 6.2951668576132336e-08 -9.1005295680924279e-08 0 8.2925154461594151e-08 -1.3826026637155326e-07 0 4.1482739850674548e-08 -5.2259134030226352e-08 0 6.2951668576132336e-08 -9.1005295680924279e-08 0 8.009171775037891e-08 -7.1372425342370775e-08 0 4.1482739850674548e-08 -5.2259134030226352e-08 0 6.2951668576132336e-08 -9.1005295680924279e-08 0 3.0401355536214412e-08 -8.4566823745521698e-08 0 6.2951668576132336e-08 -9.1005295680924279e-08 0 3.8825195858144151e-08 -1.2261228014518332e-07 0 8.2925154461594151e-08 -1.3826026637155326e-07 0 6.2951668576132336e-08 -9.1005295680924279e-08 0 3.0401355536214405e-08 -8.4566823745521685e-08 0 3.8825195858144151e-08 -1.2261228014518332e-07 0 4.1482739850674548e-08 -5.2259134030226352e-08 0 3.0401355536214412e-08 -8.4566823745521698e-08 0 6.2788198634237599e-09 -6.2954879207411642e-08 0 3.0401355536214412e-08 -8.4566823745521698e-08 0 8.5725309896696584e-09 -1.0769027414244954e-07 0 3.8825195858144151e-08 -1.2261228014518332e-07 0 3.0401355536214412e-08 -8.4566823745521698e-08 0 8.5725309896696584e-09 -1.0769027414244954e-07 0 6.2788198634237599e-09 -6.2954879207411642e-08 0 -2.8321155487560123e-09 -4.634611075598779e-08 0 6.2788198634237599e-09 -6.2954879207411642e-08 0 -3.9567063329008344e-09 -8.4075898165853675e-08 0 8.5725309896696584e-09 -1.0769027414244954e-07 0 6.2788198634237599e-09 -6.2954879207411642e-08 0 -3.9567063329008344e-09 -8.4075898165853675e-08 0 8.5725309896696584e-09 -1.0769027414244954e-07 0 -1.9978688089788378e-09 -1.1502426565127358e-07 0 -3.9567063329008344e-09 -8.4075898165853675e-08 0 8.5725309896696584e-09 -1.0769027414244954e-07 0 -1.9978688089788378e-09 -1.1502426565127358e-07 0 7.7798587060057834e-09 -1.4484012810058702e-07 0 -1.9978688089788378e-09 -1.1502426565127358e-07 0 7.7798587060057834e-09 -1.4484012810058702e-07 0 3.3813553403213728e-09 -1.3981991919619508e-07 0 -1.9978688089788378e-09 -1.1502426565127358e-07 0 3.3813553403213728e-09 -1.3981991919619508e-07 0 -3.1068788204093051e-09 -1.1950759668224253e-07 0 3.3813553403213728e-09 -1.3981991919619508e-07 0 8.1779820957259178e-09 -1.5295870977899176e-07 0 3.4717018241299575e-09 -1.3956065222351232e-07 0 8.1779820957259178e-09 -1.5295870977899176e-07 0 3.4717018241299575e-09 -1.3956065222351232e-07 0 9.6459205830954941e-09 -1.5224592635741569e-07 0 8.1779820957259178e-09 -1.5295870977899176e-07 0 1.4150362340415921e-08 -1.6715449834084854e-07 0 9.6459205830954941e-09 -1.5224592635741569e-07 0 1.1516668095026203e-08 -1.6388471035930295e-07 0 1.9901242856292644e-08 -1.8464314778479834e-07 0 1.4150362340415921e-08 -1.6715449834084854e-07 0 8.1779820957259178e-09 -1.5295870977899176e-07 0 1.1516668095026203e-08 -1.6388471035930295e-07 0 1.4150362340415921e-08 -1.6715449834084854e-07 0 3.3813553403213728e-09 -1.3981991919619508e-07 0 8.1779820957259178e-09 -1.5295870977899173e-07 0 1.1516668095026203e-08 -1.6388471035930295e-07 0 7.7798587060057834e-09 -1.4484012810058702e-07 0 3.3813553403213728e-09 -1.3981991919619508e-07 0 1.1516668095026203e-08 -1.6388471035930295e-07 0 7.7798587060057834e-09 -1.4484012810058702e-07 0 1.1516668095026203e-08 -1.6388471035930293e-07 0 1.6659375484856665e-08 -1.7513135450671056e-07 0 7.7798587060057834e-09 -1.4484012810058702e-07 0 1.6659375484856665e-08 -1.7513135450671054e-07 0 2.2187799049669918e-08 -1.6135554086060308e-07 0 1.6659375484856665e-08 -1.7513135450671056e-07 0 2.9184783474805235e-08 -2.0482692790187993e-07 0 1.9901242856292644e-08 -1.8464314778479834e-07 0 1.1516668095026203e-08 -1.6388471035930295e-07 0 1.6659375484856665e-08 -1.7513135450671056e-07 0 1.9901242856292644e-08 -1.8464314778479834e-07 0 1.6659375484856665e-08 -1.7513135450671056e-07 0 2.775459017026309e-08 -1.9690614709758715e-07 0 2.9184783474805235e-08 -2.0482692790187993e-07 0 2.775459017026309e-08 -1.9690614709758715e-07 0 4.075048165074293e-08 -2.3065444146712978e-07 0 2.9184783474805235e-08 -2.0482692790187993e-07 0 1.6659375484856665e-08 -1.7513135450671056e-07 0 2.775459017026309e-08 -1.9690614709758715e-07 0 2.2187799049669918e-08 -1.6135554086060308e-07 0 8.5725309896696584e-09 -1.0769027414244954e-07 0 2.2187799049669918e-08 -1.6135554086060308e-07 0 3.8825195858144151e-08 -1.2261228014518332e-07 0 8.5725309896696584e-09 -1.0769027414244954e-07 0 7.779858706005785e-09 -1.4484012810058702e-07 0 2.2187799049669918e-08 -1.6135554086060308e-07 0 3.8825195858144151e-08 -1.2261228014518332e-07 0 5.2674583263557607e-08 -1.7417474727846626e-07 0 8.2925154461594151e-08 -1.3826026637155326e-07 0 2.2187799049669918e-08 -1.6135554086060308e-07 0 3.8825195858144158e-08 -1.2261228014518332e-07 0 5.2674583263557607e-08 -1.7417474727846626e-07 0 2.775459017026309e-08 -1.9690614709758715e-07 0 2.2187799049669918e-08 -1.6135554086060308e-07 0 3.7366025812053051e-08 -2.0612839999424303e-07 0 2.2187799049669918e-08 -1.6135554086060308e-07 0 5.2674583263557613e-08 -1.7417474727846623e-07 0 3.7366025812053051e-08 -2.0612839999424303e-07 0 2.775459017026309e-08 -1.9690614709758715e-07 0 3.7366025812053051e-08 -2.0612839999424303e-07 0 4.075048165074293e-08 -2.3065444146712978e-07 0 3.7366025812053051e-08 -2.0612839999424303e-07 0 5.6535055850599403e-08 -2.6058952137524771e-07 0 4.075048165074293e-08 -2.3065444146712978e-07 0 3.7366025812053051e-08 -2.0612839999424303e-07 0 5.9477780743700051e-08 -2.3849712175101145e-07 0 5.6535055850599403e-08 -2.6058952137524771e-07 0 5.9477780743700051e-08 -2.3849712175101145e-07 0 8.3149361604781708e-08 -3.0395140021442222e-07 0 5.6535055850599403e-08 -2.6058952137524771e-07 0 5.2674583263557607e-08 -1.7417474727846626e-07 0 3.7366025812053051e-08 -2.0612839999424303e-07 0 5.9477780743700051e-08 -2.3849712175101145e-07 0 5.9477780743700051e-08 -2.3849712175101145e-07 0 1.0242538847894698e-07 -2.1069444009688141e-07 0 9.3343595083100634e-08 -2.7343960356207961e-07 0 5.2674583263557607e-08 -1.7417474727846626e-07 0 5.9477780743700051e-08 -2.3849712175101145e-07 0 1.0242538847894698e-07 -2.1069444009688143e-07 0 1.0242538847894698e-07 -2.1069444009688143e-07 0 9.3343595083100634e-08 -2.7343960356207961e-07 0 1.3720605061880676e-07 -2.9751064942450506e-07 0 5.9477780743700051e-08 -2.3849712175101145e-07 0 9.3343595083100634e-08 -2.7343960356207961e-07 0 8.3149361604781708e-08 -3.0395140021442222e-07 0 9.3343595083100634e-08 -2.7343960356207961e-07 0 1.3720605061880676e-07 -2.9751064942450506e-07 0 1.2963966815874475e-07 -3.7162041764317209e-07 0 9.3343595083100634e-08 -2.7343960356207961e-07 0 1.2963966815874475e-07 -3.7162041764317209e-07 0 8.3149361604781708e-08 -3.0395140021442222e-07 0 1.3720605061880676e-07 -2.9751064942450506e-07 0 1.9515154610664417e-07 -2.6428064261248453e-07 0 2.2624972788847323e-07 -4.3392236544677448e-07 0 1.3720605061880676e-07 -2.9751064942450506e-07 0 1.2963966815874472e-07 -3.7162041764317204e-07 0 2.2624972788847323e-07 -4.3392236544677448e-07 0 1.0242538847894698e-07 -2.1069444009688143e-07 0 1.3720605061880676e-07 -2.9751064942450506e-07 0 1.9515154610664417e-07 -2.6428064261248453e-07 0 1.0242538847894698e-07 -2.1069444009688143e-07 0 1.9515154610664417e-07 -2.6428064261248453e-07 0 1.522347270637143e-07 -1.7603990206124066e-07 0 1.0242538847894698e-07 -2.1069444009688143e-07 0 1.522347270637143e-07 -1.7603990206124064e-07 0 8.2925154461594151e-08 -1.3826026637155326e-07 0 5.2674583263557607e-08 -1.7417474727846626e-07 0 1.0242538847894698e-07 -2.1069444009688143e-07 0 8.2925154461594151e-08 -1.3826026637155326e-07 0 1.1423549665541841e-07 -1.1628751462212693e-07 0 1.522347270637143e-07 -1.7603990206124066e-07 0 8.2925154461594151e-08 -1.3826026637155326e-07 0 -8.63335475748525e-09 -6.8024514915595989e-08 0 -8.3979997956576493e-09 -8.8457865338547525e-08 0 -6.1007370217273605e-09 -8.4106172878920258e-08 0 -6.6900519036349367e-09 -6.1512728242447652e-08 0 -8.63335475748525e-09 -6.8024514915595989e-08 0 -6.1007370217273605e-09 -8.4106172878920258e-08 0 -6.6900519036349367e-09 -6.1512728242447652e-08 0 -6.5252033317425605e-09 -4.3462383406085623e-08 0 -8.63335475748525e-09 -6.8024514915595989e-08 0 -5.4527424993118444e-09 -3.6365548025005257e-08 0 -8.63335475748525e-09 -6.8024514915595989e-08 0 -8.6614478880670042e-09 -7.2501566288013738e-08 0 -2.8321155487560123e-09 -4.634611075598779e-08 0 -3.9567063329008344e-09 -8.4075898165853675e-08 0 -8.6614478880670042e-09 -7.2501566288013738e-08 0 -1.9978688089788378e-09 -1.1502426565127358e-07 0 -3.9567063329008344e-09 -8.4075898165853675e-08 0 -7.2221162684467504e-09 -9.807280445980024e-08 0 -3.9567063329008344e-09 -8.4075898165853675e-08 0 -8.6614478880670042e-09 -7.2501566288013738e-08 0 -7.2221162684467504e-09 -9.807280445980024e-08 0 -8.63335475748525e-09 -6.8024514915595989e-08 0 -8.6614478880670042e-09 -7.2501566288013738e-08 0 -8.3979997956576493e-09 -8.8457865338547525e-08 0 -8.6614478880670042e-09 -7.2501566288013738e-08 0 -8.3979997956576493e-09 -8.8457865338547525e-08 0 -7.2221162684467504e-09 -9.807280445980024e-08 0 -8.3979997956576493e-09 -8.8457865338547525e-08 0 -7.2221162684467504e-09 -9.807280445980024e-08 0 -5.4817956680643839e-09 -1.0612245385307926e-07 0 -8.3979997956576493e-09 -8.8457865338547525e-08 0 -5.4817956680643831e-09 -1.0612245385307926e-07 0 -5.5016400153179908e-09 -9.6552363902549508e-08 0 -1.9978688089788378e-09 -1.1502426565127358e-07 0 -7.2221162684467504e-09 -9.807280445980024e-08 0 -3.1068788204093051e-09 -1.1950759668224253e-07 0 -7.2221162684467504e-09 -9.807280445980024e-08 0 -3.1068788204093051e-09 -1.1950759668224253e-07 0 -5.4817956680643839e-09 -1.0612245385307926e-07 0 -3.1068788204093051e-09 -1.1950759668224253e-07 0 1.2011936503850615e-09 -1.3039551184885375e-07 0 3.4717018241299575e-09 -1.3956065222351232e-07 0 3.3813553403213728e-09 -1.3981991919619508e-07 0 -3.1068788204093051e-09 -1.1950759668224253e-07 0 3.4717018241299575e-09 -1.3956065222351232e-07 0 -3.1068788204093051e-09 -1.1950759668224253e-07 0 -2.1834682159474569e-09 -1.1975089041775826e-07 0 -5.4817956680643839e-09 -1.0612245385307926e-07 0 -3.1068788204093051e-09 -1.1950759668224253e-07 0 -2.1834682159474569e-09 -1.1975089041775826e-07 0 1.2011936503850604e-09 -1.3039551184885375e-07 0 -2.1834682159474569e-09 -1.1975089041775826e-07 0 1.2011936503850606e-09 -1.3039551184885375e-07 0 2.8469841111918059e-09 -1.2848339820101139e-07 0 -2.1834682159474569e-09 -1.1975089041775826e-07 0 4.1382371504355554e-10 -1.1868219145244983e-07 0 2.8469841111918059e-09 -1.2848339820101139e-07 0 1.2011936503850604e-09 -1.3039551184885375e-07 0 5.4294563955268034e-09 -1.3960428157983225e-07 0 2.8469841111918059e-09 -1.2848339820101139e-07 0 3.4717018241299575e-09 -1.3956065222351232e-07 0 5.4294563955268042e-09 -1.3960428157983225e-07 0 9.6459205830954941e-09 -1.5224592635741569e-07 0 1.2011936503850604e-09 -1.3039551184885375e-07 0 3.471701824129957e-09 -1.3956065222351232e-07 0 5.4294563955268034e-09 -1.3960428157983225e-07 0 -5.4817956680643839e-09 -1.0612245385307926e-07 0 -2.4253259762993778e-09 -1.1219452361248088e-07 0 -3.633268001092718e-09 -1.0449511410514284e-07 0 -5.4817956680643839e-09 -1.0612245385307926e-07 0 -3.633268001092718e-09 -1.0449511410514282e-07 0 -5.5016400153179908e-09 -9.6552363902549508e-08 0 -2.1834682159474569e-09 -1.1975089041775826e-07 0 -5.4817956680643847e-09 -1.0612245385307926e-07 0 -2.4253259762993778e-09 -1.1219452361248088e-07 0 -2.1834682159474569e-09 -1.1975089041775826e-07 0 -2.4253259762993778e-09 -1.1219452361248088e-07 0 4.138237150435545e-10 -1.1868219145244983e-07 0 -2.4253259762993778e-09 -1.1219452361248088e-07 0 -8.5179044100385875e-10 -1.0991201851602205e-07 0 4.138237150435545e-10 -1.1868219145244983e-07 0 -2.4253259762993778e-09 -1.1219452361248088e-07 0 -3.633268001092718e-09 -1.0449511410514284e-07 0 -8.5179044100385875e-10 -1.0991201851602205e-07 0 -3.633268001092718e-09 -1.0449511410514284e-07 0 -1.6535771209698151e-09 -1.0216498568997421e-07 0 -8.5179044100385875e-10 -1.0991201851602205e-07 0 -3.330590663552561e-09 -9.8437291123016944e-08 0 -1.5780342160799766e-09 -9.5369043707186334e-08 0 -1.6535771209698151e-09 -1.0216498568997421e-07 0 -3.633268001092718e-09 -1.0449511410514284e-07 0 -3.330590663552561e-09 -9.8437291123016944e-08 0 -1.6535771209698151e-09 -1.0216498568997421e-07 0 -3.5313320138468354e-09 -9.2209442408619405e-08 0 -1.5492188807990043e-09 -8.9533051062084893e-08 0 -1.5780342160799766e-09 -9.5369043707186334e-08 0 -3.330590663552561e-09 -9.8437291123016944e-08 0 -3.5313320138468354e-09 -9.2209442408619405e-08 0 -1.5780342160799766e-09 -9.5369043707186334e-08 0 -3.5313320138468354e-09 -9.2209442408619405e-08 0 -5.5016400153179908e-09 -9.6552363902549508e-08 0 -6.1007370217273605e-09 -8.4106172878920258e-08 0 -3.330590663552561e-09 -9.8437291123016944e-08 0 -3.5313320138468354e-09 -9.2209442408619405e-08 0 -5.5016400153179908e-09 -9.6552363902549508e-08 0 -3.633268001092718e-09 -1.0449511410514284e-07 0 -3.330590663552561e-09 -9.8437291123016944e-08 0 -5.5016400153179908e-09 -9.6552363902549508e-08 0 -8.3979997956576493e-09 -8.8457865338547525e-08 0 -5.5016400153179916e-09 -9.6552363902549508e-08 0 -6.1007370217273605e-09 -8.4106172878920258e-08 0 -3.9758642321989889e-09 -7.360827440327966e-08 0 -6.6900519036349367e-09 -6.1512728242447652e-08 0 -6.1007370217273605e-09 -8.4106172878920258e-08 0 -3.9758642321989889e-09 -7.360827440327966e-08 0 -6.1007370217273605e-09 -8.4106172878920258e-08 0 -2.7610342020524717e-09 -8.1501817021429492e-08 0 -6.1007370217273605e-09 -8.4106172878920258e-08 0 -2.7610342020524717e-09 -8.1501817021429492e-08 0 -3.1582140241635323e-09 -8.7050135686619785e-08 0 -3.5313320138468354e-09 -9.2209442408619405e-08 0 -6.1007370