<?xml version="1.0"?>
<VTKFile type="UnstructuredGrid" version="0.1" byte_order="LittleEndian">
<UnstructuredGrid>
<Piece NumberOfPoints="880" NumberOfCells="299">
<Points>
<DataArray type="Float64" NumberOfComponents="3" format="ascii">
0 0.25000000000104189 0 -0 0 0 0.18653882694645291 0.22249173546702489 0 -0 0 0 0.24999999999941089 0 0 0.18653882694645291 0.22249173546702489 0 0.24999999999941089 0 0 0.49999999999869182 0 0 0.35015135319464608 0.1900339269648805 0 0.24999999999941089 0 0 0.35015135319464608 0.1900339269648805 0 0.18653882694645291 0.22249173546702489 0 0.35015135319464608 0.1900339269648805 0 0.49999999999869182 0 0 0.49924741621175961 0.21507969613896921 0 0.40587285776242238 0.32419148732968017 0 0.35015135319464608 0.1900339269648805 0 0.49924741621175961 0.21507969613896921 0 0.45418244162583959 0.41624787166862259 0 0.41576443813007791 0.48093483781626972 0 0.37764981543668408 0.41341486499350411 0 0.40587285776242238 0.32419148732968017 0 0.45418244162583959 0.41624787166862259 0 0.37764981543668408 0.41341486499350411 0 0.45418244162583959 0.41624787166862259 0 0.46566719828045178 0.47702825415921918 0 0.41576443813007791 0.48093483781626972 0 0.46566719828045178 0.47702825415921918 0 0.4638583922372429 0.51470588235294135 0 0.41576443813007791 0.48093483781626972 0 0.49954900152271581 0.45107191084564019 0 0.5 0.5 0 0.46566719828045178 0.47702825415921918 0 0.46566719828045178 0.47702825415921918 0 0.5 0.5 0 0.4638583922372429 0.51470588235294135 0 0.49954900152271581 0.45107191084564019 0 0.46566719828045178 0.47702825415921918 0 0.45418244162583959 0.41624787166862259 0 0.45418244162583959 0.41624787166862259 0 0.49435464945626773 0.33318442629318029 0 0.54876010062294855 0.39662628167175101 0 0.49435464945626773 0.33318442629318029 0 0.45418244162583959 0.41624787166862259 0 0.40587285776242238 0.32419148732968017 0 0.49435464945626773 0.33318442629318029 0 0.40587285776242238 0.32419148732968017 0 0.49924741621175961 0.21507969613896921 0 0.35015135319464608 0.1900339269648805 0 0.40587285776242238 0.32419148732968017 0 0.29145599617909779 0.35026601625021492 0 0.40587285776242238 0.32419148732968017 0 0.37764981543668408 0.41341486499350411 0 0.29145599617909779 0.35026601625021492 0 0.18653882694645291 0.22249173546702489 0 0.35015135319464608 0.1900339269648805 0 0.29145599617909779 0.35026601625021492 0 0.32540781287085369 0.49175159894608172 0 0.17872124008781709 0.39692711089439497 0 0.29145599617909779 0.35026601625021492 0 0.37764981543668408 0.41341486499350411 0 0.32540781287085369 0.49175159894608172 0 0.29145599617909779 0.35026601625021492 0 0.41576443813007791 0.48093483781626972 0 0.32540781287085369 0.49175159894608172 0 0.37764981543668408 0.41341486499350411 0 0 0.50000000000206157 0 0 0.25000000000104189 0 0.17872124008781709 0.39692711089439497 0 0 0.50000000000206157 0 0.17872124008781709 0.39692711089439497 0 0.22453074737734591 0.51613635929252633 0 0.17872124008781709 0.39692711089439497 0 0.32540781287085369 0.49175159894608172 0 0.22453074737734591 0.51613635929252633 0 0.17872124008781709 0.39692711089439497 0 0.18653882694645291 0.22249173546702489 0 0.29145599617909779 0.35026601625021492 0 0.17872124008781709 0.39692711089439497 0 0 0.25000000000104189 0 0.18653882694645291 0.22249173546702489 0 0 0.75000000000034772 0 0 0.50000000000206157 0 0.18442368612951149 0.62734948407416979 0 0 0.75000000000034772 0 0.18442368612951149 0.62734948407416979 0 0.22727208279115291 0.72949159435386135 0 0.18442368612951149 0.62734948407416979 0 0.31346558946927339 0.67110784456164874 0 0.22727208279115291 0.72949159435386135 0 0.31771010312359771 0.58585679504088894 0 0.18442368612951149 0.62734948407416979 0 0.22453074737734591 0.51613635929252633 0 0.18442368612951149 0.62734948407416979 0 0 0.50000000000206157 0 0.22453074737734591 0.51613635929252633 0 0 1 0 0 0.75000000000034772 0 0.096516139048187316 0.89789944498939644 0 0.1596341872805197 1 0 0 1 0 0.096516139048187316 0.89789944498939644 0 0 0.75000000000034772 0 0.1644705180525495 0.8200994301041713 0 0.096516139048187316 0.89789944498939644 0 0.2386314078659193 0.92924778694987087 0 0.1644705180525495 0.8200994301041713 0 0.27155609766735261 0.80398965554903801 0 0.1644705180525495 0.8200994301041713 0 0 0.75000000000034772 0 0.22727208279115291 0.72949159435386135 0 0.1644705180525495 0.8200994301041713 0 0.22727208279115291 0.72949159435386135 0 0.27155609766735261 0.80398965554903801 0 0.1644705180525495 0.8200994301041713 0 0.2386314078659193 0.92924778694987087 0 0.096516139048187316 0.89789944498939644 0 0.2386314078659193 0.92924778694987087 0 0.1596341872805197 1 0 0.096516139048187316 0.89789944498939644 0 0.27591592301363282 1 0 0.1596341872805197 1 0 0.2386314078659193 0.92924778694987087 0 0.36061858902161292 1 0 0.27591592301363282 1 0 0.32789203369730929 0.94219211037003092 0 0.36061858902161292 1 0 0.32789203369730929 0.94219211037003092 0 0.39382242252278338 0.95440420122950598 0 0.32789203369730929 0.94219211037003092 0 0.27591592301363282 1 0 0.2386314078659193 0.92924778694987087 0 0.31834856208730472 0.88134829947972904 0 0.32789203369730929 0.94219211037003092 0 0.2386314078659193 0.92924778694987087 0 0.39382242252278338 0.95440420122950598 0 0.32789203369730929 0.94219211037003092 0 0.37746652222901839 0.8987532801416368 0 0.37746652222901839 0.8987532801416368 0 0.32789203369730929 0.94219211037003092 0 0.31834856208730472 0.88134829947972904 0 0.31834856208730472 0.88134829947972904 0 0.2386314078659193 0.92924778694987087 0 0.27155609766735261 0.80398965554903801 0 0.37746652222901839 0.8987532801416368 0 0.31834856208730472 0.88134829947972904 0 0.36493375430404612 0.82333914183704071 0 0.36493375430404612 0.82333914183704071 0 0.31834856208730472 0.88134829947972904 0 0.27155609766735261 0.80398965554903801 0 0.22727208279115291 0.72949159435386135 0 0.32984265945580837 0.74432890077789404 0 0.27155609766735261 0.80398965554903801 0 0.32984265945580837 0.74432890077789404 0 0.36493375430404612 0.82333914183704071 0 0.27155609766735261 0.80398965554903801 0 0.36493375430404612 0.82333914183704071 0 0.32984265945580837 0.74432890077789404 0 0.39746869305290999 0.7595658224757349 0 0.42893012659725649 0.81084715169569632 0 0.36493375430404612 0.82333914183704071 0 0.39746869305290999 0.7595658224757349 0 0.44651949253391748 0.77225997208621999 0 0.42893012659725649 0.81084715169569632 0 0.39746869305290999 0.7595658224757349 0 0.44651949253391748 0.77225997208621999 0 0.39746869305290999 0.7595658224757349 0 0.43412357948152142 0.72128778687215156 0 0.44651949253391748 0.77225997208621999 0 0.47220206448452873 0.74892462649306213 0 0.47786860714145291 0.77730227330627721 0 0.47220206448452873 0.74892462649306213 0 0.5 0.76470588235294124 0 0.47786860714145291 0.77730227330627721 0 0.5 0.76470588235294124 0 0.5 0.79411764705882359 0 0.47786860714145291 0.77730227330627721 0 0.5 0.79411764705882359 0 0.5 0.82352941176470584 0 0.47062147868881782 0.80650323854033878 0 0.5 0.79411764705882359 0 0.47062147868881782 0.80650323854033878 0 0.47786860714145291 0.77730227330627721 0 0.47062147868881782 0.80650323854033878 0 0.44651949253391748 0.77225997208621999 0 0.47786860714145291 0.77730227330627721 0 0.47062147868881782 0.80650323854033878 0 0.42893012659725649 0.81084715169569632 0 0.44651949253391748 0.77225997208621999 0 0.46181179062043481 0.83858979842637782 0 0.42893012659725649 0.81084715169569632 0 0.47062147868881782 0.80650323854033878 0 0.42880856207355889 0.86677159981903118 0 0.42893012659725649 0.81084715169569632 0 0.46181179062043481 0.83858979842637782 0 0.5 0.82352941176470584 0 0.5 0.85294117647058831 0 0.46181179062043481 0.83858979842637782 0 0.5 0.82352941176470584 0 0.46181179062043481 0.83858979842637782 0 0.47062147868881782 0.80650323854033878 0 0.46181179062043481 0.83858979842637782 0 0.5 0.85294117647058831 0 0.47032448519202857 0.86718057681700655 0 0.5 0.85294117647058831 0 0.5 0.88235294117647056 0 0.47032448519202857 0.86718057681700655 0 0.42880856207355889 0.86677159981903118 0 0.46181179062043481 0.83858979842637782 0 0.47032448519202857 0.86718057681700655 0 0.42880856207355889 0.86677159981903118 0 0.37746652222901839 0.8987532801416368 0 0.36493375430404612 0.82333914183704071 0 0.42880856207355889 0.86677159981903118 0 0.36493375430404612 0.82333914183704071 0 0.42893012659725649 0.81084715169569632 0 0.39382242252278338 0.95440420122950598 0 0.37746652222901839 0.8987532801416368 0 0.42822627495986648 0.92083108049218854 0 0.42822627495986648 0.92083108049218854 0 0.37746652222901839 0.8987532801416368 0 0.42880856207355889 0.86677159981903118 0 0.46100207326614928 0.89524736819256467 0 0.42880856207355889 0.86677159981903118 0 0.47032448519202857 0.86718057681700655 0 0.42822627495986648 0.92083108049218854 0 0.42880856207355889 0.86677159981903118 0 0.46100207326614928 0.89524736819256467 0 0.5 0.88235294117647056 0 0.46100207326614928 0.89524736819256467 0 0.47032448519202857 0.86718057681700655 0 0.5 0.88235294117647056 0 0.5 0.91176470588235292 0 0.46100207326614928 0.89524736819256467 0 0.46100207326614928 0.89524736819256467 0 0.5 0.91176470588235292 0 0.46949408183482899 0.92833826413560594 0 0.5 0.91176470588235292 0 0.5 0.94117647058823528 0 0.46949408183482899 0.92833826413560594 0 0.42822627495986648 0.92083108049218854 0 0.46100207326614928 0.89524736819256467 0 0.46949408183482899 0.92833826413560594 0 0.44768478605684647 0.9646709673379662 0 0.46949408183482899 0.92833826413560594 0 0.47596308696979028 0.95620709615192379 0 0.44768478605684647 0.9646709673379662 0 0.42822627495986648 0.92083108049218854 0 0.46949408183482899 0.92833826413560594 0 0.44768478605684647 0.9646709673379662 0 0.47596308696979028 0.95620709615192379 0 0.47818194888216242 0.97829325975680159 0 0.46949408183482899 0.92833826413560594 0 0.5 0.94117647058823528 0 0.47596308696979028 0.95620709615192379 0 0.47596308696979028 0.95620709615192379 0 0.5 0.
[...]
<PointData Scalars="" Vectors="displacement," Tensors="">
<DataArray type="Float64" Name="displacement" NumberOfComponents="3" format="ascii">
5.4737131809391921e-05 1.8862150821988914e-05 0 -1.204415145286541e-05 4.298407164212338e-05 0 0.03273798566321949 0.026307862605805182 0 -1.204415145286541e-05 4.298407164212338e-05 0 -0.013496928606208849 0.025676770469454806 0 0.03273798566321949 0.026307862605805182 0 -0.013496928606208849 0.025676770469454806 0 -0.08532232894814 -0.075374501348134684 0 0.046866220447738312 0.014704564217735458 0 -0.013496928606208849 0.025676770469454806 0 0.046866220447738312 0.014704564217735458 0 0.03273798566321949 0.026307862605805182 0 0.046866220447738312 0.014704564217735458 0 -0.08532232894814 -0.075374501348134684 0 0.070764582931705206 -0.066748235192160013 0 0.13192845008959569 0.0011732046469687908 0 0.046866220447738319 0.014704564217735465 0 0.070764582931705206 -0.066748235192160013 0 0.21131770369382838 -0.0015633034884487145 0 0.20014810047679599 -0.0075629218783568024 0 0.16178048295627559 0.002892018498789633 0 0.13192845008959569 0.0011732046469687908 0 0.21131770369382838 -0.0015633034884487145 0 0.16178048295627559 0.002892018498789633 0 0.21131770369382838 -0.0015633034884487145 0 0.2504742672241374 -0.00058520241206620467 0 0.20014810047679599 -0.0075629218783568024 0 0.2504742672241374 -0.00058520241206620467 0 0.21928533059583813 -0.011498647350884648 0 0.20014810047679599 -0.0075629218783568024 0 0.26210371937083143 -0.016349454769881915 0 0.30345487288724288 0.020295600302529297 0 0.2504742672241374 -0.00058520241206620467 0 0.2504742672241374 -0.00058520241206620467 0 0.30345487288724288 0.020295600302529294 0 0.21928533059583813 -0.011498647350884648 0 0.26210371937083143 -0.016349454769881915 0 0.2504742672241374 -0.00058520241206620467 0 0.21131770369382838 -0.0015633034884487145 0 0.21131770369382838 -0.0015633034884487145 0 0.1618150149417287 -0.047441984261235616 0 0.23349344758613974 -0.085722506840118159 0 0.1618150149417287 -0.047441984261235616 0 0.21131770369382838 -0.0015633034884487145 0 0.13192845008959569 0.0011732046469687908 0 0.1618150149417287 -0.047441984261235616 0 0.13192845008959569 0.0011732046469687908 0 0.070764582931705206 -0.066748235192160013 0 0.046866220447738312 0.014704564217735458 0 0.13192845008959569 0.0011732046469687908 0 0.10093051052361854 0.014377166734133664 0 0.13192845008959569 0.0011732046469687908 0 0.16178048295627559 0.0028920184987896317 0 0.10093051052361854 0.014377166734133664 0 0.03273798566321949 0.026307862605805182 0 0.046866220447738312 0.014704564217735458 0 0.10093051052361854 0.014377166734133664 0 0.13424713784819353 -0.01271113085670283 0 0.057977596221741971 0.0081634140754396831 0 0.10093051052361854 0.014377166734133664 0 0.16178048295627559 0.002892018498789633 0 0.13424713784819353 -0.01271113085670283 0 0.10093051052361854 0.014377166734133664 0 0.20014810047679599 -0.0075629218783568024 0 0.13424713784819353 -0.01271113085670283 0 0.16178048295627559 0.002892018498789633 0 8.0640870126136711e-05 -9.0122417183559324e-06 0 5.4737131809391921e-05 1.8862150821988914e-05 0 0.057977596221741971 0.0081634140754396831 0 8.0640870126136711e-05 -9.0122417183559324e-06 0 0.057977596221741971 0.0081634140754396831 0 0.079135016625587126 -0.013103709762455779 0 0.057977596221741971 0.0081634140754396831 0 0.13424713784819353 -0.01271113085670283 0 0.079135016625587126 -0.013103709762455779 0 0.057977596221741971 0.0081634140754396831 0 0.03273798566321949 0.026307862605805182 0 0.10093051052361854 0.014377166734133664 0 0.057977596221741971 0.0081634140754396831 0 5.4737131809391921e-05 1.8862150821988914e-05 0 0.03273798566321949 0.026307862605805182 0 2.62263799625206e-05 -2.5962144641436699e-05 0 8.0640870126136711e-05 -9.0122417183559324e-06 0 0.043158500307739121 -0.023166296382208785 0 2.62263799625206e-05 -2.5962144641436699e-05 0 0.043158500307739121 -0.023166296382208785 0 0.033096254869655513 -0.026458744029815087 0 0.043158500307739121 -0.023166296382208785 0 0.058891008733737739 -0.026038429262900151 0 0.033096254869655513 -0.026458744029815087 0 0.093771113447078364 -0.024156282185321759 0 0.043158500307739121 -0.023166296382208785 0 0.079135016625587126 -0.013103709762455779 0 0.043158500307739121 -0.023166296382208785 0 8.064087012613911e-05 -9.0122417183552632e-06 0 0.079135016625587126 -0.013103709762455779 0 2.2168720990108872e-05 -1.0759600566509312e-05 0 2.62263799625206e-05 -2.5962144641436699e-05 0 0.0064600094425296397 -0.013539968457504123 0 0.0090747837831336876 -0.019383923889601896 0 2.2168720990108872e-05 -1.0759600566509312e-05 0 0.0064600094425296397 -0.013539968457504123 0 2.62263799625206e-05 -2.5962144641436699e-05 0 0.015281560660177541 -0.02065228447792785 0 0.0064600094425296397 -0.013539968457504123 0 0.0097596691065737172 -0.022829746054846504 0 0.015281560660177541 -0.02065228447792785 0 0.023197699857976053 -0.023830404798228896 0 0.015281560660177541 -0.02065228447792785 0 2.62263799625206e-05 -2.5962144641436699e-05 0 0.033096254869655513 -0.026458744029815087 0 0.015281560660177541 -0.02065228447792785 0 0.033096254869655513 -0.026458744029815087 0 0.023197699857976053 -0.023830404798228896 0 0.015281560660177541 -0.02065228447792785 0 0.0097596691065737172 -0.022829746054846504 0 0.0064600094425296397 -0.013539968457504123 0 0.0097596691065737172 -0.022829746054846504 0 0.0090747837831336876 -0.019383923889601896 0 0.0064600094425296397 -0.013539968457504123 0 0.0057672757080737581 -0.020837782198915258 0 0.0090747837831336876 -0.019383923889601896 0 0.0097596691065737172 -0.022829746054846504 0 0.0021210732987263928 -0.012577106862687476 0 0.0057672757080737581 -0.020837782198915258 0 0.0087162913655673777 -0.016973984882442644 0 0.0021210732987263928 -0.012577106862687476 0 0.0087162913655673777 -0.016973984882442644 0 0.0065050486338140406 -0.0084569105819720901 0 0.0087162913655673777 -0.016973984882442644 0 0.0057672757080737581 -0.020837782198915258 0 0.0097596691065737172 -0.022829746054846504 0 0.014889894134125947 -0.018365566232798409 0 0.0087162913655673777 -0.016973984882442644 0 0.0097596691065737172 -0.022829746054846504 0 0.0065050486338140406 -0.0084569105819720901 0 0.0087162913655673777 -0.016973984882442644 0 0.012766575502606245 -0.011154668106082254 0 0.012766575502606245 -0.011154668106082254 0 0.0087162913655673777 -0.016973984882442644 0 0.014889894134125947 -0.018365566232798409 0 0.014889894134125947 -0.018365566232798409 0 0.0097596691065737172 -0.022829746054846504 0 0.023197699857976053 -0.023830404798228896 0 0.012766575502606245 -0.011154668106082254 0 0.014889894134125947 -0.018365566232798409 0 0.022523341623158184 -0.014409293391560388 0 0.022523341623158184 -0.014409293391560388 0 0.014889894134125947 -0.018365566232798409 0 0.023197699857976053 -0.023830404798228896 0 0.033096254869655513 -0.026458744029815087 0 0.037973142125157566 -0.021630570136257167 0 0.023197699857976053 -0.023830404798228896 0 0.037973142125157566 -0.021630570136257167 0 0.02252334162315818 -0.014409293391560388 0 0.023197699857976053 -0.023830404798228896 0 0.022523341623158184 -0.014409293391560388 0 0.037973142125157559 -0.021630570136257164 0 0.035822352933313227 -0.01039379486020707 0 0.025113261953735189 -0.002791843597237771 0 0.022523341623158184 -0.014409293391560388 0 0.035822352933313227 -0.01039379486020707 0 0.033277661554221807 0.0014787198495753132 0 0.025113261953735189 -0.0027918435972377714 0 0.035822352933313227 -0.01039379486020707 0 0.033277661554221807 0.0014787198495753132 0 0.035822352933313227 -0.01039379486020707 0 0.047375902615266877 -0.0018734496945724021 0 0.033277661554221807 0.0014787198495753132 0 0.03975958508801148 0.0092662050048166449 0 0.032705237175163257 0.0092987377718403135 0 0.03975958508801148 0.0092662050048166449 0 0.036272867826144521 0.015887552963085846 0 0.032705237175163257 0.0092987377718403135 0 0.036272867826144521 0.015887552963085846 0 0.029502708301948552 0.013258540863938581 0 0.032705237175163257 0.0092987377718403135 0 0.029502708301948552 0.013258540863938581 0 0.02391702688903892 0.011137006095391746 0 0.026389059032209668 0.0062835039115830271 0 0.029502708301948552 0.013258540863938581 0 0.026389059032209668 0.0062835039115830271 0 0.032705237175163257 0.0092987377718403135 0 0.026389059032209668 0.0062835039115830271 0 0.033277661554221807 0.0014787198495753117 0 0.032705237175163257 0.0092987377718403135 0 0.026389059032209668 0.0062835039115830271 0 0.025113261953735189 -0.002791843597237771 0 0.033277661554221807 0.0014787198495753132 0 0.020879904581903971 0.003471545048654968 0 0.025113261953735189 -0.0027918435972377714 0 0.026389059032209668 0.0062835039115830271 0 0.016638523202540265 -0.0029673553656996625 0 0.025113261953735189 -0.002791843597237771 0 0.020879904581903971 0.003471545048654968 0 0.02391702688903892 0.011137006095391746 0 0.019234560004098906 0.0096007312068298878 0 0.020879904581903971 0.003471545048654968 0 0.02391702688903892 0.011137006095391746 0 0.020879904581903971 0.0034715450486549671 0 0.026389059032209668 0.0062835039115830271 0 0.020879904581903971 0.003471545048654968 0 0.019234560004098906 0.0096007312068298878 0 0.016894371277175468 0.0042273103002910878 0 0.019234560004098906 0.0096007312068298878 0 0.015162415191901023 0.0083578212267686035 0 0.016894371277175468 0.0042273103002910878 0 0.016638523202540265 -0.0029673553656996625 0 0.020879904581903971 0.0034715450486549676 0 0.016894371277175468 0.0042273103002910878 0 0.016638523202540265 -0.0029673553656996625 0 0.012766575502606247 -0.011154668106082254 0 0.022523341623158184 -0.014409293391560388 0 0.016638523202540265 -0.0029673553656996625 0 0.022523341623158184 -0.014409293391560388 0 0.025113261953735189 -0.002791843597237771 0 0.0065050486338140406 -0.0084569105819720901 0 0.012766575502606245 -0.011154668106082254 0 0.010083733212465293 -0.0032576211556403687 0 0.010083733212465293 -0.0032576211556403687 0 0.012766575502606245 -0.011154668106082254 0 0.016638523202540265 -0.0029673553656996625 0 0.013165708526634358 0.002151072652137224 0 0.016638523202540265 -0.0029673553656996625 0 0.016894371277175468 0.0042273103002910878 0 0.010083733212465293 -0.0032576211556403687 0 0.016638523202540265 -0.0029673553656996625 0 0.013165708526634358 0.002151072652137224 0 0.015162415191901023 0.0083578212267686035 0 0.013165708526634358 0.0021510726521372235 0 0.016894371277175468 0.0042273103002910878 0 0.015162415191901023 0.0083578212267686035 0 0.011307142444430344 0.0075901682322047541 0 0.013165708526634358 0.002151072652137224 0 0.013165708526634358 0.002151072652137224 0 0.011307142444430342 0.007590168232204755 0 0.0091610649155076107 0.0030400419337331432 0 0.011307142444430344 0.0075901682322047541 0 0.0076754477095587669 0.0071278347095047193 0 0.0091610649155076107 0.0030400419337331432 0 0.010083733212465293 -0.0032576211556403687 0 0.013165708526634358 0.002151072652137224 0 0.0091610649155076107 0.0030400419337331432 0 0.0047799173179613021 -0.00040143730711433623 0 0.0091610649155076107 0.0030400419337331432 0 0.005780990157390236 0.0037454792920740038 0 0.0047799173179613021 -0.00040143730711433623 0 0.010083733212465293 -0.0032576211556403687 0 0.0091610649155076107 0.0030400419337331432 0 0.0047799173179613021 -0.00040143730711433623 0 0.005780990157390236 0.0037454792920740038 0 0.0029021810234403853 0.0039974068080457746 0 0.0091610649155076107 0.0030400419337331432 0 0.0076754477095587669 0.0071278347095047193 0 0.005780990157390236 0.0037454792920740038 0 0.005780990157390236 0.0037454792920740038 0 0.0039240033667648248 0.0069775119999647642 0 0.0029021810234403853 0.0039974068080457746 0 0.0076754477095587669 0.0071278347095047193 0 0.0039240033667648248 0.0069775119999647642 0 0.005780990157390236 0.0037454792920740038 0 -4.1940745343489102e-06 0.0069589638577433957 0 2.0419955145454667e-05 0.0024516251396778741 0 0.0029021810234403853 0.0039974068080457746 0 0.0039240033667648248 0.0069775119999647642 0 -4.1940745343489102e-06 0.0069589638577433957 0 0.0029021810234403853 0.0039974068080457746 0 2.0419955145454667e-05 0.0024516251396778741 0 0.0047799173179613021 -0.00040143730711433623 0 0.0029021810234403853 0.0039974068080457746 0 2.0419955145454667e-05 0.0024516251396778741 0 0.00043017410361459603 -0.0041057404056093422 0 0.0047799173179613021 -0.00040143730711433623 0 0.0047799173179613021 -0.00040143730711433623 0 0.0004301741036145962 -0.0041057404056093431 0 0.0065050486338140406 -0.0084569105819720901 0 0.0047799173179613021 -0.00040143730711433623 0 0.0065050486338140397 -0.0084569105819720901 0 0.010083733212465293 -0.0032576211556403687 0 0.00043017410361459603 -0.0041057404056093422 0 0.0021210732987263937 -0.012577106862687478 0 0.0065050486338140406 -0.0084569105819720901 0 0.093771113447078364 -0.024156282185321759 0 0.14681516231789832 -0.020374341789608865 0 0.086686440634992215 -0.020929044556007775 0 0.13424713784819353 -0.01271113085670283 0 0.14681516231789832 -0.020374341789608865 0 0.093771113447078364 -0.024156282185321759 0 0.13424713784819353 -0.01271113085670283 0 0.093771113447078364 -0.024156282185321759 0 0.079135016625587126 -0.013103709762455779 0 0.043158500307739121 -0.023166296382208785 0 0.093771113447078364 -0.024156282185321759 0 0.058891008733737739 -0.026038429262900151 0 0.058891008733737739 -0.026038429262900151 0 0.037973142125157566 -0.021630570136257167 0 0.033096254869655513 -0.026458744029815087 0 0.035822352933313227 -0.01039379486020707 0 0.037973142125157566 -0.021630570136257167 0 0.056333908064189968 -0.016337667620638343 0 0.056333908064189968 -0.016337667620638343 0 0.037973142125157566 -0.021630570136257167 0 0.058891008733737739 -0.026038429262900151 0 0.093771113447078364 -0.024156282185321759 0 0.086686440634992201 -0.020929044556007775 0 0.058891008733737739 -0.026038429262900151 0 0.086686440634992215 -0.020929044556007775 0 0.056333908064189968 -0.016337667620638343 0 0.058891008733737739 -0.026038429262900151 0 0.071683580503278499 -0.0018453592146258485 0 0.056333908064189968 -0.016337667620638343 0 0.086686440634992215 -0.020929044556007775 0 0.071683580503278499 -0.0018453592146258485 0 0.086686440634992215 -0.020929044556007775 0 0.10470868779233301 -0.001621642499713019 0 0.035822352933313227 -0.01039379486020707 0 0.056333908064189968 -0.016337667620638343 0 0.047375902615266877 -0.0018734496945724021 0 0.047375902615266877 -0.0018734496945724021 0 0.056333908064189968 -0.016337667620638343 0 0.071683580503278499 -0.0018453592146258485 0 0.047375902615266877 -0.0018734496945724021 0 0.048572777590709174 0.011903136779510748 0 0.03975958508801148 0.0092662050048166449 0 0.033277661554221807 0.0014787198495753132 0 0.047375902615266877 -0.0018734496945724021 0 0.03975958508801148 0.0092662050048166449 0 0.047375902615266877 -0.0018734496945724021 0 0.071683580503278499 -0.0018453592146258485 0 0.057393851196667428 0.0081849311413729753 0 0.047375902615266877 -0.0018734496945724021 0 0.057393851196667428 0.0081849311413729753 0 0.048572777590709174 0.011903136779510749 0 0.057393851196667428 0.0081849311413729753 0 0.054606969568747013 0.021967329326184788 0 0.048572777590709174 0.011903136779510749 0 0.066514923211529603 0.02483031552279882 0 0.054606969568747013 0.021967329326184788 0 0.057393851196667428 0.0081849311413729753 0 0.054606969568747013 0.021967329326184788 0 0.044417666269159627 0.018663215991700732 0 0.048572777590709174 0.011903136779510749 0 0.044417666269159627 0.018663215991700732 0 0.036272867826144521 0.015887552963085846 0 0.03975958508801148 0.0092662050048166449 0 0.048572777590709174 0.011903136779510749 0 0.044417666269159634 0.018663215991700732 0 0.03975958508801148 0.0092662050048166449 0 0.071683580503278499 -0.0018453592146258485 0 0.088991239925426222 0.01338454927802555 0 0.072267548967834147 0.0141895615417768 0 0.071683580503278499 -0.0018453592146258485 0 0.10470868779233301 -0.001621642499713019 0 0.088991239925426222 0.013384549278025548 0 0.057393851196667428 0.0081849311413729753 0 0.071683580503278499 -0.0018453592146258516 0 0.072267548967834147 0.0141895615417768 0 0.066514923211529603 0.02483031552279882 0 0.057393851196667428 0.0081849311413729753 0 0.072267548967834147 0.0141895615417768 0 0.081488226125633847 0.0284578474388253 0 0.066514923211529603 0.02483031552279882 0 0.072267548967834147 0.0141895615417768 0 0.088991239925426222 0.013384549278025548 0 0.081488226125633847 0.0284578474388253 0 0.072267548967834147 0.0141895615417768 0 0.099819104074531886 0.031460012926944919 0 0.081488226125633847 0.0284578474388253 0 0.088991239925426222 0.013384549278025548 0 0.12394639993828023 0.034697200894917096 0 0.099819104074531886 0.031460012926944919 0 0.10870272127408473 0.015959712565295357 0 0.099819104074531886 0.031460012926944919 0 0.088991239925426222 0.013384549278025548 0 0.10870272127408473 0.015959712565295357 0 0.15527721673884959 0.035343858106488289 0 0.12394639993828023 0.034697200894917096 0 0.13457292834420179 0.0067509677695040951 0 0.13457292834420179 0.0067509677695040951 0 0.12394639993828023 0.034697200894917103 0 0.10870272127408473 0.015959712565295357 0 0.10470868779233301 -0.001621642499713019 0 0.14681516231789832 -0.020374341789608865 0 0.13457292834420179 0.0067509677695040951 0 0.10470868779233301 -0.001621642499713019 0 0.13457292834420179 0.0067509677695040977 0 0.10870272127408473 0.015959712565295357 0 0.088991239925426222 0.013384549278025548 0 0.10470868779233301 -0.001621642499713019 0 0.10870272127408473 0.015959712565295357 0 0.086686440634992215 -0.020929044556007775 0 0.14681516231789832 -0.020374341789608865 0 0.10470868779233301 -0.001621642499713019 0 0.13424713784819353 -0.01271113085670283 0 0.20014810047679596 -0.0075629218783568042 0 0.14681516231789832 -0.020374341789608865 0 0.20014810047679599 -0.0075629218783568024 0 0.21928533059583813 -0.011498647350884648 0 0.14681516231789832 -0.020374341789608865 0 0.14681516231789832 -0.020374341789608865 0 0.21928533059583813 -0.011498647350884648 0 0.16945979148352888 0.0031307695232363048 0 0.13457292834420179 0.0067509677695040951 0 0.14681516231789832 -0.020374341789608865 0 0.16945979148352888 0.0031307695232363048 0 0.15527721673884959 0.035343858106488289 0 0.13457292834420179 0.0067509677695040951 0 0.16945979148352888 0.0031307695232363048 0 0.20119563841311927 0.031669706913307345 0 0.15527721673884959 0.035343858106488289 0 0.16945979148352888 0.0031307695232363048 0 0.21928533059583813 -0.011498647350884648 0 0.20119563841311927 0.031669706913307345 0 0.16945979148352888 0.0031307695232363048 0 0.30345487288724288 0.020295600302529294 0 0.20119563841311927 0.031669706913307345 0 0.21928533059583813 -0.011498647350884648 0 0.51525527392295645 -0.029566782608498064 0 0.45894387307063306 0.048372970966366433 0 0.39417403140832807 -0.040687142721360516 0 0.45894387307063306 0.048372970966366433 0 0.30345487288724288 0.020295600302529294 0 0.39417403140832807 -0.040687142721360516 0 0.33050498328429911 0.072616627048611673 0 0.30606914555924958 0.070713542638589907 0 0.56216369744346473 0.060634549314266921 0 0.45894387307063306 0.048372970966366433 0 0.51525527392295645 -0.029566782608498064 0 0.35915132917075721 0.069978936820196708 0 0.33050498328429911 0.072616627048611673 0 0.60841188684225889 -0.00062212108972272296 0 0.56216369744346473 0.060634549314266921 0 0.51525527392295645 -0.029566782608498064 0 0.44451626587139381 -0.1058784015025822 0 0.61259237033462233 -0.089225867870797129 0 0.51525527392295645 -0.029566782608498064 0 0.31733309128817094 -0.06650329710669084 0 0.44451626587139381 -0.1058784015025822 0 0.39417403140832807 -0.040687142721360516 0 0.44451626587139381 -0.1058784015025822 0 0.51525527392295645 -0.029566782608498064 0 0.39417403140832807 -0.040687142721360516 0 0.53138727134430541 -0.19761230186019135 0 0.44451626587139381 -0