<?xml version="1.0"?>
<VTKFile type="UnstructuredGrid" version="0.1" byte_order="LittleEndian">
<UnstructuredGrid>
<Piece NumberOfPoints="510" NumberOfCells="942">
<Points>
<DataArray type="Float64" NumberOfComponents="3" format="ascii">
0.000000000000000e+00 0.000000000000000e+00 0.000000000000000e+00 0.000000000000000e+00 1.000000000000000e+00 0.000000000000000e+00 1.000000000000000e+00 1.000000000000000e+00 0.000000000000000e+00 1.000000000000000e+00 0.000000000000000e+00 0.000000000000000e+00 0.000000000000000e+00 5.263157894724208e-02 0.000000000000000e+00 0.000000000000000e+00 1.052631578944842e-01 0.000000000000000e+00 0.000000000000000e+00 1.578947368417263e-01 0.000000000000000e+00 0.000000000000000e+00 2.105263157889683e-01 0.000000000000000e+00 0.000000000000000e+00 2.631578947362221e-01 0.000000000000000e+00 0.000000000000000e+00 3.157894736835109e-01 0.000000000000000e+00 0.000000000000000e+00 3.684210526307997e-01 0.000000000000000e+00 0.000000000000000e+00 4.210526315780885e-01 0.000000000000000e+00 0.000000000000000e+00 4.736842105253773e-01 0.000000000000000e+00 0.000000000000000e+00 5.263157894727392e-01 0.000000000000000e+00 0.000000000000000e+00 5.789473684201740e-01 0.000000000000000e+00 0.000000000000000e+00 6.315789473676089e-01 0.000000000000000e+00 0.000000000000000e+00 6.842105263150439e-01 0.000000000000000e+00 0.000000000000000e+00 7.368421052624787e-01 0.000000000000000e+00 0.000000000000000e+00 7.894736842099684e-01 0.000000000000000e+00 0.000000000000000e+00 8.421052631574764e-01 0.000000000000000e+00 0.000000000000000e+00 8.947368421049843e-01 0.000000000000000e+00 0.000000000000000e+00 9.473684210524922e-01 0.000000000000000e+00 5.263157894724208e-02 1.000000000000000e+00 0.000000000000000e+00 1.052631578944842e-01 1.000000000000000e+00 0.000000000000000e+00 1.578947368417263e-01 1.000000000000000e+00 0.000000000000000e+00 2.105263157889683e-01 1.000000000000000e+00 0.000000000000000e+00 2.631578947362221e-01 1.000000000000000e+00 0.000000000000000e+00 3.157894736835109e-01 1.000000000000000e+00 0.000000000000000e+00 3.684210526307997e-01 1.000000000000000e+00 0.000000000000000e+00 4.210526315780885e-01 1.000000000000000e+00 0.000000000000000e+00 4.736842105253773e-01 1.000000000000000e+00 0.000000000000000e+00 5.263157894727392e-01 1.000000000000000e+00 0.000000000000000e+00 5.789473684201740e-01 1.000000000000000e+00 0.000000000000000e+00 6.315789473676089e-01 1.000000000000000e+00 0.000000000000000e+00 6.842105263150439e-01 1.000000000000000e+00 0.000000000000000e+00 7.368421052624787e-01 1.000000000000000e+00 0.000000000000000e+00 7.894736842099684e-01 1.000000000000000e+00 0.000000000000000e+00 8.421052631574764e-01 1.000000000000000e+00 0.000000000000000e+00 8.947368421049843e-01 1.000000000000000e+00 0.000000000000000e+00 9.473684210524922e-01 1.000000000000000e+00 0.000000000000000e+00 1.000000000000000e+00 9.473684210527046e-01 0.000000000000000e+00 1.000000000000000e+00 8.947368421054093e-01 0.000000000000000e+00 1.000000000000000e+00 8.421052631581138e-01 0.000000000000000e+00 1.000000000000000e+00 7.894736842108185e-01 0.000000000000000e+00 1.000000000000000e+00 7.368421052635596e-01 0.000000000000000e+00 1.000000000000000e+00 6.842105263164103e-01 0.000000000000000e+00 1.000000000000000e+00 6.315789473692610e-01 0.000000000000000e+00 1.000000000000000e+00 5.789473684221118e-01 0.000000000000000e+00 1.000000000000000e+00 5.263157894749624e-01 0.000000000000000e+00 1.000000000000000e+00 4.736842105276671e-01 0.000000000000000e+00 1.000000000000000e+00 4.210526315802255e-01 0.000000000000000e+00 1.000000000000000e+00 3.684210526327841e-01 0.000000000000000e+00 1.000000000000000e+00 3.157894736853426e-01 0.000000000000000e+00 1.000000000000000e+00 2.631578947379012e-01 0.000000000000000e+00 1.000000000000000e+00 2.105263157903502e-01 0.000000000000000e+00 1.000000000000000e+00 1.578947368427626e-01 0.000000000000000e+00 1.000000000000000e+00 1.052631578951750e-01 0.000000000000000e+00 1.000000000000000e+00 5.263157894758752e-02 0.000000000000000e+00 9.473684210527046e-01 0.000000000000000e+00 0.000000000000000e+00 8.947368421054093e-01 0.000000000000000e+00 0.000000000000000e+00 8.421052631581138e-01 0.000000000000000e+00 0.000000000000000e+00 7.894736842108185e-01 0.000000000000000e+00 0.000000000000000e+00 7.368421052635596e-01 0.000000000000000e+00 0.000000000000000e+00 6.842105263164103e-01 0.000000000000000e+00 0.000000000000000e+00 6.315789473692610e-01 0.000000000000000e+00 0.000000000000000e+00 5.789473684221118e-01 0.000000000000000e+00 0.000000000000000e+00 5.263157894749624e-01 0.000000000000000e+00 0.000000000000000e+00 4.736842105276671e-01 0.000000000000000e+00 0.000000000000000e+00 4.210526315802255e-01 0.000000000000000e+00 0.000000000000000e+00 3.684210526327841e-01 0.000000000000000e+00 0.000000000000000e+00 3.157894736853426e-01 0.000000000000000e+00 0.000000000000000e+00 2.631578947379012e-01 0.000000000000000e+00 0.000000000000000e+00 2.105263157903502e-01 0.000000000000000e+00 0.000000000000000e+00 1.578947368427626e-01 0.000000000000000e+00 0.000000000000000e+00 1.052631578951750e-01 0.000000000000000e+00 0.000000000000000e+00 5.263157894758752e-02 0.000000000000000e+00 0.000000000000000e+00 5.031605205316716e-01 4.972204671541604e-01 0.000000000000000e+00 7.018426345490237e-01 2.903961232561490e-01 0.000000000000000e+00 7.124371303406183e-01 7.090403108987684e-01 0.000000000000000e+00 2.959265031394954e-01 2.966663041294382e-01 0.000000000000000e+00 2.938186736531156e-01 7.067766661704963e-01 0.000000000000000e+00 7.801937928777617e-01 4.904391120978470e-01 0.000000000000000e+00 4.931688450815972e-01 2.090043942654225e-01 0.000000000000000e+00 5.076595809067114e-01 7.864384670220363e-01 0.000000000000000e+00 2.135556561893741e-01 5.065362727025884e-01 0.000000000000000e+00 1.650664472902759e-01 8.338016493463405e-01 0.000000000000000e+00 8.342573608178855e-01 8.350202932814157e-01 0.000000000000000e+00 1.662185978925142e-01 1.650759962470238e-01 0.000000000000000e+00 8.355533113566691e-01 1.666700417113507e-01 0.000000000000000e+00 6.519512560047181e-01 4.312189365808246e-01 0.000000000000000e+00 5.621362444622332e-01 6.475298679778593e-01 0.000000000000000e+00 4.294822249996804e-01 3.549700593229496e-01 0.000000000000000e+00 3.536320720593975e-01 5.735590631903335e-01 0.000000000000000e+00 8.479412021123137e-01 6.441783643631318e-01 0.000000000000000e+00 6.465300124854763e-01 1.543069656979213e-01 0.000000000000000e+00 3.538793194897916e-01 8.442389788902098e-01 0.000000000000000e+00 1.557822789109310e-01 3.538322345572719e-01 0.000000000000000e+00 8.460132357852174e-01 3.583090328733871e-01 0.000000000000000e+00 6.409161858563438e-01 8.499201512288731e-01 0.000000000000000e+00 3.582865798996975e-01 1.537687516567927e-01 0.000000000000000e+00 1.541020176305262e-01 6.424933554336261e-01 0.000000000000000e+00 6.771662389406350e-01 5.788258972593741e-01 0.000000000000000e+00 5.826653097442865e-01 3.227153096450745e-01 0.000000000000000e+00 4.405851692511507e-01 6.717155615406296e-01 0.000000000000000e+00 3.108661768679045e-01 4.401587694435696e-01 0.000000000000000e+00 8.903374935751628e-01 5.298317609647162e-01 0.000000000000000e+00 5.337636846781881e-01 1.119457793706089e-01 0.000000000000000e+00 4.638071633258602e-01 8.894176464235550e-01 0.000000000000000e+00 1.103440217916095e-01 4.632948884003149e-01 0.000000000000000e+00 8.824677636795267e-01 7.368504859991440e-01 0.000000000000000e+00 7.370212440244595e-01 1.097964253678729e-01 0.000000000000000e+00 2.631396110533883e-01 8.809959638333399e-01 0.000000000000000e+00 1.190164503433553e-01 2.631521887657299e-01 0.000000000000000e+00 7.443262711786142e-01 8.870417634529453e-01 0.000000000000000e+00 8.868891732995268e-01 2.560221101450181e-01 0.000000000000000e+00 1.133218330296390e-01 7.441525939691115e-01 0.000000000000000e+00 2.559203017974330e-01 1.133295436221165e-01 0.000000000000000e+00 7.424808716016663e-01 3.986138223761216e-01 0.000000000000000e+00 6.054188573345922e-01 7.456941782159050e-01 0.000000000000000e+00 3.975872913300728e-01 2.526241588284512e-01 0.000000000000000e+00 2.580577183819916e-01 6.036739595749223e-01 0.000000000000000e+00 6.142080896929100e-01 5.220348583106467e-01 0.000000000000000e+00 5.208873425879845e-01 3.990422995790012e-01 0.000000000000000e+00 8.801665666670318e-02 9.102492524341748e-01 0.000000000000000e+00 9.102746851557741e-01 9.119861045675308e-01 0.000000000000000e+00 8.975126566524898e-02 8.801675238434796e-02 0.000000000000000e+00 9.121416801897935e-01 8.974623443180933e-02 0.000000000000000e+00 2.567236372031509e-01 3.821817147517051e-01 0.000000000000000e+00 3.836391856424191e-01 7.416011822662060e-01 0.000000000000000e+00 9.061229917788641e-01 4.397661165780427e-01 0.000000000000000e+00 4.396213509955152e-01 9.333436263400724e-02 0.000000000000000e+00 5.637395784657693e-01 9.050557920462406e-01 0.000000000000000e+00 9.425593221899588e-02 5.600143706998297e-01 0.000000000000000e+00 8.002282847878114e-01 7.413173225210187e-01 0.000000000000000e+00 7.475917500378439e-01 2.096060652455219e-01 0.000000000000000e+00 2.599332046268639e-01 7.969400291049720e-01 0.000000000000000e+00 2.032842424601615e-01 2.601622424388323e-01 0.000000000000000e+00 7.069255671821791e-01 7.923707150543984e-01 0.000000000000000e+00 7.919804277156113e-01 2.945639063861095e-01 0.000000000000000e+00 2.091144006854190e-01 7.060131151561713e-01 0.000000000000000e+00 2.951311216040563e-01 2.095654819556469e-01 0.000000000000000e+00 4.976508486218936e-01 5.864607765828778e-01 0.000000000000000e+00 4.255382448089687e-01 4.475656033583242e-01 0.000000000000000e+00 7.732905559451674e-01 5.845670180351498e-01 0.000000000000000e+00 6.327830359598302e-01 2.420497192047414e-01 0.000000000000000e+00 7.020317895612186e-01 4.994170690152414e-01 0.000000000000000e+00 4.982282759495711e-01 3.074262406441871e-01 0.000000000000000e+00 3.400347475592928e-01 3.571757225350826e-01 0.00000000000000
[...]
<PointData Scalars="pressure_p1," Vectors="" Tensors="">
<DataArray type="Float64" Name="pressure_p1" format="ascii">
1.254305319150756e-12 1.239969205368236e-12 8.839229735162093e+01 8.842519564481023e+01 1.392789983672900e-12 1.441946635268041e-12 1.279337255554447e-12 1.386760796203085e-12 1.530033135894495e-12 1.576621816321558e-12 7.015552712078907e-13 1.019867750964669e-12 1.842417674223537e-12 1.383310449510785e-12 1.158434545644942e-12 1.036582964344497e-12 1.058790956176170e-12 1.698297896302966e-12 1.026154676700537e-12 1.148649361404025e-12 1.329389009235142e-12 1.347406290305749e-12 1.257889090946319e-11 1.375674173597146e-10 1.360732753374110e-09 1.162406538345588e-08 1.049091091328848e-07 1.069670786626257e-06 7.883036872169960e-06 4.780750443299583e-05 3.423512938069895e-04 2.277283838446505e-03 1.278099742971302e-02 6.552574020141116e-02 2.803501223005694e-01 1.188682939592527e+00 4.178229107447509e+00 1.166542900557854e+01 2.840528797719726e+01 5.946816980062378e+01 8.733381933386940e+01 8.656452428894687e+01 8.644827022740094e+01 8.555679900409133e+01 8.536726800871183e+01 8.491187550693179e+01 9.015302610436640e+01 8.703384217513644e+01 8.312644345182267e+01 8.505900430274772e+01 8.606078913249848e+01 8.657745341023265e+01 8.615534655556685e+01 8.401667116310786e+01 8.657028395015180e+01 8.712773131534965e+01 8.700241197808090e+01 8.750775477313671e+01 5.961593427992889e+01 2.859690286172041e+01 1.179502699913117e+01 4.227063719534891e+00 1.245578789605495e+00 2.824584752169954e-01 5.795075402391370e-02 1.286293416661718e-02 2.197400646937627e-03 3.183374601933647e-04 5.019839309729161e-05 6.727706099165302e-06 9.292993849967224e-07 1.064628544674775e-07 1.116679564338922e-08 1.383954553552356e-09 1.420570451090157e-10 1.279421703915952e-11 9.427463380641575e-04 4.648379290528034e-01 6.019783488583138e-01 3.400641832830587e-07 2.671753090171197e-07 3.390107312892837e+00 6.801790501388551e-04 9.818542806906421e-04 1.000140308687368e-08 1.613892292677940e-09 1.055772009856634e+01 1.629637945769007e-09 1.085064494153775e+01 1.071116821215211e-01 6.593370996846224e-03 6.161993959746505e-05 3.314828994877013e-06 1.348029815547915e+01 9.653157986734488e-02 3.538422685596685e-06 9.542609150186292e-10 1.274333682347187e+01 8.290934262388665e-02 3.685881879571802e-06 7.913560879737627e-10 2.307585218216506e-01 1.386194807017664e-02 9.735754536382426e-05 6.747802449745439e-07 2.794627565316103e+01 2.842987965882106e-03 2.471245178086093e-04 1.461523317023130e-10 2.444789660899020e+01 1.164510429911815e+00 9.669174486905357e-08 2.137053068385802e-10 1.473237447082694e+00 2.669539479434923e+01 1.650039117057137e-10 7.745906348313937e-08 1.395176686651590e+00 2.969722290989876e-02 2.230012476130126e-05 8.261816699263907e-08 3.783066827700399e-02 1.678456140036880e-03 6.153501162813058e-11 3.774163002439287e+01 6.928968073773159e-11 3.869696334616095e+01 6.825322521769030e-08 1.006768053927848e-05 3.505298789242707e+01 1.043031290977509e-04 8.098313304856471e-03 6.326940379936787e-11 5.244852420270692e+00 1.580956596428981e+00 8.625087966770941e-08 8.911575785832753e-09 5.449909028461574e-01 4.403684905565179e+00 8.523024571688297e-09 3.610372700272312e-07 7.367465993724764e-04 5.810916327264313e-05 2.834441615062447e+00 6.523721615455953e-02 4.869181996185338e-01 7.629851385362948e-04 2.028377540300187e-06 2.651134251699881e-06 3.829008025133819e-09 4.087927109076276e+01 3.647364086521746e-11 7.333925074206404e+00 2.612078514749583e-11 6.779422516447808e+00 4.097282173995518e-09 4.411269467726647e+01 4.979817739455470e+01 2.478985886834162e-02 1.568160546858943e-05 2.510963114048391e-11 9.151241042234191e-02 1.503895298580875e-01 1.601947937807126e-03 2.934979028666081e-07 1.371495973320435e-01 2.741439550447935e-11 4.199755491997271e+01 2.722466689670353e-06 9.021740449630336e+00 4.974629884693097e-05 9.329058656170432e-03 1.780848381876221e-09 6.040020455406336e-05 1.042062221586270e-02 3.910870604523840e-05 3.109815648265199e-09 2.311333425500313e+00 9.122011338804577e-03 5.336377382742974e+01 2.236129457425233e-01 1.661970278713490e-06 1.813741789591776e-11 4.808008015940460e-06 1.455955615234549e-04 8.598529450044429e-08 2.974174487569001e-02 2.038448739329451e-02 1.002173015365160e-06 6.646284057645475e-09 2.542386139797614e-05 5.396840156085788e-03 2.468030044231433e+00 2.702036807542276e-06 3.849195313369402e-01 1.388605775339239e-01 2.436589975256863e-08 8.675640834889924e+00 5.586093032326342e+01 7.614060724855225e-04 1.191104361053080e-03 1.615014604603781e-11 3.806030165712382e-03 2.899652404992570e-01 1.179132923066480e+01 6.923604085697844e-04 7.740870821164923e-04 1.391582870636429e-09 1.235295537310172e+01 3.601559714054856e-07 1.127045366053756e-09 3.286798052239110e+00 1.344551078199322e-09 1.090524818902800e+01 1.518627923153847e-08 3.495783160130960e-06 5.864081536396937e+01 6.368160513661544e-03 1.085284800763410e-04 1.056127328261069e-11 1.655670426491175e-05 5.643590409409681e+01 2.711210856015703e+00 3.711429132117093e-08 1.709517531792014e-11 1.041979592754862e-11 2.633267687534104e+00 2.895156288919628e-08 5.958164510857290e+01 1.509009971981844e+00 1.116392045487687e+00 2.029802649408143e-04 8.820281407347252e-07 3.375502592026600e-02 9.981844720181718e-12 6.041160902552314e+01 1.863294860419140e-05 4.312396501739615e-04 9.030828703909136e-12 6.221728774012320e+01 9.473693629576029e-12 6.262325549721324e+01 1.022870014955416e-11 5.571805671047224e-10 1.764772699448078e+01 6.225256948481962e+01 6.082662601164816e+01 5.202410075419056e-10 1.813207385569225e+01 1.189329076708237e-11 1.320981420981644e+01 3.158223213432950e+00 1.699024061448058e-08 9.571536108135002e-10 3.277543887166168e-01 4.017567228124374e-03 4.753162529391700e-08 3.669337579445242e-01 1.379632010053987e+01 7.310141286698868e-10 5.702095658342690e-07 9.388987999040309e-04 3.046421383006664e-01 8.558226710153626e-03 9.054636159382089e-02 2.013905827986705e-02 3.006160799085780e-05 3.363661655381148e-10 1.542158498712791e-01 2.582330656045798e-03 5.446156595173990e-01 1.209658305795371e-11 5.842502017103019e+01 4.095521675764124e-07 3.846625021000118e-02 5.935354694749264e-09 1.386840581111709e-05 4.360510964837851e-07 3.411972012198148e-05 5.563872914710431e+00 1.194455416014264e-05 1.464508055164779e-01 1.539657118267305e+00 1.266281354684877e+00 1.052154888985416e-07 5.981832567859599e-08 6.217930588369439e-01 2.622490963070823e+01 1.205913296660999e-05 4.480645418708534e-02 1.383345055898374e-10 6.318319083083284e-10 2.737519961816777e+01 1.543244118435385e-10 1.549611377927972e+01 2.601594538935608e-07 4.184794317519906e-04 1.010262567031419e-01 2.294059384656159e-07 1.917930787166812e-06 5.473967468644385e+00 4.848617975718563e+00 7.560321839692443e-09 5.229872958432598e-09 8.162723157408681e-06 8.129287655382285e-09 6.723569528857847e-03 5.164201050830931e-12 5.897198859413347e-03 1.180548900233528e-04 6.801591403217424e+01 1.541763334630603e-04 1.252334068230498e-04 5.234016984569970e+00 1.876591045455058e-10 2.339056148516765e+01 6.664974862339383e-09 1.541226143999354e-01 3.276429301727380e-09 6.407354273144522e+00 1.754825275054400e-06 3.130698800489568e-01 2.070510972921467e-01 4.468328369467474e-07 5.430265819112504e+00 2.602443431352810e+01 4.582362329585277e-04 1.445055560577146e-03 1.481328093759973e-10 2.660103423231295e+01 8.076794639408772e-07 1.563986262833764e-10 3.216239928689285e-04 1.064296601917032e-01 4.500018528258901e+00 4.460120880165164e-02 2.511282216896334e+01 3.582696137395090e+00 8.725228530006054e-05 2.557053158753077e-07 6.874239100722225e+01 5.603847745888803e-12 6.841477885921821e-01 3.351427397333025e-03 1.530037840530069e-04 2.542655480697671e-03 1.401473717184649e-04 1.790495454300532e-02 8.282063425538456e-01 4.293495502267658e-05 2.372969700138758e-08 6.614913311330990e-06 7.407394920682202e+01 8.183796726480733e-02 4.766729448672765e-06 3.568211421549516e-12 4.815002084813936e-08 4.196861905660246e-07 1.292611179966739e-10 1.453706798551313e+01 7.813290572215862e-10 2.886688288723742e+01 2.840275315686286e+01 3.402890691297086e+00 1.356824746098371e-08 1.176486194206862e-10 2.995015460502300e+01 5.716685511905889e-07 3.487703575304076e-01 7.865703268133751e-11 2.189661070603063e-02 6.967791098994644e+01 7.226460489729940e+00 3.996315181836748e-09 4.723232347395204e-12 3.631725792234413e-12 7.025034548541521e+00 3.937258863367953e-09 7.150070655124607e+01 2.087615505114202e-05 5.070000247312911e-06 1.970475344036513e+00 4.023846427274709e-03 1.419406789293077e-03 1.751362412152702e-06 1.209535177434897e-06 1.394660706718229e-03 1.071483161248774e-05 2.717630204113592e-03 1.515912604906302e-02 1.773548154599928e+01 3.958689766360395e-05 1.872932017003952e-02 3.343772201892412e-10 1.011876235552624e-02 1.068539251459840e-08 1.335123205666792e-04 1.498015942993958e+00 6.452804923092136e-04 2.977322351920370e-04 5.373205913672088e-08 9.087437282258325e-02 7.023263928681088e-02 3.627676719611304e-02 4.588836734444041e-01 2.504304703288977e-02 7.508144685440266e+01 2.922830313797177e-12 1.883080929675092e-05 5.303644277974479e+00 1.018545476807785e-05 1.360491022376291e-01 3.610528031521295e-12 7.049910678360240e+01 2.516342298135313e-06 2.230836180014707e-06 1.295450661145198e-04 1.081939972547040e-09 4.066979677856106e-03 3.274913842456464e+00 4.346951954756915e-11 3.586534109673545e+01 1.338813096084152e-08 3.040238021347966e-01 1.219911776942257e+00 7.092699622754704e-07 3.053987169124245e+01 4.579274155931664e-06 1.067897356901580e-10 6.658615929201721e-07 3.055222197531798e-02 1.334738568608016e+01 3.612127971794686e-01 3.754270612511512e-03 8.984759502154779e-01 8.675337961443512e-03 5.340055629751161e-05 4.833136811906132e-11 1.414910910613350e-01 2.280230973740402e+01 1.536714569938089e-10 1.921683106916937e-06 2.127322038269576e-04 1.002483131493430e-08 2.684076220494575e-03 4.968233602687998e-11 5.798071153059673e-12 7.019308686506285e+01 3.877309697118315e+01 5.334245739489199e-12 3.835615418150290e+01 5.196359611819971e-11 7.084457870765050e+01 1.565316711781656e+01 1.539586836379019e-04 5.555887164560058e-10 2.441581916689200e-05 7.651818691571535e-03 8.917099435137080e-01 5.736636122112779e-01 7.265613307347823e+00 1.909599134089922e-04 3.063569784594115e-03 4.533744804774462e-09 9.807343022142123e-03 2.331924561113902e-01 1.379026468285010e+00 6.249004523956656e-07 2.805884100698301e-02 3.610436858682096e-02 3.822063270046595e-01 5.295680677973425e-08 3.123992096936278e-08 2.148115913962939e-06 5.765529885921071e-01 2.153675954747094e+01 3.498738629251145e-09 6.666766604060378e+00 2.248073701409706e-10 7.898512794058500e-10 1.640254460288939e-02 1.262450468135743e+01 1.429252679238681e-05 2.644912500918845e-12 7.957448120711389e+01 2.687760097660256e-12 7.968762635015497e+01 3.764825755626127e-04 2.440507124620260e-07 5.373112322968704e-05 1.256460845935720e-07 6.292395084409842e-02 8.351829030486558e-03 4.333070083634482e+00 2.104854346822659e+00 3.707830266790704e-08 9.667809060566154e-09 2.260855692929335e-02 9.842619113564284e+00 1.132409778557547e+00 8.586978179393955e-08 1.554996628512382e-09 1.172911103215464e-05 1.395424799878921e-09 1.201725162557157e+01 6.693074126138113e-08 9.945142840830261e-10 4.322480814133131e+01 2.469945158417385e-07 3.228518632000352e-11 
</DataArray>
</PointData>
<CellData Scalars="pressure_p0," Vectors="velocity_p0," Tensors="">
<DataArray type="Float64" Name="pressure_p0" format="ascii">