<?xml version="1.0"?>
<VTKFile type="UnstructuredGrid" version="0.1" byte_order="LittleEndian">
<UnstructuredGrid>
<Piece NumberOfPoints="6" NumberOfCells="3">
<Points>
<DataArray type="Float64" NumberOfComponents="3" format="ascii">
0.000000000000000e+00 0.000000000000000e+00 0.000000000000000e+00 3.000000000000000e+00 0.000000000000000e+00 0.000000000000000e+00 0.000000000000000e+00 3.000000000000000e+00 0.000000000000000e+00 0.000000000000000e+00 0.000000000000000e+00 3.000000000000000e+00 3.000000000000000e+00 0.000000000000000e+00 3.000000000000000e+00 0.000000000000000e+00 3.000000000000000e+00 3.000000000000000e+00 
</DataArray>
</Points>
<Cells>
<DataArray type="Int32" Name="connectivity" format="ascii">
0 1 2 4 0 2 3 4 2 3 4 5 
</DataArray>
<DataArray type="Int32" Name="offsets" format="ascii">
4 8 12 
</DataArray>
<DataArray type="UInt8" Name="types" format="ascii">
10 10 10 
</DataArray>
</Cells>
<CellData Scalars="A_conc,B_conc,C_conc,D_conc,E_conc,F_conc,G_conc,H_conc," Vectors="" Tensors="">
<DataArray type="Float64" Name="A_conc" format="ascii">
8.744266760544954e-03 8.744266760544871e-03 8.744266760544909e-03 
</DataArray>
<DataArray type="Float64" Name="B_conc" format="ascii">
4.372806628472878e-02 4.372806628472836e-02 4.372806628472855e-02 
</DataArray>
<DataArray type="Float64" Name="C_conc" format="ascii">
1.724912360622943e-01 1.724912360622926e-01 1.724912360622934e-01 
</DataArray>
<DataArray type="Float64" Name="D_conc" format="ascii">
1.500841417122741e-02 1.500841417122727e-02 1.500841417122733e-02 
</DataArray>
<DataArray type="Float64" Name="E_conc" format="ascii">
3.141885210995498e-03 3.141885210995469e-03 3.141885210995482e-03 
</DataArray>
<DataArray type="Float64" Name="F_conc" format="ascii">
3.254889889262588e-02 3.254889889262558e-02 3.254889889262572e-02 
</DataArray>
<DataArray type="Float64" Name="G_conc" format="ascii">
5.497943233594956e-02 5.497943233594903e-02 5.497943233594927e-02 
</DataArray>
<DataArray type="Float64" Name="H_conc" format="ascii">
2.935780028163488e-02 2.935780028163459e-02 2.935780028163472e-02 
</DataArray>
</CellData>
</Piece>
</UnstructuredGrid>
</VTKFile>
