<?xml version="1.0"?>
<VTKFile type="UnstructuredGrid" version="0.1" byte_order="LittleEndian">
<UnstructuredGrid>
<Piece NumberOfPoints="714" NumberOfCells="1306">
<Points>
<DataArray type="Float64" NumberOfComponents="3" format="ascii">
0.000000000000000e+00 0.000000000000000e+00 0.000000000000000e+00 5.000000000000000e+00 0.000000000000000e+00 0.000000000000000e+00 5.000000000000000e+00 1.000000000000000e+00 0.000000000000000e+00 0.000000000000000e+00 1.000000000000000e+00 0.000000000000000e+00 9.999999999992801e-02 0.000000000000000e+00 0.000000000000000e+00 1.999999999998339e-01 0.000000000000000e+00 0.000000000000000e+00 2.999999999997341e-01 0.000000000000000e+00 0.000000000000000e+00 3.999999999996643e-01 0.000000000000000e+00 0.000000000000000e+00 4.999999999995944e-01 0.000000000000000e+00 0.000000000000000e+00 5.999999999995166e-01 0.000000000000000e+00 0.000000000000000e+00 6.999999999992880e-01 0.000000000000000e+00 0.000000000000000e+00 7.999999999989961e-01 0.000000000000000e+00 0.000000000000000e+00 8.999999999987042e-01 0.000000000000000e+00 0.000000000000000e+00 9.999999999984124e-01 0.000000000000000e+00 0.000000000000000e+00 1.099999999998120e+00 0.000000000000000e+00 0.000000000000000e+00 1.199999999997829e+00 0.000000000000000e+00 0.000000000000000e+00 1.299999999997537e+00 0.000000000000000e+00 0.000000000000000e+00 1.399999999997245e+00 0.000000000000000e+00 0.000000000000000e+00 1.499999999996953e+00 0.000000000000000e+00 0.000000000000000e+00 1.599999999996661e+00 0.000000000000000e+00 0.000000000000000e+00 1.699999999996369e+00 0.000000000000000e+00 0.000000000000000e+00 1.799999999996077e+00 0.000000000000000e+00 0.000000000000000e+00 1.899999999995785e+00 0.000000000000000e+00 0.000000000000000e+00 1.999999999995511e+00 0.000000000000000e+00 0.000000000000000e+00 2.099999999995593e+00 0.000000000000000e+00 0.000000000000000e+00 2.199999999995745e+00 0.000000000000000e+00 0.000000000000000e+00 2.299999999995897e+00 0.000000000000000e+00 0.000000000000000e+00 2.399999999996049e+00 0.000000000000000e+00 0.000000000000000e+00 2.499999999996201e+00 0.000000000000000e+00 0.000000000000000e+00 2.599999999996353e+00 0.000000000000000e+00 0.000000000000000e+00 2.699999999996505e+00 0.000000000000000e+00 0.000000000000000e+00 2.799999999996657e+00 0.000000000000000e+00 0.000000000000000e+00 2.899999999996809e+00 0.000000000000000e+00 0.000000000000000e+00 2.999999999996961e+00 0.000000000000000e+00 0.000000000000000e+00 3.099999999997114e+00 0.000000000000000e+00 0.000000000000000e+00 3.199999999997265e+00 0.000000000000000e+00 0.000000000000000e+00 3.299999999997417e+00 0.000000000000000e+00 0.000000000000000e+00 3.399999999997569e+00 0.000000000000000e+00 0.000000000000000e+00 3.499999999997721e+00 0.000000000000000e+00 0.000000000000000e+00 3.599999999997873e+00 0.000000000000000e+00 0.000000000000000e+00 3.699999999998025e+00 0.000000000000000e+00 0.000000000000000e+00 3.799999999998176e+00 0.000000000000000e+00 0.000000000000000e+00 3.899999999998329e+00 0.000000000000000e+00 0.000000000000000e+00 3.999999999998481e+00 0.000000000000000e+00 0.000000000000000e+00 4.099999999998633e+00 0.000000000000000e+00 0.000000000000000e+00 4.199999999998784e+00 0.000000000000000e+00 0.000000000000000e+00 4.299999999998937e+00 0.000000000000000e+00 0.000000000000000e+00 4.399999999999088e+00 0.000000000000000e+00 0.000000000000000e+00 4.499999999999240e+00 0.000000000000000e+00 0.000000000000000e+00 4.599999999999393e+00 0.000000000000000e+00 0.000000000000000e+00 4.699999999999545e+00 0.000000000000000e+00 0.000000000000000e+00 4.799999999999696e+00 0.000000000000000e+00 0.000000000000000e+00 4.899999999999848e+00 0.000000000000000e+00 0.000000000000000e+00 5.000000000000000e+00 9.999999999981467e-02 0.000000000000000e+00 5.000000000000000e+00 1.999999999995579e-01 0.000000000000000e+00 5.000000000000000e+00 2.999999999992664e-01 0.000000000000000e+00 5.000000000000000e+00 3.999999999989749e-01 0.000000000000000e+00 5.000000000000000e+00 4.999999999986943e-01 0.000000000000000e+00 5.000000000000000e+00 5.999999999989468e-01 0.000000000000000e+00 5.000000000000000e+00 6.999999999992100e-01 0.000000000000000e+00 5.000000000000000e+00 7.999999999994734e-01 0.000000000000000e+00 5.000000000000000e+00 8.999999999997368e-01 0.000000000000000e+00 4.899999999999999e+00 1.000000000000000e+00 0.000000000000000e+00 4.800000000000000e+00 1.000000000000000e+00 0.000000000000000e+00 4.699999999999999e+00 1.000000000000000e+00 0.000000000000000e+00 4.600000000000000e+00 1.000000000000000e+00 0.000000000000000e+00 4.499999999999999e+00 1.000000000000000e+00 0.000000000000000e+00 4.399999999999999e+00 1.000000000000000e+00 0.000000000000000e+00 4.299999999999999e+00 1.000000000000000e+00 0.000000000000000e+00 4.199999999999998e+00 1.000000000000000e+00 0.000000000000000e+00 4.099999999999999e+00 1.000000000000000e+00 0.000000000000000e+00 3.999999999999999e+00 1.000000000000000e+00 0.000000000000000e+00 3.899999999999999e+00 1.000000000000000e+00 0.000000000000000e+00 3.799999999999999e+00 1.000000000000000e+00 0.000000000000000e+00 3.699999999999998e+00 1.000000000000000e+00 0.000000000000000e+00 3.599999999999999e+00 1.000000000000000e+00 0.000000000000000e+00 3.499999999999999e+00 1.000000000000000e+00 0.000000000000000e+00 3.399999999999999e+00 1.000000000000000e+00 0.000000000000000e+00 3.299999999999999e+00 1.000000000000000e+00 0.000000000000000e+00 3.199999999999998e+00 1.000000000000000e+00 0.000000000000000e+00 3.099999999999999e+00 1.000000000000000e+00 0.000000000000000e+00 2.999999999999999e+00 1.000000000000000e+00 0.000000000000000e+00 2.899999999999999e+00 1.000000000000000e+00 0.000000000000000e+00 2.799999999999999e+00 1.000000000000000e+00 0.000000000000000e+00 2.699999999999999e+00 1.000000000000000e+00 0.000000000000000e+00 2.599999999999999e+00 1.000000000000000e+00 0.000000000000000e+00 2.500000000000000e+00 1.000000000000000e+00 0.000000000000000e+00 2.399999999999999e+00 1.000000000000000e+00 0.000000000000000e+00 2.299999999999999e+00 1.000000000000000e+00 0.000000000000000e+00 2.199999999999999e+00 1.000000000000000e+00 0.000000000000000e+00 2.100000000000000e+00 1.000000000000000e+00 0.000000000000000e+00 2.000000000000000e+00 1.000000000000000e+00 0.000000000000000e+00 1.899999999999999e+00 1.000000000000000e+00 0.000000000000000e+00 1.799999999999999e+00 1.000000000000000e+00 0.000000000000000e+00 1.699999999999999e+00 1.000000000000000e+00 0.000000000000000e+00 1.599999999999999e+00 1.000000000000000e+00 0.000000000000000e+00 1.500000000000000e+00 1.000000000000000e+00 0.000000000000000e+00 1.399999999999999e+00 1.000000000000000e+00 0.000000000000000e+00 1.299999999999999e+00 1.000000000000000e+00 0.000000000000000e+00 1.199999999999999e+00 1.000000000000000e+00 0.000000000000000e+00 1.100000000000000e+00 1.000000000000000e+00 0.000000000000000e+00 9.999999999999991e-01 1.000000000000000e+00 0.000000000000000e+00 8.999999999999995e-01 1.000000000000000e+00 0.000000000000000e+00 7.999999999999998e-01 1.000000000000000e+00 0.000000000000000e+00 7.000000000000002e-01 1.000000000000000e+00 0.000000000000000e+00 5.999999999999996e-01 1.000000000000000e+00 0.000000000000000e+00 4.999999999999991e-01 1.000000000000000e+00 0.000000000000000e+00 3.999999999999995e-01 1.000000000000000e+00 0.000000000000000e+00 3.000000000000007e-01 1.000000000000000e+00 0.000000000000000e+00 1.999999999999993e-01 1.000000000000000e+00 0.000000000000000e+00 9.999999999999964e-02 1.000000000000000e+00 0.000000000000000e+00 0.000000000000000e+00 8.999999999995836e-01 0.000000000000000e+00 0.000000000000000e+00 7.999999999999998e-01 0.000000000000000e+00 0.000000000000000e+00 7.000000000006934e-01 0.000000000000000e+00 0.000000000000000e+00 6.000000000013869e-01 0.000000000000000e+00 0.000000000000000e+00 5.000000000020587e-01 0.000000000000000e+00 0.000000000000000e+00 4.000000000016644e-01 0.000000000000000e+00 0.000000000000000e+00 3.000000000012483e-01 0.000000000000000e+00 0.000000000000000e+00 2.000000000008322e-01 0.000000000000000e+00 0.000000000000000e+00 1.000000000004160e-01 0.000000000000000e+00 7.477570327540725e-01 4.905967956478702e-01 0.000000000000000e+00 1.346210646643281e+00 4.806066422083806e-01 0.000000000000000e+00 1.949496869330408e+00 5.032480558805372e-01 0.000000000000000e+00 4.449999999999997e+00 5.000000000000384e-01 0.000000000000000e+00 3.859142349610828e+00 5.103468031113156e-01 0.000000000000000e+00 3.246530027037640e+00 5.183101712757180e-01 0.000000000000000e+00 2.657531292711257e+00 5.037429884868682e-01 0.000000000000000e+00 3.824015840967434e-01 6.064457502813875e-01 0.000000000000000e+00 2.306343155343502e+00 6.315316747431162e-01 0.000000000000000e+00 1.049999999998266e+00 3.374999999994497e-01 0.000000000000000e+00 1.641930697057102e+00 3.436055112169133e-01 0.000000000000000e+00 4.150000000000006e+00 6.625000000000185e-01 0.000000000000000e+00 3.552784161359181e+00 6.642488388863971e-01 0.000000000000000e+00 2.940292465243163e+00 6.575992780735344e-01 0.000000000000000e+00 1.641237689750194e+00 6.703960699373966e-01 0.000000000000000e+00 1.050000000000000e+00 6.706367924525535e-01 0.000000000000000e+00 2.960517759676693e+00 3.261740577967960e-01 0.000000000000000e+00 3.551899302943298e+00 3.210887133285832e-01 0.000000000000000e+00 4.150779393876139e+00 3.209867287821391e-01 0.000000000000000e+00 2.213980362532827e+00 3.194901812685164e-01 0.000000000000000e+00 4.927283029162088e-01 3.252862896001115e-01 0.000000000000000e+00 4.696684455724628e+00 3.145438084075651e-01 0.000000000000000e+00 4.690990908683984e+00 6.962960281446974e-01 0.000000000000000e+00 2.487221901830106e+00 2.763334294511438e-01 0.000000000000000e+00 6.215262983536076e-01 7.328515730233995e-01 0.000000000000000e+00 2.065768881873406e+00 7.342557316219342e-01 0.000000000000000e+00 2.543072460766750e+00 7.257064952909391e-01 0.000000000000000e+00 8.105176211436336e-01 2.535517621144286e-01 0.0000000000000
[...]
<CellData Scalars="A_conc,As-lin_conc,B_conc,Bs-lang_conc,C_conc,Cs-freund_conc," Vectors="">
<DataArray type="Float64" Name="A_conc" format="ascii">
2.118058572719660e-07 1.028365463329136e-01 7.715240343003608e-18 3.812517210581204e-07 7.142393082562758e-02 7.006078753084410e-06 1.639673687707919e-05 3.619340416932186e-02 9.469075944987554e-02 3.967193619248694e-07 1.976039148880411e-16 3.105857958594672e-08 5.777535121935690e-08 3.076829193323600e-15 7.326774229027679e-07 2.210248622799359e-07 9.181619238457380e-07 9.621098682689631e-07 2.707013073806082e-07 6.305214690351644e-07 1.370500984934385e-09 5.867264330852831e-08 3.057777139536199e-08 3.057519287149187e-08 2.958201046674854e-07 1.732470290985532e-08 1.234133943558917e-07 6.228514419870293e-02 4.241922116057640e-07 7.038761844043326e-07 2.258527884293857e-08 4.703427690287272e-07 3.225356857520554e-09 0.000000000000000e+00 7.432454198823778e-07 8.614183613245557e-02 1.134028430522201e-08 2.635009588183011e-09 2.169886810514170e-08 7.474353339377901e-02 8.529145535332348e-14 9.362733833299923e-08 0.000000000000000e+00 4.807926888861303e-13 4.750373548211391e-10 5.182181397870544e-06 1.060472999787405e-06 4.971958470007179e-03 1.407815995341134e-07 1.823773258569002e-06 9.391764963672906e-02 1.796323014752169e-07 3.904971254052368e-08 8.161544181956544e-02 9.160688144811015e-02 1.094554390805474e-01 2.566737030005682e-09 3.307094285562337e-02 5.734906366178921e-02 7.806471995730692e-07 8.498974561630788e-11 3.466788645815780e-02 4.320342590666664e-04 4.804260354575328e-11 1.788298184070969e-10 3.579393400892476e-05 4.208529005221668e-03 7.142772273472946e-10 9.972468954630333e-02 5.310471333608709e-02 4.110779985647681e-10 0.000000000000000e+00 1.756274456995651e-08 1.025160314208739e-06 7.331104239239932e-03 5.343523252209723e-07 7.753248941790279e-08 5.391181925936838e-06 1.333672433484147e-02 8.367392863048041e-11 1.383315646727417e-07 5.894924987938472e-07 1.552350123604154e-09 9.566557913698709e-13 1.286471500721844e-03 8.438213250120345e-08 1.780213737726703e-06 1.003185384247426e-02 1.011945663292456e-07 7.972646879304537e-10 7.864703062167728e-09 1.615947267768170e-03 4.549222374220036e-02 7.777687376904546e-04 1.776694761301121e-06 6.069905316598203e-07 7.207085392111838e-04 3.736756318354503e-02 2.458526897293819e-19 5.728624785161501e-02 3.572832131430184e-13 1.182066759695392e-07 1.250358620711445e-07 7.719102088860701e-04 5.738107690545903e-08 8.692647920986053e-03 7.126296770609863e-07 6.432526385280082e-02 5.225198941227460e-08 1.165361106589416e-02 1.248598060097239e-10 1.346071337291109e-07 1.223451691073786e-07 4.779705556516086e-09 3.669864606265052e-07 4.030883149954399e-02 7.548911641309090e-07 3.193227590015192e-09 1.301279730362113e-10 6.202159323223157e-02 1.612347784818032e-10 7.550245016144479e-08 8.390696883526443e-13 2.190228250628261e-07 5.877694648317828e-02 1.342390192096387e-09 1.651997874969063e-16 7.566545887777903e-08 4.429173623449015e-02 2.060871161086476e-02 7.422997550727118e-07 8.378673109088874e-10 1.390073193491218e-02 2.453273003349847e-02 9.147618255327571e-05 1.829707305977226e-10 7.905448009415528e-07 1.066038108559183e-01 3.579694050025043e-03 5.370060035578024e-05 5.033453310613239e-09 5.758954648546542e-02 2.535752812177014e-07 1.116362097053394e-11 3.935405967420861e-10 7.462561447603210e-11 8.263731771877716e-03 4.124032524558306e-09 4.902650987915869e-06 1.116248916420678e-02 3.834836290273910e-09 2.212307529718756e-06 9.155593711573767e-05 2.519303827813010e-03 9.054806860099042e-11 4.051230027263268e-11 1.546214327581623e-08 4.526856579340008e-02 2.003398350540767e-08 2.241537047518382e-11 1.074910627444100e-06 1.908204682038696e-02 8.007492866410918e-13 7.984712470253698e-21 1.574997565780045e-12 2.101355279704241e-07 1.704425771078601e-07 8.947934492320285e-11 4.758271741888810e-11 2.590871619624162e-11 2.602867759961540e-07 3.439371117745523e-08 1.541879171306434e-10 1.736454798822791e-11 8.132074387075992e-10 3.029817137879623e-04 3.202903764569634e-02 1.571984103886533e-20 8.829312589557474e-12 1.238957541348909e-10 5.940349241630248e-04 3.667113866501652e-02 7.783393493704670e-02 2.951203549059553e-10 8.221685284940529e-12 2.477555995192362e-08 1.058890909350997e-07 3.248584405596844e-10 2.014691139259531e-18 2.080791258866347e-09 1.873571679403356e-08 5.375700894355382e-08 8.367373310059885e-07 3.803219580631992e-07 1.868675372057472e-07 2.653354923376583e-09 3.220059259761364e-07 2.015448181548802e-07 0.000000000000000e+00 0.000000000000000e+00 1.590566816071986e-07 7.897472778968813e-12 1.196565289584747e-01 8.454315720511804e-10 2.136333947789102e-04 3.006657704877354e-02 5.008366075299474e-12 4.834270145143636e-09 6.240404213683287e-07 8.452876182005510e-02 1.115134276267019e-09 9.594881566099630e-20 4.367615513124390e-05 2.445068473144818e-07 1.000340325953734e-06 1.843220138136440e-11 2.025990892497229e-07 5.672230356899300e-12 5.214381908321328e-07 2.758166677024847e-07 8.687261160649206e-08 6.760518782532784e-02 2.278562289598408e-09 1.271635738520812e-09 4.674587461156037e-09 1.144139675824884e-01 2.651256209074981e-07 3.281394784800698e-08 9.330419790483133e-14 4.753779074503174e-09 5.729289410271672e-09 1.708479431926834e-07 2.783129962083821e-07 6.433004744719897e-08 1.930884808743478e-04 2.283226521284706e-03 5.610027249540744e-03 2.640049360379072e-05 2.167789598221216e-07 9.972013985973955e-13 7.931144517742817e-03 1.092772516995536e-08 6.405134903626133e-06 6.071587473687306e-12 1.244586258794532e-09 8.772926670394480e-04 3.999200214368857e-02 3.921837646576461e-12 1.187642479818808e-06 4.849227275160560e-13 3.874858697939723e-11 2.291859612784240e-10 5.070820610646377e-10 8.672794438571876e-04 3.960445028736738e-02 3.969205272804123e-02 4.501480403392707e-07 0.000000000000000e+00 8.803191656168867e-07 5.123195932109219e-14 7.094968268721882e-10 1.982906118298761e-09 2.197125375754239e-03 1.381482779952388e-03 2.227302308343828e-08 8.974710745193573e-07 1.565290468458065e-07 4.386557150413675e-07 1.859175016545183e-09 4.919686134316513e-13 2.730438221339335e-11 9.575156390572565e-10 1.153163163099189e-02 2.284631409047747e-06 3.751317413060217e-08 6.764462164620012e-07 8.217354739201724e-08 5.848306566449918e-07 5.535306617618700e-08 6.102915870362781e-08 2.063376498631345e-10 1.710172624623848e-02 2.254279538526460e-11 1.049939037145550e-06 6.354267153148274e-02 2.256291073367428e-08 4.808633499810044e-08 9.859218176593312e-09 8.595040514196321e-05 2.691611901192749e-03 1.808450532437067e-09 1.992868167398523e-11 4.753871016272753e-10 5.154502405714105e-10 8.734159883638343e-08 2.498488729211762e-10 2.711163026059895e-09 8.115621922950721e-07 5.031233824822920e-13 1.701502537851105e-11 4.168081512430410e-09 1.322634927412622e-10 1.587004062879634e-03 4.420853641237455e-02 2.909701495797866e-08 7.876431273969622e-07 7.442242266822386e-07 5.965753567068423e-02 2.260666516548443e-03 1.029799902705331e-08 3.494326464879448e-03 4.034122261988641e-08 4.172561952810991e-12 2.505437910934935e-09 2.452843350878138e-11 5.212318909159965e-08 3.092929764153203e-13 3.272564378027430e-13 9.481974228861770e-02 3.321073000490744e-02 2.955881260977928e-02 5.528321197631572e-09 6.219740375553389e-09 1.130727946129703e-07 2.607396598670838e-10 8.485147933190157e-04 4.352480322741426e-04 4.833594040049108e-08 2.667787830707864e-09 5.075307047618655e-07 1.072847371406090e-01 1.047227095491432e-01 1.052164872362243e-01 1.070099126226663e-01 5.504232399601905e-02 6.508745747384556e-07 4.187037972978074e-07 6.648664108279298e-10 1.365340647039624e-04 1.565175464093225e-10 3.221244626691440e-12 2.900275552259888e-07 2.280114420781309e-17 7.970050060412007e-02 3.018495241970159e-15 5.603149747579060e-07 2.550778070626069e-10 3.110379413756891e-14 1.536344906536549e-07 1.306132997174368e-09 1.161225997205139e-01 8.730014338116930e-19 5.964877993456032e-08 2.165599166190980e-13 1.224429679476188e-06 3.764004457810480e-02 6.091366608822706e-10 1.203614512655442e-09 3.077400570327630e-07 2.637895525516866e-09 9.865122934957925e-07 9.461813636146475e-12 1.017084774023075e-06 2.349361327733376e-02 4.513069815091299e-07 2.496974002145682e-02 2.061658574863134e-09 1.563058637204831e-03 1.932331001015159e-04 9.847508171776524e-02 1.200216895568062e-01 1.200216921444754e-01 6.965712081131928e-02 6.900331462280854e-02 8.817702164919324e-10 1.127629221044427e-09 4.370702950576200e-02 5.802361437862828e-10 3.193084504737088e-02 1.137628421827258e-10 9.777775905482622e-02 8.644455994118064e-07 1.993469511081967e-07 3.737036177392658e-03 4.773015294550905e-08 1.086834196596172e-10 1.468703146693010e-09 0.000000000000000e+00 2.365616777096924e-13 6.797177541284828e-02 9.676097425883028e-02 1.711499817152589e-11 4.477304910074884e-08 1.616359496997141e-10 4.296702268304725e-09 8.598348560246908e-07 4.707064111648260e-07 1.589258363283955e-02 1.163885185585648e-02 1.722610538491832e-08 2.565184139559124e-10 9.092283782898156e-02 1.552763943450152e-10 3.892225174337996e-07 3.473985575174267e-07 3.576840794386883e-07 1.943386624244596e-08 6.598833081181571e-06 8.211133970167214e-02 1.366659167620267e-02 5.240006373654634e-12 1.197574395885844e-01 8.588245347229657e-12 8.907557943604464e-08 2.725966719195004e-02 9.321651771215385e-02 3.030435529254731e-08 6.126490883492013e-08 2.540437339207406e-04 3.974452847200174e-13 8.849748638443393e-09 2.715002594866788e-06 1.087178822553485e-02 5.869269947385983e-02 1.174545508058925e-09 3.265350114028211e-08 1.048511525597530e-09 6.102716419777672e-10 1.372945616983333e-07 4.049935189247629e-03 5.530175666465080e-02 2.638463384457482e-07 7.105063849543576e-10 3.604367586319550e-08 2.894502446789621e-03 5.139602648915976e-02 2.822134910474181e-07 1.170030703602711e-10 1.476493262780258e-03 2.058186475639311e-04 2.090205932286627e-10 3.947889826239188e-04 1.490049584990141e-03 2.096203258833077e-02 3.490259970102468e-05 2.948548273978213e-02 2.040412654882556e-04 5.394346843527277e-21 1.038043880274476e-06 1.119631153261030e-01 3.639285980024122e-19 2.005771834388187e-08 1.777270516942208e-05 1.079490108092227e-01 1.669734350564001e-02 1.312778609606765e-05 2.367223998793522e-12 5.310317063824346e-08 0.000000000000000e+00 9.756252162398474e-11 7.832111838347680e-02 9.413590560242144e-02 1.012163674709609e-06 0.000000000000000e+00 7.604166665147691e-09 3.598027064963077e-07 1.085625846355207e-01 1.051586874478787e-01 8.193684412126792e-08 3.126667803246863e-02 5.255365226965001e-14 4.190130668093225e-14 3.818537501984864e-11 9.201176942079700e-02 8.637433448862428e-02 9.044590931481794e-02 8.945419973879602e-08 6.980454009763302e-08 3.175104976251807e-09 0.000000000000000e+00 5.498199891421952e-02 3.161665330322184e-08 6.971483949940881e-02 3.436456778291436e-04 1.760370669266193e-10 7.465515397890391e-12 4.259661057570754e-02 8.141963313472736e-04 4.258844514045324e-04 2.728708558668795e-07 1.453425384940474e-02 1.048070193244167e-01 7.392324150301059e-02 2.579714957008768e-02 3.525763551881238e-02 4.683032239322976e-04 5.676838276214917e-17 6.344101852706975e-02 1.157354176579025e-08 7.460702340022055e-02 5.114069058133166e-10 2.899308716467843e-07 3.533153379545117e-07 1.303284422133650e-02 4.621007044570351e-06 3.649042554629452e-03 9.343203892772573e-05 3.728527731479365e-08 4.848909510412352e-10 0.000000000000000e+00 6.465720327644402e-02 8.430431243653870e-07 1.257846424306756e-21 7.349142012283236e-07 1.464137244597493e-09 1.968128475096471e-07 2.179472328876098e-02 5.279251876684171e-02 7.557475585003273e-02 7.704982545201285e-02 5.113675210226463e-07 1.113516781591855e-06 3.981280208224578e-10 9.898141689123730e-11 8.323626412391968e-02 6.720905672270991e-02 7.384915944797734e-08 3.492680656995059e-02 2.052458354219138e-10 8.635225133976529e-02 1.209585945486090e-09 1.844500828216721e-07 7.103539884342137e-02 4.352134859040317e-02 4.099978731551299e-15 4.357398895369521e-06 3.643487327264641e-13 4.044683641487862e-07 2.548699536785379e-07 6.428942865454226e-02 2.381792284983629e-06 4.512540513480876e-02 1.788921658292571e-11 1.611612197068380e-03 4.628393532213954e-09 1.532333130243795e-10 9.437925888658784e-12 7.352229400269815e-02 5.388663752275226e-14 5.022434925873318e-07 1.247707408612752e-06 3.248718103988802e-08 6.809536451780150e-09 1.443053596476289e-02 8.172596568352165e-06 6.281426741264315e-07 5.837109894292830e-02 8.842400498498618e-02 6.633730776496669e-07 5.599719707616212e-07 1.707363604041632e-09 4.994761341748977e-08 1.846433401673759e-08 8.540796152604948e-08 4.594051718225246e-03 2.961032782944850e-08 2.291503565604727e-02 1.235355466001825e-06 1.000229391820591e-01 8.576662424406342e-07 3.564104634469573e-08 7.856383613060759e-02 7.585216768882148e-02 9.130418112418038e-10 5.996348808306778e-02 6.291595367142531e-02 2.891304891709301e-10 8.561411885511910e-12 1.442827977048460e-03 1.627109729600213e-07 3.253851817713772e-15 9.849768825051022e-02 9.440158899521336e-02 4.623891789414226e-08 1.190024504294434e-08 3.545671052298294e-04 0.000000000000000e+00 1.066933223567788e-15 5.956935280536903e-09 4.901964526413574e-02 3.095252152306756e-09 1.944868300747434e-09 1.731878785826382e-02 1.760394944908787e-09 2.008245763603150e-02 1.081279334364674e-01 1.039784074731231e-01 2.110971061827236e-08 2.405344651934428e-06 1.068376842500648e-06 4.504881341547249e-10 3.353869853599630e-09 9.960489020198589e-03 1.301225046930941e-06 1.798158300705974e-06 9.767467497277210e-02 1.535362649059404e-11 4.121573604900868e-09 4.235635613939387e-10 1.989892020325716e-16 2.663222494634313e-08 1.161590664622965e-06 2.727235403538596e-10 3.450016062533913e-08 6.313692589252391e-02 3.806449980731713e-08 1.044496997793956e-08 0.000000000000000e+00 4.385822007280400e-09 6.886249983033910e-10 2.936894212040831e-02 7.001828934774939e-15 1.330213113594553e-10 5.820738838240410e-07 4.878044152933100e-02 1.343149524961044e-10 9.700446977625717e-23 6.169395863247064e-09 1.035797326806595e-06 4.189029183932463e-07 3.350939334075948e-02 2.993971084189872e-02 6.254050137408291e-10 0.000000000000000e+00 1.069756663591665e-02 1.843644183617263e-07 1.002376639205816e-09 3.967190516564952e-04 1.721753045904355e-08 2.795073567970026e-07 6.126411011063296e-03 1.282879439666697e-08 1.614737937398852e-08 9.051426580016989e-09 7.796278138856083e-03 1.211985750634636e-05 1.814514077548215e-11 3.265235728241981e-15 2.981827984220663e-09 1.097747857397271e-08 3.050836530946932e-07 7.337298915168335e-02 1.568705347874413e-06 2.802656041517394e-08 1.340819955037788e-02 5.624359832729083e-06 3.018483430420147e-07 5.096859224406340e-02 4.810501306309871e-02 3.495335651777680e-08 2.028325013133379e-08 3.652252856535416e-02 4.362282372281458e-07 5.191614690647409e-09 3.553162055207767e-09 1.035009808308986e-09 0.000000000000000e+00 5.703324117967061e-13 0.000000000000000e+00 6.013968094448438e-09 2.768186049737797e-07 4.019497003310867e-02 3.703404155668179e-02 1.509355337303093e-10 2.375076643090939e-09 2.725534363657057e-09 3.145232192083501e-10 8.618736374611382e-08 1.890995643527380e-08 2.008959111023779e-11 5.457098287631838e-10 1.155833310782774e-10 2.339400966132687e-03 1.113384203453710e-06 6.905139824723355e-13 8.323035687165418e-02 6.475035020383310e-07 1.167705468484950e-01 1.161831597070317e-01 2.101201908978922e-12 1.114012955093951e-06 2.338598774213630e-04 1.202938848490595e-04 5.873359366186390e-10 5.867313957148965e-09 5.655779838509224e-09 9.583201219087609e-07 9.905060688699088e-09 8.466850539087878e-03 2.600792575973601e-16 5.312214788876428e-02 2.037022666453708e-10 1.122199050055187e-01 1.164877599704392e-01 1.166071846087337e-01 1.123437046911472e-01 1.108052973611476e-01 1.114084300288024e-01 5.092546377434254e-08 7.494972808996943e-03 2.057844624804153e-09 1.529635057606684e-09 7.744516556490377e-09 2.904859857464263e-12 5.683262172617428e-07 5.345129527599355e-09 7.840777590374004e-02 3.034627349951317e-12 1.490607438951074e-08 1.991642546290566e-07 2.110423535116803e-07 5.934109833727583e-03 3.981464330090681e-05 1.388688732570205e-06 1.149325383517165e-07 5.737823947693063e-08 4.115553472827701e-15 4.690268638598508e-10 3.147335637403482e-07 1.244337775543035e-09 3.685733142903093e-10 6.927201478432748e-08 2.107861361957859e-02 5.607345220047381e-09 4.359698165601827e-05 3.565564193687343e-07 9.469740978684912e-09 3.739139537125029e-10 5.091321131721822e-08 1.150071299772951e-06 3.158375769395331e-03 6.609093832801967e-08 1.643682890278599e-08 6.772154218806181e-08 2.298101286897503e-08 2.494004905853778e-10 2.121896721264943e-02 1.127036486261876e-08 4.471235558532524e-07 1.793477049277627e-09 1.211925919935145e-01 1.211925929360661e-01 1.671430372976506e-09 5.396114380053935e-02 1.307415560137643e-07 2.181681024085072e-07 2.139679024858783e-07 1.191265461921969e-02 1.199202769139006e-08 1.960448572514591e-06 1.262696331979036e-06 1.108102616865021e-04 1.162142813779006e-01 1.162142842073536e-01 5.645942251433300e-03 7.829534722305009e-02 7.376673040069960e-02 6.175958076428435e-02 4.153415614332041e-07 4.154934810044132e-10 8.689403035797512e-02 8.252776732010866e-02 5.400032478341928e-09 2.405782516433635e-10 2.699972688279526e-07 2.164529715712378e-10 1.234376436569388e-10 7.681180839608642e-02 7.993356287234325e-09 1.115386262844216e-01 1.116184439883917e-01 5.114721664712115e-09 2.393665111268837e-08 2.469241928311915e-02 3.720001932357026e-08 8.374711522549098e-05 4.388199936040322e-09 2.732562502540979e-07 3.894220794023837e-02 4.811018929724015e-02 1.103666787937448e-06 9.349174635227177e-07 2.863295696640602e-11 2.988533307787682e-11 4.871388518949996e-12 2.980216816840179e-09 5.407326158799567e-02 2.982957155322267e-05 1.303678343514626e-05 2.004223615954093e-02 1.649226860019481e-02 2.072907200712753e-08 8.234604498271525e-07 7.922918030667924e-05 3.306565107725984e-08 3.532241480335298e-03 1.223192528775636e-08 9.251533889668223e-10 1.038024587073409e-03 4.095460315272093e-02 2.761565304807336e-02 1.498310206134326e-04 4.692435536060050e-09 3.944716594388993e-05 7.474971997314270e-09 4.351768474485034e-03 1.004598601888509e-06 1.771423296924623e-10 7.486798619707142e-07 2.981380380906511e-07 3.491285217649615e-02 4.670072842710079e-09 9.082875093780875e-02 7.228997799363418e-04 4.778014278955163e-02 5.202244306686900e-07 1.191974392286973e-08 6.076418860374332e-03 1.592880113531159e-05 4.527303405026819e-02 3.883918667501262e-12 4.524222204066599e-13 3.840957025045304e-07 1.091436367340853e-06 4.353432546892793e-09 1.407393010624380e-11 9.670126947206605e-02 9.984132224685720e-02 3.035708615074437e-07 2.139726154801587e-03 8.654605532974267e-09 9.164496636157334e-02 3.397752941040556e-10 5.087684188154957e-07 6.197758006468430e-07 8.111172938447231e-02 8.562148613692180e-02 4.835499494878035e-09 5.176918403731538e-10 4.813627002043751e-07 5.960373351563870e-03 1.167751457768295e-07 1.053419296854432e-07 7.262250848734566e-04 2.721132821579800e-10 3.505579222029866e-12 1.439933327197322e-08 0.000000000000000e+00 8.660688298690096e-02 1.326713418121395e-11 0.000000000000000e+00 1.084749093159782e-06 9.982950907060197e-02 1.118147211824220e-01 1.163429338505131e-01 8.500834769485675e-03 1.976549359319840e-11 4.333614463058287e-19 9.167251186881205e-18 5.201609786272454e-10 3.319273203365160e-02 3.986146126141785e-04 5.750333609491447e-07 1.626406777333696e-06 1.797835516724831e-07 4.439082594531622e-08 7.267479519685659e-07 1.136980052861248e-07 3.259334838246123e-07 4.090607726813008e-10 8.624827484077697e-12 8.273007456574063e-10 0.000000000000000e+00 4.687208687479458e-08 3.973615877340829e-05 2.118195901360964e-02 3.723903459805409e-12 7.376379358147789e-12 1.823323922187029e-08 4.139231566743540e-02 0.000000000000000e+00 8.804473344409345e-03 5.004141470540248e-14 7.006982367509495e-13 7.582469142195393e-13 2.210886390040749e-03 9.667646576451190e-02 0.000000000000000e+00 0.000000000000000e+00 1.698990126685267e-06 7.542941391509807e-02 9.547669891386903e-02 1.8503