<?xml version="1.0"?>
<VTKFile type="UnstructuredGrid" version="0.1" byte_order="LittleEndian">
<UnstructuredGrid>
<Piece NumberOfPoints="714" NumberOfCells="1306">
<Points>
<DataArray type="Float64" NumberOfComponents="3" format="ascii">
0.000000000000000e+00 0.000000000000000e+00 0.000000000000000e+00 5.000000000000000e+00 0.000000000000000e+00 0.000000000000000e+00 5.000000000000000e+00 1.000000000000000e+00 0.000000000000000e+00 0.000000000000000e+00 1.000000000000000e+00 0.000000000000000e+00 9.999999999992801e-02 0.000000000000000e+00 0.000000000000000e+00 1.999999999998339e-01 0.000000000000000e+00 0.000000000000000e+00 2.999999999997341e-01 0.000000000000000e+00 0.000000000000000e+00 3.999999999996643e-01 0.000000000000000e+00 0.000000000000000e+00 4.999999999995944e-01 0.000000000000000e+00 0.000000000000000e+00 5.999999999995166e-01 0.000000000000000e+00 0.000000000000000e+00 6.999999999992880e-01 0.000000000000000e+00 0.000000000000000e+00 7.999999999989961e-01 0.000000000000000e+00 0.000000000000000e+00 8.999999999987042e-01 0.000000000000000e+00 0.000000000000000e+00 9.999999999984124e-01 0.000000000000000e+00 0.000000000000000e+00 1.099999999998120e+00 0.000000000000000e+00 0.000000000000000e+00 1.199999999997829e+00 0.000000000000000e+00 0.000000000000000e+00 1.299999999997537e+00 0.000000000000000e+00 0.000000000000000e+00 1.399999999997245e+00 0.000000000000000e+00 0.000000000000000e+00 1.499999999996953e+00 0.000000000000000e+00 0.000000000000000e+00 1.599999999996661e+00 0.000000000000000e+00 0.000000000000000e+00 1.699999999996369e+00 0.000000000000000e+00 0.000000000000000e+00 1.799999999996077e+00 0.000000000000000e+00 0.000000000000000e+00 1.899999999995785e+00 0.000000000000000e+00 0.000000000000000e+00 1.999999999995511e+00 0.000000000000000e+00 0.000000000000000e+00 2.099999999995593e+00 0.000000000000000e+00 0.000000000000000e+00 2.199999999995745e+00 0.000000000000000e+00 0.000000000000000e+00 2.299999999995897e+00 0.000000000000000e+00 0.000000000000000e+00 2.399999999996049e+00 0.000000000000000e+00 0.000000000000000e+00 2.499999999996201e+00 0.000000000000000e+00 0.000000000000000e+00 2.599999999996353e+00 0.000000000000000e+00 0.000000000000000e+00 2.699999999996505e+00 0.000000000000000e+00 0.000000000000000e+00 2.799999999996657e+00 0.000000000000000e+00 0.000000000000000e+00 2.899999999996809e+00 0.000000000000000e+00 0.000000000000000e+00 2.999999999996961e+00 0.000000000000000e+00 0.000000000000000e+00 3.099999999997114e+00 0.000000000000000e+00 0.000000000000000e+00 3.199999999997265e+00 0.000000000000000e+00 0.000000000000000e+00 3.299999999997417e+00 0.000000000000000e+00 0.000000000000000e+00 3.399999999997569e+00 0.000000000000000e+00 0.000000000000000e+00 3.499999999997721e+00 0.000000000000000e+00 0.000000000000000e+00 3.599999999997873e+00 0.000000000000000e+00 0.000000000000000e+00 3.699999999998025e+00 0.000000000000000e+00 0.000000000000000e+00 3.799999999998176e+00 0.000000000000000e+00 0.000000000000000e+00 3.899999999998329e+00 0.000000000000000e+00 0.000000000000000e+00 3.999999999998481e+00 0.000000000000000e+00 0.000000000000000e+00 4.099999999998633e+00 0.000000000000000e+00 0.000000000000000e+00 4.199999999998784e+00 0.000000000000000e+00 0.000000000000000e+00 4.299999999998937e+00 0.000000000000000e+00 0.000000000000000e+00 4.399999999999088e+00 0.000000000000000e+00 0.000000000000000e+00 4.499999999999240e+00 0.000000000000000e+00 0.000000000000000e+00 4.599999999999393e+00 0.000000000000000e+00 0.000000000000000e+00 4.699999999999545e+00 0.000000000000000e+00 0.000000000000000e+00 4.799999999999696e+00 0.000000000000000e+00 0.000000000000000e+00 4.899999999999848e+00 0.000000000000000e+00 0.000000000000000e+00 5.000000000000000e+00 9.999999999981467e-02 0.000000000000000e+00 5.000000000000000e+00 1.999999999995579e-01 0.000000000000000e+00 5.000000000000000e+00 2.999999999992664e-01 0.000000000000000e+00 5.000000000000000e+00 3.999999999989749e-01 0.000000000000000e+00 5.000000000000000e+00 4.999999999986943e-01 0.000000000000000e+00 5.000000000000000e+00 5.999999999989468e-01 0.000000000000000e+00 5.000000000000000e+00 6.999999999992100e-01 0.000000000000000e+00 5.000000000000000e+00 7.999999999994734e-01 0.000000000000000e+00 5.000000000000000e+00 8.999999999997368e-01 0.000000000000000e+00 4.899999999999999e+00 1.000000000000000e+00 0.000000000000000e+00 4.800000000000000e+00 1.000000000000000e+00 0.000000000000000e+00 4.699999999999999e+00 1.000000000000000e+00 0.000000000000000e+00 4.600000000000000e+00 1.000000000000000e+00 0.000000000000000e+00 4.499999999999999e+00 1.000000000000000e+00 0.000000000000000e+00 4.399999999999999e+00 1.000000000000000e+00 0.000000000000000e+00 4.299999999999999e+00 1.000000000000000e+00 0.000000000000000e+00 4.199999999999998e+00 1.000000000000000e+00 0.000000000000000e+00 4.099999999999999e+00 1.000000000000000e+00 0.000000000000000e+00 3.999999999999999e+00 1.000000000000000e+00 0.000000000000000e+00 3.899999999999999e+00 1.000000000000000e+00 0.000000000000000e+00 3.799999999999999e+00 1.000000000000000e+00 0.000000000000000e+00 3.699999999999998e+00 1.000000000000000e+00 0.000000000000000e+00 3.599999999999999e+00 1.000000000000000e+00 0.000000000000000e+00 3.499999999999999e+00 1.000000000000000e+00 0.000000000000000e+00 3.399999999999999e+00 1.000000000000000e+00 0.000000000000000e+00 3.299999999999999e+00 1.000000000000000e+00 0.000000000000000e+00 3.199999999999998e+00 1.000000000000000e+00 0.000000000000000e+00 3.099999999999999e+00 1.000000000000000e+00 0.000000000000000e+00 2.999999999999999e+00 1.000000000000000e+00 0.000000000000000e+00 2.899999999999999e+00 1.000000000000000e+00 0.000000000000000e+00 2.799999999999999e+00 1.000000000000000e+00 0.000000000000000e+00 2.699999999999999e+00 1.000000000000000e+00 0.000000000000000e+00 2.599999999999999e+00 1.000000000000000e+00 0.000000000000000e+00 2.500000000000000e+00 1.000000000000000e+00 0.000000000000000e+00 2.399999999999999e+00 1.000000000000000e+00 0.000000000000000e+00 2.299999999999999e+00 1.000000000000000e+00 0.000000000000000e+00 2.199999999999999e+00 1.000000000000000e+00 0.000000000000000e+00 2.100000000000000e+00 1.000000000000000e+00 0.000000000000000e+00 2.000000000000000e+00 1.000000000000000e+00 0.000000000000000e+00 1.899999999999999e+00 1.000000000000000e+00 0.000000000000000e+00 1.799999999999999e+00 1.000000000000000e+00 0.000000000000000e+00 1.699999999999999e+00 1.000000000000000e+00 0.000000000000000e+00 1.599999999999999e+00 1.000000000000000e+00 0.000000000000000e+00 1.500000000000000e+00 1.000000000000000e+00 0.000000000000000e+00 1.399999999999999e+00 1.000000000000000e+00 0.000000000000000e+00 1.299999999999999e+00 1.000000000000000e+00 0.000000000000000e+00 1.199999999999999e+00 1.000000000000000e+00 0.000000000000000e+00 1.100000000000000e+00 1.000000000000000e+00 0.000000000000000e+00 9.999999999999991e-01 1.000000000000000e+00 0.000000000000000e+00 8.999999999999995e-01 1.000000000000000e+00 0.000000000000000e+00 7.999999999999998e-01 1.000000000000000e+00 0.000000000000000e+00 7.000000000000002e-01 1.000000000000000e+00 0.000000000000000e+00 5.999999999999996e-01 1.000000000000000e+00 0.000000000000000e+00 4.999999999999991e-01 1.000000000000000e+00 0.000000000000000e+00 3.999999999999995e-01 1.000000000000000e+00 0.000000000000000e+00 3.000000000000007e-01 1.000000000000000e+00 0.000000000000000e+00 1.999999999999993e-01 1.000000000000000e+00 0.000000000000000e+00 9.999999999999964e-02 1.000000000000000e+00 0.000000000000000e+00 0.000000000000000e+00 8.999999999995836e-01 0.000000000000000e+00 0.000000000000000e+00 7.999999999999998e-01 0.000000000000000e+00 0.000000000000000e+00 7.000000000006934e-01 0.000000000000000e+00 0.000000000000000e+00 6.000000000013869e-01 0.000000000000000e+00 0.000000000000000e+00 5.000000000020587e-01 0.000000000000000e+00 0.000000000000000e+00 4.000000000016644e-01 0.000000000000000e+00 0.000000000000000e+00 3.000000000012483e-01 0.000000000000000e+00 0.000000000000000e+00 2.000000000008322e-01 0.000000000000000e+00 0.000000000000000e+00 1.000000000004160e-01 0.000000000000000e+00 7.477570327540725e-01 4.905967956478702e-01 0.000000000000000e+00 1.346210646643281e+00 4.806066422083806e-01 0.000000000000000e+00 1.949496869330408e+00 5.032480558805372e-01 0.000000000000000e+00 4.449999999999997e+00 5.000000000000384e-01 0.000000000000000e+00 3.859142349610828e+00 5.103468031113156e-01 0.000000000000000e+00 3.246530027037640e+00 5.183101712757180e-01 0.000000000000000e+00 2.657531292711257e+00 5.037429884868682e-01 0.000000000000000e+00 3.824015840967434e-01 6.064457502813875e-01 0.000000000000000e+00 2.306343155343502e+00 6.315316747431162e-01 0.000000000000000e+00 1.049999999998266e+00 3.374999999994497e-01 0.000000000000000e+00 1.641930697057102e+00 3.436055112169133e-01 0.000000000000000e+00 4.150000000000006e+00 6.625000000000185e-01 0.000000000000000e+00 3.552784161359181e+00 6.642488388863971e-01 0.000000000000000e+00 2.940292465243163e+00 6.575992780735344e-01 0.000000000000000e+00 1.641237689750194e+00 6.703960699373966e-01 0.000000000000000e+00 1.050000000000000e+00 6.706367924525535e-01 0.000000000000000e+00 2.960517759676693e+00 3.261740577967960e-01 0.000000000000000e+00 3.551899302943298e+00 3.210887133285832e-01 0.000000000000000e+00 4.150779393876139e+00 3.209867287821391e-01 0.000000000000000e+00 2.213980362532827e+00 3.194901812685164e-01 0.000000000000000e+00 4.927283029162088e-01 3.252862896001115e-01 0.000000000000000e+00 4.696684455724628e+00 3.145438084075651e-01 0.000000000000000e+00 4.690990908683984e+00 6.962960281446974e-01 0.000000000000000e+00 2.487221901830106e+00 2.763334294511438e-01 0.000000000000000e+00 6.215262983536076e-01 7.328515730233995e-01 0.000000000000000e+00 2.065768881873406e+00 7.342557316219342e-01 0.000000000000000e+00 2.543072460766750e+00 7.257064952909391e-01 0.000000000000000e+00 8.105176211436336e-01 2.535517621144286e-01 0.0000000000000
[...]
<CellData Scalars="A_conc,As-lin_conc,B_conc,Bs-lang_conc,C_conc,Cs-freund_conc," Vectors="" Tensors="">
<DataArray type="Float64" Name="A_conc" format="ascii">
3.942886021859845e-01 6.528365463278922e-01 4.331182830516352e-01 3.690891090137597e-01 6.214238841582842e-01 4.995664012272606e-01 5.034847267141674e-01 5.861014369520382e-01 6.446907594424782e-01 3.728467847952910e-01 4.406650914865691e-01 3.998437961934675e-01 2.270524355120008e-01 4.451964791460395e-01 2.015258388857503e-01 3.989393436450984e-01 3.034439574069858e-01 3.072266669152554e-01 4.865947228774898e-01 3.364024630003066e-01 2.806591519314124e-01 2.326114300964868e-01 3.752701931463430e-01 3.770211204006920e-01 2.661387829595217e-01 3.729818295485338e-01 4.039391065866006e-01 6.122847184190759e-01 2.403546386031987e-01 1.846665249088614e-01 1.987203072960798e-01 2.728560735822650e-01 3.401890943507274e-01 3.953987693914685e-01 4.895664022343114e-01 6.361418356224140e-01 3.968410722497503e-01 2.074174600901872e-01 3.696300779485558e-01 6.247435185031657e-01 4.499125920477549e-01 2.706256210837437e-01 3.908575676580003e-01 3.633807234402703e-01 2.698119155875831e-01 5.007959279830604e-01 3.190624441413575e-01 5.465406323540336e-01 4.866725470583211e-01 4.964223773899194e-01 6.439176495107660e-01 2.442873599426432e-01 4.474189178965756e-01 6.316154395544993e-01 6.416068814309903e-01 6.594554390806605e-01 2.861405592746817e-01 5.829242803890181e-01 6.073481052885522e-01 1.906898333316656e-01 4.641546295346182e-01 5.845618785703457e-01 5.247536985287613e-01 3.385514299588365e-01 2.746580844474754e-01 5.099759073150092e-01 5.454352941654113e-01 3.195741805522200e-01 6.497246895449263e-01 6.031022450830716e-01 2.198868437420581e-01 4.165288641704057e-01 3.854259164786200e-01 3.161114673849165e-01 5.515406310576634e-01 4.916725462447343e-01 3.040307344167716e-01 5.011138281604557e-01 5.607724083007379e-01 2.251003968489606e-01 4.100426315348367e-01 4.898979422988289e-01 4.119569915113060e-01 4.547098014013316e-01 5.335674332761172e-01 3.085191410873936e-01 4.964022050988667e-01 5.559860408099945e-01 3.363926082633382e-01 3.286251367723972e-01 4.754044361190346e-01 5.345259612067322e-01 5.954731102616218e-01 5.289623173660225e-01 4.941149464965504e-01 3.332428889587968e-01 5.281465554780678e-01 5.872850531270345e-01 4.284297515633743e-01 6.072847179588357e-01 3.819352465662623e-01 3.344113127059584e-01 3.383968667508190e-01 5.296011860075741e-01 3.104498836442531e-01 5.537542149135739e-01 2.689696641125179e-01 6.143249695692823e-01 3.057822574162631e-01 5.583732891706139e-01 2.304865121523253e-01 1.907361082593035e-01 1.868917812736237e-01 3.464147809575412e-01 2.288541212073493e-01 5.902636487920696e-01 2.006892235882277e-01 2.114624702137011e-01 3.020211268777178e-01 6.120210206456553e-01 3.064006025122899e-01 3.587164793628330e-01 4.192864944906399e-01 1.960521019843277e-01 6.087758683554277e-01 2.576664925381985e-01 4.379717015957938e-01 2.692349681167808e-01 5.942677216416798e-01 5.695441569529748e-01 4.931549384722516e-01 3.026707144768033e-01 5.617998373758812e-01 5.738851346586715e-01 5.135805689733308e-01 2.354186392987237e-01 2.060711179116576e-01 6.566038108562532e-01 5.422006582234095e-01 5.111493350026282e-01 2.560602890645790e-01 6.075884261243377e-01 3.405741774774649e-01 3.507918975937055e-01 4.702536197791207e-01 4.665712856850561e-01 5.537709001172911e-01 3.103049787756625e-01 5.006926071605615e-01 5.582253229657383e-01 3.074069287671859e-01 4.977876966927634e-01 5.151355971188629e-01 5.397966589361706e-01 3.244120484775324e-01 4.643053839813954e-01 2.690006532435592e-01 5.952483840241813e-01 3.645887805813117e-01 4.594487986214508e-01 2.985918854660944e-01 5.678096262514477e-01 4.157734895527463e-01 4.249516454231020e-01 3.781112023857137e-01 2.061286610916205e-01 2.017620121557233e-01 3.631603609452038e-01 3.644530960610298e-01 4.604925352523855e-01 2.544772784554973e-01 2.042796546799133e-01 4.667204940616180e-01 4.625239168495767e-01 2.521439714656238e-01 5.219338902169459e-01 5.818394381955396e-01 4.236682257634624e-01 3.966958186787821e-01 2.901747682951653e-01 5.267201669000652e-01 5.865837739420473e-01 6.278339319229855e-01 3.564265424747858e-01 3.925385223948419e-01 2.759728956537008e-01 2.760129856313591e-01 3.599921751021063e-01 4.347925856255574e-01 2.026905233624601e-01 3.901045235031851e-01 1.746902935161219e-01 3.144464728488091e-01 2.311209200743203e-01 2.574117765522020e-01 2.237608505803376e-01 2.923376324491641e-01 2.496194576792115e-01 4.037704645993628e-01 4.068275376975807e-01 1.987900556755771e-01 3.447014014362781e-01 6.696565289585978e-01 3.667942039462292e-01 5.194954564753511e-01 5.798177768777290e-01 3.537560372255554e-01 3.344677441480356e-01 3.640897797580379e-01 6.345287611193215e-01 2.756492387449235e-01 4.290776817286363e-01 5.098220080325138e-01 3.926554772618803e-01 2.219844655935862e-01 3.655153626796471e-01 1.926554865710205e-01 3.590050708629443e-01 2.082819397970634e-01 4.901981339473239e-01 4.865635661820785e-01 6.176050746456017e-01 2.207335244132586e-01 3.766743453657401e-01 3.794731922812393e-01 6.644139675826952e-01 2.605521843266418e-01 3.805310813344247e-01 4.519072260089605e-01 2.281199281745170e-01 2.323687804117811e-01 2.534493843685576e-01 2.000784305012719e-01 3.631863154373495e-01 5.173892872007537e-01 5.371726203234273e-01 5.476285688067543e-01 5.076377172842375e-01 2.203983463706405e-01 4.565781102980013e-01 5.528565001173682e-01 3.122369106863943e-01 5.026566316141741e-01 3.346773256030282e-01 4.700771889537435e-01 5.293803457236842e-01 5.899414157442788e-01 4.563090697080505e-01 2.884208714042833e-01 4.524188440417718e-01 3.337905097742810e-01 2.796772159535464e-01 4.689755018957905e-01 5.301071849297939e-01 5.895627208403174e-01 5.896389388620049e-01 2.358602142030598e-01 3.988150129047175e-01 3.186346325669003e-01 4.468011904674013e-01 3.468164357200066e-01 3.930409035258267e-01 5.373076975634766e-01 5.330783371742199e-01 2.134443522699957e-01 3.398222791308274e-01 3.662343790925852e-01 2.110540795293152e-01 3.886742297720063e-01 4.556276441105040e-01 3.160151469572153e-01 3.070062298558728e-01 5.586657986977374e-01 4.975568214126104e-01 4.426972424655984e-01 3.586574394143430e-01 4.323067088578084e-01 2.170437464068890e-01 1.990663418763529e-01 2.025181448993549e-01 2.949464949094462e-01 5.655811436466814e-01 3.585110430126585e-01 2.253154619803841e-01 6.135424936174331e-01 2.727565488770218e-01 2.365934653870529e-01 2.366922792114896e-01 5.150946957255887e-01 5.406415122512449e-01 3.250076089142092e-01 3.113342948722491e-01 3.817841159724117e-01 3.865002299526062e-01 4.828577887510559e-01 1.800604717282631e-01 3.322425870996276e-01 2.050838179095674e-01 4.520211540613808e-01 4.015630251826280e-01 4.750292465608996e-01 3.705467736415600e-01 5.342633790254643e-01 5.941824225469408e-01 3.944941227307822e-01 1.956896005852487e-01 1.965261268976671e-01 6.096571009693933e-01 5.381333886232194e-01 4.790693713686160e-01 5.426404514232748e-01 4.827567588957380e-01 4.601996091660247e-01 1.965180888086673e-01 4.651545733551432e-01 3.919791633965956e-01 4.073676827280985e-01 4.111467680216052e-01 6.448197422746048e-01 5.830840877789578e-01 5.793358985667166e-01 2.834636337677987e-01 2.870762964619326e-01 2.102463316371485e-01 3.347198223829417e-01 5.304886395548616e-01 5.255602825546133e-01 2.885493707833248e-01 4.765641207208172e-01 3.099348752549355e-01 6.572847371408381e-01 6.547227095487306e-01 6.552164872359596e-01 6.570099126226399e-01 6.050405358829990e-01 3.569961810460273e-01 2.226935643176181e-01 2.486243337275192e-01 5.177611920760108e-01 3.785131702736023e-01 3.841482803395854e-01 2.155752778488415e-01 4.344718929214098e-01 6.297004974400189e-01 4.417190132123867e-01 2.245800449223618e-01 3.922671119119075e-01 4.457372201690032e-01 2.489948210111972e-01 4.149956576422419e-01 6.661225997206534e-01 4.298162355389195e-01 1.744839994547706e-01 3.781709627917776e-01 2.786474148127943e-01 5.875687374652958e-01 2.317048382080159e-01 2.366017046804722e-01 3.258882659180357e-01 2.436001611341034e-01 2.608557103323874e-01 3.449737761126231e-01 2.941161965368061e-01 5.728096257246810e-01 2.889764083618649e-01 5.744097233986811e-01 3.299228696138606e-01 5.355814584140208e-01 5.199691046709647e-01 6.484750817161132e-01 6.700216895570373e-01 6.700216921445943e-01 6.196570996403442e-01 6.190032439636142e-01 4.731854458108837e-01 2.715724517178358e-01 5.936901451445972e-01 2.837084264441578e-01 5.817792003833666e-01 3.431893880600055e-01 6.477777590540705e-01 3.240617188589878e-01 3.214411995636856e-01 5.433029397821875e-01 4.841278808714641e-01 4.201420694031625e-01 2.249948672474456e-01 4.027275421322766e-01 4.010565328826512e-01 6.179717216732242e-01 6.467609742550361e-01 3.618387075650111e-01 2.852975431631221e-01 4.374635881618800e-01 3.745896797218534e-01 3.035910467807764e-01 3.046307818224531e-01 5.639810948052111e-01 5.582227053906471e-01 1.907030159793078e-01 4.676507116905895e-01 6.409228377862111e-01 4.334605856226816e-01 1.857928029455321e-01 2.970957441643579e-01 2.278935884133527e-01 2.237457730960376e-01 5.010375408798522e-01 6.321113388909261e-01 5.611809165700943e-01 4.594595504505204e-01 6.697574395888097e-01 4.601405266380858e-01 2.892490869608085e-01 5.768790234018606e-01 6.432165177014925e-01 1.793000985143010e-01 2.419800388077819e-01 5.214383214639852e-01 3.867472254772690e-01 3.083517050376864e-01 4.971553783365313e-01 5.570959771281347e-01 6.086919762415033e-01 3.725011596307066e-01 4.041934893204953e-01 3.502568326475536e-01 3.198332923999068e-01 4.845401337771196e-01 5.438682165032216e-01 6.052997710880794e-01 3.851941244456767e-01 3.244973308905169e-01 4.805374802880659e-01 5.403895232327505e-01 6.013916056561925e-01 3.490354082138066e-01 3.295012534638484e-01 5.348953881131295e-01 5.200973309498008e-01 4.648336317077382e-01 5.223892852963645e-01 5.332450889554697e-01 5.700844921482424e-01 5.095682703706698e-01 5.791788525064503e-01 5.186642251011172e-01 4.281068877255250e-01 2.645608500039087e-01 6.619631153261673e-01 4.327650693712335e-01 1.951140256561738e-01 5.057716663105239e-01 6.579490108092801e-01 5.650844980974747e-01 5.045682712275902e-01 4.583546127350197e-01 3.586971862864533e-01 4.011190206523046e-01 2.853117799061340e-01 6.283211145978652e-01 6.441359055996905e-01 2.934201014705686e-01 4.220325689556851e-01 4.319262829170027e-01 3.638759502883741e-01 6.585625846356135e-01 6.551586874479216e-01 2.854957897907487e-01 5.810574464640379e-01 4.489937874931737e-01 4.502240073532795e-01 4.627473974275751e-01 6.420117694158225e-01 6.363743342756523e-01 6.404459092501609e-01 1.790622700365396e-01 3.530504505207244e-01 2.474888218463525e-01 4.243911903197031e-01 6.049798364267770e-01 1.786161784205520e-01 6.197147834879304e-01 5.227992059751607e-01 2.357605820839302e-01 3.399174952542490e-01 5.925687358064283e-01 5.283958148226828e-01 5.233755204467385e-01 3.038041084016322e-01 5.622490002945045e-01 6.548070193245845e-01 6.239232326497294e-01 5.753244083647846e-01 5.851416886777635e-01 5.245594683444765e-01 4.389857800686026e-01 6.134406293636755e-01 4.799812981909411e-01 6.246070137879287e-01 1.753908438869786e-01 2.601543733620392e-01 3.048026249569803e-01 5.604760990557038e-01 5.011856109376025e-01 5.421726192532199e-01 5.128828870598532e-01 3.302679155130940e-01 1.899068825775286e-01 3.955986124674774e-01 6.146571013798919e-01 3.590904384289899e-01 4.245472410272870e-01 2.540024557888523e-01 4.061413833993582e-01 2.944149122034601e-01 5.709246809631432e-01 6.027889101407087e-01 6.255747345624529e-01 6.270498158011339e-01 2.779412444258796e-01 2.834304142141982e-01 3.980397031909725e-01 2.969670702878446e-01 6.332362632048242e-01 6.172089766745318e-01 2.811039766872773e-01 5.848048123230265e-01 4.649566846346546e-01 6.363522508408440e-01 4.699566797340516e-01 1.887078769513291e-01 6.210353734568700e-01 5.934958802053284e-01 4.423480625366893e-01 4.992799253267862e-01 4.537186025550973e-01 2.662310973879771e-01 3.816333804404781e-01 6.142892046705657e-01 4.945664023582093e-01 5.951116763113128e-01 3.291726847797647e-01 5.349499504515485e-01 4.749054181243333e-01 2.055944462866529e-01 3.498199566118765e-01 6.235222733465364e-01 4.509186448136835e-01 3.636569158384583e-01 2.558568502664106e-01 3.824229107689185e-01 3.028344202038596e-01 5.620997504519002e-01 5.021716411890000e-01 3.537081542401719e-01 6.083699906602892e-01 6.384240047313391e-01 1.796666193943978e-01 1.752781944792797e-01 2.053980400711690e-01 3.877511452581819e-01 3.220501652328682e-01 4.852893172171157e-01 5.455733409282877e-01 2.929004796092801e-01 5.722231094706106e-01 3.410233010125329e-01 6.500229391791164e-01 3.370752893010960e-01 1.823842160878257e-01 6.285638321616054e-01 6.258521598894514e-01 1.921718895672547e-01 6.099628407319189e-01 6.129155037225027e-01 3.979386600096563e-01 4.608652669473423e-01 5.341412768482123e-01 3.751992615020517e-01 4.433159561357112e-01 6.484976882305613e-01 6.444015889296882e-01 4.147683127016283e-01 2.415834241568143e-01 5.228042480543473e-01 4.211315159809756e-01 4.432202516270825e-01 2.627516559386171e-01 5.990112512047310e-01 2.916313185413941e-01 2.998215554500792e-01 5.661001265016818e-01 2.965564955142920e-01 5.692421064533855e-01 6.581279334365535e-01 6.539784074727619e-01 4.136205803485922e-01 4.967220450713539e-01 2.184189672279423e-01 2.617983757380551e-01 1.897312910895417e-01 5.559078884681931e-01 3.111124833877799e-01 4.960125629461405e-01 6.476746749642767e-01 3.569115974465645e-01 3.551386503908256e-01 1.853477621492596e-01 4.368853641374799e-01 2.180578660422970e-01 2.745093123049861e-01 1.789244041945006e-01 1.835264479733291e-01 6.131365652173473e-01 2.286778734116879e-01 2.225636281025690e-01 4.115880255787434e-01 4.776024915925605e-01 2.880640984545288e-01 5.791503168124887e-01 4.472471515533272e-01 4.021368269925277e-01 3.779775935041133e-01 5.987723829628725e-01 3.477651255755815e-01 4.211175109056762e-01 2.493236880393905e-01 2.836465786123693e-01 2.842034670778344e-01 5.833694552126198e-01 5.796830181112737e-01 3.430542893673321e-01 3.918922826132509e-01 5.567722751843600e-01 3.105472468299401e-01 2.690207188009887e-01 5.247177274977521e-01 3.185765809687334e-01 4.891311520751684e-01 5.489868040542520e-01 2.272884063897808e-01 2.313811438170782e-01 2.167015365115631e-01 5.520082369256583e-01 5.040564953108081e-01 4.058805640686007e-01 4.454072668035212e-01 2.116597042404151e-01 2.077910215944822e-01 1.781434426756750e-01 6.233729807930114e-01 2.388932282080075e-01 2.805180234334460e-01 5.609078857007672e-01 5.010125625690192e-01 2.885088004621111e-01 6.009636376300433e-01 5.980982899411549e-01 3.264688801224626e-01 2.779258997539754e-01 5.864346011902347e-01 2.707781185563136e-01 3.511707526246258e-01 2.532321078205598e-01 1.952512353340357e-01 4.118688210039916e-01 4.518011884348693e-01 4.156583166706367e-01 3.622759012321369e-01 2.836548313989046e-01 5.901631751725297e-01 5.869798710007960e-01 4.693337700267236e-01 2.768043233606579e-01 2.804027183345205e-01 3.393285045840488e-01 4.376973404265215e-01 4.788043771257616e-01 3.701385262759259e-01 1.891797880948769e-01 1.919616928159402e-01 5.388905248264464e-01 2.984447452302013e-01 4.552360134567996e-01 6.332303559135013e-01 3.543361167728352e-01 6.667705468485311e-01 6.661831597072692e-01 4.266150868516195e-01 2.169851715482976e-01 5.196351180711940e-01 5.159352210917605e-01 4.728357173743686e-01 4.268253499507254e-01 4.232831144119268e-01 4.931024257622628e-01 3.131552780613596e-01 5.532808542259621e-01 4.400184081395200e-01 6.031185906767551e-01 3.787511052122405e-01 6.622199050056518e-01 6.664877599705413e-01 6.666071846088594e-01 6.623437046913681e-01 6.608052973613259e-01 6.614084300290382e-01 3.555700752802858e-01 5.517966140910097e-01 4.743684995670212e-01 4.726507075685851e-01 2.127754457528656e-01 4.211030105894771e-01 2.131946596696738e-01 2.457679757917198e-01 6.284077721698308e-01 4.247003714710649e-01 4.274725040645020e-01 3.151655581246269e-01 3.188202763507212e-01 5.482223941189434e-01 5.078828885612947e-01 2.695103259292180e-01 4.273067828278763e-01 3.432092559934905e-01 4.439908590605872e-01 2.274514694867747e-01 2.193928698022041e-01 1.983969125739786e-01 2.584087219913830e-01 4.828694460316400e-01 5.700865736966524e-01 2.960023765617198e-01 5.099207800537592e-01 3.892889687386863e-01 1.874915968324666e-01 1.859888018344791e-01 2.549925788430835e-01 2.567586427013735e-01 5.415148260906857e-01 2.640453438866945e-01 3.514890951343265e-01 4.838218393517790e-01 4.812590651565840e-01 3.001739886690645e-01 5.703683735234173e-01 3.428351653343955e-01 3.010212692491775e-01 4.731314016809821e-01 6.711925919937249e-01 6.711925929361170e-01 2.622969987946852e-01 6.039580636491721e-01 4.860163562756498e-01 4.085710318062123e-01 1.747018246682103e-01 5.590126967475687e-01 3.072003300774125e-01 4.971763632386592e-01 2.379383544398664e-01 5.156216733888229e-01 6.662142813781792e-01 6.662142842075079e-01 5.481768616815013e-01 6.282953433269766e-01 6.237667154265635e-01 6.117590106823536e-01 2.082528554026808e-01 2.077271606425339e-01 6.368940302127899e-01 6.325277667130111e-01 4.190005078491432e-01 2.217834238531216e-01 3.454352719481917e-01 2.104825508186820e-01 2.124418842090020e-01 6.268118028469873e-01 4.773874182813235e-01 6.615386262844223e-01 6.616184439886528e-01 3.639201197410218e-01 3.261928977862982e-01 5.741367723800336e-01 2.927343093424041e-01 5.143249695261445e-01 2.410994794244337e-01 2.755972360516820e-01 5.888830449893496e-01 5.981022464546413e-01 3.283797510401067e-01 3.493369831003242e-01 4.137079395577022e-01 4.170777472998063e-01 4.562364867001149e-01 3.364136588206450e-01 6.040704432503350e-01 5.095722588091525e-01 5.058231895552600e-01 5.690594036171037e-01 5.648979979786003e-01 4.778577891224379e-01 3.333788154548929e-01 5.149615976267956e-01 3.233532455817482e-01 5.429775126399721e-01 3.471602229242132e-01 4.715114022419604e-01 5.309973956197261e-01 5.909127268858591e-01 5.772384164744661e-01 5.174275380724966e-01 4.733810094726885e-01 5.111764717495080e-01 3.208517232729651e-01 5.455604581498014e-01 2.234184410351664e-01 2.173970908782522e-01 2.463959830254170e-01 2.804637971247002e-01 5.847978475785920e-01 4.747254551543308e-01 6.408287508926449e-01 5.279422644541337e-01 5.977696398286848e-01 4.911946873633166e-01 3.162983476804781e-01 5.494339248619096e-01 5.066649226983327e-01 5.952562532425807e-01 4.557886657118358e-01 4.509694822984394e-01 3.876558412116775e-01 2.530959499036560e-01 2.712025849085317e-01 4.619762981068190e-01 6.467012694695358e-01 6.498413222459033e-01 3.987792881932218e-01 5.376404529633919e-01 4.777567612548156e-01 6.416449663503996e-01 2.043452388092628e-01 1.751397689906686e-01 1.791294915957521e-01 6.311117282555864e-01 6.356214858792145e-01 3.600838696907184e-01 3.150554508284016e-01 4.892376773619340e-01 5.485241595616006e-01 1.831022915716803e-01 1.792687455758256e-01 5.284938168995017e-01 3.536307699226579e-01 3.996335263730770e-01 4.233930306140983e-01 3.836534134316154e-01 6.366068828355098e-01 3.057131977798878e-01 4.164600041466552e-01 2.098704869517311e-01 6.498295090690800e-01 6.618147211827276e-01 6.663429338507757e-01 5.532223913776548e-01 3.541888428499966e-01 4.306887645912256e-01 4.342040008154762e-01 2.445412957671348e-01 5.830319149832395e-01 5.239185175865340e-01 2.596960357348764e-01 2.297542709563373e-01 4.882135413700821e-01 4.839504412776361e-01 2.468791135070608e-01 1.946744791744043e-01 3.303380647504957e-01 2.669254371392862e-01 3.170682666797425e-01 2.616183583925554e-01 4.172557145595723e-01 2.959002563294418e-01 5.104668347853782e-01 5.702877008090643e-01 4.034497408759894e-01 4.079422195279274e-01 2.742892913292506e-01 5.913563591953295e-01 3.881620331772735e-01 5.538025039973140e-01 4.466289338432167e-01 3.927773686535912e-01 3.971156953776537e-01 5.378967124976690e-01 6.466764657640962e-01 4.095607240670368e-01 4.129721507301174e-01 2.604420248516324e-01 6.254294066672268e-01 6.454766989060955