<?xml version="1.0"?>
<VTKFile type="UnstructuredGrid" version="0.1" byte_order="LittleEndian">
<UnstructuredGrid>
<Piece NumberOfPoints="570" NumberOfCells="968">
<Points>
<DataArray type="Float64" NumberOfComponents="3" format="ascii">
0 0 0 0 1 0 16 1 0 16 0 0 0 0.199999999999558 0 0 0.399999999998975 0 0 0.599999999998947 0 0 0.799999999999473 0 0.199999999999623 1 0 0.399999999999246 1 0 0.599999999998836 1 0 0.799999999998394 1 0 0.999999999997972 1 0 1.19999999999764 1 0 1.39999999999734 1 0 1.59999999999703 1 0 1.79999999999673 1 0 1.99999999999638 1 0 2.19999999999584 1 0 2.39999999999526 1 0 2.59999999999468 1 0 2.79999999999409 1 0 2.99999999999351 1 0 3.19999999999293 1 0 3.39999999999234 1 0 3.59999999999176 1 0 3.79999999999118 1 0 3.99999999999059 1 0 4.19999999999001 1 0 4.39999999998943 1 0 4.59999999998885 1 0 4.79999999998826 1 0 4.99999999998768 1 0 5.1999999999871 1 0 5.39999999998651 1 0 5.59999999998593 1 0 5.79999999998535 1 0 5.99999999998476 1 0 6.19999999998418 1 0 6.3999999999836 1 0 6.59999999998302 1 0 6.79999999998243 1 0 6.99999999998185 1 0 7.19999999998127 1 0 7.39999999998068 1 0 7.5999999999801 1 0 7.79999999997952 1 0 7.99999999997911 1 0 8.19999999997946 1 0 8.39999999997999 1 0 8.59999999998051 1 0 8.79999999998104 1 0 8.99999999998157 1 0 9.1999999999821 1 0 9.39999999998262 1 0 9.59999999998315 1 0 9.79999999998367 1 0 9.9999999999842 1 0 10.1999999999847 1 0 10.3999999999852 1 0 10.5999999999858 1 0 10.7999999999863 1 0 10.9999999999868 1 0 11.1999999999874 1 0 11.3999999999879 1 0 11.5999999999884 1 0 11.7999999999889 1 0 11.9999999999895 1 0 12.19999999999 1 0 12.3999999999905 1 0 12.5999999999911 1 0 12.7999999999916 1 0 12.9999999999921 1 0 13.1999999999926 1 0 13.3999999999932 1 0 13.5999999999937 1 0 13.7999999999942 1 0 13.9999999999947 1 0 14.1999999999953 1 0 14.3999999999958 1 0 14.5999999999963 1 0 14.7999999999968 1 0 14.9999999999974 1 0 15.1999999999979 1 0 15.3999999999984 1 0 15.5999999999989 1 0 15.7999999999995 1 0 16 0.8 0 16 0.600000000001387 0 16 0.400000000001664 0 16 0.200000000000832 0 15.7999999999992 0 0 15.5999999999983 0 0 15.3999999999975 0 0 15.1999999999967 0 0 14.9999999999958 0 0 14.799999999995 0 0 14.5999999999942 0 0 14.3999999999933 0 0 14.1999999999925 0 0 13.999999999992 0 0 13.7999999999931 0 0 13.5999999999945 0 0 13.3999999999958 0 0 13.1999999999972 0 0 12.9999999999986 0 0 12.8 0 0 12.6000000000014 0 0 12.4000000000028 0 0 12.2000000000042 0 0 12.0000000000055 0 0 11.8000000000069 0 0 11.6000000000083 0 0 11.4000000000097 0 0 11.2000000000111 0 0 11.0000000000125 0 0 10.8000000000139 0 0 10.6000000000152 0 0 10.4000000000166 0 0 10.200000000018 0 0 10.0000000000194 0 0 9.8000000000208 0 0 9.60000000002219 0 0 9.40000000002358 0 0 9.20000000002496 0 0 9.00000000002635 0 0 8.80000000002774 0 0 8.60000000002913 0 0 8.40000000003051 0 0 8.2000000000319 0 0 8.00000000003294 0 0 7.80000000003245 0 0 7.60000000003162 0 0 7.40000000003079 0 0 7.20000000002996 0 0 7.00000000002913 0 0 6.8000000000283 0 0 6.60000000002746 0 0 6.40000000002663 0 0 6.2000000000258 0 0 6.00000000002496 0 0 5.80000000002413 0 0 5.6000000000233 0 0 5.40000000002247 0 0 5.20000000002164 0 0 5.0000000000208 0 0 4.80000000001997 0 0 4.60000000001914 0 0 4.40000000001831 0 0 4.20000000001748 0 0 4.00000000001664 0 0 3.80000000001581 0 0 3.60000000001498 0 0 3.40000000001415 0 0 3.20000000001331 0 0 3.00000000001248 0 0 2.80000000001165 0 0 2.60000000001082 0 0 2.40000000000998 0 0 2.20000000000916 0 0 2.00000000000832 0 0 1.80000000000749 0 0 1.60000000000666 0 0 1.40000000000583 0 0 1.20000000000499 0 0 1.00000000000416 0 0 0.800000000003328 0 0 0.600000000002495 0 0 0.400000000001665 0 0 0.200000000000832 0 0 13.700657105669 0.16981258116099 0 13.2999999999965 0.173205080755686 0 12.8999999999993 0.173205080755686 0 12.5000000000021 0.173205080755686 0 12.1000000000048 0.173205080755686 0 11.7000000000076 0.173205080755686 0 14.0999999999922 0.173205080756647 0 0.699999999998615 0.826794919243495 0 11.3000000000104 0.173205080755686 0 1.09999999999781 0.826794919243437 0 10.9000000000132 0.173205080755687 0 2.09999999999211 0.826794919240002 0 1.49999999999719 0.826794919243377 0 10.5000000000159 0.173205080755686 0 15.8338849492515 0.508577035510267 0 2.49999999999102 0.826794919240213 0 10.1000000000187 0.173205080755686 0 2.8999999999938 0.826794919243617 0 15.2993574447989 0.831314592868588 0 14.8999999999971 0.826794919242657 0 14.4999999999961 0.826794919242658 0 3.29999999999263 0.826794919243617 0 9.70000000002149 0.173205080755686 0 3.69999999999147 0.826794919243617 0 9.30000000002427 0.173205080755686 0 4.0999999999903 0.826794919243617 0 4.49999999998914 0.826794919243617 0 8.90000000002705 0.173205080755686 0 4.89999999998797 0.826794919243617 0 8.50000000002983 0.173205080755686 0 5.29999999998681 0.826794919243617 0 5.69999999998449 0.826794919242383 0 8.09910141477586 0.166485795059121 0 6.09999999998447 0.826794919243617 0 6.49999999998331 0.826794919243617 0 6.89999999998214 0.826794919243617 0 7.29999999998075 0.826794919243018 0 7.69999999997987 0.826794919243148 0 1.70000000000707 0.173205080757607 0 13.499999999993 0.826794919242336 0 13.0999999999923 0.826794919242697 0 13.9000884253257 0.828379939256167 0 0.506641475208022 0.168637425096977 0 12.6999999999914 0.826794919242744 0 15.0999999999958 0.173205080758772 0 14.7000008112358 0.173203284806108 0 0.900000000003744 0.173205080757609 0 12.2999999999903 0.826794919242657 0 1.30000000000541 0.173205080757607 0 11.8999999999891 0.826794919242668 0 2.29940860489605 0.165793056170904 0 11.4999999999882 0.826794919242758 0 2.70000000001123 0.173205080757609 0 3.1000000000129 0.173205080757609 0 11.0999999999873 0.826794919242715 0 3.50000000001456 0.173205080757607 0 10.6999999999861 0.826794919242764 0 3.90000000001623 0.173205080757609 0 10.2999999999852 0.826794919242759 0 4.30000000001789 0.173205080757607 0 4.70000000001956 0.173205080757609 0 9.89999999998405 0.826794919242736 0 5.10000000002122 0.173205080757607 0 9.49999999998289 0.826794919242657 0 5.50000000002288 0.173205080757608 0 9.09999999998171 0.826794919242731 0 5.90000000002455 0.173205080757608 0 6.30000000002622 0.173205080757608 0 8.69999999998059 0.82679491924274 0 6.70000000002787 0.173205080757607 0 8.29999999997969 0.82679491924282 0 7.10000000002954 0.173205080757608 0 7.50000000003121 0.173205080757609 0 15.4999999999974 0.173205080759918 0 0.166115050745933 0.491422964488694 0 0.302985888731723 0.83439513050655 0 15.6922736942162 0.815654138696531 0 8.09999999997948 0.826794919242848 0 8.19999999997958 0.653589838485829 0 7.99999999997967 0.653589838485872 0 8.39999999997957 0.653589838485763 0 8.29999999997951 0.480384757728964 0 8.49999999997927 0.480384757728878 0 8.5999999999797 0.653589838485656 0 8.69999999997898 0.480384757728697 0 8.09936479783543 0.483984524751002 0 7.89889995640994 0.483443222557347 0 7.79999999997985 0.653589838485708 0 7.69999999998024 0.482568040765242 0 7.79645162934511 0.316140149424588 0 7.59999999998004 0.653832425489461 0 7.49999999998032 0.480384757728063 0 7.39999999998017 0.653616792596627 0 7.29999999998032 0.480384757727631 0 7.19999999998034 0.653592833386099 0 7.0999999999803 0.480384757727202 0 6.99999999998044 0.653589838484526 0 6.89999999998028 0.480384757726783 0 6.7999999999806 0.653589838484268 0 6.69999999998025 0.480384757726355 0 6.59999999998073 0.65358983848395 0 6.49999999998023 0.480384757725918 0 6.39999999998085 0.653589838483615 0 6.2999999999802 0.480384757725469 0 6.19999999998097 0.653589838483274 0 6.09999999998018 0.480384757725009 0 5.99999999998109 0.653589838482929 0 5.89999999998015 0.480384757724548 0 5.79999999998125 0.653589838482601 0 5.69999999998011 0.480384757724105 0 5.59999999998118 0.653589838482109 0 5.49999999998009 0.480384757723655 0 5.39999999998145 0.653589838481903 0 5.29999999998006 0.480384757723202 0 5.19999999998159 0.653589838481573 0 5.09999999998003 0.480384757722739 0 4.99999999998171 0.653589838481231 0 4.89999999998 0.480384757722284 0 4.79999999998184 0.653589838480891 0 4.69999999997997 0.480384757721832 0 4.59999999998196 0.653589838480548 0 4.49999999997994 0.480384757721369 0 4.39999999998208 0.653589838480199 0 4.29999999997992 0.480384757720903 0 4.19999999998221 0.653589838479851 0 4.09999999997989 0.480384757720439 0 3.99999999997947 0.653589838477122 0 3.89999999997986 0.480384757719978 0 3.79999999997944 0.653589838476661 0 3.69999999997983 0.480384757719518 0 3.59999999997941 0.653589838476202 0 3.4999999999798 0.480384757719058 0 3.39999999997938 0.65358983847574 0 3.29999999997977 0.480384757718598 0 3.19999999997935 0.653589838475281 0 3.09999999997974 0.480384757718137 0 2.99999999997932 0.653589838474822 0 2.89999999997971 0.480384757717679 0 2.7999999999793 0.653589838474364 0 2.69999999997968 0.480384757717221 0 2.59999999997927 0.653589838473905 0 2.49999999997965 0.480384757716762 0 2.39999999997924 0.653589838473444 0 2.29940860487266 0.483873901626366 0 2.19993428941465 0.653977521131915 0 2.09920417199692 0.483093795650007 0 1.99990427347715 0.653933918540785 0 1.89976951723567 0.483875882968814 0 1.79996375451097 0.654015972399612 0 1.69999999997939 0.480384757714885 0 1.99881720977017 0.315897138893714 0 1.59999999997892 0.653589838471666 0 1.49999999997923 0.48038475771442 0 1.39999999997875 0.653589838471227 0 1.29999999997906 0.480384757713966 0 1.19999999997858 0.653589838470776 0 1.09999999997889 0.480384757713518 0 0.99999999997842 0.65358983847032 0 0.899999999978739 0.480384757713072 0 0.799999999978276 0.653589838469859 0 0.699999999978606 0.480384757712627 0 0.599999999978152 0.653589838469396 0 0.488902152079335 0.480182833362319 0 0.397961476484174 0.663879545519049 0 1.89999999999457 0.826794919240091 0 14.2999999999927 0.173205080757313 0 14.2005913950999 0.34510091248886 0 14.4000657105598 0.346264689401101 0 14.0013223237587 0.34128270625806 0 14.300738229825 0.5135282064438
[...]
<CellData Scalars="pressure_p0," Vectors="velocity_p0," Tensors="">
<DataArray type="Float64" Name="pressure_p0" format="ascii">
-57.6618532209177 -1.17799822438563 -57.681638945097 -1.05388659276501 -57.660759635221 -1.18767016317807 -57.6194007960376 -1.44131756745471 -54.4478440244408 -32.3819744737791 -53.5638442443534 -9.19117280514801 -31.1837806108078 -7.99109777475123 -1.99748766828027 -1.60146657815786 -2.80006305334572 -2.40020539129274 -3.6000611965096 -3.20006238602554 -4.40005727099498 -4.00005913140535 -5.2000523800859 -4.80005471032821 -6.79999289508984 -6.00004701020352 -5.60004961924504 -8.39981331330666 -6.40004402348785 -7.9999042601747 -9.19993309402859 -8.79993704626022 -10.0000120964613 -9.6000165160358 -10.8000030778592 -10.4000077623668 -11.5999932725882 -11.1999983726025 -7.19998985202902 -12.3999820615091 -11.9999878848732 -13.1999689534568 -12.7999757708569 -13.9999534359252 -7.59985936598025 -13.5999615266837 -14.7999348823606 -14.3999445796412 -15.5999125138107 -15.1999242281015 -16.3998853664986 -15.9998996045611 -17.1998522528512 -16.7998696388354 -17.9998117131593 -17.5998330141127 -18.799761956204 -18.3997881132218 -19.599700786879 -19.1997329530127 -20.3996255184011 -57.658550121543 -19.9996651046336 -21.1995328661218 -20.7995815969593 -21.9994188194001 -21.5994787999288 -22.7992784873444 -22.3993522839357 -57.4976878490082 -23.5991059135088 -23.1991966507407 -24.3988938537605 -23.9990053305633 -25.1986335106938 -57.5864924171363 -24.7987703391732 -25.9983142168641 -25.5984819877945 -57.2640118677014 -48.7923905979351 -26.7979230581416 -53.8592979771042 -57.5870021096399 -54.1548160783655 -37.5693745205059 -48.4249399017748 -26.3981285375046 -56.9669728559531 -37.9663268747106 -57.3889460058291 -27.5974444270119 -7.60003488999579 -43.8665972294601 -8.00003165353618 -27.1976957883535 -37.9663269248069 -54.7211586290249 -28.3968594916214 -40.7352716053972 -35.182797587972 -48.7923905310039 -53.5572583847125 -27.997166590167 -53.2485817699006 -29.1961455495262 -28.7965202529274 -57.1231010256446 -29.9952751974688 -57.3889119329084 -56.7963727297342 -44.2542471814572 -52.6132888927577 -57.1231039683578 -44.2542470596008 -29.5957318084321 -41.1290475123614 -56.6120359204376 -34.7843934974056 -48.4249398657722 -52.9338475071347 -41.1290474351842 -30.7942155149745 -34.7843935618538 -54.4416496911371 -30.3947712684726 -54.9924034108374 -56.2049041343208 -31.1936024424795 -38.3629897321894 -37.5693744235283 -55.9834483125093 -49.1572224735515 -44.6408212614675 -41.5222557388863 -56.4146523058119 -51.9561087253361 -48.42493988107 -34.3858464204309 -56.4146555193234 -56.7963750281583 -51.6201551855484 -52.613288202062 -57.2639673938312 -54.4422787421238 -31.5929268194265 -43.4779520626089 -48.0550491256972 -50.9350069686813 -32.3913615938227 -47.6828868183245 -50.9350087393206 -35.5810450039362 -43.4779519523534 -55.5078644403828 -50.5863730221096 -46.5542990290565 -40.3409728639729 -35.9791211448931 -39.9461929085104 -35.5810449843068 -47.3086103416047 -43.8665969968964 -56.6120282147537 -41.5222556978365 -51.2796903663973 -55.7509394847382 -40.3409727958516 -44.6408211986402 -34.3858464873538 -37.5693743996334 -46.932368229546 -46.5542988936237 -46.932367967365 -50.5863737125178 -54.7211283052857 -38.362989706123 -49.1572225943492 -39.1553407799692 -52.2872652285316 -35.9791211340539 -43.8665969392435 -46.932367908677 -49.8782563629042 -39.9461928763808 -38.7593371036476 -36.7746948652364 -55.5078043782115 -49.5192449885894 -32.3905172680929 -37.1721564125975 -50.2340404260872 -36.3770102538072 -39.5509704535315 -54.9929367237878 -54.4434302590179 -42.6979721340068 -55.2547877900727 -45.7931921360115 -31.5929264471839 -46.1745329092016 -45.4103898694274 -43.0883869235453 -52.2872683596396 -51.2796951494326 -31.9921818239859 -50.2340412483533 -27.9971659080856 -36.3770102116383 -39.550970393097 -23.9990053113057 -7.20003804422096 -12.7999760353766 -54.9923898118403 -18.3997881181447 -28.7965188654289 -23.1991966432174 -21.5994788010346 -32.3913615708906 -9.59902538684576 -11.999988441073 -16.7998696504138 -14.3999446487673 -19.1997329568141 -33.1894643242196 -45.0262332054751 -25.5984819006058 -32.7904584713943 -32.7904585109437 -31.9921819113226 -53.8591343769401 -50.5863707158351 -2.40893556075121 -39.1553408940083 -35.1827975860192 -45.7931919978538 -32.7896132243201 -36.774694957386 -47.3086102270245 -35.9791212216068 -42.3067722143209 -43.0883871323358 -40.7352714605883 -39.9461930364585 -45.4103901425837 -42.306772400004 -46.1745331889563 -41.9148480960531 -4.00006597415304 -49.8782553766055 -42.6979720354678 -51.6201586380976 -33.5883703336027 -5.60005013429536 -54.7229163519229 -33.5883710247908 -55.9834473621187 -51.2796963907566 -35.1827976028944 -46.1745328428676 -43.0883868715789 -40.7352714243127 -31.1936022635108 -47.6828865860526 -33.9871683648987 -33.1894646079731 -55.750877764009 -33.1894644726671 -48.7923906990112 -37.9663268247895 -31.9898743620603 -39.550970332581 -50.2340421650302 -47.3086101223573 -45.7931918625388 -34.7843936360201 -42.6979719372074 -41.1290473580754 -52.9338416118299 -51.6201617603136 -44.2542469385985 -36.377010174925 -53.2485746191628 -24.798770296835 -27.1976954444907 -22.3993522822414 -15.9998996247529 -15.1999242649279 -10.3998041817088 -17.5998330212674 -11.1999996897494 -13.5999616597284 -29.5957287784905 -20.7995815993855 -19.9996651077705 -26.398128363385 -1.61923178786978 -50.9350105869909 -57.392531425296 -3.20007589949176 -52.6132763032389 -52.287259825967 -35.5810449775828 -4.80005775788927 -26.7979228171289 -43.4779518425804 -6.40004180898383 -28.3968584882087 -23.5991059009973 -57.5011370609898 -21.9994188189175 -25.1986334510014 -18.7997619600794 -15.5999125399172 -10.800005911762 -12.3999824709315 -29.9952695507663 -13.9999535307374 -20.3996255207885 -9.19923758056636 -17.1998522613231 -57.496945981253 -46.5542987634878 -2.00893216157928 -48.0550491652901 -40.3409727277204 -3.60007094017103 -44.6408215166549 -34.3858461607612 -6.80003547691528 -53.5571066531373 -5.20005395778056 -39.1553407512561 -38.3629898358047 -49.1572221690597 -41.5222559030683 -27.5974439422522 -36.7746948446413 -22.7992784828894 -13.199969144582 -24.3988938252897 -21.1995328675522 -16.3998853809538 -9.99980981924376 -17.9998117185793 -14.79993493131 -29.1961433346821 -19.5997007899194 -11.5999942461722 -1.21037297426734 -25.9983140961923 -3.60006206542639 -57.6577792787431 -2.80008167386544 -2.8000621184457 -1.98255229835354 -4.40005795790101 -4.40006187270888 -57.5830708099078 -26.7979230219519 -25.1986335004436 -20.3996255191655 -25.9983141967449 -21.9994188197367 -24.3988938490247 -17.1998522546333 -6.00004599039957 -10.8000028207144 -18.7997619571638 -15.5999125186223 -13.9999534484818 -11.5999931987754 -14.7999348904226 -12.399982063396 -17.9998117143854 -16.3998853693572 -22.7992784869886 -21.1995328667612 -13.1999689687815 -10.0000118001186 -19.5997007877185 -49.8782566874187 -28.3968594293784 -23.5991059116868 -27.5974443701978 -9.19914475282884 -5.20005278733029 -54.154077694189 -57.1227929939365 -37.1721563668358 -57.2637106018138 -29.1961455692598 -6.00004735037492 -51.9561193267601 -56.2049093397293 -57.3858328845173 -38.7593370491946 -48.055049223395 -45.4103898030179 -56.966974274725 -57.4943465853512 -6.79999326541798 -8.39875303439615 -7.59955256566439 -29.9952753711434 -49.5192453714102 -56.9669752597966 -42.3067721679853 -41.9148480088154 -45.0262330750085 -55.2547405022527 -0.221486880786839 -56.7963506966098 -32.3901726627032 -56.9669573338927 -47.6828866221346 -33.9871685583771 -56.6119920324664 -33.9871681271783 -56.4146337969818 -55.7508129023609 -57.2636718246833 -56.7963335432605 -38.7593371580026 -2.3852736370194 -3.20006414208393 -4.0000608510134 -53.2492694326116 -41.9148481834433 -37.1721564598284 -56.612018197003 -4.80005573834362 -33.5883711070161 -55.5077362440428 -54.4421271241632 -49.5192446663237 -45.0262333374811 -56.2048574732491 -5.60005022020663 -51.9561177648602 -31.5914641602906 -23.1991966490797 -57.7519376917685 -30.7942158819786 -56.4146085939388 -15.1999242402233 -22.3993522841866 -19.9996651062411 -15.9998996116889 -21.5994788010383 -12.7999758020587 -16.7998696431465 -11.1999981010047 -17.5998330169346 -11.9999878612209 -14.3999445997704 -13.5999615567825 -10.4000070053914 -19.1997329547703 -27.1976956964227 -20.7995815984181 -24.7987703258603 -9.59922733086708 -27.9971664548937 -26.3981284847247 -25.5984819601357 -57.1227692262857 -23.9990053249564 -18.3997881153092 -8.79808814592217 -28.7965201367653 -4.40005669617919 -6.40004478321208 -1.20405650085108 -55.983384853224 -7.19968388765131 -56.2048954904761 -5.20005196144309 -29.5957319851207 -55.2560589035477 -52.9338514735253 -55.5084996421285 -2.00021102754256 -6.00004670203077 -7.99853761289099 -8.40002813132287 -55.9834276027519 -2.80006540724912 -25.1986335220323 -3.60006091376646 -55.2553606374236 -23.5991059157461 -21.199532865552 -22.7992784879365 -24.398893859202 -17.9998117118696 -30.7942152359364 -29.1961455414903 -16.3998853634416 -27.5974444795861 -15.599912508755 -19.5997007860447 -14.7999348742558 -10.0000123067941 -25.9983142382818 -13.1999689433124 -11.5999933606289 -10.8000032990301 -13.9999534245271 -9.20002059189551 -55.7509422227509 -12.3999820732488 -20.3996255176694 -17.1998522509451 -18.7997619552208 -28.3968595424373 -26.7979230946364 -21.9994188191938 -30.3947720871199 -29.9952750867972 -42.6979723608569 -45.7931924189275 -31.1921403923378 -49.5192429425755 -50.934999161826 -48.0550490919465 -45.0262336245077 -52.2872288442193 -35.5810454409412 -33.9871713098943 -39.5509705981994 -46.554299270653 -40.3409730242887 -37.17215661845 -43.4779523139147 -38.7593372931531 -53.5577159730938 -41.9148483860031 -1.60419115105366 -34.7843945484869 -44.2542474545819 -41.1290476923756 -47.3086104681858 -37.9663270610237 -4.80005446196388 -5.6000494375414 -36.3770104847517 -52.9337891571283 -33.1892317623797 -50.2340366335776 -4.00005891701624 -2.40020769098891 -7.99708984050261 -54.15461529071 -53.5579717717706 -31.1874215649176 -32.7890307968296 -3.20006290381586 -51.6201395719755 -8.80002449384667 -25.5984819959882 -20.7995815966354 -23.9990053324853 -24.7987703433718 -48.7923898666423 -15.1999242248113 -17.5998330133144 -15.9998996025339 -23.1991966514497 -11.1999984499051 -29.5957317908631 -13.5999615212988 -18.3997881126545 -22.3993522840341 -10.4000078702421 -14.3999445747658 -9.60001653245862 -28.7965202650345 -12.7999757712564 -11.9999879098186 -19.9996651042433 -27.1976958106257 -19.1997329525594 -27.997166616186 -16.7998696375938 -26.3981285519874 -21.5994787997362 -30.3947711602628 -45.4103903657703 -43.088387319832 -50.5863661236212 -51.9560901762316 -36.7746951117053 -42.3067725684004 -39.1553410038427 -35.1827981771886 -40.7352717388801 -48.4249395840554 -37.5693746367138 -39.9461931561071 -46.1745333939595 -47.6828868135688 -52.6132381894182 -44.6408217361795 -53.8603283542722 -34.3858477397003 -43.8665974350616 -46.9323683725125 -41.522256053105 -38.3629899424571 -49.878253191641 -53.2491891341197 -35.9791214875871 -33.5881370810188 -49.1572212214799 -51.2796810877388 -6.8000410149913 -6.40004392899228 -0.243329852039185 -57.752145863066 -0.215322490951296 -57.7501428818982 -31.1790611683694 -7.98952244422675 -32.3816274839106 -53.5638971122311 -9.19117567910775 -54.4472198407931 -31.9822707590427 -8.79108188116437 -53.8657135601508 -54.7278703499476 -7.59293871022151 -30.7866059781926 -30.7894993316239 -54.7224588014209 -53.8599334963714 -7.59815643443463 -31.9887779012367 -8.79740172426813 -0.464819836348902 -57.7426278283119 -0.436810211839631 -57.7404438937064 -57.7529804902156 -0.195232641548087 -0.461929923118565 -57.7396533201521 -57.7534281161723 -57.740082955462 -0.19523818878016 -0.461932734821947 -31.9811727116454 -54.7273502373114 -53.8651274297293 -8.79030603327098 -30.7818891032669 -7.5913672951286 -31.5791389130617 -8.39029790975606 -54.1611639891929 -54.9984273574895 -7.19293981553027 -30.3871582612126 -57.5690467347281 -1.68862008865238 -29.9952765604293 -6.80004228183339 -55.2562111032703 -35.1828032203034 -37.5693840364454 -32.7886743493638 -33.58837335274 -34.3858506728628 -33.1885270041335 -33.9871717053531 -35.9791279531886 -34.7843986559621 -36.7747029643527 -29.5957319424981 -35.5810512412176 -28.7965205512047 -40.735290303649 -36.3770176565065 -27.9971670889994 -29.196146013111 -28.3968600352021 -27.1976963574663 -37.172165244024 -27.5974450393139 -26.3981290933703 -38.3630011318274 -25.5984824914806 -39.1553542816411 -26.7979236612386 -39.9462088737753 -43.866632798032 -25.9983147668692 -24.7987707773551 -37.9663373487577 -23.999005702723 -38.7593495161814 -25.198633991122 -39.5509850824907 -23.1991969621276 -24.3988942628881 -40.3409901493899 -23.599106256459 -22.3993525419417 -41.5222779336239 -42.3067983016468 -21.599479012309 -22.7992787718854 -43.0884175189407 -48.4250268192549 -41.1290678961474 -21.9994190538465 -20.799581771032 -41.9148721709948 -21.1995330583773 -19.9996652469825 -42.6980003017008 -19.1997330694694 -20.3996256755761 -18.3997882090248 -19.5997009152195 -43.477985065551 -44.6408630554989 -45.4104385394436 -17.5998330942166 -18.7997620611931 -46.1745894385724 -16.7998697084266 -17.9998117997445 -46.9324334397957 -44.2542857613038 -45.0262783300086 -17.1998523258075 -15.9998996699498 -47.6829622133642 -45.7932444778588 -46.554359762463 -16.3998854310241 -15.1999242982704 -14.3999446690108 -15.5999125765318 -47.3086806150463 -14.7999349530983 -13.59996165969 -12.7999759869765 -13.9999535306952 -48.0551302841867 -11.9999882238959 -13.1999690983067 -49.1573220457274 -49.8783697099978 -12.3999822878724 -56.2052782283043 -11.1999986671774 -50.5865009681953 -56.2052854218067 -51.2798376749767 -11.5999935258272 -10.3996936625188 -49.5193512939215 -48.7924837023644 -9.59805907841132 -51.9562726664182 -10.7998953656808 -50.9351438782624 -50.2341617599926 -9.99873399898163 -52.6134477538062 -51.6203072578736 -52.2874212375575 -53.2500142027736 -6.40004379569261 -52.934607223023 -5.60005040941046 -55.5080759450757 -6.0000472671454 -4.80005744470735 -55.7511784708877 -55.9837790120689 -4.00006514972141 -5.20005380373108 -4.40006081206922 -56.41506030642 -3.20007512658093 -2.41598654426268 -56.6124533317505 -3.60006882395509 -51.9562630199538 -56.7968077103717 -52.6134256309635 -52.2874134349866 -2.80712632961379 -50.5864986388192 -51.2798329546062 -53.2499664999333 -51.6203036965603 -56.9673864685846 -50.9351421275838 -52.934587391386 -57.1232027663229 -49.8783685985396 -50.2341609054645 -57.2616385479496 -57.3906982833904 -49.519350897333 -49.1573215592415 -48.4250266509963 -55.5086799324895 -48.7924835401699 -55.7511755263281 -55.983795060004 -48.0551302404297 -56.4150481164371 -56.6124482761899 -56.7967997020491 -56.9673842748134 -47.6829622035308 -57.1232050426235 -46.9324335050884 -57.2616652938772 -47.3086806292948 -46.174589535788 -57.3840685776309 -46.5543598032727 -45.7932445289924 -45.4104386464538 -44.6408631612541 -45.0262783832227 -44.2542858125563 -43.8666328973177 -43.47798511302 -43.088417609609 -42.6980003447167 -42.3067983831479 -41.5222780062857 -41.9148722095059 -41.1290679304549 -40.7352903683446 -40.340990180049 -39.9462089318412 -39.5509851103313 -39.1553543350867 -38.7593495425466 -38.3630011840393 -37.9663373761374 -37.5693840940852 -37.1721652778379 -36.7747030426634 -35.9791280913226 -36.377017710193 -35.1828035181871 -35.5810513495085 -34.7843988775805 -34.385851238674 -33.5881366024063 -33.9871715421005 -32.7880911472457 -33.1882905777344 -9.59826109143336 -2.39233126297645 -6.40004526560329 -10.3998991614653 -11.9999879225943 -3.20006800622377 -5.60005047864982 -4.0000624258748 -4.80005641212075 -11.1999979850089 -12.7999758637913 -6.00004764932265 -2.807119293022 -9.99893908885602 -5.20005356361351 -13.599961605996 -3.60006641427324 -4.40005988206726 -14.3999446437814 -11.599993277883 -10.7998952463574 -12.3999821826901 -16.7998697047416 -15.1999242856594 -15.9998996633134 -18.3997882075906 -13.1999690545161 -17.5998330920218 -13.9999535111268 -14.7999349437025 -16.3998854284568 -19.1997330684391 -15.5999125717476 -17.1998523243441 -19.9996652462166 -21.5994790123296 -20.7995817705559 -17.9998117988408 -18.799762060579 -23.1991969651264 -22.3993525429508 -19.5997009147713 -20.3996256752656 -23.9990057096739 -21.1995330582623 -21.9994190541003 -24.7987707921202 -23.5991062589314 -22.7992787728802 -25.5984825218173 -26.3981291555164 -27.9971673749597 -24.3988942682859 -27.1976964876665 -25.1986340023321 -25.9983147898445 -28.7965212189658 -26.7979237089796 -29.5957335507253 -27.5974451424736 -28.3968602714346 -29.1961465781477 -29.9952777582364 -55.2556049994093 -6.80004346438788 -30.3947756730306 -54.9932138857697 -54.1548351169198 -7.19973511243522 -31.5907147831744 -8.39819078916301 -57.7052972992943 -0.865056788850891 -57.5882880827032 -1.59619319321546 -57.7039568903052 -0.878516557236175 -31.5783886878007 -8.38951957100018 -54.1605857093935 -54.9986021066544 -7.19294477012513 -30.3871633441771 -57.6084070338047 -1.49379962840118 -57.7424706106005 -0.438562381280147 -57.7446962232548 -0.410544313399334 -57.7049894110212 -57.7041720328827 -0.872219389646617 -0.865911986434204 -0.842575845510408 -57.7106284988631 -0.820856055300445 -57.7075907400414 -57.5711058097975 -1.68287548174714 -57.4822413392499 -2.06171513710208 -57.6805285118479 -1.06341448545483 -57.4761379320945 -2.08536382344383 
</DataArray>
<DataArray type="Float64" Name="velocity_p0" NumberOfComponents="3" format="ascii">