<?xml version="1.0"?>
<VTKFile type="UnstructuredGrid" version="0.1" byte_order="LittleEndian">
<UnstructuredGrid>
<Piece NumberOfPoints="69" NumberOfCells="124">
<Points>
<DataArray type="Float64" NumberOfComponents="3" format="ascii">
0.000000000000000e+00 1.000000000000000e+00 0.000000000000000e+00 1.000000000000000e+00 1.000000000000000e+00 0.000000000000000e+00 1.000000000000000e+00 0.000000000000000e+00 0.000000000000000e+00 0.000000000000000e+00 0.000000000000000e+00 0.000000000000000e+00 2.500000000000000e-01 -0.000000000000000e+00 0.000000000000000e+00 0.000000000000000e+00 2.500000000000000e-01 0.000000000000000e+00 5.000000000000000e-01 5.000000000000000e-01 -0.000000000000000e+00 7.500000000000000e-01 1.000000000000000e+00 0.000000000000000e+00 6.875000000000000e-01 8.750000000000000e-01 0.000000000000000e+00 6.250000000000000e-01 7.500000000000000e-01 0.000000000000000e+00 5.625000000000000e-01 6.250000000000000e-01 0.000000000000000e+00 1.249999999997599e-01 3.124999999998800e-01 0.000000000000000e+00 2.499999999996086e-01 3.749999999998043e-01 0.000000000000000e+00 3.749999999997349e-01 4.374999999998674e-01 0.000000000000000e+00 4.375000000000694e-01 3.750000000001388e-01 0.000000000000000e+00 3.750000000002776e-01 2.500000000005551e-01 0.000000000000000e+00 3.125000000002082e-01 1.250000000004163e-01 0.000000000000000e+00 1.000000000000000e+00 8.333333333335646e-01 0.000000000000000e+00 1.000000000000000e+00 6.666666666673605e-01 0.000000000000000e+00 1.000000000000000e+00 5.000000000013877e-01 0.000000000000000e+00 1.000000000000000e+00 3.333333333344898e-01 0.000000000000000e+00 1.000000000000000e+00 1.666666666673605e-01 0.000000000000000e+00 8.750000000000000e-01 1.000000000000000e+00 0.000000000000000e+00 5.625000000008674e-01 1.000000000000000e+00 0.000000000000000e+00 3.750000000006939e-01 1.000000000000000e+00 0.000000000000000e+00 1.875000000005205e-01 1.000000000000000e+00 0.000000000000000e+00 0.000000000000000e+00 8.125000000010408e-01 0.000000000000000e+00 0.000000000000000e+00 6.250000000006939e-01 0.000000000000000e+00 0.000000000000000e+00 4.375000000003469e-01 0.000000000000000e+00 0.000000000000000e+00 1.250000000003469e-01 0.000000000000000e+00 1.249999999997554e-01 0.000000000000000e+00 0.000000000000000e+00 4.374999999991326e-01 0.000000000000000e+00 0.000000000000000e+00 6.249999999989591e-01 0.000000000000000e+00 0.000000000000000e+00 8.124999999994795e-01 0.000000000000000e+00 0.000000000000000e+00 2.798796021293082e-01 8.344274147057053e-01 0.000000000000000e+00 2.645244370067465e-01 5.156353158163987e-01 0.000000000000000e+00 4.139414069912184e-01 6.056325264010037e-01 0.000000000000000e+00 4.492710539671537e-01 8.556512408515589e-01 0.000000000000000e+00 2.758946705068648e-01 6.605885315643570e-01 0.000000000000000e+00 1.390078959961168e-01 7.261831610706000e-01 0.000000000000000e+00 1.492912418697525e-01 4.458279356810638e-01 0.000000000000000e+00 5.014585693307863e-01 7.367466304650486e-01 0.000000000000000e+00 1.392858751591214e-01 5.733980610567744e-01 0.000000000000000e+00 3.813620468049507e-01 7.403859221383123e-01 0.000000000000000e+00 1.271010713601231e-01 8.709480661820344e-01 0.000000000000000e+00 5.677751205718758e-01 8.470224641095303e-01 0.000000000000000e+00 5.698670717843664e-01 3.776209365087199e-01 0.000000000000000e+00 7.125974780784441e-01 6.384669131570183e-01 0.000000000000000e+00 8.608728669021763e-01 2.520652359795942e-01 0.000000000000000e+00 8.578792739151740e-01 7.535325208825020e-01 0.000000000000000e+00 5.447576766858295e-01 1.431838882066932e-01 0.000000000000000e+00 7.150899340618379e-01 1.571595685477760e-01 0.000000000000000e+00 8.612746697781972e-01 5.794807697879764e-01 0.000000000000000e+00 7.533843026232094e-01 4.929444342317560e-01 0.000000000000000e+00 8.055298449100090e-01 8.871112287212741e-01 0.000000000000000e+00 8.656940847709105e-01 4.098367391676661e-01 0.000000000000000e+00 7.182603949284063e-01 3.456402071721618e-01 0.000000000000000e+00 6.323653418237701e-01 5.029675640633227e-01 0.000000000000000e+00 6.110846258508276e-01 2.575059958234323e-01 0.000000000000000e+00 4.945749328930023e-01 2.625170377655549e-01 0.000000000000000e+00 7.385779517043357e-01 7.773678856428465e-01 0.000000000000000e+00 8.769890164881212e-01 1.160638338657984e-01 0.000000000000000e+00 9.063795342218008e-01 9.020858332805730e-01 0.000000000000000e+00 4.287911518546233e-01 1.545544542796670e-01 0.000000000000000e+00 2.403886547178353e-01 2.418881479267384e-01 0.000000000000000e+00 1.840276181286450e-01 1.117324051466445e-01 0.000000000000000e+00 3.381944444444832e-01 3.381944444445634e-01 0.000000000000000e+00 1.008171452988615e-01 1.888570369725047e-01 0.000000000000000e+00 8.435242216391163e-02 8.645171265626619e-02 0.000000000000000e+00 
</DataArray>
</Points>
<Cells>
<DataArray type="Int32" Name="connectivity" format="ascii">
7 8 8 9 9 10 10 6 5 11 11 12 12 13 13 6 6 14 14 15 15 16 16 4 13 36 35 13 6 36 5 11 28 8 7 23 36 38 35 34 39 38 28 40 42 24 37 23 28 42 27 24 34 37 24 25 34 34 38 43 23 37 45 8 23 45 10 36 6 28 11 40 0 26 44 13 35 12 25 0 44 26 27 39 12 40 11 38 39 42 37 34 43 34 44 39 10 41 36 25 44 34 12 35 40 35 38 42 10 9 41 36 41 43 8 45 9 9 45 41 27 42 39 36 43 38 26 39 44 35 42 40 37 41 45 37 43 41 46 56 57 53 57 56 49 47 52 4 31 16 49 60 47 52 55 19 51 48 56 52 53 55 31 32 50 54 49 62 17 62 49 17 49 18 21 20 48 32 51 50 33 51 32 18 49 52 1 62 17 53 56 55 18 52 19 52 47 53 16 31 63 51 61 48 20 19 55 14 46 6 51 56 58 10 47 9 55 56 48 8 54 7 22 7 54 20 55 48 33 61 51 33 2 61 31 50 63 6 46 57 21 61 2 10 57 47 46 58 56 51 58 50 53 47 57 14 59 46 9 47 60 10 6 57 54 60 49 8 60 54 15 59 14 1 22 62 21 48 61 8 9 60 46 59 58 16 63 15 15 63 59 50 59 63 22 54 62 50 58 59 14 6 13 11 67 64 4 65 30 4 16 65 13 12 66 15 14 66 65 64 67 16 15 64 12 11 64 15 66 64 12 64 66 11 5 67 16 64 65 14 13 66 3 68 29 3 30 68 29 67 5 30 65 68 29 68 67 67 68 65 
</DataArray>
<DataArray type="Int32" Name="offsets" format="ascii">
2 4 6 8 10 12 14 16 18 20 22 24 27 30 33 36 39 42 45 48 51 54 57 60 63 66 69 72 75 78 81 84 87 90 93 96 99 102 105 108 111 114 117 120 123 126 129 132 135 138 141 144 147 150 153 156 159 162 165 168 171 174 177 180 183 186 189 192 195 198 201 204 207 210 213 216 219 222 225 228 231 234 237 240 243 246 249 252 255 258 261 264 267 270 273 276 279 282 285 288 291 294 297 300 303 306 309 312 315 318 321 324 327 330 333 336 339 342 345 348 351 354 357 360 
</DataArray>
<DataArray type="UInt8" Name="types" format="ascii">
3 3 3 3 3 3 3 3 3 3 3 3 5 5 5 5 5 5 5 5 5 5 5 5 5 5 5 5 5 5 5 5 5 5 5 5 5 5 5 5 5 5 5 5 5 5 5 5 5 5 5 5 5 5 5 5 5 5 5 5 5 5 5 5 5 5 5 5 5 5 5 5 5 5 5 5 5 5 5 5 5 5 5 5 5 5 5 5 5 5 5 5 5 5 5 5 5 5 5 5 5 5 5 5 5 5 5 5 5 5 5 5 5 5 5 5 5 5 5 5 5 5 5 5 
</DataArray>
</Cells>
<CellData Scalars="porosity,age_conc,U235_conc," Vectors="" Tensors="">
<DataArray type="Float64" Name="porosity" format="ascii">
2.500000000000000e-01 2.500000000000000e-01 2.500000000000000e-01 2.500000000000000e-01 2.500000000000000e-01 2.500000000000000e-01 2.500000000000000e-01 2.500000000000000e-01 2.500000000000000e-01 2.500000000000000e-01 2.500000000000000e-01 2.500000000000000e-01 2.500000000000000e-01 2.500000000000000e-01 2.500000000000000e-01 2.500000000000000e-01 2.500000000000000e-01 2.500000000000000e-01 2.500000000000000e-01 2.500000000000000e-01 2.500000000000000e-01 2.500000000000000e-01 2.500000000000000e-01 2.500000000000000e-01 2.500000000000000e-01 2.500000000000000e-01 2.500000000000000e-01 2.500000000000000e-01 2.500000000000000e-01 2.500000000000000e-01 2.500000000000000e-01 2.500000000000000e-01 2.500000000000000e-01 2.500000000000000e-01 2.500000000000000e-01 2.500000000000000e-01 2.500000000000000e-01 2.500000000000000e-01 2.500000000000000e-01 2.500000000000000e-01 2.500000000000000e-01 2.500000000000000e-01 2.500000000000000e-01 2.500000000000000e-01 2.500000000000000e-01 2.500000000000000e-01 2.500000000000000e-01 2.500000000000000e-01 2.500000000000000e-01 2.500000000000000e-01 2.500000000000000e-01 2.500000000000000e-01 2.500000000000000e-01 2.500000000000000e-01 2.500000000000000e-01 2.500000000000000e-01 2.500000000000000e-01 2.500000000000000e-01 2.500000000000000e-01 2.500000000000000e-01 2.500000000000000e-01 2.500000000000000e-01 2.500000000000000e-01 2.500000000000000e-01 2.500000000000000e-01 2.500000000000000e-01 2.500000000000000e-01 2.500000000000000e-01 2.500000000000000e-01 2.500000000000000e-01 2.500000000000000e-01 2.500000000000000e-01 2.500000000000000e-01 2.500000000000000e-01 2.500000000000000e-01 2.500000000000000e-01 2.500000000000000e-01 2.500000000000000e-01 2.500000000000000e-01 2.500000000000000e-01 2.500000000000000e-01 2.500000000000000e-01 2.500000000000000e-01 2.500000000000000e-01 2.500000000000000e-01 2.500000000000000e-01 2.500000000000000e-01 2.500000000000000e-01 2.500000000000000e-01 2.500000000000000e-01 2.500000000000000e-01 2.500000000000000e-01 2.500000000000000e-01 2.500000000000000e-01 2.500000000000000e-01 2.500000000000000e-01 2.500000000000000e-01 2.500000000000000e-01 2.500000000000000e-01 2.500000000000000e-01 2.500000000000000e-01 2.500000000000000e-01 2.500000000000000e-01 2.500000000000000e-01 2.500000000000000e-01 2.500000000000000e-01 2.500000000000000e-01 2.500000000000000e-01 2.500000000000000e-01 2.500000000000000e-01 2.500000000000000e-01 2.500000000000000e-01 2.500000000000000e-01 2.500000000000000e-01 2.500000000000000e-01 2.500000000000000e-01 2.500000000000000e-01 2.500000000000000e-01 2.500000000000000e-01 2.500000000000000e-01 2.500000000000000e-01 2.500000000000000e-01 2.500000000000000e-01 2.500000000000000e-01 
</DataArray>
<DataArray type="Float64" Name="age_conc" format="ascii">
9.999221072566298e-01 9.998421174075005e-01 9.997589762787502e-01 9.996705357806481e-01 9.990185502411892e-01 9.991772163338567e-01 9.993409801163449e-01 9.995064959159550e-01 9.994968374013797e-01 9.993253403779174e-01 9.991583127199011e-01 9.989987858945859e-01 9.953876269551198e-01 9.959732123136882e-01 9.935279254691765e-01 9.996049925358508e-01 9.963171728959270e-01 9.972953535621740e-01 9.947462605056638e-01 9.994291102517896e-01 9.955953152344608e-01 9.988555816684392e-01 9.991751268642246e-01 9.978179179699846e-01 9.987306705880952e-01 9.992942068399653e-01 9.966974456376800e-01 9.939716706544304e-01 9.987668539170187e-01 9.948422141192750e-01 9.992242849823088e-01 9.973859842582127e-01 9.939563658045584e-01 9.967657792246726e-01 9.982843014770920e-01 9.982067092851283e-01 9.972951015294749e-01 9.987572644960658e-01 9.944494741019978e-01 9.958852959663599e-01 9.979259350537245e-01 9.972716284765023e-01 9.988501613388123e-01 9.984200067524456e-01 9.963349204156676e-01 9.969121737224763e-01 9.979641372286085e-01 9.954258566609195e-01 9.982990842381159e-01 9.978534054952504e-01 9.960391816028737e-01 9.964814384515872e-01 9.976282829187544e-01 9.928342524354615e-01 9.974808725128088e-01 9.984448545149929e-01 9.969212513109466e-01 9.977039808261364e-01 9.948898040005685e-01 9.985489872477032e-01 9.989403127805826e-01 9.990943798985469e-01 9.990361503368415e-01 9.954653579919825e-01 9.968343443888688e-01 9.985352664002677e-01 9.994992375711755e-01 9.971990097281518e-01 9.989900599475260e-01 9.971637540439399e-01 9.932530767040553e-01 9.976087787571144e-01 9.990296491608444e-01 9.948323364510674e-01 9.962091636465543e-01 9.965939202258349e-01 9.974888537728293e-01 9.985165678411767e-01 9.991000632337709e-01 9.985130219777776e-01 9.973966849841872e-01 9.987007373502557e-01 9.939097005007572e-01 9.952773657258656e-01 9.991469563663911e-01 9.960769693474949e-01 9.956068826855081e-01 9.957666004177603e-01 9.966528163332031e-01 9.943957975847939e-01 9.970734142505069e-01 9.956297702694104e-01 9.980878866138887e-01 9.979714273934253e-01 9.939530209809165e-01 9.994832227780850e-01 9.986474111171060e-01 9.974724854552215e-01 9.951565141922375e-01 9.931566550775782e-01 9.935944124912063e-01 9.944549937062819e-01 9.990514227561389e-01 9.948544089672003e-01 9.985459710659325e-01 9.950752347570202e-01 9.926478333693104e-01 9.943644492511639e-01 9.976316408688042e-01 9.976249226073673e-01 9.938081901281357e-01 9.961457497827104e-01 9.961735485052594e-01 9.965404017835691e-01 9.965541478194127e-01 9.944017979569986e-01 9.950636186996388e-01 9.978516928469885e-01 9.908568647735598e-01 9.906500280143555e-01 9.928587136211604e-01 9.918507414846849e-01 9.920236201881464e-01 9.929020216611992e-01 
</DataArray>
<DataArray type="Float64" Name="U235_conc" format="ascii">
9.999219325644697e-01 9.998417645167372e-01 9.997584398144483e-01 9.996698067444818e-01 9.990164242995738e-01 9.991754264239012e-01 9.993395384858572e-01 9.995054098322540e-01 9.994957345131662e-01 9.993238725160911e-01 9.991564923112543e-01 9.989966292098289e-01 9.953787725397412e-01 9.959653061725686e-01 9.935165355409545e-01 9.996041208905114e-01 9.963098511335414e-01 9.972898126253118e-01 9.947364164613930e-01 9.994278627843681e-01 9.955868191846611e-01 9.988531214495917e-01 9.991733513302892e-01 9.978133681659327e-01 9.987279428183116e-01 9.992926611195417e-01 9.966907887123846e-01 9.939607894404007e-01 9.987642243122365e-01 9.948325207166029e-01 9.992226173241876e-01 9.973806219618584e-01 9.939454530538246e-01 9.967592646368839e-01 9.982806758314362e-01 9.982029368823506e-01 9.972895381890139e-01 9.987546106548167e-01 9.944392148855007e-01 9.958772459331725e-01 9.979215779189397e-01 9.972660222959582e-01 9.988476767415355e-01 9.984166359766112e-01 9.963276508419505e-01 9.969059083821790e-01 9.979598868742017e-01 9.954170516832194e-01 9.982954741068357e-01 9.978489098950203e-01 9.960314228000602e-01 9.964744461323211e-01 9.976233934386143e-01 9.928222369790802e-01 9.974756674965362e-01 9.984415838906615e-01 9.969150844346271e-01 9.976992584693605e-01 9.948803373675246e-01 9.985458880846956e-01 9.989380264339955e-01 9.990924335016980e-01 9.990341066985646e-01 9.954567370308627e-01 9.968280433097392e-01 9.985321605701949e-01 9.994981390370935e-01 9.971933297113790e-01 9.989879132310679e-01 9.971579853692297e-01 9.932413696647631e-01 9.976039158141310e-01 9.990275914711597e-01 9.948226116161194e-01 9.962017466296638e-01 9.965870864210840e-01 9.974837407547357e-01 9.985134220455831e-01 9.990981260844094e-01 9.985098949069671e-01 9.973914175797631e-01 9.986979861982035e-01 9.938987707716471e-01 9.952683301009886e-01 9.991451395847544e-01 9.960692407669546e-01 9.955984026144856e-01 9.957584378486912e-01 9.966461167541482e-01 9.943854355318413e-01 9.970674506997556e-01 9.956212928595166e-01 9.980838573650537e-01 9.979671870356719e-01 9.939420476670160e-01 9.994820901123382e-01 9.986445561486825e-01 9.974672795226214e-01 9.951473148149466e-01 9.931447455811628e-01 9.935829903215454e-01 9.944447597645900e-01 9.990493664566374e-01 9.948447604617362e-01 9.985428955764764e-01 9.950722030707183e-01 9.927293329877340e-01 9.943850628080513e-01 9.976268277173694e-01 9.976201008417738e-01 9.938215296289016e-01 9.961398650616232e-01 9.961675481199439e-01 9.965339298262443e-01 9.965476595570723e-01 9.944244207361997e-01 9.950608794217113e-01 9.978472437547363e-01 9.910009090401807e-01 9.908016026061441e-01 9.929403829191952e-01 9.919479801038007e-01 9.921162489574403e-01 9.929353200355739e-01 
</DataArray>
</CellData>
</Piece>
</UnstructuredGrid>
</VTKFile>
