<?xml version="1.0"?>
<VTKFile type="UnstructuredGrid" version="0.1" byte_order="LittleEndian">
<UnstructuredGrid>
<Piece NumberOfPoints="29" NumberOfCells="40">
<Points>
<DataArray type="Float64" NumberOfComponents="3" format="ascii">
0 0 0 0.14190641534369 0.14141650744687 0 0.24999999999941 0 0 0.49999999999869 0 0 0.4999999999998 0.19378306878306 0 0.27852182539675 0.27558237801301 0 0.49983771800902 0.49985833874652 0 0.19232253086418 0.49821285681657 0 0 0.25000000000104 0 0 0.50000000000206 0 0 0.75000000000035 0 0 1 0 0.14409722222244 0.85590277777792 0 0.25000000000104 1 0 0.2736533656674 0.72631034485891 0 0.72147817460319 0.72147817460312 0 0.5014605379192 0.80767746913578 0 0.50000000000206 1 0 0.85809358465622 0.85809358465592 0 0.75000000000035 1 0 1 1 0 1 0.74999999999934 0 1 0.49999999999869 0 0.80913800705467 0.49967339473487 0 0.72147817460309 0.27558237801289 0 0.74999999999934 0 0 0.85809358465589 0.14141650744642 0 1 0.24999999999941 0 1 0 0 
</DataArray>
</Points>
<Cells>
<DataArray type="UInt32" Name="connectivity" format="ascii">
8 0 1 5 8 1 2 5 1 2 1 0 2 3 4 2 4 5 5 4 6 5 6 7 5 7 8 9 8 7 9 7 10 10 7 14 11 10 12 11 12 13 13 12 14 10 14 12 13 14 16 17 13 16 14 6 16 14 7 6 15 6 23 15 16 6 19 17 16 19 16 15 19 15 18 15 21 18 19 18 20 21 20 18 15 23 21 22 21 23 27 22 23 27 23 24 24 23 6 24 6 4 25 24 4 25 4 3 25 28 26 25 26 24 27 24 26 27 26 28 
</DataArray>
<DataArray type="UInt32" Name="offsets" format="ascii">
3 6 9 12 15 18 21 24 27 30 33 36 39 42 45 48 51 54 57 60 63 66 69 72 75 78 81 84 87 90 93 96 99 102 105 108 111 114 117 120 
</DataArray>
<DataArray type="UInt32" Name="types" format="ascii">
5 5 5 5 5 5 5 5 5 5 5 5 5 5 5 5 5 5 5 5 5 5 5 5 5 5 5 5 5 5 5 5 5 5 5 5 5 5 5 5 
</DataArray>
</Cells>
<CellData Scalars="A_conc,B_conc,C_conc," Vectors="" Tensors="">
<DataArray type="Float64" Name="A_conc" format="ascii">
0 0 0 0 0 0 0 0 0 0 0 0 0 0 0 0 0 0 0 0 0 0 0 0 0 0 0 0 0 0 0 0 0 0 0 0 0 0 0 0 
</DataArray>
<DataArray type="Float64" Name="B_conc" format="ascii">
0.9 0.9 0.9 0.9 0.9 0.9 0.9 0.9 0.9 0.9 0.9 0.9 0.9 0.9 0.9 0.9 0.9 0.9 0.9 0.9 0.9 0.9 0.9 0.9 0.9 0.9 0.9 0.9 0.9 0.9 0.9 0.9 0.9 0.9 0.9 0.9 0.9 0.9 0.9 0.9 
</DataArray>
<DataArray type="Float64" Name="C_conc" format="ascii">
0 0 0 0 0 0 0 0 0 0 0 0 0 0 0 0 0 0 0 0 0 0 0 0 0 0 0 0 0 0 0 0 0 0 0 0 0 0 0 0 
</DataArray>
</CellData>
</Piece>
</UnstructuredGrid>
</VTKFile>
