<?xml version="1.0"?>
<VTKFile type="UnstructuredGrid" version="0.1" byte_order="LittleEndian">
<UnstructuredGrid>
<Piece NumberOfPoints="251" NumberOfCells="250">
<Points>
<DataArray type="Float64" NumberOfComponents="3" format="ascii">
0 0 0 0 0 -0.25 0 0 -0.00099999999999810158 0 0 -0.001999999999996204 0 0 -0.0029999999999943271 0 0 -0.0039999999999924488 0 0 -0.004999999999990571 0 0 -0.0059999999999886811 0 0 -0.0069999999999867156 0 0 -0.007999999999984719 0 0 -0.008999999999982581 0 0 -0.0099999999999804221 0 0 -0.010999999999978201 0 0 -0.011999999999975971 0 0 -0.01299999999997375 0 0 -0.01399999999997158 0 0 -0.014999999999969531 0 0 -0.01599999999996761 0 0 -0.0169999999999659 0 0 -0.01799999999996427 0 0 -0.018999999999962731 0 0 -0.019999999999961209 0 0 -0.020999999999959669 0 0 -0.02199999999995814 0 0 -0.022999999999956611 0 0 -0.023999999999955082 0 0 -0.024999999999953549 0 0 -0.02599999999995202 0 0 -0.02699999999995048 0 0 -0.027999999999948951 0 0 -0.028999999999947419 0 0 -0.02999999999994565 0 0 -0.03099999999994377 0 0 -0.031999999999941367 0 0 -0.032999999999938787 0 0 -0.033999999999935943 0 0 -0.034999999999933022 0 0 -0.035999999999930102 0 0 -0.036999999999927188 0 0 -0.037999999999924268 0 0 -0.038999999999921348 0 0 -0.039999999999918427 0 0 -0.040999999999915507 0 0 -0.041999999999912593 0 0 -0.042999999999909673 0 0 -0.043999999999906753 0 0 -0.044999999999903832 0 0 -0.045999999999900919 0 0 -0.046999999999897998 0 0 -0.047999999999895078 0 0 -0.048999999999892158 0 0 -0.049999999999889237 0 0 -0.050999999999886317 0 0 -0.051999999999883403 0 0 -0.052999999999880483 0 0 -0.053999999999877563 0 0 -0.054999999999874642 0 0 -0.055999999999871722 0 0 -0.056999999999868801 0 0 -0.057999999999865881 0 0 -0.058999999999862961 0 0 -0.059999999999860047 0 0 -0.060999999999857127 0 0 -0.061999999999854213 0 0 -0.062999999999851286 0 0 -0.063999999999848373 0 0 -0.064999999999845445 0 0 -0.065999999999842532 0 0 -0.066999999999839618 0 0 -0.067999999999836705 0 0 -0.068999999999833792 0 0 -0.069999999999830878 0 0 -0.070999999999827965 0 0 -0.071999999999825051 0 0 -0.072999999999822124 0 0 -0.07399999999981921 0 0 -0.074999999999816297 0 0 -0.075999999999813383 0 0 -0.07699999999981047 0 0 -0.077999999999807557 0 0 -0.078999999999804643 0 0 -0.07999999999980173 0 0 -0.080999999999798802 0 0 -0.081999999999795889 0 0 -0.082999999999792975 0 0 -0.083999999999790062 0 0 -0.084999999999787149 0 0 -0.085999999999784235 0 0 -0.086999999999781322 0 0 -0.087999999999778394 0 0 -0.088999999999775481 0 0 -0.089999999999772567 0 0 -0.090999999999769654 0 0 -0.091999999999766741 0 0 -0.092999999999763827 0 0 -0.093999999999760914 0 0 -0.094999999999758 0 0 -0.095999999999755073 0 0 -0.096999999999752159 0 0 -0.097999999999749246 0 0 -0.098999999999746333 0 0 -0.099999999999743419 0 0 -0.10099999999974051 0 0 -0.10199999999973761 0 0 -0.10299999999973471 0 0 -0.10399999999973179 0 0 -0.1049999999997288 0 0 -0.1059999999997259 0 0 -0.106999999999723 0 0 -0.1079999999997201 0 0 -0.1089999999997172 0 0 -0.1099999999997143 0 0 -0.1109999999997113 0 0 -0.1119999999997084 0 0 -0.1129999999997055 0 0 -0.1139999999997026 0 0 -0.1149999999996997 0 0 -0.1159999999996968 0 0 -0.11699999999969379 0 0 -0.11799999999969089 0 0 -0.11899999999968799 0 0 -0.11999999999968509 0 0 -0.1209999999996822 0 0 -0.1219999999996793 0 0 -0.1229999999996764 0 0 -0.1239999999996748 0 0 -0.12499999999967321 0 0 -0.12599999999967451 0 0 -0.12699999999967579 0 0 -0.1279999999996784 0 0 -0.12899999999968109 0 0 -0.1299999999996837 0 0 -0.13099999999968631 0 0 -0.13199999999968889 0 0 -0.13299999999969159 0 0 -0.1339999999996942 0 0 -0.13499999999969689 0 0 -0.1359999999996995 0 0 -0.13699999999970211 0 0 -0.1379999999997048 0 0 -0.13899999999970741 0 0 -0.13999999999971011 0 0 -0.14099999999971269 0 0 -0.1419999999997153 0 0 -0.14299999999971799 0 0 -0.1439999999997206 0 0 -0.14499999999972321 0 0 -0.14599999999972579 0 0 -0.14699999999972849 0 0 -0.1479999999997311 0 0 -0.14899999999973379 0 0 -0.1499999999997364 0 0 -0.15099999999973901 0 0 -0.1519999999997417 0 0 -0.15299999999974431 0 0 -0.15399999999974701 0 0 -0.15499999999974959 0 0 -0.1559999999997522 0 0 -0.15699999999975489 0 0 -0.1579999999997575 0 0 -0.15899999999976011 0 0 -0.1599999999997628 0 0 -0.16099999999976539 0 0 -0.161999999999768 0 0 -0.16299999999977069 0 0 -0.1639999999997733 0 0 -0.16499999999977599 0 0 -0.1659999999997786 0 0 -0.16699999999978121 0 0 -0.16799999999978391 0 0 -0.16899999999978649 0 0 -0.1699999999997891 0 0 -0.17099999999979171 0 0 -0.1719999999997944 0 0 -0.17299999999979701 0 0 -0.1739999999997997 0 0 -0.17499999999980231 0 0 -0.17599999999980501 0 0 -0.17699999999980759 0 0 -0.1779999999998102 0 0 -0.17899999999981281 0 0 -0.1799999999998155 0 0 -0.18099999999981811 0 0 -0.18199999999982069 0 0 -0.18299999999982339 0 0 -0.183999999999826 0 0 -0.18499999999982869 0 0 -0.1859999999998313 0 0 -0.18699999999983391 0 0 -0.1879999999998366 0 0 -0.18899999999983921 0 0 -0.18999999999984191 0 0 -0.19099999999984449 0 0 -0.1919999999998471 0 0 -0.19299999999984971 0 0 -0.1939999999998524 0 0 -0.19499999999985501 0 0 -0.1959999999998577 0 0 -0.19699999999986029 0 0 -0.19799999999986301 0 0 -0.19899999999986559 0 0 -0.1999999999998682 0 0 -0.20099999999987081 0 0 -0.2019999999998735 0 0 -0.20299999999987611 0 0 -0.20399999999987881 0 0 -0.20499999999988139 0 0 -0.205999999999884 0 0 -0.20699999999988669 0 0 -0.2079999999998893 0 0 -0.20899999999989191 0 0 -0.2099999999998946 0 0 -0.21099999999989719 0 0 -0.21199999999989991 0 0 -0.21299999999990249 0 0 -0.2139999999999051 0 0 -0.21499999999990771 0 0 -0.2159999999999104 0 0 -0.21699999999991301 0 0 -0.21799999999991571 0 0 -0.21899999999991829 0 0 -0.2199999999999209 0 0 -0.22099999999992359 0 0 -0.2219999999999262 0 0 -0.22299999999992881 0 0 -0.22399999999993139 0 0 -0.22499999999993411 0 0 -0.2259999999999367 0 0 -0.22699999999993939 0 0 -0.227999999999942 0 0 -0.22899999999994469 0 0 -0.2299999999999473 0 0 -0.23099999999994991 0 0 -0.23199999999995249 0 0 -0.23299999999995519 0 0 -0.2339999999999578 0 0 -0.23499999999996049 0 0 -0.2359999999999631 0 0 -0.23699999999996571 0 0 -0.2379999999999684 0 0 -0.23899999999997101 0 0 -0.2399999999999736 0 0 -0.24099999999997629 0 0 -0.2419999999999789 0 0 -0.24299999999998159 0 0 -0.2439999999999842 0 0 -0.24499999999998681 0 0 -0.24599999999998939 0 0 -0.24699999999999209 0 0 -0.2479999999999947 0 0 -0.24899999999999739 
</DataArray>
</Points>
<Cells>
<DataArray type="UInt32" Name="connectivity" format="ascii">
0 2 2 3 3 4 4 5 5 6 6 7 7 8 8 9 9 10 10 11 11 12 12 13 13 14 14 15 15 16 16 17 17 18 18 19 19 20 20 21 21 22 22 23 23 24 24 25 25 26 26 27 27 28 28 29 29 30 30 31 31 32 32 33 33 34 34 35 35 36 36 37 37 38 38 39 39 40 40 41 41 42 42 43 43 44 44 45 45 46 46 47 47 48 48 49 49 50 50 51 51 52 52 53 53 54 54 55 55 56 56 57 57 58 58 59 59 60 60 61 61 62 62 63 63 64 64 65 65 66 66 67 67 68 68 69 69 70 70 71 71 72 72 73 73 74 74 75 75 76 76 77 77 78 78 79 79 80 80 81 81 82 82 83 83 84 84 85 85 86 86 87 87 88 88 89 89 90 90 91 91 92 92 93 93 94 94 95 95 96 96 97 97 98 98 99 99 100 100 101 101 102 102 103 103 104 104 105 105 106 106 107 107 108 108 109 109 110 110 111 111 112 112 113 113 114 114 115 115 116 116 117 117 118 118 119 119 120 120 121 121 122 122 123 123 124 124 125 125 126 126 127 127 128 128 129 129 130 130 131 131 132 132 133 133 134 134 135 135 136 136 137 137 138 138 139 139 140 140 141 141 142 142 143 143 144 144 145 145 146 146 147 147 148 148 149 149 150 150 151 151 152 152 153 153 154 154 155 155 156 156 157 157 158 158 159 159 160 160 161 161 162 162 163 163 164 164 165 165 166 166 167 167 168 168 169 169 170 170 171 171 172 172 173 173 174 174 175 175 176 176 177 177 178 178 179 179 180 180 181 181 182 182 183 183 184 184 185 185 186 186 187 187 188 188 189 189 190 190 191 191 192 192 193 193 194 194 195 195 196 196 197 197 198 198 199 199 200 200 201 201 202 202 203 203 204 204 205 205 206 206 207 207 208 208 209 209 210 210 211 211 212 212 213 213 214 214 215 215 216 216 217 217 218 218 219 219 220 220 221 221 222 222 223 223 224 224 225 225 226 226 227 227 228 228 229 229 230 230 231 231 232 232 233 233 234 234 235 235 236 236 237 237 238 238 239 239 240 240 241 241 242 242 243 243 244 244 245 245 246 246 247 247 248 248 249 249 250 250 1 
</DataArray>
<DataArray type="UInt32" Name="offsets" format="ascii">
2 4 6 8 10 12 14 16 18 20 22 24 26 28 30 32 34 36 38 40 42 44 46 48 50 52 54 56 58 60 62 64 66 68 70 72 74 76 78 80 82 84 86 88 90 92 94 96 98 100 102 104 106 108 110 112 114 116 118 120 122 124 126 128 130 132 134 136 138 140 142 144 146 148 150 152 154 156 158 160 162 164 166 168 170 172 174 176 178 180 182 184 186 188 190 192 194 196 198 200 202 204 206 208 210 212 214 216 218 220 222 224 226 228 230 232 234 236 238 240 242 244 246 248 250 252 254 256 258 260 262 264 266 268 270 272 274 276 278 280 282 284 286 288 290 292 294 296 298 300 302 304 306 308 310 312 314 316 318 320 322 324 326 328 330 332 334 336 338 340 342 344 346 348 350 352 354 356 358 360 362 364 366 368 370 372 374 376 378 380 382 384 386 388 390 392 394 396 398 400 402 404 406 408 410 412 414 416 418 420 422 424 426 428 430 432 434 436 438 440 442 444 446 448 450 452 454 456 458 460 462 464 466 468 470 472 474 476 478 480 482 484 486 488 490 492 494 496 498 500 
</DataArray>
<DataArray type="UInt32" Name="types" format="ascii">
3 3 3 3 3 3 3 3 3 3 3 3 3 3 3 3 3 3 3 3 3 3 3 3 3 3 3 3 3 3 3 3 3 3 3 3 3 3 3 3 3 3 3 3 3 3 3 3 3 3 3 3 3 3 3 3 3 3 3 3 3 3 3 3 3 3 3 3 3 3 3 3 3 3 3 3 3 3 3 3 3 3 3 3 3 3 3 3 3 3 3 3 3 3 3 3 3 3 3 3 3 3 3 3 3 3 3 3 3 3 3 3 3 3 3 3 3 3 3 3 3 3 3 3 3 3 3 3 3 3 3 3 3 3 3 3 3 3 3 3 3 3 3 3 3 3 3 3 3 3 3 3 3 3 3 3 3 3 3 3 3 3 3 3 3 3 3 3 3 3 3 3 3 3 3 3 3 3 3 3 3 3 3 3 3 3 3 3 3 3 3 3 3 3 3 3 3 3 3 3 3 3 3 3 3 3 3 3 3 3 3 3 3 3 3 3 3 3 3 3 3 3 3 3 3 3 3 3 3 3 3 3 3 3 3 3 3 3 3 3 3 3 3 3 3 3 3 3 3 3 
</DataArray>
</Cells>
<CellData Scalars="pressure_p0,water_content,conductivity_richards," Vectors="velocity_p0," Tensors="">
<DataArray type="Float64" Name="pressure_p0" format="ascii">
-6327.5242747573793 -6327.3389958071002 -6326.9693855454425 -6326.4153392752505 -6325.6766999992924 -6324.7532584820019 -6323.6447533318587 -6322.3508711044524 -6320.8712464263044 -6319.2054621395046 -6317.3530494672777 -6315.3134882005488 -6313.0862069056348 -6310.6705831531872 -6308.0659437685044 -6305.2715651033895 -6302.2866733296669 -6299.1104447545786 -6295.7420061581997 -6292.1804351530809 -6288.4247605663149 -6284.4739628442421 -6280.32697448002 -6275.9826804642707 -6271.4399187590834 -6266.6974807955703 -6261.7541119952803 -6256.6085123157318 -6251.259336820307 -6245.7051962728337 -6239.9446577571216 -6233.9762453217663 -6227.798440650502 -6221.4096837584493 -6214.8083737145444 -6207.9928693904931 -6200.9614902365684 -6193.7125170845848 -6186.2441929783818 -6178.5547240321739 -6170.6422803170899 -6162.5049967762498 -6154.1409741687376 -6145.5482800428181 -6136.7249497387311 -6127.6689874214198 -6118.3783671435558 -6108.8510339391996 -6099.0849049484268 -6089.0778705732882 -6078.8277956654429 -6068.3325207457783 -6057.5898632563767 -6046.5976188451396 -6035.3535626833964 -6023.8554508168181 -6012.1010215499373 -6000.0879968645704 -5987.8140838724521 -5975.2769763023407 -5962.4743560218776 -5949.4038945944558 -5936.0632548713556 -5922.4500926193668 -5908.5620581841267 -5894.3967981893775 -5879.9519572723384 -5865.225179855358 -5850.2141119540101 -5834.916403021768 -5819.3297078313717 -5803.4516883929991 -5787.280015909304 -5770.8123727673828 -5754.0464545676969 -5736.9799721899726 -5719.6106538960357 -5701.9362474695617 -5683.9545223926461 -5665.663272059106 -5647.0603160243936 -5628.1435022919468 -5608.910709635782 -5589.3598499591062 -5569.4888706887041 -5549.2957572047799 -5528.7785353059389 -5507.9352737089484 -5486.7640865828398 -5465.2631361169388 -5443.4306351223067 -5421.2648496660895 -5398.7641017381702 -5375.9267719495392 -5352.7513022616731 -5329.2361987462546 -5305.3800343744406 -5281.1814518348801 -5256.6391663796066 -5231.7519686969117 -5206.5187278102039 -5180.938394001847 -5155.010001760882 -5128.7326727535001 -5102.1056188150651 -5075.1281449624285 -5047.7996524251957 -5020.1196416946004 -4992.0877155884737 -4963.7035823308415 -4934.9670586445372 -4905.8780728551719 -4876.4366680047478 -4846.6430049731216 -4816.4973656053944 -4786.0001558433469 -4755.1519088588448 -4723.9532881871201 -4692.4050908577392 -4660.5082505210048 -4628.2638405674197 -4595.6730772377741 -4562.737322721352 -4529.4580882396021 -4495.8370371126566 -4461.8759878057681 -4427.5769169529431 -4392.9419623546419 -4357.9734259464703 -4322.6737767358336 -4287.045653703075 -4251.0918686638715 -4214.8154090893267 -4178.2194408801806 -4141.3073110914365 -4104.0825506035981 -4066.548876736595 -4028.7101958023572 -3990.5706055919118 -3952.1343977927118 -3913.4060603318267 -3874.3902796404923 -3835.0919428353791 -3795.5161398118626 -3755.6681652443822 -3715.5535204889011 -3675.1779153823391 -3634.5472699337188 -3593.6677159015999 -3552.5455982522981 -3511.1874764932045 -3469.6001258753968 -3427.7905384596088 -3385.765924039436 -3343.5337109155789 -3301.101546514707 -3258.4772978464457 -3215.6690517917968 -3172.6851152161571 -3129.5340148999567 -3086.2244972798162 -3042.7655279928813 -2999.1662912169331 -2955.4361887986611 -2911.5848391623326 -2867.622075990952 -2823.5579466718291 -2779.4027104983038 -2735.166836619268 -2690.8610017278734 -2646.4960874807339 -2602.0831776387431 -2557.633554920455 -2513.1586975588134 -2468.6702755518827 -2424.1801465980634 -2379.7003517060966 -2335.2431104700436 -2290.8208159992419 -2246.4460294931259 -2202.1314744506144 -2157.8900305036559 -2113.7347268643589 -2069.678735375056 -2025.7353631504366 -1981.9180448008428 -1938.2403342256739 -1894.715895965734 -1851.3584961032989 -1808.1819926985308 -1765.2003257508575 -1722.4275066738282 -1679.8776072719209 -1637.5647482077502 -1595.5030869480845 -1553.7068051770746 -1512.1900956651423 -1470.9671485819645 -1430.0521372420753 -1389.4592032716541 -1349.2024411851698 -1309.2958823606891 -1269.7534784027507 -1230.5890838818941 -1191.8164384401157 -1153.4491482517124 -1115.5006668291867 -1077.9842751641454 -1040.9130611933047 -1004.2998985800041 -968.15742480183849 -932.4980185351676 -897.33377632747261 -862.67648854854224 -828.53761461144313 -794.92825745403889 -761.85913727136267 -729.34056448844012 -697.38241196202262 -665.9940863980014 -635.18449896886273 -604.96203511219551 -575.33452348656692 -546.30920405478844 -517.89269525598843 -490.09096021634855 -462.90927193281141 -436.35217734324573 -410.42346016853799 -385.12610237439355 -360.46224404975521 -336.43314142966153 -313.03912269603319 -290.27954105994036 -268.15272444823688 -246.65592086326598 -225.78523812167379 -205.53557615228007 -185.9005492547125 -166.87239454191644 -148.4418609543709 -130.59807027806588 -113.32833663880875 -96.617922191110949 -80.449690242884259 -64.803583335175205 -49.655776395831666 -34.977144612003102 -20.729919754876615 -6.8543757281487707 
</DataArray>
<DataArray type="Float64" Name="velocity_p0" NumberOfComponents="3" format="ascii">
0 0 1.3513946057832908e-09 0 0 4.0546519563478201e-09 0 0 6.7593134519802077e-09 0 0 9.4663148060246091e-09 0 0 1.2176591677706871e-08 0 0 1.489107964983783e-08 0 0 1.7610714207275811e-08 0 0 2.0336430714480353e-08 0 0 2.3069164393784835e-08 0 0 2.5809850302733585e-08 0 0 2.8559423312110158e-08 0 0 3.1318818083328989e-08 0 0 3.4088969045976222e-08 0 0 3.6870810375078854e-08 0 0 3.9665275968388479e-08 0 0 4.2473299423230215e-08 0 0 4.5295814013407338e-08 0 0 4.8133752666090867e-08 0 0 5.09880479379376e-08 0 0 5.3859631991656483e-08 0 0 5.6749436572125129e-08 0 0 5.9658392982062344e-08 0 0 6.258743205787331e-08 0 0 6.5537484145038956e-08 0 0 6.8509479073174288e-08 0 0 7.1504346131390918e-08 0 0 7.4523014042597468e-08 0 0 7.7566410938115564e-08 0 0 8.0635464332144591e-08 0 0 8.3731101095454187e-08 0 0 8.6854247429133851e-08 0 0 9.0005828838243078e-08 0 0 9.3186770104882503e-08 0 0 9.6397995261170111e-08 0 0 9.9640427561916705e-08 0 0 1.029149894571682e-07 0 0 1.0622260256417892e-07 0 0 1.0956418763968233e-07 0 0 1.1294066455119799e-07 0 0 1.1635295224854667e-07 0 0 1.1980196873541414e-07 0 0 1.2328863103977995e-07 0 0 1.2681385518502478e-07 0 0 1.3037855616013717e-07 0 0 1.3398364789025601e-07 0 0 1.3763004320672791e-07 0 0 1.4131865381667003e-07 0 0 1.4505039027295063e-07 0 0 1.4882616194360075e-07 0 0 1.526468769810491e-07 0 0 1.5651344229122238e-07 0 0 1.6042676350256368e-07 0 0 1.6438774493487421e-07 0 0 1.6839728956803367e-07 0 0 1.7245629901028572e-07 0 0 1.7656567346694578e-07 0 0 1.8072631170857775e-07 0 0 1.8493911103904726e-07 0 0 1.8920496726385181e-07 0 0 1.9352477465790066e-07 0 0 1.9789942593365326e-07 0 0 2.0232981220876646e-07 0 0 2.0681682297401119e-07 0 0 2.1136134606096249e-07 0 0 2.1596426760959056e-07 0 0 2.2062647203609694e-07 0 0 2.2534884200030281e-07 0 0 2.3013225837325337e-07 0 0 2.3497760020476797e-07 0 0 2.398857446909076e-07 0 0 2.4485756714152438e-07 0 0 2.4989394094737498e-07 0 0 2.5499573754776391e-07 0 0 2.6016382639792669e-07 0 0 2.6539907493605998e-07 0 0 2.7070234855059805e-07 0 0 2.7607451054753751e-07 0 0 2.8151642211722262e-07 0 0 2.8702894230173942e-07 0 0 2.9261292796131659e-07 0 0 2.9826923374121668e-07 0 0 3.0399871203825768e-07 0 0 3.0980221296728077e-07 0 0 3.1568058432714157e-07 0 0 3.2163467156665896e-07 0 0 3.2766531775019943e-07 0 0 3.3377336352292852e-07 0 0 3.3995964707559459e-07 0 0 3.4622500410911371e-07 0 0 3.5257026779838515e-07 0 0 3.5899626875574989e-07 0 0 3.6550383499364971e-07 0 0 3.7209379188692982e-07 0 0 3.7876696213373114e-07 0 0 3.8552416571650183e-07 0 0 3.9236621986101556e-07 0 0 3.9929393899495059e-07 0 0 4.0630813470545276e-07 0 0 4.1340961569472856e-07 0 0 4.2059918773512259e-07 0 0 4.2787765362173468e-07 0 0 4.3524581312433574e-07 0 0 4.4270446293669753e-07 0 0 4.502543966243516e-07 0 0 4.5789640457001418e-07 0 0 4.6563127391682082e-07 0 0 4.7345978850882241e-07 0 0 4.8138272882883294e-07 0 0 4.8940087193338744e-07 0 0 4.9751499138434349e-07 0 0 5.0572585717717745e-07 0 0 5.1403423566525466e-07 0 0 5.2244088948043048e-07 0 0 5.3094657744894975e-07 0 0 5.3955205450305829e-07 0 0 5.4825807158716128e-07 0 0 5.5706537555894582e-07 0 0 5.6597470908458462e-07 0 0 5.7498681052789053e-07 0 0 5.8410241383238734e-07 0 0 5.9332224839690283e-07 0 0 6.0264703894289369e-07 0 0 6.1207750537428233e-07 0 0 6.2161436262792788e-07 0 0 6.3125832051539318e-07 0 0 6.4101008355406069e-07 0 0 6.5087035078837147e-07 0 0 6.6083981559911222e-07 0 0 6.709191655009326e-07 0 0 6.8110908192669337e-07 0 0 6.9141023999809242e-07 0 0 7.0182330828185726e-07 0 0 7.1234894852980306e-07 0 0 7.2298781540225357e-07 0 0 7.337405561739522e-07 0 0 7.4460781042042628e-07 0 0 7.5559020968483373e-07 0 0 7.6668837712243033e-07 0 0 7.7790292712258528e-07 0 0 7.8923446490611548e-07 0 0 8.0068358609648487e-07 0 0 8.122508762633808e-07 0 0 8.2393691043669918e-07 0 0 8.3574225258853327e-07 0 0 8.4766745508242197e-07 0 0 8.5971305808596573e-07 0 0 8.7187958894607178e-07 0 0 8.8416756152311993e-07 0 0 8.9657747548206609e-07 0 0 9.0910981553780137e-07 0 0 9.2176505065079158e-07 0 0 9.3454363317115539e-07 0 0 9.4744599792651504e-07 0 0 9.604725612509037e-07 0 0 9.736237199499763e-07 0 0 9.8689985019933493e-07 0 0 1.0003013063701943e-06 0 0 1.013828419779348e-06 0 0 1.027481497356545e-06 0 0 1.0412608202250701e-06 0 0 1.0551666421892343e-06 0 0 1.0691991881225598e-06 0 0 1.0833586522502508e-06 0 0 1.0976451963183429e-06 0 0 1.1120589476422021e-06 0 0 1.1265999970262926e-06 0 0 1.1412683965461564e-06 0 0 1.1560641571835158e-06 0 0 1.1709872463039355e-06 0 0 1.1860375849669585e-06 0 0 1.2012150450565448e-06 0 0 1.2165194462196748e-06 0 0 1.2319505525995634e-06 0 0 1.2475080693497472e-06 0 0 1.263191638912913e-06 0 0 1.2790008370484909e-06 0 0 1.2949351685914888e-06 0 0 1.3109940629229261e-06 0 0 1.3271768691320465e-06 0 0 1.3434828508485248e-06 0 0 1.3599111807199609e-06 0 0 1.3764609345112071e-06 0 0 1.3931310847964985e-06 0 0 1.4099204942167573e-06 0 0 1.4268279082693273e-06 0 0 1.4438519475975092e-06 0 0 1.4609910997429721e-06 0 0 1.4782437103224714e-06 0 0 1.4956079735868402e-06 0 0 1.5130819223177039e-06 0 0 1.5306634170133244e-06 0 0 1.5483501343121302e-06 0 0 1.5661395545985231e-06 0 0 1.5840289487312007e-06 0 0 1.6020153638309503e-06 0 0 1.6200956080589333e-06 0 0 1.63826623431331e-06 0 0 1.6565235227662126e-06 0 0 1.6748634621577805e-06 0 0 1.6932817297593871e-06 0 0 1.7117736699115408e-06 0 0 1.7303342710376029e-06 0 0 1.7489581410271391e-06 0 0 1.7676394808783913e-06 0 0 1.7863720564828605e-06 0 0 1.8051491684296637e-06 0 0 1.8239636197030906e-06 0 0 1.8428076811410962e-06 0 0 1.8616730545208941e-06 0 0 1.8805508331331422e-06 0 0 1.8994314597088665e-06 0 0 1.9183046815623437e-06 0 0 1.9371595028191559e-06 0 0 1.9559841336074437e-06 0 0 1.9747659361027661e-06 0 0 1.9934913673371625e-06 0 0 2.0121459187096574e-06 0 0 2.0307140521724386e-06 0 0 2.0491791331155893e-06 0 0 2.0675233600368418e-06 0 0 2.0857276911655017e-06 0 0 2.1037717683144472e-06 0 0 2.1216338383682881e-06 0 0 2.1392906729844192e-06 0 0 2.156717487296307e-06 0 0 2.1738878586735795e-06 0 0 2.1907736469261227e-06 0 0 2.2073449177520926e-06 0 0 2.2235698717451296e-06 0 0 2.2394147819152693e-06 0 0 2.25484394347478e-06 0 0 2.2698196406325464e-06 0 0 2.2843021363800548e-06 0 0 2.2982496928094612e-06 0 0 2.3116186314704891e-06 0 0 2.3243634457817068e-06 0 0 2.3364369807522348e-06 0 0 2.3477906995299504e-06 0 0 2.3583750620194467e-06 0 0 2.368140048747971e-06 0 0 2.3770358745690644e-06 0 0 2.3850139539906183e-06 0 0 2.392028207350551e-06 0 0 2.3980368439394939e-06 0 0 2.403004845190448e-06 0 0 2.4069075500702659e-06 0 0 2.4097361659452966e-06 0 0 2.4115072283730427e-06 0 0 2.4122827558458852e-06 0 0 2.4122585759107509e-06 
</DataArray>
<DataArray type="Float64" Name="water_content" format="ascii">
0.20558366169897235 0.20558480954095998 0.20558709947660952 0.20559053239886399 0.20559510964703792 0.20560083300707194 0.20560770471187223 0.20561572744173545 0.20562490432485972 0.20563523893794181 0.20564673530686153 0.20565939790745394 0.20567323166637008 0.2056882419620274 0.20570443462565063 0.20572181594240441 0.20574039265261879 0.20576017195310892 0.20578116149859033 0.20580336940319138 0.2058268042420644 0.20585147505309725 0.20587739133872726 0.20590456306785909 0.20593300067788922 0.20596271507683833 0.20599371764559493 0.20602602024027139 0.20605963519467579 0.20609457532290199 0.20613085392204034 0.20616848477501232 0.20620748215353155 0.20624786082119523 0.20628963603670825 0.20633282355724367 0.20637743964194377 0.2064235010555644 0.20647102507226694 0.20652002947956188 0.20657053258240798 0.2066225532074715 0.20667611070754976 0.20673122496616386 0.20678791640232497 0.20684620597548001 0.20690611519064095 0.2069676661037036 0.20703088132696135 0.20709578403481982 0.20716239796971783 0.20723074744826167 0.20730085736757831 0.2073727532118948 0.2074464610593503 0.20752200758904807 0.20759942008835497 0.20767872646045565 0.20775995523216964 0.20784313556203965 0.20792829724869916 0.20801547073952853 0.20810468713960831 0.20819597822097957 0.20828937643222048 0.20838491490834987 0.20848262748106755 0.20858254868934295 0.20868471379036238 0.20878915877084744 0.20889592035875601 0.20900503603537846 0.20911654404784197 0.20923048342203648 0.20934689397597558 0.20946581633360767 0.20958729193909123 0.20971136307155014 0.20983807286032519 0.20996746530073809 0.21009958527038503 0.21023447854597782 0.21037219182075143 0.21051277272245619 0.21065626983195559 0.21080273270244959 0.21095221187934513 0.21110475892079608 0.21126042641893572 0.21141926802182565 0.21158133845614596 0.21174669355065284 0.2119153902604301 0.21208748669196242 0.21226304212906011 0.21244211705966431 0.21262477320356515 0.21281107354106454 0.21300108234261783 0.2131948651994896 0.21339248905546021 0.21359402223962098 0.21379953450029787 0.21400909704014509 0.21422278255245122 0.21444066525870303 0.21466282094745315 0.21488932701454042 0.21512026250471344 0.21535570815470995 0.21559574643784674 0.21584046161017784 0.21608993975827989 0.21634426884872748 0.21660353877932306 0.21686784143214904 0.21713727072851269 0.21741192268585735 0.21769189547671702 0.21797728948979433 0.21826820739324537 0.21856475420025945 0.21886703733702406 0.21917516671317153 0.21948925479480552 0.21980941668021303 0.22013577017836838 0.22046843589034509 0.22080753729375346 0.22115320083032675 0.2215055559967877 0.22186473543912949 0.22223087505045352 0.22260411407251246 0.22298459520111341 0.223372464695544 0.22376787249219068 0.22417097232252725 0.22458192183565923 0.22500088272561913 0.22542802086361544 0.22586350643544933 0.22630751408432151 0.2267602230592623 0.22722181736943048 0.22769248594453556 0.22817242280165131 0.22866182721870104 0.2291609039149077 0.22966986323851546 0.23018892136210398 0.23071830048583158 0.23125822904895799 0.23180894195001547 0.23237068077601147 0.23294369404106585 0.2335282374349022 0.2341245740816319 0.23473297480929073 0.23535371843060526 0.23598709203548948 0.23663339129579228 0.23729292078283964 0.23796599429833626 0.23865293521921616 0.2393540768570544 0.240069762832676 0.24080034746662191 0.24154619618615614 0.24230768594952173 0.24308520568817676 0.24387915676776384 0.24468995346858857 0.24551802348640306 0.246363808454308 0.24722776448660377 0.24811036274543363 0.24901209003107111 0.2499334493967082 0.25087496078860017 0.25183716171241349 0.25282060792660777 0.25382587416365532 0.25485355487986205 0.25590426503450259 0.25697864089890909 0.25807734089606449 0.25920104647113495 0.26035046299323428 0.26152632068853582 0.2627293756046315 0.26396041060577669 0.26522023639834191 0.26650969258541357 0.26782964874903026 0.2691810055580004 0.27056469589859816 0.27198168602467293 0.27343297672279543 0.27491960448699454 0.27644264269636665 0.27800320278734514 0.27960243541065227 0.28124153156087572 0.28292172366416279 0.28464428660663998 0.28641053868277094 0.28822184243886317 0.29007960538222854 0.29198528052095096 0.29394036669267665 0.29594640863313526 0.29800499672599767 0.30011776636493603 0.30228639684604885 0.30451260969377919 0.30679816630564322 0.30914486477993902 0.31155453576546199 0.3140290371422999 0.31657024730700412 0.31918005679259226 0.3218603579023786 0.32461303197458125 0.32743993381953845 0.33034287277996599 0.33332358975283682 0.33638372937364536 0.33952480639266724 0.34274816505827665 0.34605493005050258 0.34944594715907867 0.35292171144579298 0.35648228002896298 0.36012716581479376 0.36385520737769012 0.3676644086022105 0.37155173938529085 0.37551288522065307 0.37954192807643228 0.38363093221415856 0.38776939374602021 0.39194348619140529 0.3961349837953384 0.40031964052436309 0.40446456680949205 0.40852353360632765 0.4124271976264906 0.41605670044968635 0.41889186472075851 
</DataArray>
<DataArray type="Float64" Name="conductivity_richards" format="ascii">