<?xml version="1.0"?>
<VTKFile type="UnstructuredGrid" version="0.1" byte_order="LittleEndian">
<UnstructuredGrid>
<Piece NumberOfPoints="251" NumberOfCells="250">
<Points>
<DataArray type="Float64" NumberOfComponents="3" format="ascii">
0 0 0 0 0 -0.25 0 0 -0.00099999999999810158 0 0 -0.001999999999996204 0 0 -0.0029999999999943271 0 0 -0.0039999999999924488 0 0 -0.004999999999990571 0 0 -0.0059999999999886811 0 0 -0.0069999999999867156 0 0 -0.007999999999984719 0 0 -0.008999999999982581 0 0 -0.0099999999999804221 0 0 -0.010999999999978201 0 0 -0.011999999999975971 0 0 -0.01299999999997375 0 0 -0.01399999999997158 0 0 -0.014999999999969531 0 0 -0.01599999999996761 0 0 -0.0169999999999659 0 0 -0.01799999999996427 0 0 -0.018999999999962731 0 0 -0.019999999999961209 0 0 -0.020999999999959669 0 0 -0.02199999999995814 0 0 -0.022999999999956611 0 0 -0.023999999999955082 0 0 -0.024999999999953549 0 0 -0.02599999999995202 0 0 -0.02699999999995048 0 0 -0.027999999999948951 0 0 -0.028999999999947419 0 0 -0.02999999999994565 0 0 -0.03099999999994377 0 0 -0.031999999999941367 0 0 -0.032999999999938787 0 0 -0.033999999999935943 0 0 -0.034999999999933022 0 0 -0.035999999999930102 0 0 -0.036999999999927188 0 0 -0.037999999999924268 0 0 -0.038999999999921348 0 0 -0.039999999999918427 0 0 -0.040999999999915507 0 0 -0.041999999999912593 0 0 -0.042999999999909673 0 0 -0.043999999999906753 0 0 -0.044999999999903832 0 0 -0.045999999999900919 0 0 -0.046999999999897998 0 0 -0.047999999999895078 0 0 -0.048999999999892158 0 0 -0.049999999999889237 0 0 -0.050999999999886317 0 0 -0.051999999999883403 0 0 -0.052999999999880483 0 0 -0.053999999999877563 0 0 -0.054999999999874642 0 0 -0.055999999999871722 0 0 -0.056999999999868801 0 0 -0.057999999999865881 0 0 -0.058999999999862961 0 0 -0.059999999999860047 0 0 -0.060999999999857127 0 0 -0.061999999999854213 0 0 -0.062999999999851286 0 0 -0.063999999999848373 0 0 -0.064999999999845445 0 0 -0.065999999999842532 0 0 -0.066999999999839618 0 0 -0.067999999999836705 0 0 -0.068999999999833792 0 0 -0.069999999999830878 0 0 -0.070999999999827965 0 0 -0.071999999999825051 0 0 -0.072999999999822124 0 0 -0.07399999999981921 0 0 -0.074999999999816297 0 0 -0.075999999999813383 0 0 -0.07699999999981047 0 0 -0.077999999999807557 0 0 -0.078999999999804643 0 0 -0.07999999999980173 0 0 -0.080999999999798802 0 0 -0.081999999999795889 0 0 -0.082999999999792975 0 0 -0.083999999999790062 0 0 -0.084999999999787149 0 0 -0.085999999999784235 0 0 -0.086999999999781322 0 0 -0.087999999999778394 0 0 -0.088999999999775481 0 0 -0.089999999999772567 0 0 -0.090999999999769654 0 0 -0.091999999999766741 0 0 -0.092999999999763827 0 0 -0.093999999999760914 0 0 -0.094999999999758 0 0 -0.095999999999755073 0 0 -0.096999999999752159 0 0 -0.097999999999749246 0 0 -0.098999999999746333 0 0 -0.099999999999743419 0 0 -0.10099999999974051 0 0 -0.10199999999973761 0 0 -0.10299999999973471 0 0 -0.10399999999973179 0 0 -0.1049999999997288 0 0 -0.1059999999997259 0 0 -0.106999999999723 0 0 -0.1079999999997201 0 0 -0.1089999999997172 0 0 -0.1099999999997143 0 0 -0.1109999999997113 0 0 -0.1119999999997084 0 0 -0.1129999999997055 0 0 -0.1139999999997026 0 0 -0.1149999999996997 0 0 -0.1159999999996968 0 0 -0.11699999999969379 0 0 -0.11799999999969089 0 0 -0.11899999999968799 0 0 -0.11999999999968509 0 0 -0.1209999999996822 0 0 -0.1219999999996793 0 0 -0.1229999999996764 0 0 -0.1239999999996748 0 0 -0.12499999999967321 0 0 -0.12599999999967451 0 0 -0.12699999999967579 0 0 -0.1279999999996784 0 0 -0.12899999999968109 0 0 -0.1299999999996837 0 0 -0.13099999999968631 0 0 -0.13199999999968889 0 0 -0.13299999999969159 0 0 -0.1339999999996942 0 0 -0.13499999999969689 0 0 -0.1359999999996995 0 0 -0.13699999999970211 0 0 -0.1379999999997048 0 0 -0.13899999999970741 0 0 -0.13999999999971011 0 0 -0.14099999999971269 0 0 -0.1419999999997153 0 0 -0.14299999999971799 0 0 -0.1439999999997206 0 0 -0.14499999999972321 0 0 -0.14599999999972579 0 0 -0.14699999999972849 0 0 -0.1479999999997311 0 0 -0.14899999999973379 0 0 -0.1499999999997364 0 0 -0.15099999999973901 0 0 -0.1519999999997417 0 0 -0.15299999999974431 0 0 -0.15399999999974701 0 0 -0.15499999999974959 0 0 -0.1559999999997522 0 0 -0.15699999999975489 0 0 -0.1579999999997575 0 0 -0.15899999999976011 0 0 -0.1599999999997628 0 0 -0.16099999999976539 0 0 -0.161999999999768 0 0 -0.16299999999977069 0 0 -0.1639999999997733 0 0 -0.16499999999977599 0 0 -0.1659999999997786 0 0 -0.16699999999978121 0 0 -0.16799999999978391 0 0 -0.16899999999978649 0 0 -0.1699999999997891 0 0 -0.17099999999979171 0 0 -0.1719999999997944 0 0 -0.17299999999979701 0 0 -0.1739999999997997 0 0 -0.17499999999980231 0 0 -0.17599999999980501 0 0 -0.17699999999980759 0 0 -0.1779999999998102 0 0 -0.17899999999981281 0 0 -0.1799999999998155 0 0 -0.18099999999981811 0 0 -0.18199999999982069 0 0 -0.18299999999982339 0 0 -0.183999999999826 0 0 -0.18499999999982869 0 0 -0.1859999999998313 0 0 -0.18699999999983391 0 0 -0.1879999999998366 0 0 -0.18899999999983921 0 0 -0.18999999999984191 0 0 -0.19099999999984449 0 0 -0.1919999999998471 0 0 -0.19299999999984971 0 0 -0.1939999999998524 0 0 -0.19499999999985501 0 0 -0.1959999999998577 0 0 -0.19699999999986029 0 0 -0.19799999999986301 0 0 -0.19899999999986559 0 0 -0.1999999999998682 0 0 -0.20099999999987081 0 0 -0.2019999999998735 0 0 -0.20299999999987611 0 0 -0.20399999999987881 0 0 -0.20499999999988139 0 0 -0.205999999999884 0 0 -0.20699999999988669 0 0 -0.2079999999998893 0 0 -0.20899999999989191 0 0 -0.2099999999998946 0 0 -0.21099999999989719 0 0 -0.21199999999989991 0 0 -0.21299999999990249 0 0 -0.2139999999999051 0 0 -0.21499999999990771 0 0 -0.2159999999999104 0 0 -0.21699999999991301 0 0 -0.21799999999991571 0 0 -0.21899999999991829 0 0 -0.2199999999999209 0 0 -0.22099999999992359 0 0 -0.2219999999999262 0 0 -0.22299999999992881 0 0 -0.22399999999993139 0 0 -0.22499999999993411 0 0 -0.2259999999999367 0 0 -0.22699999999993939 0 0 -0.227999999999942 0 0 -0.22899999999994469 0 0 -0.2299999999999473 0 0 -0.23099999999994991 0 0 -0.23199999999995249 0 0 -0.23299999999995519 0 0 -0.2339999999999578 0 0 -0.23499999999996049 0 0 -0.2359999999999631 0 0 -0.23699999999996571 0 0 -0.2379999999999684 0 0 -0.23899999999997101 0 0 -0.2399999999999736 0 0 -0.24099999999997629 0 0 -0.2419999999999789 0 0 -0.24299999999998159 0 0 -0.2439999999999842 0 0 -0.24499999999998681 0 0 -0.24599999999998939 0 0 -0.24699999999999209 0 0 -0.2479999999999947 0 0 -0.24899999999999739 
</DataArray>
</Points>
<Cells>
<DataArray type="UInt32" Name="connectivity" format="ascii">
0 2 2 3 3 4 4 5 5 6 6 7 7 8 8 9 9 10 10 11 11 12 12 13 13 14 14 15 15 16 16 17 17 18 18 19 19 20 20 21 21 22 22 23 23 24 24 25 25 26 26 27 27 28 28 29 29 30 30 31 31 32 32 33 33 34 34 35 35 36 36 37 37 38 38 39 39 40 40 41 41 42 42 43 43 44 44 45 45 46 46 47 47 48 48 49 49 50 50 51 51 52 52 53 53 54 54 55 55 56 56 57 57 58 58 59 59 60 60 61 61 62 62 63 63 64 64 65 65 66 66 67 67 68 68 69 69 70 70 71 71 72 72 73 73 74 74 75 75 76 76 77 77 78 78 79 79 80 80 81 81 82 82 83 83 84 84 85 85 86 86 87 87 88 88 89 89 90 90 91 91 92 92 93 93 94 94 95 95 96 96 97 97 98 98 99 99 100 100 101 101 102 102 103 103 104 104 105 105 106 106 107 107 108 108 109 109 110 110 111 111 112 112 113 113 114 114 115 115 116 116 117 117 118 118 119 119 120 120 121 121 122 122 123 123 124 124 125 125 126 126 127 127 128 128 129 129 130 130 131 131 132 132 133 133 134 134 135 135 136 136 137 137 138 138 139 139 140 140 141 141 142 142 143 143 144 144 145 145 146 146 147 147 148 148 149 149 150 150 151 151 152 152 153 153 154 154 155 155 156 156 157 157 158 158 159 159 160 160 161 161 162 162 163 163 164 164 165 165 166 166 167 167 168 168 169 169 170 170 171 171 172 172 173 173 174 174 175 175 176 176 177 177 178 178 179 179 180 180 181 181 182 182 183 183 184 184 185 185 186 186 187 187 188 188 189 189 190 190 191 191 192 192 193 193 194 194 195 195 196 196 197 197 198 198 199 199 200 200 201 201 202 202 203 203 204 204 205 205 206 206 207 207 208 208 209 209 210 210 211 211 212 212 213 213 214 214 215 215 216 216 217 217 218 218 219 219 220 220 221 221 222 222 223 223 224 224 225 225 226 226 227 227 228 228 229 229 230 230 231 231 232 232 233 233 234 234 235 235 236 236 237 237 238 238 239 239 240 240 241 241 242 242 243 243 244 244 245 245 246 246 247 247 248 248 249 249 250 250 1 
</DataArray>
<DataArray type="UInt32" Name="offsets" format="ascii">
2 4 6 8 10 12 14 16 18 20 22 24 26 28 30 32 34 36 38 40 42 44 46 48 50 52 54 56 58 60 62 64 66 68 70 72 74 76 78 80 82 84 86 88 90 92 94 96 98 100 102 104 106 108 110 112 114 116 118 120 122 124 126 128 130 132 134 136 138 140 142 144 146 148 150 152 154 156 158 160 162 164 166 168 170 172 174 176 178 180 182 184 186 188 190 192 194 196 198 200 202 204 206 208 210 212 214 216 218 220 222 224 226 228 230 232 234 236 238 240 242 244 246 248 250 252 254 256 258 260 262 264 266 268 270 272 274 276 278 280 282 284 286 288 290 292 294 296 298 300 302 304 306 308 310 312 314 316 318 320 322 324 326 328 330 332 334 336 338 340 342 344 346 348 350 352 354 356 358 360 362 364 366 368 370 372 374 376 378 380 382 384 386 388 390 392 394 396 398 400 402 404 406 408 410 412 414 416 418 420 422 424 426 428 430 432 434 436 438 440 442 444 446 448 450 452 454 456 458 460 462 464 466 468 470 472 474 476 478 480 482 484 486 488 490 492 494 496 498 500 
</DataArray>
<DataArray type="UInt32" Name="types" format="ascii">
3 3 3 3 3 3 3 3 3 3 3 3 3 3 3 3 3 3 3 3 3 3 3 3 3 3 3 3 3 3 3 3 3 3 3 3 3 3 3 3 3 3 3 3 3 3 3 3 3 3 3 3 3 3 3 3 3 3 3 3 3 3 3 3 3 3 3 3 3 3 3 3 3 3 3 3 3 3 3 3 3 3 3 3 3 3 3 3 3 3 3 3 3 3 3 3 3 3 3 3 3 3 3 3 3 3 3 3 3 3 3 3 3 3 3 3 3 3 3 3 3 3 3 3 3 3 3 3 3 3 3 3 3 3 3 3 3 3 3 3 3 3 3 3 3 3 3 3 3 3 3 3 3 3 3 3 3 3 3 3 3 3 3 3 3 3 3 3 3 3 3 3 3 3 3 3 3 3 3 3 3 3 3 3 3 3 3 3 3 3 3 3 3 3 3 3 3 3 3 3 3 3 3 3 3 3 3 3 3 3 3 3 3 3 3 3 3 3 3 3 3 3 3 3 3 3 3 3 3 3 3 3 3 3 3 3 3 3 3 3 3 3 3 3 3 3 3 3 3 3 
</DataArray>
</Cells>
<CellData Scalars="pressure_p0,water_content,conductivity_richards," Vectors="velocity_p0," Tensors="">
<DataArray type="Float64" Name="pressure_p0" format="ascii">
-6181.9943329599409 -6181.7731104468521 -6181.3316261442305 -6180.6698015278889 -6179.7875188660555 -6178.6846212890741 -6177.3609128823446 -6175.8161588025532 -6174.0500854171933 -6172.0623804674087 -6169.8526932541981 -6167.4206348480002 -6164.7657783217337 -6161.8876590073105 -6158.7857747756734 -6155.4595863404202 -6151.9085175850787 -6148.131955914072 -6144.1292526274592 -6139.899723319515 -6135.4426483012012 -6130.7572730466454 -6125.8428086636632 -6120.6984323884253 -6115.3232881043496 -6109.7164868853051 -6103.8771075632067 -6097.8041973201016 -6091.4967723048285 -6084.9538182743472 -6078.1742912598256 -6071.157118257589 -6063.9011979450115 -6056.405401421458 -6048.6685729743585 -6040.6895308705207 -6032.4670681727657 -6023.9999535819825 -6015.2869323046816 -6006.3267269461667 -5997.1180384293639 -5987.6595469394324 -5977.9499128942243 -5967.9877779406615 -5957.7717659771242 -5947.3004842019 -5936.5725241877717 -5925.586462982792 -5914.3408642373233 -5902.8342793573629 -5891.0652486842218 -5879.0323027005697 -5866.7339632628882 -5854.168744860357 -5841.3351559001676 -5828.2317000192897 -5814.8568774226751 -5801.2091862478728 -5787.2871239560554 -5773.0891887493926 -5758.6138810147513 -5743.8597047936364 -5728.825169278316 -5713.5087903340482 -5697.9090920473063 -5682.0246082998819 -5665.8538843687566 -5649.3954785515834 -5632.6479638176279 -5615.6099294839914 -5598.2799829169235 -5580.6567512580204 -5562.7388831750695 -5544.5250506373095 -5526.0139507148215 -5507.2043074017793 -5488.0948734632402 -5468.6844323051555 -5448.9717998672413 -5428.9558265383412 -5408.6353990938896 -5388.0094426550368 -5367.0769226689936 -5345.8368469101415 -5324.288267501377 -5302.4302829551998 -5280.2620402339599 -5257.7827368287035 -5234.9916228559923 -5211.8880031720655 -5188.471239503664 -5164.7407525948174 -5140.6960243688682 -5116.3366001049426 -5091.6620906280868 -5066.6721745122204 -5041.3666002950413 -5015.7451887039733 -4989.8078348922099 -4963.5545106838799 -4936.9852668272961 -4910.1002352552605 -4882.8996313512853 -4855.3837562206281 -4827.5529989649349 -4799.4078389592651 -4770.9488481302669 -4742.1766932341379 -4713.0921381330554 -4683.6960460686514 -4653.9893819311037 -4623.9732145223225 -4593.6487188117035 -4563.0171781828503 -4532.0799866696216 -4500.8386511797999 -4469.2947937046429 -4437.4501535125128 -4405.3065893247267 -4372.8660814717377 -4340.1307340276417 -4307.1027769210323 -4273.7845680200899 -4240.1785951897764 -4206.2874783189945 -4172.1139713153261 -4137.6609640651968 -4102.9314843569582 -4067.9286997644158 -4032.6559194884826 -3997.1165961541478 -3961.3143275603088 -3925.2528583796684 -3888.9360818059417 -3852.3680411455189 -3815.5529313506731 -3778.4951004913364 -3741.1990511623681 -3703.6694418232119 -3665.9110880667008 -3627.9289638137579 -3589.7282024306178 -3551.3140977651437 -3512.6921050987407 -3473.8678420102337 -3434.847089148082 -3395.6357909071598 -3356.2400560062706 -3316.6661579624742 -3276.9205354582314 -3237.0097925972873 -3196.9406990451025 -3156.7201900496102 -3116.3553663379184 -3075.8534938845478 -3035.2220035466839 -2994.4684905618246 -2953.6007139031531 -2912.626595487804 -2871.5542192331709 -2830.3918299562979 -2789.1478321112568 -2747.8307883593793 -2706.4494179671083 -2665.0125950260981 -2623.5293464901588 -2582.0088500235224 -2540.460431654793 -2498.8935632309158 -2457.3178596653233 -2415.7430759744084 -2374.179104096329 -2332.635969486093 -2291.1238274807561 -2249.6529594285139 -2208.2337685753555 -2166.8767757028836 -2125.5926145108197 -2084.3920267376261 -2043.2858570126273 -2002.2850474329205 -1961.4006318582956 -1920.6437299173353 -1880.025540717822 -1839.5573362544681 -1799.250454507001 -1759.1162922215531 -1719.1662973682696 -1679.4119612680622 -1639.8648103813284 -1600.5363977515326 -1561.438294096477 -1522.5820785401124 -1483.9793289777649 -1445.6416120676458 -1407.5804728415619 -1369.8074239277871 -1332.3339343791038 -1295.1714180990898 -1258.3312218597948 -1221.8246129040369 -1185.662766125668 -1149.8567508212204 -1114.4175170064825 -1079.3558812916694 -1044.6825123089575 -1010.4079156862629 -976.54241856127305 -943.0961536297732 -910.07904272240989 -877.5007799040477 -845.37081408977781 -813.69833117157441 -782.49223564930651 -751.76113175943897 -721.51330409418233 -691.756697702981 -662.49889766705678 -633.74710813611466 -605.50813081410502 -577.78834287800964 -550.59367430973623 -523.92958461602018 -497.80103890449277 -472.21248327514934 -447.16781947475005 -422.67037874629273 -398.72289478546173 -375.32747568918796 -352.48557474596504 -330.19795987027118 -308.46468141995587 -287.28503804962895 -266.65754013593209 -246.5798701489494 -227.04883911819354 -208.06033802131338 -189.60928246145181 -171.68954831840509 -154.29389503151589 -137.41387157751734 -121.03969764451401 -105.16010821290899 -89.762142192606674 -74.830841551211307 -60.348798304045722 -46.295420079248423 -32.64560382624795 -19.366848431666508 -6.4077923186989461 
</DataArray>
<DataArray type="Float64" Name="velocity_p0" NumberOfComponents="3" format="ascii">
0 0 1.6418936292822666e-09 0 0 4.9260986534586694e-09 0 0 8.2115566257130089e-09 0 0 1.1499102331544404e-08 0 0 1.478957043466722e-08 0 0 1.8083795428102051e-08 0 0 2.1382611585159631e-08 0 0 2.4686852910791573e-08 0 0 2.7997353092643692e-08 0 0 3.131494545275646e-08 0 0 3.4640462898861073e-08 0 0 3.7974737876098016e-08 0 0 4.1318602318484891e-08 0 0 4.4672887601218367e-08 0 0 4.8038424492400951e-08 0 0 5.1416043105476631e-08 0 0 5.4806572851514167e-08 0 0 5.8210842392008423e-08 0 0 6.1629679591488325e-08 0 0 6.5063911470941042e-08 0 0 6.8514364160827705e-08 0 0 7.1981862854844965e-08 0 0 7.5467231763713586e-08 0 0 7.8971294069413484e-08 0 0 8.2494871879664899e-08 0 0 8.6038786182405566e-08 0 0 8.9603856801327771e-08 0 0 9.3190902350955786e-08 0 0 9.6800740192516776e-08 0 0 1.004341863902128e-07 0 0 1.0409205566748546e-07 0 0 1.0777516136420642e-07 0 0 1.1148431539374407e-07 0 0 1.1522032820065392e-07 0 0 1.1898400871908566e-07 0 0 1.2277616433103085e-07 0 0 1.2659760082527173e-07 0 0 1.3044912235733376e-07 0 0 1.343315314086389e-07 0 0 1.3824562874740714e-07 0 0 1.4219221338927253e-07 0 0 1.4617208255883382e-07 0 0 1.5018603165111121e-07 0 0 1.5423485419416701e-07 0 0 1.5831934181174124e-07 0 0 1.624402841867112e-07 0 0 1.6659846902489284e-07 0 0 1.7079468201950267e-07 0 0 1.7502970681582536e-07 0 0 1.7930432497686773e-07 0 0 1.8361931594919177e-07 0 0 1.8797545702955711e-07 0 0 1.9237352333176877e-07 0 0 1.9681428775440493e-07 0 0 2.0129852094891006e-07 0 0 2.058269912881064e-07 0 0 2.1040046483557603e-07 0 0 2.150197053151462e-07 0 0 2.1968547408138194e-07 0 0 2.2439853009004546e-07 0 0 2.2915962986959245e-07 0 0 2.3396952749286264e-07 0 0 2.388289745494417e-07 0 0 2.4373872011813881e-07 0 0 2.4869951074057808e-07 0 0 2.5371209039458535e-07 0 0 2.5877720046846772e-07 0 0 2.6389557973548403e-07 0 0 2.6906796432899155e-07 0 0 2.742950877175361e-07 0 0 2.7957768068078412e-07 0 0 2.8491647128552067e-07 0 0 2.9031218486194511e-07 0 0 2.9576554398043803e-07 0 0 3.0127726842845404e-07 0 0 3.0684807518761153e-07 0 0 3.1247867841101472e-07 0 0 3.1816978940092851e-07 0 0 3.2392211658609588e-07 0 0 3.2973636549950431e-07 0 0 3.3561323875592086e-07 0 0 3.4155343602978846e-07 0 0 3.4755765403243563e-07 0 0 3.536265864897387e-07 0 0 3.597609241190588e-07 0 0 3.6596135460630287e-07 0 0 3.7222856258239801e-07 0 0 3.7856322959947077e-07 0 0 3.8496603410652694e-07 0 0 3.914376514243577e-07 0 0 3.9797875372023995e-07 0 0 4.0459000998129114e-07 0 0 4.112720859873241e-07 0 0 4.1802564428272104e-07 0 0 4.2485134414730395e-07 0 0 4.317498415655488e-07 0 0 4.3872178919530989e-07 0 0 4.4576783633416915e-07 0 0 4.5288862888492849e-07 0 0 4.6008480931907006e-07 0 0 4.6735701663826844e-07 0 0 4.7470588633403787e-07 0 0 4.8213205034510697e-07 0 0 4.8963613701225662e-07 0 0 4.972187710307997e-07 0 0 5.0488057339998819e-07 0 0 5.1262216136965746e-07 0 0 5.2044414838356784e-07 0 0 5.2834714401911648e-07 0 0 5.3633175392349709e-07 0 0 5.4439857974573105e-07 0 0 5.5254821906452878e-07 0 0 5.6078126531161697e-07 0 0 5.6909830768992812e-07 0 0 5.774999310866009e-07 0 0 5.8598671598081859e-07 0 0 5.9455923834519424e-07 0 0 6.0321806954104506e-07 0 0 6.1196377620673906e-07 0 0 6.2079692013923856e-07 0 0 6.297180581674141e-07 0 0 6.3872774201774075e-07 0 0 6.4782651817093953e-07 0 0 6.5701492770957121e-07 0 0 6.6629350615584838e-07 0 0 6.7566278329896074e-07 0 0 6.8512328301134122e-07 0 0 6.9467552305330625e-07 0 0 7.0432001486492942e-07 0 0 7.1405726334497169e-07 0 0 7.2388776661567527e-07 0 0 7.3381201577261891e-07 0 0 7.4383049461844465e-07 0 0 7.5394367938029836e-07 0 0 7.6415203840893661e-07 0 0 7.7445603185933262e-07 0 0 7.8485611135078782e-07 0 0 7.9535271960599718e-07 0 0 8.0594629006743502e-07 0 0 8.1663724648972242e-07 0 0 8.2742600250650293e-07 0 0 8.383129611705236e-07 0 0 8.4929851446453296e-07 0 0 8.6038304278252043e-07 0 0 8.7156691437808172e-07 0 0 8.8285048477861937e-07 0 0 8.9423409616347192e-07 0 0 9.0571807670311474e-07 0 0 9.1730273985761448e-07 0 0 9.2898838363141501e-07 0 0 9.4077528978200262e-07 0 0 9.5266372297956407e-07 0 0 9.6465392991436985e-07 0 0 9.7674613834895828e-07 0 0 9.8894055611148004e-07 0 0 1.0012373700265177e-06 0 0 1.0136367447792854e-06 0 0 1.0261388217095564e-06 0 0 1.0387437175303722e-06 0 0 1.0514515229668408e-06 0 0 1.0642623013101071e-06 0 0 1.0771760868810389e-06 0 0 1.0901928833976768e-06 0 0 1.1033126622407476e-06 0 0 1.1165353606098381e-06 0 0 1.1298608795643055e-06 0 0 1.1432890819400961e-06 0 0 1.1568197901359093e-06 0 0 1.1704527837589116e-06 0 0 1.1841877971214104e-06 0 0 1.1980245165785559e-06 0 0 1.2119625776971753e-06 0 0 1.226001562243116e-06 0 0 1.2401409949768446e-06 0 0 1.2543803402433967e-06 0 0 1.2687189983433485e-06 0 0 1.2831563016699605e-06 0 0 1.2976915105971339e-06 0 0 1.3123238091015321e-06 0 0 1.3270523001001262e-06 0 0 1.3418760004847955e-06 0 0 1.3567938358334894e-06 0 0 1.3718046347750699e-06 0 0 1.3869071229857266e-06 0 0 1.4020999167904348e-06 0 0 1.4173815163437593e-06 0 0 1.432750298360703e-06 0 0 1.4482045083669997e-06 0 0 1.4637422524363571e-06 0 0 1.4793614883793499e-06 0 0 1.4950600163470378e-06 0 0 1.5108354688091455e-06 0 0 1.5266852998649471e-06 0 0 1.5426067738409624e-06 0 0 1.558596953128683e-06 0 0 1.5746526852103337e-06 0 0 1.5907705888192599e-06 0 0 1.606947039177971e-06 0 0 1.6231781522529689e-06 0 0 1.6394597679634602e-06 0 0 1.655787432276525e-06 0 0 1.6721563781194452e-06 0 0 1.6885615050354803e-06 0 0 1.7049973575080345e-06 0 0 1.7214581018741455e-06 0 0 1.7379375017475827e-06 0 0 1.7544288918695767e-06 0 0 1.7709251503045658e-06 0 0 1.7874186688996731e-06 0 0 1.8039013219274264e-06 0 0 1.8203644328360526e-06 0 0 1.8367987390363239e-06 0 0 1.853194354664099e-06 0 0 1.8695407312683611e-06 0 0 1.8858266163926572e-06 0 0 1.9020400100386813e-06 0 0 1.9181681190297611e-06 0 0 1.9341973093285297e-06 0 0 1.9501130564098362e-06 0 0 1.9658998938485407e-06 0 0 1.9815413603554842e-06 0 0 1.9970199455869175e-06 0 0 2.0123170351659628e-06 0 0 2.02741285549618e-06 0 0 2.0422864191201947e-06 0 0 2.0569154715903973e-06 0 0 2.071276441081122e-06 0 0 2.0853443922937411e-06 0 0 2.0990929866024637e-06 0 0 2.1124944508745713e-06 0 0 2.1255195579978124e-06 0 0 2.1381376228866506e-06 0 0 2.1503165186562756e-06 0 0 2.1620227187961951e-06 0 0 2.1732213726154175e-06 0 0 2.183876423062628e-06 0 0 2.1939507783939479e-06 0 0 2.2034065522819192e-06 0 0 2.212205391181589e-06 0 0 2.2203089136610577e-06 0 0 2.2276792949540297e-06 0 0 2.2342800430018098e-06 0 0 2.2400770331956222e-06 0 0 2.2450399050843292e-06 0 0 2.2491439916096272e-06 0 0 2.2523730903045535e-06 0 0 2.2547237129408523e-06 0 0 2.256212381581353e-06 0 0 2.2568911970652953e-06 0 0 2.2569160484299837e-06 
</DataArray>
<DataArray type="Float64" Name="water_content" format="ascii">
0.20649809060466168 0.20649950058141237 0.20650231459559776 0.20650653351466464 0.20651215863960826 0.20651919170523381 0.20652763488050474 0.2065374907689792 0.20654876240933423 0.20656145327597888 0.2065755672797569 0.20659110876873912 0.20660808252910737 0.20662649378612974 0.20664634820522929 0.20666765189314659 0.2066904113991978 0.20671463371662921 0.20674032628407024 0.20676749698708574 0.20679615415982988 0.20682630658680312 0.20685796350471375 0.20689113460444686 0.20692583003314166 0.2069620603963806 0.20699983676049125 0.20703917065496458 0.20708007407499121 0.20712255948411892 0.20716663981703382 0.20721232848246812 0.2072596393662377 0.20730858683441244 0.20735918573662254 0.20741145140950448 0.20746539968028971 0.2075210468705404 0.20757840980003542 0.20763750579081092 0.20769835267135947 0.20776096878099209 0.20782537297436762 0.20789158462619381 0.20795962363610526 0.20802951043372286 0.20810126598389972 0.20817491179215947 0.20825046991033147 0.20832796294238962 0.20840741405049967 0.20848884696128184 0.20857228597229455 0.20865775595874608 0.20874528238044049 0.20883489128896524 0.20892660933512702 0.20902046377664404 0.20911648248610171 0.20921469395918002 0.20931512732316082 0.2094178123457236 0.20952277944403791 0.20963005969416271 0.20973968484076053 0.20985168730713771 0.20996610020561957 0.21008295734827132 0.21020229325797599 0.21032414317987946 0.21044854309321515 0.21057552972351962 0.21070514055525158 0.21083741384482751 0.21097238863408613 0.21111010476419673 0.21125060289002418 0.21139392449496652 0.21154011190627936 0.21168920831090349 0.21184125777181168 0.21199630524489166 0.21215439659638291 0.21231557862088518 0.21247989905995798 0.21264740662132997 0.21281815099873902 0.21299218289242372 0.21316955403028798 0.21335031718976144 0.21353452622037944 0.21372223606710594 0.21391350279442589 0.21410838361123202 0.21430693689653416 0.21450922222601887 0.21471530039948894 0.21492523346921291 0.21513908476921662 0.21535691894554959 0.21557880198756021 0.21580480126021551 0.21603498553750222 0.21626942503694779 0.21650819145530115 0.21675135800541454 0.21699899945436996 0.21725119216289498 0.21750801412611492 0.21776954501568949 0.21803586622338514 0.21830706090613572 0.21858321403264608 0.21886441243159604 0.21915074484150432 0.2194423019623139 0.21973917650876432 0.22004146326561758 0.22034925914480774 0.22066266324458764 0.22098177691074883 0.22130670379999406 0.22163754994554508 0.22197442382507243 0.2223174364310363 0.22266670134353367 0.2230223348057484 0.22338445580210692 0.22375318613924705 0.22412865052990888 0.22451097667986578 0.22490029537801542 0.2252967405897571 0.22570044955378743 0.22611156288245188 0.22653022466579553 0.22695658257946294 0.22739078799660289 0.22783299610394192 0.2282833660221964 0.22874206093100047 0.22920924819853608 0.22968509951605764 0.23016979103751378 0.23066350352447645 0.23116642249659711 0.23167873838781911 0.23220064670858526 0.23273234821428929 0.23327404908023186 0.23382596108335021 0.23438830179100512 0.234961294757117 0.2355451697259584 0.23614016284391973 0.23674651687957976 0.23736448145242456 0.23799431327057174 0.23863627637787144 0.23929064241076847 0.23995769086532415 0.24063770937481077 0.24133099399830565 0.24203784952072538 0.24275858976475559 0.24349353791514416 0.24424302685583937 0.24500739952046699 0.24578700925665153 0.24658222020469744 0.24739340769115531 0.2482209586378043 0.24906527198658854 0.24992675914104637 0.250805844424771 0.25170296555743626 0.25261857414891176 0.253553136211977 0.25450713269412384 0.25548106002890514 0.2564754307072532 0.25749077386914021 0.25852763591589512 0.25958658114341332 0.26066819239640748 0.26177307174373321 0.26290184117469118 0.26405514331604762 0.26523364216932055 0.26643802386765569 0.26766899745134587 0.2689272956607297 0.27021367574483424 0.27152892028368669 0.2728738380217075 0.2742492647089958 0.27565606394661363 0.27709512803115488 0.27856737879292581 0.28007376842094434 0.28161528026666061 0.283192929616781 0.28480776442380429 0.28646086598081399 0.28815334952466198 0.28988636474887253 0.2916610962043249 0.29347876356195374 0.29534062170725545 0.29724796063118564 0.29920210507595602 0.3012044138871347 0.30325627901512936 0.30535912409938615 0.30751440255719487 0.3097235950855432 0.31198820646863956 0.31430976156505841 0.31668980032640237 0.31912987167324336 0.32163152602305495 0.32419630622783635 0.32682573663485531 0.3295213099307272 0.33228447136480477 0.33511659986981679 0.33801898550228227 0.34099280250764685 0.34403907716889048 0.3471586494136748 0.35035212692153594 0.35361983017155696 0.35696172647672603 0.36037735052578468 0.36386570823903741 0.36742515975149381 0.37105327592132797 0.37474666068786167 0.3785007284699673 0.38230942089589431 0.3861648391894143 0.3900567549962608 0.39397193818761844 0.39789319396345163 0.40179790643735058 0.40565566962732114 0.40942402473117367 0.41303954497148254 0.41639365934712436 0.41899392234537114 
</DataArray>
<DataArray type="Float64" Name="conductivity_richards" format="ascii">