<?xml version="1.0"?>
<VTKFile type="UnstructuredGrid" version="0.1" byte_order="LittleEndian">
<UnstructuredGrid>
<Piece NumberOfPoints="251" NumberOfCells="250">
<Points>
<DataArray type="Float64" NumberOfComponents="3" format="ascii">
0 0 -0.25 0 0 -0.24899999999999739 0 0 -0.2479999999999947 0 0 -0.24699999999999209 0 0 -0.24599999999998939 0 0 -0.24499999999998681 0 0 -0.24299999999998159 0 0 -0.2439999999999842 0 0 -0.23499999999996049 0 0 -0.2359999999999631 0 0 -0.23699999999996571 0 0 -0.2379999999999684 0 0 -0.23899999999997101 0 0 -0.2399999999999736 0 0 -0.24099999999997629 0 0 -0.2419999999999789 0 0 -0.22699999999993939 0 0 -0.227999999999942 0 0 -0.22899999999994469 0 0 -0.2299999999999473 0 0 -0.23099999999994991 0 0 -0.23199999999995249 0 0 -0.23299999999995519 0 0 -0.2339999999999578 0 0 -0.22499999999993411 0 0 -0.2259999999999367 0 0 -0.22399999999993139 0 0 -0.22299999999992881 0 0 -0.2219999999999262 0 0 -0.22099999999992359 0 0 -0.2199999999999209 0 0 -0.21899999999991829 0 0 -0.21799999999991571 0 0 -0.21699999999991301 0 0 -0.21499999999990771 0 0 -0.2159999999999104 0 0 -0.21299999999990249 0 0 -0.2139999999999051 0 0 -0.21199999999989991 0 0 -0.21099999999989719 0 0 -0.2099999999998946 0 0 -0.20899999999989191 0 0 -0.2079999999998893 0 0 -0.20399999999987881 0 0 -0.20499999999988139 0 0 -0.205999999999884 0 0 -0.20699999999988669 0 0 -0.18899999999983921 0 0 -0.1879999999998366 0 0 -0.19099999999984449 0 0 -0.18999999999984191 0 0 -0.19299999999984971 0 0 -0.1919999999998471 0 0 -0.19499999999985501 0 0 -0.1939999999998524 0 0 -0.19699999999986029 0 0 -0.1959999999998577 0 0 -0.19899999999986559 0 0 -0.19799999999986301 0 0 -0.20099999999987081 0 0 -0.1999999999998682 0 0 -0.20299999999987611 0 0 -0.2019999999998735 0 0 -0.13099999999968631 0 0 -0.13199999999968889 0 0 -0.1299999999996837 0 0 -0.12899999999968109 0 0 -0.1279999999996784 0 0 -0.12699999999967579 0 0 -0.12599999999967451 0 0 -0.13999999999971011 0 0 -0.13899999999970741 0 0 -0.1379999999997048 0 0 -0.13699999999970211 0 0 -0.1359999999996995 0 0 -0.13499999999969689 0 0 -0.13299999999969159 0 0 -0.1339999999996942 0 0 -0.14699999999972849 0 0 -0.1479999999997311 0 0 -0.14599999999972579 0 0 -0.14499999999972321 0 0 -0.1439999999997206 0 0 -0.14299999999971799 0 0 -0.1419999999997153 0 0 -0.14099999999971269 0 0 -0.1559999999997522 0 0 -0.15499999999974959 0 0 -0.15399999999974701 0 0 -0.15299999999974431 0 0 -0.1519999999997417 0 0 -0.15099999999973901 0 0 -0.14899999999973379 0 0 -0.1499999999997364 0 0 -0.16299999999977069 0 0 -0.1639999999997733 0 0 -0.161999999999768 0 0 -0.16099999999976539 0 0 -0.1599999999997628 0 0 -0.15899999999976011 0 0 -0.1579999999997575 0 0 -0.15699999999975489 0 0 -0.17099999999979171 0 0 -0.1699999999997891 0 0 -0.16899999999978649 0 0 -0.16799999999978391 0 0 -0.16699999999978121 0 0 -0.16499999999977599 0 0 -0.1659999999997786 0 0 -0.1779999999998102 0 0 -0.17899999999981281 0 0 -0.17699999999980759 0 0 -0.17599999999980501 0 0 -0.17499999999980231 0 0 -0.1739999999997997 0 0 -0.17299999999979701 0 0 -0.1719999999997944 0 0 -0.18699999999983391 0 0 -0.1859999999998313 0 0 -0.18499999999982869 0 0 -0.183999999999826 0 0 -0.18299999999982339 0 0 -0.18199999999982069 0 0 -0.1799999999998155 0 0 -0.18099999999981811 0 0 -0.068999999999833792 0 0 -0.069999999999830878 0 0 -0.067999999999836705 0 0 -0.066999999999839618 0 0 -0.065999999999842532 0 0 -0.064999999999845445 0 0 -0.063999999999848373 0 0 -0.062999999999851286 0 0 -0.077999999999807557 0 0 -0.07699999999981047 0 0 -0.075999999999813383 0 0 -0.074999999999816297 0 0 -0.07399999999981921 0 0 -0.072999999999822124 0 0 -0.070999999999827965 0 0 -0.071999999999825051 0 0 -0.083999999999790062 0 0 -0.084999999999787149 0 0 -0.082999999999792975 0 0 -0.081999999999795889 0 0 -0.080999999999798802 0 0 -0.07999999999980173 0 0 -0.078999999999804643 0 0 -0.092999999999763827 0 0 -0.091999999999766741 0 0 -0.090999999999769654 0 0 -0.089999999999772567 0 0 -0.088999999999775481 0 0 -0.087999999999778394 0 0 -0.085999999999784235 0 0 -0.086999999999781322 0 0 -0.099999999999743419 0 0 -0.10099999999974051 0 0 -0.098999999999746333 0 0 -0.097999999999749246 0 0 -0.096999999999752159 0 0 -0.095999999999755073 0 0 -0.094999999999758 0 0 -0.093999999999760914 0 0 -0.1089999999997172 0 0 -0.1079999999997201 0 0 -0.106999999999723 0 0 -0.1059999999997259 0 0 -0.1049999999997288 0 0 -0.10399999999973179 0 0 -0.10199999999973761 0 0 -0.10299999999973471 0 0 -0.1159999999996968 0 0 -0.11699999999969379 0 0 -0.1149999999996997 0 0 -0.1139999999997026 0 0 -0.1129999999997055 0 0 -0.1119999999997084 0 0 -0.1109999999997113 0 0 -0.1099999999997143 0 0 -0.12499999999967321 0 0 -0.1239999999996748 0 0 -0.1229999999996764 0 0 -0.1219999999996793 0 0 -0.1209999999996822 0 0 -0.11999999999968509 0 0 -0.11799999999969089 0 0 -0.11899999999968799 0 0 -0.047999999999895078 0 0 -0.046999999999897998 0 0 -0.049999999999889237 0 0 -0.048999999999892158 0 0 -0.051999999999883403 0 0 -0.050999999999886317 0 0 -0.053999999999877563 0 0 -0.052999999999880483 0 0 -0.055999999999871722 0 0 -0.054999999999874642 0 0 -0.057999999999865881 0 0 -0.056999999999868801 0 0 -0.059999999999860047 0 0 -0.058999999999862961 0 0 -0.061999999999854213 0 0 -0.060999999999857127 0 0 -0.042999999999909673 0 0 -0.043999999999906753 0 0 -0.044999999999903832 0 0 -0.045999999999900919 0 0 -0.041999999999912593 0 0 -0.040999999999915507 0 0 -0.039999999999918427 0 0 -0.038999999999921348 0 0 -0.037999999999924268 0 0 -0.035999999999930102 0 0 -0.036999999999927188 0 0 -0.033999999999935943 0 0 -0.034999999999933022 0 0 -0.032999999999938787 0 0 -0.031999999999941367 0 0 -0.03099999999994377 0 0 -0.02999999999994565 0 0 -0.028999999999947419 0 0 -0.027999999999948951 0 0 -0.02699999999995048 0 0 -0.02599999999995202 0 0 -0.023999999999955082 0 0 -0.024999999999953549 0 0 -0.01599999999996761 0 0 -0.0169999999999659 0 0 -0.01799999999996427 0 0 -0.018999999999962731 0 0 -0.019999999999961209 0 0 -0.020999999999959669 0 0 -0.02199999999995814 0 0 -0.022999999999956611 0 0 -0.007999999999984719 0 0 -0.008999999999982581 0 0 -0.0099999999999804221 0 0 -0.010999999999978201 0 0 -0.011999999999975971 0 0 -0.01299999999997375 0 0 -0.01399999999997158 0 0 -0.014999999999969531 0 0 -0.0059999999999886811 0 0 -0.0069999999999867156 0 0 -0.004999999999990571 0 0 -0.0039999999999924488 0 0 -0.0029999999999943271 0 0 -0.001999999999996204 0 0 -0.00099999999999810158 0 0 0 
</DataArray>
</Points>
<Cells>
<DataArray type="UInt32" Name="connectivity" format="ascii">
1 0 2 1 3 2 4 3 5 4 7 5 15 6 6 7 23 8 8 9 9 10 10 11 11 12 12 13 13 14 14 15 16 17 17 18 18 19 19 20 20 21 21 22 22 23 24 25 25 16 26 24 27 26 28 27 29 28 30 29 31 30 32 31 33 32 34 35 35 33 36 37 37 34 38 36 39 38 40 39 41 40 42 41 46 42 61 43 43 44 44 45 45 46 48 47 50 49 47 50 52 51 49 52 54 53 51 54 56 55 53 56 58 57 55 58 60 59 57 60 62 61 59 62 63 64 64 76 65 63 66 65 67 66 68 67 69 68 180 69 70 85 71 70 72 71 73 72 74 73 75 74 76 77 77 75 80 78 78 79 81 80 82 81 83 82 84 83 85 84 87 86 88 87 89 88 90 89 91 90 93 91 79 92 92 93 96 94 94 95 97 96 98 97 99 98 100 99 101 100 86 101 102 116 103 102 104 103 105 104 106 105 108 106 95 107 107 108 109 110 110 123 111 109 112 111 113 112 114 113 115 114 116 115 117 48 118 117 119 118 120 119 121 120 122 121 123 124 124 122 127 125 125 126 128 127 129 128 130 129 131 130 132 131 134 133 135 134 136 135 137 136 138 137 140 138 126 139 139 140 141 142 142 154 143 141 144 143 145 144 146 145 147 146 133 147 148 163 149 148 150 149 151 150 152 151 153 152 154 155 155 153 156 157 157 170 158 156 159 158 160 159 161 160 162 161 163 162 165 164 166 165 167 166 168 167 169 168 170 171 171 169 174 172 172 173 175 174 176 175 177 176 178 177 179 178 164 179 181 180 182 181 183 182 184 183 185 184 187 185 173 186 186 187 188 191 189 188 190 193 191 190 192 195 193 192 194 197 195 194 196 199 197 196 198 201 199 198 200 203 201 200 202 132 203 202 204 205 205 206 206 207 207 189 208 204 209 208 210 209 211 210 212 211 214 212 216 213 213 214 217 215 215 216 218 217 219 218 220 219 221 220 222 221 223 222 224 223 226 224 234 225 225 226 227 228 228 229 229 230 230 231 231 232 232 233 233 234 235 236 236 237 237 238 238 239 239 240 240 241 241 242 242 227 243 244 244 235 245 243 246 245 247 246 248 247 249 248 250 249 
</DataArray>
<DataArray type="UInt32" Name="offsets" format="ascii">
2 4 6 8 10 12 14 16 18 20 22 24 26 28 30 32 34 36 38 40 42 44 46 48 50 52 54 56 58 60 62 64 66 68 70 72 74 76 78 80 82 84 86 88 90 92 94 96 98 100 102 104 106 108 110 112 114 116 118 120 122 124 126 128 130 132 134 136 138 140 142 144 146 148 150 152 154 156 158 160 162 164 166 168 170 172 174 176 178 180 182 184 186 188 190 192 194 196 198 200 202 204 206 208 210 212 214 216 218 220 222 224 226 228 230 232 234 236 238 240 242 244 246 248 250 252 254 256 258 260 262 264 266 268 270 272 274 276 278 280 282 284 286 288 290 292 294 296 298 300 302 304 306 308 310 312 314 316 318 320 322 324 326 328 330 332 334 336 338 340 342 344 346 348 350 352 354 356 358 360 362 364 366 368 370 372 374 376 378 380 382 384 386 388 390 392 394 396 398 400 402 404 406 408 410 412 414 416 418 420 422 424 426 428 430 432 434 436 438 440 442 444 446 448 450 452 454 456 458 460 462 464 466 468 470 472 474 476 478 480 482 484 486 488 490 492 494 496 498 500 
</DataArray>
<DataArray type="UInt32" Name="types" format="ascii">
3 3 3 3 3 3 3 3 3 3 3 3 3 3 3 3 3 3 3 3 3 3 3 3 3 3 3 3 3 3 3 3 3 3 3 3 3 3 3 3 3 3 3 3 3 3 3 3 3 3 3 3 3 3 3 3 3 3 3 3 3 3 3 3 3 3 3 3 3 3 3 3 3 3 3 3 3 3 3 3 3 3 3 3 3 3 3 3 3 3 3 3 3 3 3 3 3 3 3 3 3 3 3 3 3 3 3 3 3 3 3 3 3 3 3 3 3 3 3 3 3 3 3 3 3 3 3 3 3 3 3 3 3 3 3 3 3 3 3 3 3 3 3 3 3 3 3 3 3 3 3 3 3 3 3 3 3 3 3 3 3 3 3 3 3 3 3 3 3 3 3 3 3 3 3 3 3 3 3 3 3 3 3 3 3 3 3 3 3 3 3 3 3 3 3 3 3 3 3 3 3 3 3 3 3 3 3 3 3 3 3 3 3 3 3 3 3 3 3 3 3 3 3 3 3 3 3 3 3 3 3 3 3 3 3 3 3 3 3 3 3 3 3 3 3 3 3 3 3 3 
</DataArray>
</Cells>
<CellData Scalars="pressure_p0,water_content,conductivity_richards," Vectors="velocity_p0," Tensors="">
<DataArray type="Float64" Name="pressure_p0" format="ascii">
-14.161594476605835 -43.344118575738101 -74.44486935815506 -107.77529096367448 -143.52658903860382 -181.83586667410475 -266.49229851914606 -222.80186044477892 -714.73275506452046 -649.43310952330989 -586.65954812977361 -526.48930047483088 -468.9880305805865 -414.20831344230498 -362.18798989939864 -312.94837761640861 -1234.2541449425071 -1154.1325098265106 -1075.7796400831687 -999.31921956954125 -924.87140769828261 -852.55193143468387 -782.47110241521727 -1399.2963525364394 -1316.0181814297009 -1483.9592062195643 -1569.8767629501613 -1656.9191167268327 -1744.956984985266 -1833.8622079664797 -1923.508200756766 -2013.7703605887605 -2104.526431908791 -2287.0449369218618 -2195.6568316318126 -2470.1440564184522 -2378.5773377524674 -2561.6387360880244 -2652.9588004020284 -2744.0055860462635 -2834.6844501428595 -2924.9048542279425 -3014.5804265056522 -3366.2546468704099 -3279.5376910854166 -3191.972656095998 -3103.6290039930054 -4530.3737314279888 -4392.2061294961331 -4462.0014388181571 -4248.4064871821874 -4321.0020689708836 -4099.1252219710586 -4174.4396991618623 -3944.5639543692801 -4022.4898873894294 -3784.9791071982836 -3865.3812168546347 -3620.6852765224667 -3703.398794422792 -3452.0582673995214 -3536.8874659526009 -6418.6925245759248 -6408.7513791850324 -6428.20591101846 -6437.3074278135427 -6446.0125221642211 -6454.3362036027611 -6462.2930478128883 -6469.8971997913359 -6311.769208854158 -6325.7578686412453 -6339.1756400962931 -6352.0419617605585 -6364.3758329966868 -6376.195815196852 -6398.3661415977022 -6387.5200287593543 -6214.7066668334046 -6196.1423230709424 -6232.5524599949294 -6249.7019663418323 -6266.1770817945089 -6281.9993188399831 -6297.1897911282285 -6018.9811279735986 -6044.1333305344488 -6068.3779715963683 -6091.7395097364761 -6114.2422211038356 -6135.9101706362089 -6176.8368127104695 -6156.7671832763763 -5815.4281526400055 -5782.1255312977009 -5847.6256186587161 -5878.7424002947573 -5908.8031334843145 -5937.8325645409059 -5965.8554999289008 -5992.8967577814592 -5473.084231111683 -5516.0692837440056 -5557.7667488571715 -5598.1974893869128 -5637.3830761508716 -5675.3457014766391 -5747.693504283865 -5712.1081036030937 -5134.5712380709474 -5080.6475029323774 -5187.0763568899529 -5238.1748655266465 -5287.8802225148247 -5336.2072291508002 -5383.171928567961 -5428.791514246961 -4597.3115870552665 -4662.8063129279126 -4726.8518162289474 -4789.4444828678397 -4850.5830630582914 -4910.268548318747 -5025.2947011935576 -4968.5040527522742 -6612.5567899146554 -6612.1606720080254 -6612.9308395316784 -6613.2839940624763 -6613.6173638457549 -6613.9320074931311 -6614.2289344647706 -6608.0347539478862 -6608.6576783891596 -6609.2466783636301 -6609.8035066298125 -6610.3298276501064 -6610.8272291549902 -6611.7412511808598 -6611.2972256664252 -6602.5576321819608 -6601.5887806550854 -6603.4750160846852 -6604.3435083561435 -6605.1655721743136 -6605.9435509182731 -6606.6796728343943 -6607.3760641495001 -6591.632771311205 -6593.1220571992344 -6594.5343625886844 -6595.8734059106237 -6597.1427444313995 -6598.3457766047595 -6600.5657618122987 -6599.4857480164828 -6578.7028117784557 -6576.4421187426451 -6580.8501215482083 -6582.8893098328135 -6584.8254194594292 -6586.6632843662956 -6588.4075368070662 -6590.0626171802687 -6556.9513296319801 -6560.1729193162901 -6563.2375561895933 -6566.1522416247635 -6568.9237025455168 -6574.0625555791376 -6571.5584035134571 -6529.3563227851409 -6524.5916211985459 -6533.8972548416377 -6538.2238980059592 -6542.3453951603715 -6546.2705569846785 -6550.007870309897 -6553.5655050550722 -6477.1623794254956 -6484.1018869384143 -6490.7286087787834 -6497.0550239114727 -6503.0932104664043 -6508.8548527056328 -6519.5933220724901 -6514.3512482705764 -6617.1032380765537 -6617.2183518623297 -6616.8511125720688 -6616.9809670181658 -6616.5668344705273 -6616.7132270031661 -6616.246481778011 -6616.4114296950356 -6615.8856829465331 -6616.0714301312501 -6615.4795689463617 -6615.6886155939601 -6615.0227181783694 -6615.257847627101 -6614.5090990858462 -6614.7734071471386 -6617.6149748407788 -6617.5246723210166 -6617.4286981331497 -6617.3267114752307 -6617.6999277645446 -6617.7798354093675 -6617.8549852433844 -6617.9256487479252 -6617.992082237356 -6618.0545276384528 -6618.1683543512672 -6618.1132132310049 -6618.2688037755579 -6618.2201540598544 -6618.3144838765584 -6618.3573642704469 -6618.3976049343655 -6618.4353564265466 -6618.4707603704992 -6618.5039499130326 -6618.5350501571775 -6618.5641785711414 -6618.6169539011134 -6618.5914453742862 -6618.7536441130651 -6618.7380675101622 -6618.7212895466673 -6618.7032465599495 -6618.6838669566523 -6618.6630770768616 -6618.6408009441875 -6618.8411671501635 -6618.8334300069055 -6618.8248481552964 -6618.8153903601196 -6618.8050268027218 -6618.7937190480225 -6618.7814199106497 -6618.768078355065 -6618.854214427327 -6618.8480873925218 -6618.8595694841661 -6618.864171403613 -6618.8680351365028 -6618.871172580577 -6618.8735926225036 -6618.8753011693098 
</DataArray>
<DataArray type="Float64" Name="velocity_p0" NumberOfComponents="3" format="ascii">
0 0 4.9125050520757214e-06 0 0 4.9222769136032771e-06 0 0 4.9251120376809035e-06 0 0 4.9181969420044502e-06 0 0 4.901060244990343e-06 0 0 4.8739905903164873e-06 0 0 4.7929936892379993e-06 0 0 4.8376717154595004e-06 0 0 4.2451699509511715e-06 0 0 4.3248032813772346e-06 0 0 4.4025472305473656e-06 0 0 4.4778552499998738e-06 0 0 4.5501011972221207e-06 0 0 4.6185746082039921e-06 0 0 4.6824784191222847e-06 0 0 4.7409337406962499e-06 0 0 3.6673747674794421e-06 0 0 3.7500982609281473e-06 0 0 3.8331332976782444e-06 0 0 3.9162925043344179e-06 0 0 3.9993561079132382e-06 0 0 4.0820660814129594e-06 0 0 4.1641212154867687e-06 0 0 3.5034756790771579e-06 0 0 3.5851221678220593e-06 0 0 3.4225499727142735e-06 0 0 3.3424418066871163e-06 0 0 3.2632327200659225e-06 0 0 3.1849911293037057e-06 0 0 3.1077741631458325e-06 0 0 3.0316292327617571e-06 0 0 2.9565953756174519e-06 0 0 2.8827044062992022e-06 0 0 2.7384480522477649e-06 0 0 2.8099819027534663e-06 0 0 2.5990043622594559e-06 0 0 2.6681183777414079e-06 0 0 2.531113986205992e-06 0 0 2.4644521902992765e-06 0 0 2.3990212749000633e-06 0 0 2.3348212448798314e-06 0 0 2.2718501078084313e-06 0 0 2.2101041320795605e-06 0 0 1.9752480698495769e-06 0 0 2.032158263847853e-06 0 0 2.0902653549548683e-06 0 0 2.1495780706149654e-06 0 0 1.2573402308542249e-06 0 0 1.3391542673117107e-06 0 0 1.2977454352901258e-06 0 0 1.4250415642076471e-06 0 0 1.3815814354481818e-06 0 0 1.5151181496472206e-06 0 0 1.469549029480123e-06 0 0 1.6094974941234013e-06 0 0 1.5617630151707771e-06 0 0 1.7082894425278462e-06 0 0 1.6583351979213927e-06 0 0 1.8115990706653583e-06 0 0 1.7593732044398698e-06 0 0 1.9195251669445138e-06 0 0 1.8649791817707472e-06 0 0 1.4121370176150576e-07 0 0 1.4770556363720742e-07 0 0 1.3497623831622942e-07 0 0 1.2898482907517696e-07 0 0 1.2323130563594008e-07 0 0 1.1770774696201874e-07 0 0 1.1240636973101587e-07 0 0 1.0731959954814751e-07 0 0 2.0986468941118554e-07 0 0 2.0101383139296511e-07 0 0 1.9249115177156241e-07 0 0 1.842867454272081e-07 0 0 1.7639082272785729e-07 0 0 1.6879402539235123e-07 0 0 1.5446036277696036e-07 0 0 1.614869540169295e-07 0 0 2.70440564352604e-07 0 0 2.8188211210409592e-07 0 0 2.5940187677041234e-07 0 0 2.4875481843922444e-07 0 0 2.384883595071697e-07 0 0 2.2859160618608018e-07 0 0 2.1905382441359112e-07 0 0 3.893241616085334e-07 0 0 3.7423412406596551e-07 0 0 3.5964312255073956e-07 0 0 3.4553854758689704e-07 0 0 3.3190791478462024e-07 0 0 3.1873901301453898e-07 0 0 2.9373793304711356e-07 0 0 3.0601969075274248e-07 0 0 5.1001877032850288e-07 0 0 5.2957309708948014e-07 0 0 4.9106968505616854e-07 0 0 4.7271208749222498e-07 0 0 4.5493237279729421e-07 0 0 4.3771700406506231e-07 0 0 4.2105264549335041e-07 0 0 4.049260022171096e-07 0 0 7.0948480354432558e-07 0 0 6.8457975824493718e-07 0 0 6.6039396974364781e-07 0 0 6.3691284824922897e-07 0 0 6.1412200956606924e-07 0 0 5.9200680037701013e-07 0 0 5.4974654179445566e-07 0 0 5.7055302449672653e-07 0 0 9.0519994455930797e-07 0 0 9.363925518035355e-07 0 0 8.7484566131464607e-07 0 0 8.4531465086515455e-07 0 0 8.1659199490949264e-07 0 0 7.8866252038056804e-07 0 0 7.6151139871058429e-07 0 0 7.3512377513550612e-07 0 0 1.217923844916466e-06 0 0 1.1794815001256594e-06 0 0 1.1419980062556951e-06 0 0 1.1054584651422539e-06 0 0 1.0698478224851199e-06 0 0 1.035150995174199e-06 0 0 9.6843856094225324e-07 0 0 1.0013528821981822e-06 0 0 5.4596057426957071e-09 0 0 5.7823196804075839e-09 0 0 5.1540440784533911e-09 0 0 4.8647765692769247e-09 0 0 4.5908642688317561e-09 0 0 4.3317667615767149e-09 0 0 4.086619239038764e-09 0 0 9.0990473598799663e-09 0 0 8.6029214263542778e-09 0 0 8.1324419996078998e-09 0 0 7.6863714126061195e-09 0 0 7.263413646907595e-09 0 0 6.8626622888233298e-09 0 0 6.1230851072181264e-09 0 0 6.4829236190362645e-09 0 0 1.3406283557990262e-08 0 0 1.415935241895037e-08 0 0 1.2690974909614982e-08 0 0 1.2011675538161669e-08 0 0 1.1366875015291914e-08 0 0 1.0754628830404248e-08 0 0 1.0173564070553307e-08 0 0 9.6221137297460699e-09 0 0 2.1779261501949785e-08 0 0 2.0651526036942706e-08 0 0 1.9578480187494981e-08 0 0 1.8557698285215895e-08 0 0 1.7586902196131378e-08 0 0 1.6663744509641325e-08 0 0 1.4952007396850169e-08 0 0 1.5786126638799255e-08 0 0 3.1429462078430154e-08 0 0 3.3094296533131782e-08 0 0 2.9842463285808043e-08 0 0 2.8330014929548347e-08 0 0 2.6888911208879977e-08 0 0 2.5516177539441252e-08 0 0 2.420883510802264e-08 0 0 2.2964209193450771e-08 0 0 4.7229778814238421e-08 0 0 4.4917529766143343e-08 0 0 4.2709682891824911e-08 0 0 4.0602038630839733e-08 0 0 3.8590481201800135e-08 0 0 3.4840373123322904e-08 0 0 3.667120028536214e-08 0 0 6.6722431622971129e-08 0 0 7.0038881823969922e-08 0 0 6.3549382154537632e-08 0 0 6.0514306078791779e-08 0 0 5.7611978922037728e-08 0 0 5.4837218847998929e-08 0 0 5.218512011889047e-08 0 0 4.9650772648390082e-08 0 0 1.0244005151061834e-07 0 0 9.7760528713586327e-08 0 0 9.32740206140359e-08 0 0 8.8973701256221736e-08 0 0 8.4852927369165253e-08 0 0 8.090523633806843e-08 0 0 7.3504326366656541e-08 0 0 7.7124344059653354e-08 0 0 1.6721348592353247e-09 0 0 1.5732907709084068e-09 0 0 1.8878426999190227e-09 0 0 1.7768734425204571e-09 0 0 2.1298332497007882e-09 0 0 2.0053224096792926e-09 0 0 2.4013141840862944e-09 0 0 2.2616930541712543e-09 0 0 2.7055977495762961e-09 0 0 2.549130376229721e-09 0 0 3.0464287461831961e-09 0 0 2.8711958516449674e-09 0 0 3.427944557318817e-09 0 0 3.2318261401419928e-09 0 0 3.8547119648495236e-09 0 0 3.6353685507801694e-09 0 0 1.2307101382215058e-09 0 0 1.3090117771952203e-09 0 0 1.392024405764543e-09 0 0 1.480021892377662e-09 0 0 1.1568601633051225e-09 0 0 1.0872157641279822e-09 0 0 1.0215434464972378e-09 0 0 9.5962169368864394e-10 0 0 9.0124037488081227e-10 0 0 8.4620017988579697e-10 0 0 7.4539679347600515e-10 0 0 7.9431207687200719e-10 0 0 6.5581343555513718e-10 0 0 6.992843204805877e-10 0 0 6.1483124901341685e-10 0 0 5.7619276836978013e-10 0 0 5.3976048156313341e-10 0 0 5.0540395800589584e-10 0 0 4.7299946807365438e-10 0 0 4.4242961758345549e-10 0 0 4.1358299826820429e-10 0 0 3.8635385409245277e-10 0 0 3.363513196929377e-10 0 0 3.606417608700724e-10 0 0 1.9894905974355172e-10 0 0 2.1559587305168897e-10 0 0 2.3311399329389542e-10 0 0 2.5157121779020172e-10 0 0 2.711252239172546e-10 0 0 2.9167717706260029e-10 0 0 3.1339186389605409e-10 0 0 8.9899154042699875e-11 0 0 1.0170082803809927e-10 0 0 1.1392188339912678e-10 0 0 1.2661179342036268e-10 0 0 1.3968096663807542e-10 0 0 1.5346385823794292e-10 0 0 1.6787468460189591e-10 0 0 1.8310874156705952e-10 0 0 6.7340948655042803e-11 0 0 7.8468858664278055e-11 0 0 5.6514358133835047e-11 0 0 4.5922219539755024e-11 0 0 3.5520785764255721e-11 0 0 2.5266983672136916e-11 0 0 1.5118261385800617e-11 0 0 5.0324396630950823e-12 
</DataArray>
<DataArray type="Float64" Name="water_content" format="ascii">
0.41709111695081114 0.41018344970925791 0.40193380364202563 0.39338005057402065 0.38482619534991086 0.37643610880207801 0.36048653705804645 0.3683047143301571 0.31027736302417241 0.31542886324705044 0.32087346873699807 0.32662732461870192 0.33270581864701243 0.33912271244611836 0.34588888564630793 0.35301052866142224 0.28110953475153155 0.28463907289703505 0.28835881284644871 0.29228129307666995 0.29641986595632258 0.30078868524226549 0.30540266043650233 0.27457490321357603 0.27775846356803741 0.27154864199618201 0.26867017305339125 0.26593065211951483 0.26332185444725681 0.26083613224579166 0.25846637345261853 0.25620596236735399 0.25404874245502007 0.2500213389572381 0.25198898147156862 0.24634282768859311 0.24814083607064208 0.2446229766665135 0.24297723013674011 0.24140179771335712 0.23989313146965147 0.2384479075559284 0.23706300932981128 0.23207076076900063 0.23324189423010033 0.23446266780969163 0.23573551187726322 0.21916772580386318 0.22047678589280284 0.21980938610477888 0.22189316053313235 0.22117100078954399 0.22342612552631552 0.22264445249997011 0.22508594259011172 0.22423949405518989 0.22688399735992476 0.22596693052290984 0.22883296078835999 0.22783876838338063 0.23094697859843213 0.22986839033981382 0.20502379557584588 0.2050843744304934 0.20496593053234213 0.20491066845286923 0.20485790252449121 0.20480752983205558 0.20475945123335929 0.20471357124568795 0.20568144413339523 0.20559463455584392 0.20551158759328408 0.20543215497186804 0.20535619366428287 0.20528356568774331 0.20514778210675777 0.20521413794120685 0.20629032454189078 0.20640810198567969 0.20617750967604306 0.20606946719622213 0.20596601351863231 0.20586697145271787 0.20577217000485293 0.20755417298764881 0.20738897304822829 0.20723052537759959 0.20707857759669096 0.20693288612826663 0.20679321586169028 0.20653103904264603 0.20665933984846235 0.20892284648809467 0.20915232500841668 0.20870250013976896 0.20849094951436981 0.20828787020087469 0.20809294934914724 0.20790588520957659 0.20772638670492349 0.21136169623077206 0.21104541829191406 0.2107414663364878 0.21044938621358278 0.2101687408857007 0.20989910970412562 0.20939128470717866 0.20964008767646905 0.21396292610125356 0.21439651817775385 0.21354602200185691 0.21314517973218061 0.21275979864175923 0.21238930232096612 0.21203313738274759 0.21169077227248678 0.21855078019394128 0.21795757223191359 0.21738716985872605 0.21683868337394405 0.21631126293896857 0.21580409633633349 0.21484745129080451 0.21531640685737713 0.20386484090933232 0.20386716649462805 0.20386264504194238 0.2038605719789453 0.20385861517909526 0.20385676840768044 0.20385502572108649 0.20389139964586972 0.203887739779163 0.20388427961647426 0.2038810087974213 0.20387791748795647 0.20387499631162026 0.20386962907557485 0.20387223632810864 0.20392359752632977 0.20392929642648697 0.2039182023065057 0.20391309546666472 0.20390826238757498 0.20390368917033441 0.20389936260725766 0.20389527010326464 0.20398791812536554 0.20397914222527935 0.20397082218433288 0.20396293574813049 0.20395546165134959 0.20394837959987516 0.20393531505447304 0.20394167023214932 0.20406421231833785 0.20407757051989811 0.20405152927837858 0.20403948953479747 0.20402806260221712 0.20401721930724825 0.20400693173827297 0.20399717318046129 0.20419297272869766 0.20417386926795772 0.20415570714187314 0.20413844328956493 0.20412203644419247 0.2040916371735666 0.20410644704561354 0.20435707736274811 0.20438549830199587 0.20433001474785961 0.20430425059293744 0.20427972739277678 0.20425638993711503 0.20423418523224091 0.20421306243332127 0.20466979792461423 0.20462804275006913 0.20458822051575676 0.20455024922178261 0.20451404997037564 0.2044795468645918 0.20441533988032387 0.20444666690989635 0.20383816115835568 0.20383748593122525 0.20383964011027034 0.20383887838388193 0.20384130774983916 0.2038404489672348 0.20384318711603686 0.2038422194263762 0.20384530389481584 0.20384421411286352 0.20384768670293257 0.20384646013326491 0.20385036741445825 0.20384898769229354 0.20385338150162993 0.20385183041855487 0.20383515955528447 0.20383568920605888 0.20383625213251277 0.20383685033540822 0.20383466128952304 0.20383419262245803 0.20383375186678321 0.20383333742912357 0.20383294780520733 0.20383258157527673 0.20383191401497663 0.20383223739972905 0.20383132492020622 0.20383161022951729 0.20383105702872009 0.20383080555820515 0.20383056957010187 0.20383034818113813 0.20383014056048332 0.20382994592705705 0.20382976354698534 0.20382959273119808 0.20382928324674132 0.20382943283316168 0.20382848168366152 0.20382857302517027 0.20382867141177524 0.20382877721686382 0.20382889086033984 0.20382901277423715 0.20382914340418673 0.20382796845171902 0.2038280138217147 0.20382806414508914 0.20382811960502734 0.20382818037641159 0.20382824668465449 0.20382831880648478 0.2038283970412143 0.20382789194366518 0.20382792787202045 0.20382786054214935 0.20382783355698036 0.20382781090047697 0.20382779250286298 0.20382777831202059 0.20382776829330607 
</DataArray>
<DataArray type="Float64" Name="conductivity_richards" format="ascii">