<?xml version="1.0"?>
<VTKFile type="UnstructuredGrid" version="0.1" byte_order="LittleEndian">
<UnstructuredGrid>
<Piece NumberOfPoints="251" NumberOfCells="250">
<Points>
<DataArray type="Float64" NumberOfComponents="3" format="ascii">
0 0 0 0 0 -0.25 0 0 -0.00099999999999810158 0 0 -0.001999999999996204 0 0 -0.0029999999999943271 0 0 -0.0039999999999924488 0 0 -0.004999999999990571 0 0 -0.0059999999999886811 0 0 -0.0069999999999867156 0 0 -0.007999999999984719 0 0 -0.008999999999982581 0 0 -0.0099999999999804221 0 0 -0.010999999999978201 0 0 -0.011999999999975971 0 0 -0.01299999999997375 0 0 -0.01399999999997158 0 0 -0.014999999999969531 0 0 -0.01599999999996761 0 0 -0.0169999999999659 0 0 -0.01799999999996427 0 0 -0.018999999999962731 0 0 -0.019999999999961209 0 0 -0.020999999999959669 0 0 -0.02199999999995814 0 0 -0.022999999999956611 0 0 -0.023999999999955082 0 0 -0.024999999999953549 0 0 -0.02599999999995202 0 0 -0.02699999999995048 0 0 -0.027999999999948951 0 0 -0.028999999999947419 0 0 -0.02999999999994565 0 0 -0.03099999999994377 0 0 -0.031999999999941367 0 0 -0.032999999999938787 0 0 -0.033999999999935943 0 0 -0.034999999999933022 0 0 -0.035999999999930102 0 0 -0.036999999999927188 0 0 -0.037999999999924268 0 0 -0.038999999999921348 0 0 -0.039999999999918427 0 0 -0.040999999999915507 0 0 -0.041999999999912593 0 0 -0.042999999999909673 0 0 -0.043999999999906753 0 0 -0.044999999999903832 0 0 -0.045999999999900919 0 0 -0.046999999999897998 0 0 -0.047999999999895078 0 0 -0.048999999999892158 0 0 -0.049999999999889237 0 0 -0.050999999999886317 0 0 -0.051999999999883403 0 0 -0.052999999999880483 0 0 -0.053999999999877563 0 0 -0.054999999999874642 0 0 -0.055999999999871722 0 0 -0.056999999999868801 0 0 -0.057999999999865881 0 0 -0.058999999999862961 0 0 -0.059999999999860047 0 0 -0.060999999999857127 0 0 -0.061999999999854213 0 0 -0.062999999999851286 0 0 -0.063999999999848373 0 0 -0.064999999999845445 0 0 -0.065999999999842532 0 0 -0.066999999999839618 0 0 -0.067999999999836705 0 0 -0.068999999999833792 0 0 -0.069999999999830878 0 0 -0.070999999999827965 0 0 -0.071999999999825051 0 0 -0.072999999999822124 0 0 -0.07399999999981921 0 0 -0.074999999999816297 0 0 -0.075999999999813383 0 0 -0.07699999999981047 0 0 -0.077999999999807557 0 0 -0.078999999999804643 0 0 -0.07999999999980173 0 0 -0.080999999999798802 0 0 -0.081999999999795889 0 0 -0.082999999999792975 0 0 -0.083999999999790062 0 0 -0.084999999999787149 0 0 -0.085999999999784235 0 0 -0.086999999999781322 0 0 -0.087999999999778394 0 0 -0.088999999999775481 0 0 -0.089999999999772567 0 0 -0.090999999999769654 0 0 -0.091999999999766741 0 0 -0.092999999999763827 0 0 -0.093999999999760914 0 0 -0.094999999999758 0 0 -0.095999999999755073 0 0 -0.096999999999752159 0 0 -0.097999999999749246 0 0 -0.098999999999746333 0 0 -0.099999999999743419 0 0 -0.10099999999974051 0 0 -0.10199999999973761 0 0 -0.10299999999973471 0 0 -0.10399999999973179 0 0 -0.1049999999997288 0 0 -0.1059999999997259 0 0 -0.106999999999723 0 0 -0.1079999999997201 0 0 -0.1089999999997172 0 0 -0.1099999999997143 0 0 -0.1109999999997113 0 0 -0.1119999999997084 0 0 -0.1129999999997055 0 0 -0.1139999999997026 0 0 -0.1149999999996997 0 0 -0.1159999999996968 0 0 -0.11699999999969379 0 0 -0.11799999999969089 0 0 -0.11899999999968799 0 0 -0.11999999999968509 0 0 -0.1209999999996822 0 0 -0.1219999999996793 0 0 -0.1229999999996764 0 0 -0.1239999999996748 0 0 -0.12499999999967321 0 0 -0.12599999999967451 0 0 -0.12699999999967579 0 0 -0.1279999999996784 0 0 -0.12899999999968109 0 0 -0.1299999999996837 0 0 -0.13099999999968631 0 0 -0.13199999999968889 0 0 -0.13299999999969159 0 0 -0.1339999999996942 0 0 -0.13499999999969689 0 0 -0.1359999999996995 0 0 -0.13699999999970211 0 0 -0.1379999999997048 0 0 -0.13899999999970741 0 0 -0.13999999999971011 0 0 -0.14099999999971269 0 0 -0.1419999999997153 0 0 -0.14299999999971799 0 0 -0.1439999999997206 0 0 -0.14499999999972321 0 0 -0.14599999999972579 0 0 -0.14699999999972849 0 0 -0.1479999999997311 0 0 -0.14899999999973379 0 0 -0.1499999999997364 0 0 -0.15099999999973901 0 0 -0.1519999999997417 0 0 -0.15299999999974431 0 0 -0.15399999999974701 0 0 -0.15499999999974959 0 0 -0.1559999999997522 0 0 -0.15699999999975489 0 0 -0.1579999999997575 0 0 -0.15899999999976011 0 0 -0.1599999999997628 0 0 -0.16099999999976539 0 0 -0.161999999999768 0 0 -0.16299999999977069 0 0 -0.1639999999997733 0 0 -0.16499999999977599 0 0 -0.1659999999997786 0 0 -0.16699999999978121 0 0 -0.16799999999978391 0 0 -0.16899999999978649 0 0 -0.1699999999997891 0 0 -0.17099999999979171 0 0 -0.1719999999997944 0 0 -0.17299999999979701 0 0 -0.1739999999997997 0 0 -0.17499999999980231 0 0 -0.17599999999980501 0 0 -0.17699999999980759 0 0 -0.1779999999998102 0 0 -0.17899999999981281 0 0 -0.1799999999998155 0 0 -0.18099999999981811 0 0 -0.18199999999982069 0 0 -0.18299999999982339 0 0 -0.183999999999826 0 0 -0.18499999999982869 0 0 -0.1859999999998313 0 0 -0.18699999999983391 0 0 -0.1879999999998366 0 0 -0.18899999999983921 0 0 -0.18999999999984191 0 0 -0.19099999999984449 0 0 -0.1919999999998471 0 0 -0.19299999999984971 0 0 -0.1939999999998524 0 0 -0.19499999999985501 0 0 -0.1959999999998577 0 0 -0.19699999999986029 0 0 -0.19799999999986301 0 0 -0.19899999999986559 0 0 -0.1999999999998682 0 0 -0.20099999999987081 0 0 -0.2019999999998735 0 0 -0.20299999999987611 0 0 -0.20399999999987881 0 0 -0.20499999999988139 0 0 -0.205999999999884 0 0 -0.20699999999988669 0 0 -0.2079999999998893 0 0 -0.20899999999989191 0 0 -0.2099999999998946 0 0 -0.21099999999989719 0 0 -0.21199999999989991 0 0 -0.21299999999990249 0 0 -0.2139999999999051 0 0 -0.21499999999990771 0 0 -0.2159999999999104 0 0 -0.21699999999991301 0 0 -0.21799999999991571 0 0 -0.21899999999991829 0 0 -0.2199999999999209 0 0 -0.22099999999992359 0 0 -0.2219999999999262 0 0 -0.22299999999992881 0 0 -0.22399999999993139 0 0 -0.22499999999993411 0 0 -0.2259999999999367 0 0 -0.22699999999993939 0 0 -0.227999999999942 0 0 -0.22899999999994469 0 0 -0.2299999999999473 0 0 -0.23099999999994991 0 0 -0.23199999999995249 0 0 -0.23299999999995519 0 0 -0.2339999999999578 0 0 -0.23499999999996049 0 0 -0.2359999999999631 0 0 -0.23699999999996571 0 0 -0.2379999999999684 0 0 -0.23899999999997101 0 0 -0.2399999999999736 0 0 -0.24099999999997629 0 0 -0.2419999999999789 0 0 -0.24299999999998159 0 0 -0.2439999999999842 0 0 -0.24499999999998681 0 0 -0.24599999999998939 0 0 -0.24699999999999209 0 0 -0.2479999999999947 0 0 -0.24899999999999739 
</DataArray>
</Points>
<Cells>
<DataArray type="UInt32" Name="connectivity" format="ascii">
0 2 2 3 3 4 4 5 5 6 6 7 7 8 8 9 9 10 10 11 11 12 12 13 13 14 14 15 15 16 16 17 17 18 18 19 19 20 20 21 21 22 22 23 23 24 24 25 25 26 26 27 27 28 28 29 29 30 30 31 31 32 32 33 33 34 34 35 35 36 36 37 37 38 38 39 39 40 40 41 41 42 42 43 43 44 44 45 45 46 46 47 47 48 48 49 49 50 50 51 51 52 52 53 53 54 54 55 55 56 56 57 57 58 58 59 59 60 60 61 61 62 62 63 63 64 64 65 65 66 66 67 67 68 68 69 69 70 70 71 71 72 72 73 73 74 74 75 75 76 76 77 77 78 78 79 79 80 80 81 81 82 82 83 83 84 84 85 85 86 86 87 87 88 88 89 89 90 90 91 91 92 92 93 93 94 94 95 95 96 96 97 97 98 98 99 99 100 100 101 101 102 102 103 103 104 104 105 105 106 106 107 107 108 108 109 109 110 110 111 111 112 112 113 113 114 114 115 115 116 116 117 117 118 118 119 119 120 120 121 121 122 122 123 123 124 124 125 125 126 126 127 127 128 128 129 129 130 130 131 131 132 132 133 133 134 134 135 135 136 136 137 137 138 138 139 139 140 140 141 141 142 142 143 143 144 144 145 145 146 146 147 147 148 148 149 149 150 150 151 151 152 152 153 153 154 154 155 155 156 156 157 157 158 158 159 159 160 160 161 161 162 162 163 163 164 164 165 165 166 166 167 167 168 168 169 169 170 170 171 171 172 172 173 173 174 174 175 175 176 176 177 177 178 178 179 179 180 180 181 181 182 182 183 183 184 184 185 185 186 186 187 187 188 188 189 189 190 190 191 191 192 192 193 193 194 194 195 195 196 196 197 197 198 198 199 199 200 200 201 201 202 202 203 203 204 204 205 205 206 206 207 207 208 208 209 209 210 210 211 211 212 212 213 213 214 214 215 215 216 216 217 217 218 218 219 219 220 220 221 221 222 222 223 223 224 224 225 225 226 226 227 227 228 228 229 229 230 230 231 231 232 232 233 233 234 234 235 235 236 236 237 237 238 238 239 239 240 240 241 241 242 242 243 243 244 244 245 245 246 246 247 247 248 248 249 249 250 250 1 
</DataArray>
<DataArray type="UInt32" Name="offsets" format="ascii">
2 4 6 8 10 12 14 16 18 20 22 24 26 28 30 32 34 36 38 40 42 44 46 48 50 52 54 56 58 60 62 64 66 68 70 72 74 76 78 80 82 84 86 88 90 92 94 96 98 100 102 104 106 108 110 112 114 116 118 120 122 124 126 128 130 132 134 136 138 140 142 144 146 148 150 152 154 156 158 160 162 164 166 168 170 172 174 176 178 180 182 184 186 188 190 192 194 196 198 200 202 204 206 208 210 212 214 216 218 220 222 224 226 228 230 232 234 236 238 240 242 244 246 248 250 252 254 256 258 260 262 264 266 268 270 272 274 276 278 280 282 284 286 288 290 292 294 296 298 300 302 304 306 308 310 312 314 316 318 320 322 324 326 328 330 332 334 336 338 340 342 344 346 348 350 352 354 356 358 360 362 364 366 368 370 372 374 376 378 380 382 384 386 388 390 392 394 396 398 400 402 404 406 408 410 412 414 416 418 420 422 424 426 428 430 432 434 436 438 440 442 444 446 448 450 452 454 456 458 460 462 464 466 468 470 472 474 476 478 480 482 484 486 488 490 492 494 496 498 500 
</DataArray>
<DataArray type="UInt32" Name="types" format="ascii">
3 3 3 3 3 3 3 3 3 3 3 3 3 3 3 3 3 3 3 3 3 3 3 3 3 3 3 3 3 3 3 3 3 3 3 3 3 3 3 3 3 3 3 3 3 3 3 3 3 3 3 3 3 3 3 3 3 3 3 3 3 3 3 3 3 3 3 3 3 3 3 3 3 3 3 3 3 3 3 3 3 3 3 3 3 3 3 3 3 3 3 3 3 3 3 3 3 3 3 3 3 3 3 3 3 3 3 3 3 3 3 3 3 3 3 3 3 3 3 3 3 3 3 3 3 3 3 3 3 3 3 3 3 3 3 3 3 3 3 3 3 3 3 3 3 3 3 3 3 3 3 3 3 3 3 3 3 3 3 3 3 3 3 3 3 3 3 3 3 3 3 3 3 3 3 3 3 3 3 3 3 3 3 3 3 3 3 3 3 3 3 3 3 3 3 3 3 3 3 3 3 3 3 3 3 3 3 3 3 3 3 3 3 3 3 3 3 3 3 3 3 3 3 3 3 3 3 3 3 3 3 3 3 3 3 3 3 3 3 3 3 3 3 3 3 3 3 3 3 3 
</DataArray>
</Cells>
<CellData Scalars="pressure_p0,water_content,conductivity_richards," Vectors="velocity_p0," Tensors="">
<DataArray type="Float64" Name="pressure_p0" format="ascii">
-6618.4617823711978 -6618.4586494896303 -6618.4533766907816 -6618.4459498841716 -6618.4363478862333 -6618.4245423628527 -6618.410497752564 -6618.3941711702755 -6618.3755122913353 -6618.3544632157054 -6618.3309583120026 -6618.3049240410892 -6618.2762787588927 -6618.2449324980844 -6618.2107867281975 -6618.1737340937307 -6618.1336581297792 -6618.090432954642 -6618.0439229388448 -6617.9939823499917 -6617.9404549727878 -6617.8831737035762 -6617.821960118632 -6617.7566240155047 -6617.6869629265675 -6617.6127616039603 -6617.5337914750362 -6617.44981006741 -6617.3605604026352 -6617.2657703575242 -6617.1651519920752 -6617.0584008429178 -6616.9451951811861 -6616.8251952336377 -6616.698042365846 -6616.5633582262153 -6616.4207438495823 -6616.26977871905 -6616.1100197847481 -6615.9410004381252 -6615.7622294403591 -6615.573189803431 -6615.3733376223909 -6615.1621008572947 -6614.9388780632635 -6614.7030370671018 -6614.4539135888581 -6614.1908098067288 -6613.9129928636312 -6613.6196933137853 -6613.310103507627 -6612.983375913338 -6612.6386213732803 -6612.2749072936213 -6611.8912557654148 -6611.4866416154136 -6611.0599903848779 -6610.6101762346707 -6610.13601977494 -6609.6362858176853 -6609.1096810505433 -6608.5548516301842 -6607.9703806936795 -6607.3547857863086 -6606.7065162042836 -6606.0239502509648 -6605.3053924051437 -6604.5490704001077 -6603.753132212245 -6602.915642958058 -6602.0345816985555 -6601.1078381500847 -6600.1332093008241 -6599.1083959322532 -6598.0309990451078 -6596.8985161894616 -6595.7083376987439 -6594.4577428277144 -6593.1438957946048 -6591.763841727854 -6590.3145025181148 -6588.7926725764319 -6587.1950144997936 -6585.5180546455103 -6583.7581786162082 -6581.911626657522 -6579.9744889709373 -6577.9427009445963 -6575.8120383052246 -6573.5781121948039 -6571.2363641759966 -6568.782061170803 -6566.2102903373907 -6563.5159538905382 -6560.6937638716718 -6557.7382368749877 -6554.6436887367508 -6551.4042291954611 -6548.0137565311634 -6544.4659521928616 -6540.7542754236747 -6536.8719578940372 -6532.8119983539964 -6528.5671573164218 -6524.1299517837078 -6519.4926500313341 -6514.6472664625289 -6509.5855565491047 -6504.2990118743974 -6498.7788552951988 -6493.0160362404458 -6487.001226165421 -6480.724814181156 -6474.1769028797553 -6467.3473043773383 -6460.2255365973651 -6452.8008198180905 -6445.0620735090142 -6436.9979134822452 -6428.5966493857395 -6419.8462825665101 -6410.7345043329715 -6401.2486946466524 -6391.3759212746409 -6381.1029394352008 -6370.4161919699927 -6359.3018100775707 -6347.7456146436543 -6335.7331182048456 -6323.2495275834508 -6310.2797472319126 -6296.8083833264609 -6282.8197486502977 -6268.2978683076126 -6253.2264863104147 -6237.5890730809342 -6221.3688339129649 -6204.5487184361336 -6187.1114311275542 -6169.0394429157332 -6150.3150039218808 -6130.9201573840255 -6110.836754809352 -6090.0464724002049 -6068.5308287989601 -6046.2712041966806 -6023.2488608500153 -5999.4449650501265 -5974.8406105866161 -5949.4168437484695 -5923.1546899027935 -5896.0351816907496 -5868.0393888784611 -5839.148449898812 -5809.3436051179651 -5778.6062318581044 -5746.917881205256 -5714.2603166281724 -5680.6155544310704 -5645.965906059515 -5610.2940222749785 -5573.5829392093783 -5535.8161263065176 -5496.9775361524371 -5457.0516561914992 -5416.023562319443 -5373.8789743386405 -5330.6043132543728 -5286.1867603841638 -5240.6143182448504 -5193.8758731744319 -5145.9612596375091 -5096.8613261544606 -5046.5680027853177 -4995.0743700896637 -4942.3747294736349 -4888.4646748243867 -4833.3411653210769 -4777.0025992995543 -4719.4488890355069 -4660.6815362977395 -4600.7037085095844 -4539.5203153421762 -4477.1380855483658 -4413.5656438303704 -4348.8135875180278 -4282.8945628174824 -4215.823340372378 -4147.6168898612214 -4078.2944533352825 -4007.8776169814309 -3936.3903809734684 -3863.8592270538616 -3790.3131834653268 -3715.7838868282888 -3640.3056405359848 -3563.9154692138209 -3486.6531687633724 -3408.561351484339 -3329.6854857395847 -3250.0739295991916 -3169.7779578692684 -3088.8517818798091 -3007.3525613734409 -2925.3404078032786 -2842.878378313228 -2760.0324596380606 -2676.8715411233425 -2593.467376026686 -2509.89453022214 -2426.2303173885139 -2342.5547197200958 -2258.9502931549569 -2175.5020560713892 -2092.2973603574874 -2009.4257437124891 -1926.9787619912647 -1845.0498003558414 -1763.733861950238 -1683.1273327676593 -1603.3277213329679 -1524.4333717791446 -1446.543148855028 -1369.7560933647751 -1294.1710465085553 -1219.8862415714166 -1146.9988613957016 -1075.6045600753387 -1005.7969473315591 -937.66703407371881 -871.30263772076046 -806.78774596258609 -744.20183777881755 -683.61916070267978 -625.10796350794817 -568.72968367536237 -514.53808909282657 -462.5783733236126 -412.8862031740635 -365.48671570582218 -320.39345832099764 -277.60725828998142 -237.114993526912 -198.88820721245568 -162.88144886964727 -129.0300945793274 -97.24709050330523 -67.417208086038158 -39.384243946295506 -12.897169748691599 
</DataArray>
<DataArray type="Float64" Name="velocity_p0" NumberOfComponents="3" format="ascii">
0 0 1.5149423059006962e-11 0 0 4.5498255754372077e-11 0 0 7.5997181091663674e-11 0 0 1.0674671048635097e-10 0 0 1.3784803611781944e-10 0 0 1.6940330510788353e-10 0 0 2.0151589558459786e-10 0 0 2.3429069503114218e-10 0 0 2.6783438159537184e-10 0 0 3.0225570889589024e-10 0 0 3.3766579465818133e-10 0 0 3.7417841429243644e-10 0 0 4.1191029878932984e-10 0 0 4.5098143907009677e-10 0 0 4.9151539588011711e-10 0 0 5.3363961671539399e-10 0 0 5.7748575982744162e-10 0 0 6.2319002612579013e-10 0 0 6.708934995963029e-10 0 0 7.2074249631119861e-10 0 0 7.7288892323640469e-10 0 0 8.2749064709859442e-10 0 0 8.8471187370173395e-10 0 0 9.4472353863849243e-10 0 0 1.0077037097849946e-09 0 0 1.0738380022335629e-09 0 0 1.1433200061289415e-09 0 0 1.2163517279224514e-09 0 0 1.2931440463720731e-09 0 0 1.37391718241958e-09 0 0 1.4589011853176504e-09 0 0 1.5483364340181821e-09 0 0 1.6424741555001037e-09 0 0 1.741576960212993e-09 0 0 1.8459193952775072e-09 0 0 1.955788515691085e-09 0 0 2.0714844751077466e-09 0 0 2.1933211356947798e-09 0 0 2.3216266983069604e-09 0 0 2.4567443532956585e-09 0 0 2.5990329526365319e-09 0 0 2.74886770422633e-09 0 0 2.9066408879423186e-09 0 0 3.0727625954694392e-09 0 0 3.2476614931232505e-09 0 0 3.4317856092380888e-09 0 0 3.6256031453935012e-09 0 0 3.829603313651292e-09 0 0 4.0442971986750603e-09 0 0 4.2702186462822927e-09 0 0 4.5079251782951487e-09 0 0 4.7579989344762683e-09 0 0 5.0210476416326895e-09 0 0 5.29770561066605e-09 0 0 5.5886347610897605e-09 0 0 5.8945256747364584e-09 0 0 6.2160986773015983e-09 0 0 6.5541049493300539e-09 0 0 6.9093276657131529e-09 0 0 7.2825831649841502e-09 0 0 7.6747221475680038e-09 0 0 8.0866309033809962e-09 0 0 8.5192325692898376e-09 0 0 8.9734884156378616e-09 0 0 9.4503991618949557e-09 0 0 9.9510063218462697e-09 0 0 1.047639357754024e-08 0 0 1.102768818211051e-08 0 0 1.1606062390482729e-08 0 0 1.2212734918567156e-08 0 0 1.2848972429504321e-08 0 0 1.3516091047053685e-08 0 0 1.4215457895183629e-08 0 0 1.4948492663376617e-08 0 0 1.5716669196356244e-08 0 0 1.6521517108127583e-08 0 0 1.7364623418941436e-08 0 0 1.8247634213750357e-08 0 0 1.9172256322129925e-08 0 0 2.0140259017219912e-08 0 0 2.1153475733040666e-08 0 0 2.2213805798635202e-08 0 0 2.3323216187657568e-08 0 0 2.4483743281438876e-08 0 0 2.5697494644110509e-08 0 0 2.6966650808226083e-08 0 0 2.8293467068008124e-08 0 0 2.9680275279622401e-08 0 0 3.112948566524433e-08 0 0 3.264358861927517e-08 0 0 3.4225156514203481e-08 0 0 3.5876845503981809e-08 0 0 3.760139732217342e-08 0 0 3.940164107266499e-08 0 0 4.1280495009738277e-08 0 0 4.3240968305633627e-08 0 0 4.5286162801865138e-08 0 0 4.7419274742208567e-08 0 0 4.9643596484124323e-08 0 0 5.1962518185289263e-08 0 0 5.4379529462815606e-08 0 0 5.689822102169064e-08 0 0 5.9522286249308928e-08 0 0 6.2255522772853334e-08 0 0 6.5101833976613344e-08 0 0 6.806523047566515e-08 0 0 7.1149831542928751e-08 0 0 7.4359866485901935e-08 0 0 7.769967597067874e-08 0 0 8.1173713288939403e-08 0 0 8.4786545565632106e-08 0 0 8.8542854903557442e-08 0 0 9.2447439462071122e-08 0 0 9.6505214466672655e-08 0 0 1.0072121314625239e-07 0 0 1.051005875956683e-07 0 0 1.0964860956029068e-07 0 0 1.1437067113963374e-07 0 0 1.1927228540804437e-07 0 0 1.2435908694936395e-07 0 0 1.2963683230332132e-07 0 0 1.3511140032149082e-07 0 0 1.407887924307042e-07 0 0 1.4667513280172321e-07 0 0 1.5277666842171336e-07 0 0 1.5909976906898493e-07 0 0 1.6565092718777607e-07 0 0 1.7243675766322131e-07 0 0 1.7946399749413961e-07 0 0 1.867395053638016e-07 0 0 1.9427026110755058e-07 0 0 2.0206336507702926e-07 0 0 2.1012603740138704e-07 0 0 2.1846561714418375e-07 0 0 2.2708956135791586e-07 0 0 2.3600544403572666e-07 0 0 2.4522095496118148e-07 0 0 2.5474389845722497e-07 0 0 2.6458219203548455e-07 0 0 2.7474386494715401e-07 0 0 2.8523705663741537e-07 0 0 2.9607001510471284e-07 0 0 3.0725109516718297e-07 0 0 3.1878875663831407e-07 0 0 3.3069156241387269e-07 0 0 3.4296817647307903e-07 0 0 3.5562736179549541e-07 0 0 3.6867797819743651e-07 0 0 3.821289800896722e-07 0 0 3.9598941415930162e-07 0 0 4.1026841697840162e-07 0 0 4.2497521254207063e-07 0 0 4.401191097384879e-07 0 0 4.5570949975258346e-07 0 0 4.7175585340636784e-07 0 0 4.882677184370591e-07 0 0 5.0525471671445547e-07 0 0 5.227265413992994e-07 0 0 5.4069295404256788e-07 0 0 5.5916378162564658e-07 0 0 5.7814891354145109e-07 0 0 5.9765829851414226e-07 0 0 6.1770194145582388e-07 0 0 6.3828990025612846e-07 0 0 6.5943228250114947e-07 0 0 6.8113924211465986e-07 0 0 7.0342097591502341e-07 0 0 7.2628772007867291e-07 0 0 7.4974974649855473e-07 0 0 7.7381735902476098e-07 0 0 7.9850088957217426e-07 0 0 8.238106940754828e-07 0 0 8.4975714827146589e-07 0 0 8.7635064328266695e-07 0 0 9.0360158097415558e-07 0 0 9.3152036905043889e-07 0 0 9.6011741585340167e-07 0 0 9.8940312481922031e-07 0 0 1.0193878885436245e-06 0 0 1.0500820823987233e-06 0 0 1.0814960576378951e-06 0 0 1.1136401339147939e-06 0 0 1.1465245911333153e-06 0 0 1.1801596605350368e-06 0 0 1.2145555149168538e-06 0 0 1.2497222578577075e-06 0 0 1.2856699118182542e-06 0 0 1.3224084049576606e-06 0 0 1.3599475564925285e-06 0 0 1.3982970603989408e-06 0 0 1.4374664672328449e-06 0 0 1.4774651638138752e-06 0 0 1.5183023504835046e-06 0 0 1.5599870156107352e-06 0 0 1.6025279069734786e-06 0 0 1.6459334995946847e-06 0 0 1.6902119595549466e-06 0 0 1.7353711032380995e-06 0 0 1.7814183513920282e-06 0 0 1.8283606773030863e-06 0 0 1.8762045482827391e-06 0 0 1.9249558595580489e-06 0 0 1.9746198595257329e-06 0 0 2.0252010651881392e-06 0 0 2.0767031664196767e-06 0 0 2.1291289175217361e-06 0 0 2.1824800143056717e-06 0 0 2.2367569546908611e-06 0 0 2.2919588805183056e-06 0 0 2.348083397949708e-06 0 0 2.4051263734457942e-06 0 0 2.4630817018879122e-06 0 0 2.5219410429147024e-06 0 0 2.5816935209903323e-06 0 0 2.6423253840863667e-06 0 0 2.7038196151476179e-06 0 0 2.7661554897098531e-06 0 0 2.8293080721445519e-06 0 0 2.8932476420192661e-06 0 0 2.9579390409837706e-06 0 0 3.0233409294354334e-06 0 0 3.0894049410011533e-06 0 0 3.1560747216379202e-06 0 0 3.2232848389588112e-06 0 0 3.2909595463356541e-06 0 0 3.3590113855502445e-06 0 0 3.4273396114759681e-06 0 0 3.4958284227633821e-06 0 0 3.5643449841958785e-06 0 0 3.6327372298539441e-06 0 0 3.7008314422653268e-06 0 0 3.7684296123954776e-06 0 0 3.8353066000642031e-06 0 0 3.9012071360280695e-06 0 0 3.9658427379726493e-06 0 0 4.0288886561308353e-06 0 0 4.089981024196036e-06 0 0 4.1487144728170299e-06 0 0 4.2046405731771917e-06 0 0 4.2572676268149024e-06 0 0 4.306062520235613e-06 0 0 4.3504556454777309e-06 0 0 4.3898503012496351e-06 0 0 4.4236386389551873e-06 0 0 4.4512273421299341e-06 0 0 4.4720784229812968e-06 0 0 4.4857755161115873e-06 0 0 4.4921401117888469e-06 0 0 4.4914780273601958e-06 0 0 4.4856573282583504e-06 
</DataArray>
<DataArray type="Float64" Name="water_content" format="ascii">
0.20383019321020385 0.20383021158245243 0.20383024250390422 0.20383028605722731 0.20383034236670156 0.20383041159855653 0.20383049396142272 0.20383058970689766 0.20383069913022728 0.20383082257110446 0.20383096041458582 0.20383111309212895 0.20383128108275167 0.20383146491431597 0.20383166516493853 0.20383188246453118 0.20383211749647351 0.2038323709994212 0.20383264376925347 0.20383293666116298 0.20383325059189206 0.20383358654211969 0.20383394555900319 0.20383432875887936 0.20383473733012952 0.20383517253621442 0.20383563571888313 0.20383612830156253 0.20383665179293228 0.20383720779069217 0.20383779798552756 0.20383842416527981 0.20383908821932833 0.2038397921431917 0.2038405380433545 0.20384132814232855 0.20384216478395531 0.20384305043895834 0.20384398771075402 0.20384497934152918 0.2038460282185946 0.2038471373810235 0.20384831002658466 0.20384954951897999 0.20385085939539616 0.20385224337438093 0.20385370536405462 0.20385524947066733 0.20385688000751317 0.20385860150421276 0.20386041871637534 0.20386233663565254 0.20386436050019563 0.20386649580552874 0.20386874831585028 0.20387112407577551 0.20387362942253306 0.20387627099862879 0.2038790557649901 0.2038819910146043 0.20388508438666514 0.20388834388124105 0.20389177787447951 0.20389539513436189 0.20389920483702312 0.20390321658365085 0.20390744041797909 0.20391188684439121 0.20391656684664744 0.20392149190725201 0.20392667402747539 0.20393212574804703 0.20393786017053467 0.20394389097942522 0.20395023246492339 0.20395689954648444 0.20396390779709628 0.20397127346832786 0.20397901351615952 0.20398714562761217 0.20399568824819142 0.20400466061016365 0.20401408276168032 0.20402397559676805 0.20403436088620108 0.20404526130927347 0.20405670048648872 0.20406870301318419 0.20408129449410903 0.20409450157897258 0.20410835199898339 0.20412287460439682 0.20413809940309113 0.20415405760019162 0.2041707816387639 0.20418830524159715 0.20420666345409882 0.20422589268832392 0.20424603076816245 0.20426711697570879 0.20428919209883956 0.20431229848002594 0.20433648006640912 0.20436178246116832 0.2043882529762126 0.20441594068622962 0.2044448964841265 0.20447517313789967 0.20450682534897377 0.2045399098120512 0.20457448527651789 0.2046106126094529 0.20464835486029359 0.20468777732721111 0.20472894762525498 0.20477193575633051 0.20481681418107617 0.20486365789271374 0.20491254449294929 0.20496355427000856 0.20501677027889648 0.20507227842397752 0.20513016754398006 0.20519052949953587 0.20525345926337421 0.20531905501329845 0.20538741822808185 0.20545865378643069 0.20553287006917212 0.20561017906483564 0.20569069647881055 0.2057745418462727 0.20586183864908947 0.20595271443692553 0.20604730095278834 0.20614573426326877 0.20624815489374992 0.20635470796887728 0.20646554335860229 0.20658081583013416 0.20670068520615753 0.20682531652969852 0.20695488023604727 0.20708955233217424 0.20722951458410693 0.20737495471276562 0.20752606659879141 0.20768305049693631 0.20784611326062358 0.20801546857733008 0.20819133721548472 0.20837394728362763 0.20856353450262427 0.20876034249178488 0.20896462306979852 0.20917663657145391 0.20939665218118894 0.20962494828458261 0.20986181283898292 0.2101075437645491 0.21036244935707765 0.21062684872408127 0.21090107224569465 0.21118546206209793 0.2114803725892706 0.21178617106502465 0.21210323812740922 0.21243196842773732 0.21277277128065408 0.2131260713538512 0.21349230940023145 0.21387194303554419 0.21426544756474836 0.21467331686061508 0.21509606429835981 0.21553422375039724 0.21598835064564026 0.21645902309812354 0.21694684311012205 0.21745243785536117 0.21797646104837778 0.21851959440659935 0.21908254921225945 0.21966606798187044 0.22027092625163416 0.22089793448788805 0.22154794013247123 0.22222182979375166 0.22292053159499275 0.22364501769276107 0.22439630697919427 0.22517546798316798 0.22598362198673125 0.22682194637463116 0.22769167823632747 0.22859411824161793 0.2295306348128634 0.23050266861882662 0.23151173741733233 0.23255944127631867 0.23364746820539467 0.23477760023273628 0.23595171996505176 0.23717181767140566 0.2384399989348964 0.23975849291949972 0.24112966130276867 0.24255600792844928 0.24404018923632378 0.24558502552958289 0.24719351314255561 0.24886883757341749 0.25061438764717869 0.2524337707733324 0.25433082935935059 0.25630965843485831 0.25837462453063131 0.26053038583995713 0.26278191366532322 0.26513451511807623 0.26759385698899651 0.27016599063881902 0.27285737766319762 0.27567491595795218 0.27862596563635977 0.2817183740157187 0.28496049857537242 0.28836122636601258 0.29192998778443635 0.29567676187058611 0.29961206926914397 0.30374694763698107 0.30809290244792442 0.31266182367770334 0.31746585550551581 0.32251720160180752 0.32782784228170803 0.33340913102895398 0.33927122543877414 0.34542228951647741 0.3518673770623939 0.35860686318727047 0.36563422009138635 0.37293280651781957 0.3804710921188556 0.38819519314666429 0.39601621078604982 0.40378554426463031 0.41123249613750124 0.41741552368182011 
</DataArray>
<DataArray type="Float64" Name="conductivity_richards" format="ascii">