<?xml version="1.0"?>
<VTKFile type="UnstructuredGrid" version="0.1" byte_order="LittleEndian">
<UnstructuredGrid>
<Piece NumberOfPoints="251" NumberOfCells="250">
<Points>
<DataArray type="Float64" NumberOfComponents="3" format="ascii">
0 0 0 0 0 -0.25 0 0 -0.000999999999998102 0 0 -0.0019999999999962 0 0 -0.00299999999999433 0 0 -0.00399999999999245 0 0 -0.00499999999999057 0 0 -0.00599999999998868 0 0 -0.00699999999998672 0 0 -0.00799999999998472 0 0 -0.00899999999998258 0 0 -0.00999999999998042 0 0 -0.0109999999999782 0 0 -0.011999999999976 0 0 -0.0129999999999737 0 0 -0.0139999999999716 0 0 -0.0149999999999695 0 0 -0.0159999999999676 0 0 -0.0169999999999659 0 0 -0.0179999999999643 0 0 -0.0189999999999627 0 0 -0.0199999999999612 0 0 -0.0209999999999597 0 0 -0.0219999999999581 0 0 -0.0229999999999566 0 0 -0.0239999999999551 0 0 -0.0249999999999535 0 0 -0.025999999999952 0 0 -0.0269999999999505 0 0 -0.027999999999949 0 0 -0.0289999999999474 0 0 -0.0299999999999457 0 0 -0.0309999999999438 0 0 -0.0319999999999414 0 0 -0.0329999999999388 0 0 -0.0339999999999359 0 0 -0.034999999999933 0 0 -0.0359999999999301 0 0 -0.0369999999999272 0 0 -0.0379999999999243 0 0 -0.0389999999999213 0 0 -0.0399999999999184 0 0 -0.0409999999999155 0 0 -0.0419999999999126 0 0 -0.0429999999999097 0 0 -0.0439999999999068 0 0 -0.0449999999999038 0 0 -0.0459999999999009 0 0 -0.046999999999898 0 0 -0.0479999999998951 0 0 -0.0489999999998922 0 0 -0.0499999999998892 0 0 -0.0509999999998863 0 0 -0.0519999999998834 0 0 -0.0529999999998805 0 0 -0.0539999999998776 0 0 -0.0549999999998746 0 0 -0.0559999999998717 0 0 -0.0569999999998688 0 0 -0.0579999999998659 0 0 -0.058999999999863 0 0 -0.05999999999986 0 0 -0.0609999999998571 0 0 -0.0619999999998542 0 0 -0.0629999999998513 0 0 -0.0639999999998484 0 0 -0.0649999999998454 0 0 -0.0659999999998425 0 0 -0.0669999999998396 0 0 -0.0679999999998367 0 0 -0.0689999999998338 0 0 -0.0699999999998309 0 0 -0.070999999999828 0 0 -0.0719999999998251 0 0 -0.0729999999998221 0 0 -0.0739999999998192 0 0 -0.0749999999998163 0 0 -0.0759999999998134 0 0 -0.0769999999998105 0 0 -0.0779999999998076 0 0 -0.0789999999998046 0 0 -0.0799999999998017 0 0 -0.0809999999997988 0 0 -0.0819999999997959 0 0 -0.082999999999793 0 0 -0.0839999999997901 0 0 -0.0849999999997871 0 0 -0.0859999999997842 0 0 -0.0869999999997813 0 0 -0.0879999999997784 0 0 -0.0889999999997755 0 0 -0.0899999999997726 0 0 -0.0909999999997697 0 0 -0.0919999999997667 0 0 -0.0929999999997638 0 0 -0.0939999999997609 0 0 -0.094999999999758 0 0 -0.0959999999997551 0 0 -0.0969999999997522 0 0 -0.0979999999997492 0 0 -0.0989999999997463 0 0 -0.0999999999997434 0 0 -0.100999999999741 0 0 -0.101999999999738 0 0 -0.102999999999735 0 0 -0.103999999999732 0 0 -0.104999999999729 0 0 -0.105999999999726 0 0 -0.106999999999723 0 0 -0.10799999999972 0 0 -0.108999999999717 0 0 -0.109999999999714 0 0 -0.110999999999711 0 0 -0.111999999999708 0 0 -0.112999999999706 0 0 -0.113999999999703 0 0 -0.1149999999997 0 0 -0.115999999999697 0 0 -0.116999999999694 0 0 -0.117999999999691 0 0 -0.118999999999688 0 0 -0.119999999999685 0 0 -0.120999999999682 0 0 -0.121999999999679 0 0 -0.122999999999676 0 0 -0.123999999999675 0 0 -0.124999999999673 0 0 -0.125999999999675 0 0 -0.126999999999676 0 0 -0.127999999999678 0 0 -0.128999999999681 0 0 -0.129999999999684 0 0 -0.130999999999686 0 0 -0.131999999999689 0 0 -0.132999999999692 0 0 -0.133999999999694 0 0 -0.134999999999697 0 0 -0.1359999999997 0 0 -0.136999999999702 0 0 -0.137999999999705 0 0 -0.138999999999707 0 0 -0.13999999999971 0 0 -0.140999999999713 0 0 -0.141999999999715 0 0 -0.142999999999718 0 0 -0.143999999999721 0 0 -0.144999999999723 0 0 -0.145999999999726 0 0 -0.146999999999728 0 0 -0.147999999999731 0 0 -0.148999999999734 0 0 -0.149999999999736 0 0 -0.150999999999739 0 0 -0.151999999999742 0 0 -0.152999999999744 0 0 -0.153999999999747 0 0 -0.15499999999975 0 0 -0.155999999999752 0 0 -0.156999999999755 0 0 -0.157999999999758 0 0 -0.15899999999976 0 0 -0.159999999999763 0 0 -0.160999999999765 0 0 -0.161999999999768 0 0 -0.162999999999771 0 0 -0.163999999999773 0 0 -0.164999999999776 0 0 -0.165999999999779 0 0 -0.166999999999781 0 0 -0.167999999999784 0 0 -0.168999999999786 0 0 -0.169999999999789 0 0 -0.170999999999792 0 0 -0.171999999999794 0 0 -0.172999999999797 0 0 -0.1739999999998 0 0 -0.174999999999802 0 0 -0.175999999999805 0 0 -0.176999999999808 0 0 -0.17799999999981 0 0 -0.178999999999813 0 0 -0.179999999999816 0 0 -0.180999999999818 0 0 -0.181999999999821 0 0 -0.182999999999823 0 0 -0.183999999999826 0 0 -0.184999999999829 0 0 -0.185999999999831 0 0 -0.186999999999834 0 0 -0.187999999999837 0 0 -0.188999999999839 0 0 -0.189999999999842 0 0 -0.190999999999844 0 0 -0.191999999999847 0 0 -0.19299999999985 0 0 -0.193999999999852 0 0 -0.194999999999855 0 0 -0.195999999999858 0 0 -0.19699999999986 0 0 -0.197999999999863 0 0 -0.198999999999866 0 0 -0.199999999999868 0 0 -0.200999999999871 0 0 -0.201999999999874 0 0 -0.202999999999876 0 0 -0.203999999999879 0 0 -0.204999999999881 0 0 -0.205999999999884 0 0 -0.206999999999887 0 0 -0.207999999999889 0 0 -0.208999999999892 0 0 -0.209999999999895 0 0 -0.210999999999897 0 0 -0.2119999999999 0 0 -0.212999999999902 0 0 -0.213999999999905 0 0 -0.214999999999908 0 0 -0.21599999999991 0 0 -0.216999999999913 0 0 -0.217999999999916 0 0 -0.218999999999918 0 0 -0.219999999999921 0 0 -0.220999999999924 0 0 -0.221999999999926 0 0 -0.222999999999929 0 0 -0.223999999999931 0 0 -0.224999999999934 0 0 -0.225999999999937 0 0 -0.226999999999939 0 0 -0.227999999999942 0 0 -0.228999999999945 0 0 -0.229999999999947 0 0 -0.23099999999995 0 0 -0.231999999999952 0 0 -0.232999999999955 0 0 -0.233999999999958 0 0 -0.23499999999996 0 0 -0.235999999999963 0 0 -0.236999999999966 0 0 -0.237999999999968 0 0 -0.238999999999971 0 0 -0.239999999999974 0 0 -0.240999999999976 0 0 -0.241999999999979 0 0 -0.242999999999982 0 0 -0.243999999999984 0 0 -0.244999999999987 0 0 -0.245999999999989 0 0 -0.246999999999992 0 0 -0.247999999999995 0 0 -0.248999999999997 
</DataArray>
</Points>
<Cells>
<DataArray type="UInt32" Name="connectivity" format="ascii">
0 2 2 3 3 4 4 5 5 6 6 7 7 8 8 9 9 10 10 11 11 12 12 13 13 14 14 15 15 16 16 17 17 18 18 19 19 20 20 21 21 22 22 23 23 24 24 25 25 26 26 27 27 28 28 29 29 30 30 31 31 32 32 33 33 34 34 35 35 36 36 37 37 38 38 39 39 40 40 41 41 42 42 43 43 44 44 45 45 46 46 47 47 48 48 49 49 50 50 51 51 52 52 53 53 54 54 55 55 56 56 57 57 58 58 59 59 60 60 61 61 62 62 63 63 64 64 65 65 66 66 67 67 68 68 69 69 70 70 71 71 72 72 73 73 74 74 75 75 76 76 77 77 78 78 79 79 80 80 81 81 82 82 83 83 84 84 85 85 86 86 87 87 88 88 89 89 90 90 91 91 92 92 93 93 94 94 95 95 96 96 97 97 98 98 99 99 100 100 101 101 102 102 103 103 104 104 105 105 106 106 107 107 108 108 109 109 110 110 111 111 112 112 113 113 114 114 115 115 116 116 117 117 118 118 119 119 120 120 121 121 122 122 123 123 124 124 125 125 126 126 127 127 128 128 129 129 130 130 131 131 132 132 133 133 134 134 135 135 136 136 137 137 138 138 139 139 140 140 141 141 142 142 143 143 144 144 145 145 146 146 147 147 148 148 149 149 150 150 151 151 152 152 153 153 154 154 155 155 156 156 157 157 158 158 159 159 160 160 161 161 162 162 163 163 164 164 165 165 166 166 167 167 168 168 169 169 170 170 171 171 172 172 173 173 174 174 175 175 176 176 177 177 178 178 179 179 180 180 181 181 182 182 183 183 184 184 185 185 186 186 187 187 188 188 189 189 190 190 191 191 192 192 193 193 194 194 195 195 196 196 197 197 198 198 199 199 200 200 201 201 202 202 203 203 204 204 205 205 206 206 207 207 208 208 209 209 210 210 211 211 212 212 213 213 214 214 215 215 216 216 217 217 218 218 219 219 220 220 221 221 222 222 223 223 224 224 225 225 226 226 227 227 228 228 229 229 230 230 231 231 232 232 233 233 234 234 235 235 236 236 237 237 238 238 239 239 240 240 241 241 242 242 243 243 244 244 245 245 246 246 247 247 248 248 249 249 250 250 1 
</DataArray>
<DataArray type="UInt32" Name="offsets" format="ascii">
2 4 6 8 10 12 14 16 18 20 22 24 26 28 30 32 34 36 38 40 42 44 46 48 50 52 54 56 58 60 62 64 66 68 70 72 74 76 78 80 82 84 86 88 90 92 94 96 98 100 102 104 106 108 110 112 114 116 118 120 122 124 126 128 130 132 134 136 138 140 142 144 146 148 150 152 154 156 158 160 162 164 166 168 170 172 174 176 178 180 182 184 186 188 190 192 194 196 198 200 202 204 206 208 210 212 214 216 218 220 222 224 226 228 230 232 234 236 238 240 242 244 246 248 250 252 254 256 258 260 262 264 266 268 270 272 274 276 278 280 282 284 286 288 290 292 294 296 298 300 302 304 306 308 310 312 314 316 318 320 322 324 326 328 330 332 334 336 338 340 342 344 346 348 350 352 354 356 358 360 362 364 366 368 370 372 374 376 378 380 382 384 386 388 390 392 394 396 398 400 402 404 406 408 410 412 414 416 418 420 422 424 426 428 430 432 434 436 438 440 442 444 446 448 450 452 454 456 458 460 462 464 466 468 470 472 474 476 478 480 482 484 486 488 490 492 494 496 498 500 
</DataArray>
<DataArray type="UInt32" Name="types" format="ascii">
3 3 3 3 3 3 3 3 3 3 3 3 3 3 3 3 3 3 3 3 3 3 3 3 3 3 3 3 3 3 3 3 3 3 3 3 3 3 3 3 3 3 3 3 3 3 3 3 3 3 3 3 3 3 3 3 3 3 3 3 3 3 3 3 3 3 3 3 3 3 3 3 3 3 3 3 3 3 3 3 3 3 3 3 3 3 3 3 3 3 3 3 3 3 3 3 3 3 3 3 3 3 3 3 3 3 3 3 3 3 3 3 3 3 3 3 3 3 3 3 3 3 3 3 3 3 3 3 3 3 3 3 3 3 3 3 3 3 3 3 3 3 3 3 3 3 3 3 3 3 3 3 3 3 3 3 3 3 3 3 3 3 3 3 3 3 3 3 3 3 3 3 3 3 3 3 3 3 3 3 3 3 3 3 3 3 3 3 3 3 3 3 3 3 3 3 3 3 3 3 3 3 3 3 3 3 3 3 3 3 3 3 3 3 3 3 3 3 3 3 3 3 3 3 3 3 3 3 3 3 3 3 3 3 3 3 3 3 3 3 3 3 3 3 3 3 3 3 3 3 
</DataArray>
</Cells>
<CellData Scalars="pressure_p0," Vectors="velocity_p0," Tensors="">
<DataArray type="Float64" Name="pressure_p0" format="ascii">
-6587.46474990978 -6587.41515129794 -6587.31690050427 -6587.16989036392 -6586.9739600641 -6586.72889506637 -6586.4344270032 -6586.09023354886 -6585.69593826489 -6585.25111042014 -6584.75526478578 -6584.20786140538 -6583.60830534039 -6582.95594639122 -6582.25007879452 -6581.48994089661 -6580.67471480377 -6579.80352600969 -6578.87544300049 -6577.88947683794 -6576.84458072127 -6575.73964952817 -6574.57351933558 -6573.34496692089 -6572.05270924425 -6570.6954029126 -6569.27164362624 -6567.77996560871 -6566.21884102076 -6564.58667935929 -6562.88182684216 -6561.10256577977 -6559.24711393451 -6557.31362386888 -6555.30018228368 -6553.20480934705 -6551.02545801571 -6548.76001334961 -6546.40629182114 -6543.96204062034 -6541.42493695732 -6538.79258736345 -6536.06252699267 -6533.23221892439 -6530.29905346973 -6527.26034748249 -6524.11334367665 -6520.85520995217 -6517.48303873068 -6513.99384630315 -6510.38457219121 -6506.65207852421 -6502.79314943396 -6498.80449046936 -6494.68272803279 -6490.42440884075 -6486.02599941078 -6481.48388557707 -6476.79437203715 -6471.95368193207 -6466.95795646253 -6461.80325454355 -6456.48555250035 -6451.00074380808 -6445.34463887807 -6439.51296489354 -6433.5013656976 -6427.30540173631 -6420.92055006007 -6414.34220438606 -6407.56567522516 -6400.58619007615 -6393.39889369081 -6385.99884841276 -6378.38103459366 -6370.54035109009 -6362.47161584439 -6354.16956655306 -6345.62886142626 -6336.84408004179 -6327.80972429732 -6318.52021946447 -6308.96991534835 -6299.1530875563 -6289.06393887957 -6278.69660079174 -6268.04513506752 -6257.10353552591 -6245.86572990146 -6234.32558184737 -6222.47689307448 -6210.31340562968 -6197.82880431793 -6185.01671927136 -6171.87072866959 -6158.38436161475 -6144.55110116524 -6130.36438753176 -6115.81762143942 -6100.90416765955 -6085.61735871482 -6069.95049876118 -6053.89686765014 -6037.44972517478 -6020.60231550279 -6003.3478717998 -5985.6796210461 -5967.59078904984 -5949.07460565947 -5930.12431017848 -5910.73315698467 -5890.89442135692 -5870.6014055114 -5849.84744484963 -5828.62591442027 -5806.93023559659 -5784.75388297096 -5762.09039146809 -5738.93336367785 -5715.2764774088 -5691.11349346308 -5666.43826363298 -5641.24473891941 -5615.52697797201 -5589.27915575057 -5562.49557240678 -5535.17066238534 -5507.29900374288 -5478.87532768274 -5449.89452830363 -5420.35167255923 -5390.2420104259 -5359.56098527495 -5328.30424444551 -5296.46765001354 -5264.0472897523 -5231.03948827856 -5197.44081837894 -5163.24811250971 -5128.4584744631 -5093.06929119253 -5057.0782447885 -5020.48332459633 -4983.28283946622 -4945.47543012564 -4907.06008166301 -4868.03613611129 -4828.40330511911 -4788.16168269657 -4747.31175802168 -4705.85442829305 -4663.79101161327 -4621.12325988682 -4577.8533717153 -4533.98400527192 -4489.51829113634 -4444.45984506996 -4398.81278071073 -4352.58172216558 -4305.77181647762 -4258.38874594413 -4210.43874026025 -4161.92858846221 -4112.86565064291 -4063.25786941122 -4013.11378106545 -3962.44252645015 -3911.25386146398 -3859.55816718528 -3807.36645958073 -3754.69039876079 -3701.54229774476 -3647.93513069634 -3593.88254058968 -3539.39884626391 -3484.49904882322 -3429.19883733744 -3373.51459379716 -3317.46339727516 -3261.063027245 -3204.33196600546 -3147.28940015818 -3089.95522108396 -3032.35002436173 -2974.49510807216 -2916.41246992641 -2858.12480315863 -2799.65549111897 -2741.02860050237 -2682.2688731462 -2623.40171632836 -2564.45319149551 -2505.4500013493 -2446.41947521673 -2387.38955262912 -2328.3887650322 -2269.44621554839 -2210.59155671054 -2151.85496608496 -2093.26711969988 -2034.85916319417 -1976.6626805999 -1918.70966067085 -1861.03246066833 -1803.66376751447 -1746.63655622257 -1689.98404551362 -1633.7396505275 -1577.93693253776 -1522.60954557879 -1467.7911798949 -1413.51550212182 -1359.81609211236 -1306.72637631982 -1254.27955765486 -1202.50854173431 -1151.44585944353 -1101.12358573775 -1051.57325461178 -1002.82577017226 -954.911313751427 -907.859247006666 -861.698010954744 -816.455020894585 -772.156557175608 -728.827651770275 -686.49197060787 -645.171691619944 -604.887378433699 -565.657849624134 -527.500043393546 -490.428877479999 -454.457103992993 -419.595158717158 -385.851004187363 -353.229965480735 -321.734557130446 -291.364298743164 -262.11551563483 -233.981118815515 -206.950355479637 -181.008515932455 -156.136573963725 -132.310721723632 -109.501729821964 -87.6740008234276 -66.7840399430796 -46.7776724588263 -27.5838973002169 -9.08998046611661 
</DataArray>
<DataArray type="Float64" Name="velocity_p0" NumberOfComponents="3" format="ascii">
0 0 3.46340791900803e-10 0 0 1.03940966471694e-09 0 0 1.73364055599472e-09 0 0 2.42980877675272e-09 0 0 3.12869071412963e-09 0 0 3.83106426067308e-09 0 0 4.5377092433789e-09 0 0 5.2494078516148e-09 0 0 5.96694506397281e-09 0 0 6.69110907406762e-09 0 0 7.42269171469083e-09 0 0 8.16248888103561e-09 0 0 8.91130095062093e-09 0 0 9.66993320252909e-09 0 0 1.04391962329124e-08 0 0 1.12199063703437e-08 0 0 1.20128860866859e-08 0 0 1.281896440546e-08 0 0 1.36389773079058e-08 0 0 1.44737681347348e-08 0 0 1.53241879853052e-08 0 0 1.61910961128428e-08 0 0 1.70753603160667e-08 0 0 1.79778573260475e-08 0 0 1.88994731894693e-08 0 0 1.98411036476161e-08 0 0 2.08036545100104e-08 0 0 2.17880420232731e-08 0 0 2.27951932356853e-08 0 0 2.38260463554199e-08 0 0 2.48815511038152e-08 0 0 2.5962669063484e-08 0 0 2.70703740188584e-08 0 0 2.82056522924964e-08 0 0 2.93695030734984e-08 0 0 3.05629387404642e-08 0 0 3.17869851772764e-08 0 0 3.30426820818715e-08 0 0 3.43310832678635e-08 0 0 3.56532569589839e-08 0 0 3.70102860755065e-08 0 0 3.84032685133044e-08 0 0 3.9833317415203e-08 0 0 4.1301561433225e-08 0 0 4.28091449831481e-08 0 0 4.43572284911837e-08 0 0 4.59469886298319e-08 0 0 4.75796185473091e-08 0 0 4.92563280855177e-08 0 0 5.09783439907452e-08 0 0 5.27469101140328e-08 0 0 5.45632876015482e-08 0 0 5.64287550759011e-08 0 0 5.8344608806542e-08 0 0 6.03121628717581e-08 0 0 6.23327493089485e-08 0 0 6.44077182549518e-08 0 0 6.65384380760251e-08 0 0 6.87262954870595e-08 0 0 7.0972695659906e-08 0 0 7.32790623220397e-08 0 0 7.5646837842403e-08 0 0 7.8077483307291e-08 0 0 8.05724785852784e-08 0 0 8.31333223808015e-08 0 0 8.57615322761721e-08 0 0 8.84586447619465e-08 0 0 9.12262152576303e-08 0 0 9.40658181192991e-08 0 0 9.69790466365071e-08 0 0 9.99675130174437e-08 0 0 1.03032848363094e-07 0 0 1.06176702630177e-07 0 0 1.09400744581781e-07 0 0 1.1270666172776e-07 0 0 1.16096160253185e-07 0 0 1.19570964935306e-07 0 0 1.23132819049926e-07 0 0 1.26783484266635e-07 0 0 1.30524740532601e-07 0 0 1.34358385945558e-07 0 0 1.3828623661635e-07 0 0 1.42310126519832e-07 0 0 1.46431907336923e-07 0 0 1.50653448284459e-07 0 0 1.5497663593559e-07 0 0 1.5940337403081e-07 0 0 1.63935583277335e-07 0 0 1.68575201140004e-07 0 0 1.73324181622557e-07 0 0 1.78184495039381e-07 0 0 1.83158127777974e-07 0 0 1.88247082052756e-07 0 0 1.93453375649553e-07 0 0 1.98779041663088e-07 0 0 2.04226128224408e-07 0 0 2.09796698221616e-07 0 0 2.15492829013132e-07 0 0 2.21316612131363e-07 0 0 2.2727015298198e-07 0 0 2.33355570534328e-07 0 0 2.39574997005821e-07 0 0 2.45930577539714e-07 0 0 2.52424469876475e-07 0 0 2.59058844019444e-07 0 0 2.65835881895465e-07 0 0 2.7275777700839e-07 0 0 2.79826734088988e-07 0 0 2.87044968738701e-07 0 0 2.94414707069666e-07 0 0 3.01938185338936e-07 0 0 3.0961764957947e-07 0 0 3.17455355226197e-07 0 0 3.25453566738878e-07 0 0 3.33614557219025e-07 0 0 3.41940608026018e-07 0 0 3.50434008386879e-07 0 0 3.59097055003667e-07 0 0 3.67932051658044e-07 0 0 3.76941308810514e-07 0 0 3.86127143197175e-07 0 0 3.9549187742271e-07 0 0 4.05037839549098e-07 0 0 4.14767362681542e-07 0 0 4.24682784549451e-07 0 0 4.34786447082924e-07 0 0 4.45080695985838e-07 0 0 4.5556788030218e-07 0 0 4.6625035197922e-07 0 0 4.77130465422389e-07 0 0 4.88210577045871e-07 0 0 4.99493044814733e-07 0 0 5.10980227779999e-07 0 0 5.22674485604992e-07 0 0 5.34578178081886e-07 0 0 5.46693664638141e-07 0 0 5.59023303831019e-07 0 0 5.71569452829223e-07 0 0 5.84334466880394e-07 0 0 5.97320698763084e-07 0 0 6.10530498219917e-07 0 0 6.23966211372894e-07 0 0 6.3763018011795e-07 0 0 6.51524741492784e-07 0 0 6.65652227022622e-07 0 0 6.80014962035141e-07 0 0 6.94615264944389e-07 0 0 7.09455446500742e-07 0 0 7.24537809002151e-07 0 0 7.39864645464774e-07 0 0 7.5543823874777e-07 0 0 7.71260860628037e-07 0 0 7.87334770820417e-07 0 0 8.03662215938807e-07 0 0 8.20245428391164e-07 0 0 8.37086625205289e-07 0 0 8.54188006774449e-07 0 0 8.71551755520928e-07 0 0 8.89180034465523e-07 0 0 9.07074985697707e-07 0 0 9.25238728735745e-07 0 0 9.43673358767927e-07 0 0 9.62380944764812e-07 0 0 9.81363527449003e-07 0 0 1.00062311711366e-06 0 0 1.02016169127203e-06 0 0 1.0399811921273e-06 0 0 1.06008352384515e-06 0 0 1.08047054961099e-06 0 0 1.10114408845606e-06 0 0 1.12210591182952e-06 0 0 1.14335773989545e-06 0 0 1.1649012375315e-06 0 0 1.18673801000312e-06 0 0 1.20886959828365e-06 0 0 1.23129747399217e-06 0 0 1.25402303391256e-06 0 0 1.27704759406034e-06 0 0 1.30037238325573e-06 0 0 1.32399853616054e-06 0 0 1.34792708573008e-06 0 0 1.37215895503213e-06 0 0 1.39669494837253e-06 0 0 1.42153574166945e-06 0 0 1.4466818720068e-06 0 0 1.4721337262961e-06 0 0 1.4978915289647e-06 0 0 1.52395532858346e-06 0 0 1.5503249833381e-06 0 0 1.57700014523969e-06 0 0 1.60398024295922e-06 0 0 1.63126446315969e-06 0 0 1.65885173018983e-06 0 0 1.68674068398595e-06 0 0 1.71492965601817e-06 0 0 1.74341664309929e-06 0 0 1.77219927885572e-06 0 0 1.80127480264353e-06 0 0 1.83064002566954e-06 0 0 1.86029129405461e-06 0 0 1.89022444855022e-06 0 0 1.92043478059282e-06 0 0 1.95091698434992e-06 0 0 1.98166510437649e-06 0 0 2.01267247846735e-06 0 0 2.0439316752485e-06 0 0 2.07543442601192e-06 0 0 2.10717155024831e-06 0 0 2.13913287428537e-06 0 0 2.17130714238862e-06 0 0 2.20368191962064e-06 0 0 2.23624348570416e-06 0 0 2.26897671906697e-06 0 0 2.3018649701921e-06 0 0 2.33488992333089e-06 0 0 2.36803144558168e-06 0 0 2.4012674222831e-06 0 0 2.43457357762584e-06 0 0 2.46792327935929e-06 0 0 2.50128732645981e-06 0 0 2.53463371864793e-06 0 0 2.56792740670946e-06 0 0 2.60113002269419e-06 0 0 2.6341995892696e-06 0 0 2.66709020781519e-06 0 0 2.69975172529272e-06 0 0 2.73212938056608e-06 0 0 2.76416343173122e-06 0 0 2.7957887672293e-06 0 0 2.82693450515801e-06 0 0 2.85752358739335e-06 0 0 2.88747237806644e-06 0 0 2.91669027982613e-06 0 0 2.94507938645325e-06 0 0 2.97253419717448e-06 0 0 2.99894142698149e-06 0 0 3.02417995912266e-06 0 0 3.04812100174851e-06 0 0 3.07062853198117e-06 0 0 3.09156013982064e-06 0 0 3.11076842518725e-06 0 0 3.12810316085626e-06 0 0 3.1434145249687e-06 0 0 3.15655785566073e-06 0 0 3.16740064672146e-06 0 0 3.17583303719897e-06 0 0 3.1817842877353e-06 0 0 3.18525126298497e-06 0 0 3.18635890590433e-06 0 0 3.1856250236662e-06 
</DataArray>
</CellData>
</Piece>
</UnstructuredGrid>
</VTKFile>
