<?xml version="1.0"?>
<VTKFile type="UnstructuredGrid" version="0.1" byte_order="LittleEndian">
<UnstructuredGrid>
<Piece NumberOfPoints="251" NumberOfCells="250">
<Points>
<DataArray type="Float64" NumberOfComponents="3" format="ascii">
0 0 -0.17099999999979171 0 0 -0.1559999999997522 0 0 -0.15699999999975489 0 0 -0.1579999999997575 0 0 -0.15899999999976011 0 0 -0.1599999999997628 0 0 -0.16099999999976539 0 0 -0.161999999999768 0 0 -0.16299999999977069 0 0 -0.1639999999997733 0 0 -0.16499999999977599 0 0 -0.1659999999997786 0 0 -0.16699999999978121 0 0 -0.16799999999978391 0 0 -0.16899999999978649 0 0 -0.1699999999997891 0 0 -0.15499999999974959 0 0 -0.1719999999997944 0 0 -0.17299999999979701 0 0 -0.1739999999997997 0 0 -0.17499999999980231 0 0 -0.17599999999980501 0 0 -0.17699999999980759 0 0 -0.1779999999998102 0 0 -0.17899999999981281 0 0 -0.1799999999998155 0 0 -0.18099999999981811 0 0 -0.18199999999982069 0 0 -0.18299999999982339 0 0 -0.183999999999826 0 0 -0.18499999999982869 0 0 -0.1859999999998313 0 0 -0.13999999999971011 0 0 -0.12499999999967321 0 0 -0.12599999999967451 0 0 -0.12699999999967579 0 0 -0.1279999999996784 0 0 -0.12899999999968109 0 0 -0.1299999999996837 0 0 -0.13099999999968631 0 0 -0.13199999999968889 0 0 -0.13299999999969159 0 0 -0.1339999999996942 0 0 -0.13499999999969689 0 0 -0.1359999999996995 0 0 -0.13699999999970211 0 0 -0.1379999999997048 0 0 -0.13899999999970741 0 0 -0.18699999999983391 0 0 -0.14099999999971269 0 0 -0.1419999999997153 0 0 -0.14299999999971799 0 0 -0.1439999999997206 0 0 -0.14499999999972321 0 0 -0.14599999999972579 0 0 -0.14699999999972849 0 0 -0.1479999999997311 0 0 -0.14899999999973379 0 0 -0.1499999999997364 0 0 -0.15099999999973901 0 0 -0.1519999999997417 0 0 -0.15299999999974431 0 0 -0.15399999999974701 0 0 -0.2339999999999578 0 0 -0.21899999999991829 0 0 -0.2199999999999209 0 0 -0.22099999999992359 0 0 -0.2219999999999262 0 0 -0.22299999999992881 0 0 -0.22399999999993139 0 0 -0.22499999999993411 0 0 -0.2259999999999367 0 0 -0.22699999999993939 0 0 -0.227999999999942 0 0 -0.22899999999994469 0 0 -0.2299999999999473 0 0 -0.23099999999994991 0 0 -0.23199999999995249 0 0 -0.23299999999995519 0 0 -0.21799999999991571 0 0 -0.23499999999996049 0 0 -0.2359999999999631 0 0 -0.23699999999996571 0 0 -0.2379999999999684 0 0 -0.23899999999997101 0 0 -0.2399999999999736 0 0 -0.24099999999997629 0 0 -0.2419999999999789 0 0 -0.24299999999998159 0 0 -0.2439999999999842 0 0 -0.24499999999998681 0 0 -0.24599999999998939 0 0 -0.24699999999999209 0 0 -0.2479999999999947 0 0 -0.24899999999999739 0 0 -0.20299999999987611 0 0 -0.1879999999998366 0 0 -0.18899999999983921 0 0 -0.18999999999984191 0 0 -0.19099999999984449 0 0 -0.1919999999998471 0 0 -0.19299999999984971 0 0 -0.1939999999998524 0 0 -0.19499999999985501 0 0 -0.1959999999998577 0 0 -0.19699999999986029 0 0 -0.19799999999986301 0 0 -0.19899999999986559 0 0 -0.1999999999998682 0 0 -0.20099999999987081 0 0 -0.2019999999998735 0 0 -0.1239999999996748 0 0 -0.20399999999987881 0 0 -0.20499999999988139 0 0 -0.205999999999884 0 0 -0.20699999999988669 0 0 -0.2079999999998893 0 0 -0.20899999999989191 0 0 -0.2099999999998946 0 0 -0.21099999999989719 0 0 -0.21199999999989991 0 0 -0.21299999999990249 0 0 -0.2139999999999051 0 0 -0.21499999999990771 0 0 -0.2159999999999104 0 0 -0.21699999999991301 0 0 -0.045999999999900919 0 0 -0.03099999999994377 0 0 -0.031999999999941367 0 0 -0.032999999999938787 0 0 -0.033999999999935943 0 0 -0.034999999999933022 0 0 -0.035999999999930102 0 0 -0.036999999999927188 0 0 -0.037999999999924268 0 0 -0.038999999999921348 0 0 -0.039999999999918427 0 0 -0.040999999999915507 0 0 -0.041999999999912593 0 0 -0.042999999999909673 0 0 -0.043999999999906753 0 0 -0.044999999999903832 0 0 -0.02999999999994565 0 0 -0.046999999999897998 0 0 -0.047999999999895078 0 0 -0.048999999999892158 0 0 -0.049999999999889237 0 0 -0.050999999999886317 0 0 -0.051999999999883403 0 0 -0.052999999999880483 0 0 -0.053999999999877563 0 0 -0.054999999999874642 0 0 -0.055999999999871722 0 0 -0.056999999999868801 0 0 -0.057999999999865881 0 0 -0.058999999999862961 0 0 -0.059999999999860047 0 0 -0.060999999999857127 0 0 -0.014999999999969531 0 0 -0.25 0 0 -0.00099999999999810158 0 0 -0.001999999999996204 0 0 -0.0029999999999943271 0 0 -0.0039999999999924488 0 0 -0.004999999999990571 0 0 -0.0059999999999886811 0 0 -0.0069999999999867156 0 0 -0.007999999999984719 0 0 -0.008999999999982581 0 0 -0.0099999999999804221 0 0 -0.010999999999978201 0 0 -0.011999999999975971 0 0 -0.01299999999997375 0 0 -0.01399999999997158 0 0 -0.061999999999854213 0 0 -0.01599999999996761 0 0 -0.0169999999999659 0 0 -0.01799999999996427 0 0 -0.018999999999962731 0 0 -0.019999999999961209 0 0 -0.020999999999959669 0 0 -0.02199999999995814 0 0 -0.022999999999956611 0 0 -0.023999999999955082 0 0 -0.024999999999953549 0 0 -0.02599999999995202 0 0 -0.02699999999995048 0 0 -0.027999999999948951 0 0 -0.028999999999947419 0 0 -0.1089999999997172 0 0 -0.093999999999760914 0 0 -0.094999999999758 0 0 -0.095999999999755073 0 0 -0.096999999999752159 0 0 -0.097999999999749246 0 0 -0.098999999999746333 0 0 -0.099999999999743419 0 0 -0.10099999999974051 0 0 -0.10199999999973761 0 0 -0.10299999999973471 0 0 -0.10399999999973179 0 0 -0.1049999999997288 0 0 -0.1059999999997259 0 0 -0.106999999999723 0 0 -0.1079999999997201 0 0 -0.092999999999763827 0 0 -0.1099999999997143 0 0 -0.1109999999997113 0 0 -0.1119999999997084 0 0 -0.1129999999997055 0 0 -0.1139999999997026 0 0 -0.1149999999996997 0 0 -0.1159999999996968 0 0 -0.11699999999969379 0 0 -0.11799999999969089 0 0 -0.11899999999968799 0 0 -0.11999999999968509 0 0 -0.1209999999996822 0 0 -0.1219999999996793 0 0 -0.1229999999996764 0 0 -0.077999999999807557 0 0 -0.062999999999851286 0 0 -0.063999999999848373 0 0 -0.064999999999845445 0 0 -0.065999999999842532 0 0 -0.066999999999839618 0 0 -0.067999999999836705 0 0 -0.068999999999833792 0 0 -0.069999999999830878 0 0 -0.070999999999827965 0 0 -0.071999999999825051 0 0 -0.072999999999822124 0 0 -0.07399999999981921 0 0 -0.074999999999816297 0 0 -0.075999999999813383 0 0 -0.07699999999981047 0 0 0 0 0 -0.078999999999804643 0 0 -0.07999999999980173 0 0 -0.080999999999798802 0 0 -0.081999999999795889 0 0 -0.082999999999792975 0 0 -0.083999999999790062 0 0 -0.084999999999787149 0 0 -0.085999999999784235 0 0 -0.086999999999781322 0 0 -0.087999999999778394 0 0 -0.088999999999775481 0 0 -0.089999999999772567 0 0 -0.090999999999769654 0 0 -0.091999999999766741 
</DataArray>
</Points>
<Cells>
<DataArray type="UInt32" Name="connectivity" format="ascii">
17 18 2 3 3 4 4 5 5 6 6 7 7 8 8 9 9 10 10 11 11 12 12 13 13 14 14 15 15 0 0 17 1 2 18 19 19 20 20 21 21 22 22 23 23 24 24 25 25 26 26 27 27 28 28 29 29 30 30 31 31 48 48 96 49 50 34 35 35 36 36 37 37 38 38 39 39 40 40 41 41 42 42 43 43 44 44 45 45 46 46 47 47 32 32 49 96 97 50 51 51 52 52 53 53 54 54 55 55 56 56 57 57 58 58 59 59 60 60 61 61 62 62 16 16 1 80 81 65 66 66 67 67 68 68 69 69 70 70 71 71 72 72 73 73 74 74 75 75 76 76 77 77 78 78 63 63 80 64 65 81 82 82 83 83 84 84 85 85 86 86 87 87 88 88 89 89 90 90 91 91 92 92 93 93 94 94 159 112 113 97 98 98 99 99 100 100 101 101 102 102 103 103 104 104 105 105 106 106 107 107 108 108 109 109 110 110 95 95 112 33 34 113 114 114 115 115 116 116 117 117 118 118 119 119 120 120 121 121 122 122 123 123 124 124 125 125 79 79 64 143 144 128 129 129 130 130 131 131 132 132 133 133 134 134 135 135 136 136 137 137 138 138 139 139 140 140 141 141 126 126 143 127 128 144 145 145 146 146 147 147 148 148 149 149 150 150 151 151 152 152 153 153 154 154 155 155 156 156 157 157 174 174 221 175 176 160 161 161 162 162 163 163 164 164 165 165 166 166 167 167 168 168 169 169 170 170 171 171 172 172 173 173 158 158 175 221 222 176 177 177 178 178 179 179 180 180 181 181 182 182 183 183 184 184 185 185 186 186 187 187 188 188 142 142 127 206 207 191 192 192 193 193 194 194 195 195 196 196 197 197 198 198 199 199 200 200 201 201 202 202 203 203 204 204 189 189 206 190 191 207 208 208 209 209 210 210 211 211 212 212 213 213 214 214 215 215 216 216 217 217 218 218 219 219 111 111 33 237 238 222 223 223 224 224 225 225 226 226 227 227 228 228 229 229 230 230 231 231 232 232 233 233 234 234 235 235 220 220 237 236 160 238 239 239 240 240 241 241 242 242 243 243 244 244 245 245 246 246 247 247 248 248 249 249 250 250 205 205 190 
</DataArray>
<DataArray type="UInt32" Name="offsets" format="ascii">
2 4 6 8 10 12 14 16 18 20 22 24 26 28 30 32 34 36 38 40 42 44 46 48 50 52 54 56 58 60 62 64 66 68 70 72 74 76 78 80 82 84 86 88 90 92 94 96 98 100 102 104 106 108 110 112 114 116 118 120 122 124 126 128 130 132 134 136 138 140 142 144 146 148 150 152 154 156 158 160 162 164 166 168 170 172 174 176 178 180 182 184 186 188 190 192 194 196 198 200 202 204 206 208 210 212 214 216 218 220 222 224 226 228 230 232 234 236 238 240 242 244 246 248 250 252 254 256 258 260 262 264 266 268 270 272 274 276 278 280 282 284 286 288 290 292 294 296 298 300 302 304 306 308 310 312 314 316 318 320 322 324 326 328 330 332 334 336 338 340 342 344 346 348 350 352 354 356 358 360 362 364 366 368 370 372 374 376 378 380 382 384 386 388 390 392 394 396 398 400 402 404 406 408 410 412 414 416 418 420 422 424 426 428 430 432 434 436 438 440 442 444 446 448 450 452 454 456 458 460 462 464 466 468 470 472 474 476 478 480 482 484 486 488 490 492 494 496 498 500 
</DataArray>
<DataArray type="UInt32" Name="types" format="ascii">
3 3 3 3 3 3 3 3 3 3 3 3 3 3 3 3 3 3 3 3 3 3 3 3 3 3 3 3 3 3 3 3 3 3 3 3 3 3 3 3 3 3 3 3 3 3 3 3 3 3 3 3 3 3 3 3 3 3 3 3 3 3 3 3 3 3 3 3 3 3 3 3 3 3 3 3 3 3 3 3 3 3 3 3 3 3 3 3 3 3 3 3 3 3 3 3 3 3 3 3 3 3 3 3 3 3 3 3 3 3 3 3 3 3 3 3 3 3 3 3 3 3 3 3 3 3 3 3 3 3 3 3 3 3 3 3 3 3 3 3 3 3 3 3 3 3 3 3 3 3 3 3 3 3 3 3 3 3 3 3 3 3 3 3 3 3 3 3 3 3 3 3 3 3 3 3 3 3 3 3 3 3 3 3 3 3 3 3 3 3 3 3 3 3 3 3 3 3 3 3 3 3 3 3 3 3 3 3 3 3 3 3 3 3 3 3 3 3 3 3 3 3 3 3 3 3 3 3 3 3 3 3 3 3 3 3 3 3 3 3 3 3 3 3 3 3 3 3 3 3 
</DataArray>
</Cells>
<CellData Scalars="pressure_p0,water_content,conductivity_richards," Vectors="velocity_p0," Tensors="">
<DataArray type="Float64" Name="pressure_p0" format="ascii">
-2835.947522300783 -3531.6423933716587 -3486.8049839115179 -3441.7046266071989 -3396.3502513233807 -3350.7510890301483 -3304.9166728192695 -3258.8568386652014 -3212.5817259191081 -3166.1017775239543 -3119.4277399384227 -3072.5706627570707 -3025.5418980139234 -2978.3530991563139 -2931.0162196755373 -2883.5435113805697 -3576.2082249681853 -2788.2410942032802 -2740.4373597101885 -2692.5497390009218 -2644.591936084109 -2596.577934623594 -2548.5219933025855 -2500.43864070976 -2452.342669730775 -2404.2491314283725 -2356.1733283939557 -2308.1308075532397 -2260.1373524082537 -2212.2089746977254 -2164.3619054575906 -2116.6125854631205 -4207.1325978486238 -4755.7023565717864 -4721.9127735969578 -4687.7186460590419 -4653.1210117198571 -4618.1211028081698 -4582.7203505648104 -4546.9203897713178 -4510.7230632575356 -4474.1304263834245 -4437.1447514901965 -4399.7685323156402 -4362.0044883683913 -4323.8555692556529 -4285.3249589587222 -4246.4160800504542 -2068.9776550339066 -4167.4784244989132 -4127.457722981092 -4087.0749110316692 -4046.3346649761779 -4005.2419234639628 -3963.80189109816 -3922.0200419532971 -3879.9021229727541 -3837.454157238074 -3794.6824471018454 -3751.5935771757049 -3708.194417164701 -3664.4921245390287 -3620.4941470339204 -271.76195842847574 -709.50940156221645 -675.358105236749 -641.88096863940314 -609.08879689223363 -576.99163953067909 -545.59874328590615 -514.91850343617318 -484.95841364673151 -455.72501418957773 -427.22383839548382 -399.45935713710401 -372.43492106775489 -346.1527002375035 -320.61362056435541 -295.81729643585436 -744.32334275395033 -248.44437471755447 -225.85976414422927 -204.00169800297687 -182.86198623820246 -162.43054158708438 -142.69521172811858 -123.64156364199945 -105.25259403607265 -87.508320157820037 -70.385165305512899 -53.854961394292133 -37.88314067535552 -22.424777300387852 -7.4087617023014651 -1336.5317408614558 -2021.4739431826638 -1974.1184560886572 -1926.928364876288 -1879.9209926792018 -1833.1138009701306 -1786.524375136491 -1740.1704092816508 -1694.0696902316981 -1648.2400807274398 -1602.6995017813488 -1557.4659141791599 -1512.5572991058434 -1467.9916378757985 -1423.7868907471759 -1379.960974800435 -4789.0865471315119 -1293.5169494497752 -1250.9342457328366 -1208.8011334675316 -1167.1349479106634 -1125.9528276804863 -1085.2716855519648 -1045.1081781688704 -1005.4786746564487 -966.39922411887369 -927.8855220062178 -889.95287533610428 -852.61616675545679 -815.88981742784756 -779.78774873170755 -6274.6294220343152 -6369.3052581116353 -6364.2862181817309 -6359.0919993570233 -6353.7205692056286 -6348.1698414016082 -6342.4376763027994 -6336.5218815543667 -6330.4202127187837 -6324.1303739330306 -6317.6500185937211 -6310.9767500709586 -6304.1081224516529 -6297.0416413131361 -6289.7747645278487 -6282.3049030998973 -6374.1510971317603 -6266.7456412398305 -6258.6508364659858 -6250.342240275435 -6241.8170430522514 -6233.0723940471089 -6224.1054024601617 -6214.9131385624769 -6205.4926348568697 -6195.8408872790005 -6185.9548564395682 -6175.8314689084564 -6165.4676185416574 -6154.8601678518462 -6144.0059494233956 -6132.9017673727085 -6427.2274584128336 -6446.4520948691252 -6446.1692658456377 -6445.745366516021 -6445.1802099591741 -6444.4735470011437 -6443.6250662629545 -6442.6343942205822 -6441.5010952771736 -6440.2246718476617 -6438.8045644559334 -6437.2401518447496 -6435.5307510986086 -6433.6756177798034 -6431.6739460779054 -6429.5248689729842 -6121.5443988546485 -6424.7807255045354 -6422.1836207207198 -6419.4350341208647 -6416.5337955880404 -6413.478675081491 -6410.2683829055022 -6406.901569994995 -6403.3768282183028 -6399.6926906976541 -6395.8476321478483 -6391.84006923365 -6387.6683609464799 -6383.3308090009314 -6378.8256582517388 -5241.1539007970478 -5604.413561720412 -5582.8274383733224 -5560.8766721479842 -5538.5584546731225 -5515.8700409136163 -5492.8087527564658 -5469.3719826533415 -5445.5571973190008 -5421.3619414847071 -5396.7838417057974 -5371.8206102223394 -5346.4700488718427 -5320.7300530528273 -5294.5986157379557 -5268.0738315354156 -5625.6379103679928 -5213.8371337716417 -5186.1219548017616 -5158.0069065623029 -5129.4906543388761 -5100.5719903440422 -5071.2498380692541 -5041.5232566702698 -5011.3914453836887 -4980.8537479721217 -4949.9096571953542 -4918.5588193047988 -4886.8010385583311 -4854.6362817524696 -4822.064682768847 -5902.6847907124711 -6109.9305956158896 -6098.0570855959959 -6085.9205745770141 -6073.5177478823489 -6060.845272125689 -6047.8997970107275 -6034.6779571824336 -6021.1763741305276 -6007.3916581458998 -5993.3204103306471 -5978.9592246623288 -5964.3046901131002 -5949.3533928243232 -5934.1019183372173 -5918.5468538800542 -6446.5939782189389 -5886.5123265273323 -5870.0260679105822 -5853.2226328595243 -5836.0986533598571 -5818.6507780218244 -5800.8756747757379 -5782.7700336271319 -5764.3305694717592 -5745.5540249705291 -5726.4371734845345 -5706.9768220701926 -5687.1698145344817 -5667.0130345502512 -5646.5034088314314 
</DataArray>
<DataArray type="Float64" Name="velocity_p0" NumberOfComponents="3" format="ascii">
0 0 1.2291856954557828e-06 0 0 9.8951453387806496e-07 0 0 1.0043749806678611e-06 0 0 1.0193930800100124e-06 0 0 1.0345693943384303e-06 0 0 1.0499044575887595e-06 0 0 1.0653987734059853e-06 0 0 1.0810528132286349e-06 0 0 1.0968670142394185e-06 0 0 1.1128417771724843e-06 0 0 1.1289774639683319e-06 0 0 1.1452743952637606e-06 0 0 1.1617328477061308e-06 0 0 1.1783530510779044e-06 0 0 1.1951351852195919e-06 0 0 1.2120793767336338e-06 0 0 9.748111503838338e-07 0 0 1.2464541506749893e-06 0 0 1.2638846870839712e-06 0 0 1.2814771804405649e-06 0 0 1.2992314329178543e-06 0 0 1.3171471681202173e-06 0 0 1.3352240257398385e-06 0 0 1.3534615558270534e-06 0 0 1.3718592126451086e-06 0 0 1.3904163480773431e-06 0 0 1.4091322045542919e-06 0 0 1.4280059074615149e-06 0 0 1.4470364569911179e-06 0 0 1.4662227193920839e-06 0 0 1.4855634175745814e-06 0 0 1.5050571210165305e-06 0 0 7.7264100967817939e-07 0 0 6.0305320390887436e-07 0 0 6.1340573132498776e-07 0 0 6.2389033759055483e-07 0 0 6.3450798966435726e-07 0 0 6.4525964899732321e-07 0 0 6.5614627128211214e-07 0 0 6.671688061879173e-07 0 0 6.7832819707974671e-07 0 0 6.8962538072092582e-07 0 0 7.0106128695741088e-07 0 0 7.1263683838266807e-07 0 0 7.2435294998197091e-07 0 0 7.3621052875435813e-07 0 0 7.4821047331022039e-07 0 0 7.6035367344388967e-07 0 0 1.5247022349206838e-06 0 0 7.8507335277979368e-07 0 0 7.9765156324288273e-07 0 0 8.1037649073898686e-07 0 0 8.2324897353043903e-07 0 0 8.3626983784551157e-07 0 0 8.494398972111459e-07 0 0 8.6275995174214498e-07 0 0 8.7623078738183171e-07 0 0 8.8985317509207398e-07 0 0 9.0362786998912918e-07 0 0 9.1755561041980163e-07 0 0 9.3163711697618458e-07 0 0 9.4587309144304358e-07 0 0 9.6026421567262234e-07 0 0 2.496138671298684e-06 0 0 2.2082797961033796e-06 0 0 2.2297452550048463e-06 0 0 2.2510358445909212e-06 0 0 2.2721238599524945e-06 0 0 2.2929795523678269e-06 0 0 2.3135710034751246e-06 0 0 2.3338639980822518e-06 0 0 2.3538218976410425e-06 0 0 2.3734055170942744e-06 0 0 2.3925730086645085e-06 0 0 2.4112797572408215e-06 0 0 2.4294782933945371e-06 0 0 2.4471182317915281e-06 0 0 2.4641462449726686e-06 0 0 2.4805060852794329e-06 0 0 2.1866652519557501e-06 0 0 2.5109822598590645e-06 0 0 2.5249727307318241e-06 0 0 2.538044019385465e-06 0 0 2.5501287444201216e-06 0 0 2.5611590923714489e-06 0 0 2.5710680465114437e-06 0 0 2.5797910840288801e-06 0 0 2.5872685298198934e-06 0 0 2.593448872713814e-06 0 0 2.5982935906823681e-06 0 0 2.6017845967211916e-06 0 0 2.6039370281300897e-06 0 0 2.6048264544128638e-06 0 0 2.6047081170814807e-06 0 0 1.8574572957439641e-06 0 0 1.5444969885619601e-06 0 0 1.5644394227624214e-06 0 0 1.5845273764270063e-06 0 0 1.6047584720644785e-06 0 0 1.6251301002162528e-06 0 0 1.6456394027060178e-06 0 0 1.666283254618606e-06 0 0 1.6870582449078495e-06 0 0 1.7079606555270647e-06 0 0 1.7289864389655096e-06 0 0 1.750131194067483e-06 0 0 1.7713901400001581e-06 0 0 1.7927580882270912e-06 0 0 1.8142294123342603e-06 0 0 1.8357980155441142e-06 0 0 5.928317831126997e-07 0 0 1.8792001078414957e-06 0 0 1.901018723251441e-06 0 0 1.9229047863046431e-06 0 0 1.9448492673619589e-06 0 0 1.9668424124031009e-06 0 0 1.9888736888553381e-06 0 0 2.010931727417678e-06 0 0 2.0330042596338476e-06 0 0 2.0550780509665317e-06 0 0 2.0771388291301306e-06 0 0 2.0991712074516892e-06 0 0 2.1211586030469125e-06 0 0 2.1430831496329585e-06 0 0 2.1649256048405806e-06 0 0 1.1477037261649624e-07 0 0 7.1991249266903684e-08 0 0 7.4575906896901399e-08 0 0 7.7194288211942369e-08 0 0 7.984741811551983e-08 0 0 8.2536322913569922e-08 0 0 8.5262030326899914e-08 0 0 8.8025569501379192e-08 0 0 9.0827971016426376e-08 0 0 9.3670266890473591e-08 0 0 9.6553490584978577e-08 0 0 9.947867700620893e-08 0 0 1.0244686250475217e-07 0 0 1.0545908487258675e-07 0 0 1.0851638333820166e-07 0 0 1.1161979855999646e-07 0 0 6.9439291806911049e-08 0 0 1.1796914899533438e-07 0 0 1.2121717257951075e-07 0 0 1.2451548963190352e-07 0 0 1.2786514777724751e-07 0 0 1.3126719598233563e-07 0 0 1.3472268453387772e-07 0 0 1.382326650145436e-07 0 0 1.4179819027702902e-07 0 0 1.4542031441521782e-07 0 0 1.4910009273479494e-07 0 0 1.528385817206276e-07 0 0 1.5663683900302785e-07 0 0 1.6049592332170793e-07 0 0 1.6441689448809643e-07 0 0 1.6840081334528481e-07 0 0 3.4391961832668273e-08 0 0 3.0591828723219236e-09 0 0 5.1003004308040199e-09 0 0 7.1439112630086178e-09 0 0 9.1910127188279411e-09 0 0 1.1242602342587464e-08 0 0 1.3299677927695128e-08 0 0 1.5363237571238652e-08 0 0 1.7434279727905865e-08 0 0 1.9513803263698263e-08 0 0 2.1602807508727604e-08 0 0 2.3702292309453147e-08 0 0 2.5813258080097342e-08 0 0 2.793670585343141e-08 0 0 3.0073637330646552e-08 0 0 3.2225054929446113e-08 0 0 1.724487417273749e-07 0 0 3.6575362034101015e-08 0 0 3.8776260384180382e-08 0 0 4.0995662634126408e-08 0 0 4.323457547860437e-08 0 0 4.5494006597273006e-08 0 0 4.7774964694385796e-08 0 0 5.0078459537736025e-08 0 0 5.2405501995252989e-08 0 0 5.4757104069893597e-08 0 0 5.7134278934044278e-08 0 0 5.9538040960416632e-08 0 0 6.1969405752914726e-08 0 0 6.4429390174289085e-08 0 0 6.6919012372819589e-08 0 0 4.5456835058889587e-07 0 0 3.4216614746468206e-07 0 0 3.4892546395274054e-07 0 0 3.5578508949777285e-07 0 0 3.6274608370549355e-07 0 0 3.6980950482237127e-07 0 0 3.769764096510232e-07 0 0 3.8424785346487858e-07 0 0 3.9162488992129885e-07 0 0 3.9910857097291584e-07 0 0 4.066999467775183e-07 0 0 4.1440006560666948e-07 0 0 4.2220997375150947e-07 0 0 4.3013071542767186e-07 0 0 4.3816333267695013e-07 0 0 4.463088652670743e-07 0 0 3.3550607915145037e-07 0 0 4.6294282355094132e-07 0 0 4.7143331647000227e-07 0 0 4.8004085895980272e-07 0 0 4.8876647781437457e-07 0 0 4.9761119688927095e-07 0 0 5.0657603697678447e-07 0 0 5.1566201567810276e-07 0 0 5.2487014726906189e-07 0 0 5.3420144256163573e-07 0 0 5.4365690875859619e-07 0 0 5.5323754930250066e-07 0 0 5.6294436371715784e-07 0 0 5.7277834744263418e-07 0 0 5.8274049166052833e-07 0 0 2.4679045600723177e-07 0 0 1.7656174241572489e-07 0 0 1.8074087909443848e-07 0 0 1.8498721630372026e-07 0 0 1.8930181939175908e-07 0 0 1.9368575446532503e-07 0 0 1.9814008833824448e-07 0 0 2.0266588847850031e-07 0 0 2.0726422295493778e-07 0 0 2.1193616038083398e-07 0 0 2.1668276985724239e-07 0 0 2.2150512091545514e-07 0 0 2.2640428345672431e-07 0 0 2.3138132769187652e-07 0 0 2.364373240794771e-07 0 0 2.4157334326334256e-07 0 0 1.0195613765030723e-09 0 0 2.5208973313106989e-07 0 0 2.5747224544386547e-07 0 0 2.6293906367667534e-07 0 0 2.6849125841493995e-07 0 0 2.7412990002851779e-07 0 0 2.7985605860282648e-07 0 0 2.8567080386678559e-07 0 0 2.9157520512154271e-07 0 0 2.975703311682143e-07 0 0 3.0365725023330928e-07 0 0 3.0983702989553458e-07 0 0 3.1611073700971104e-07 0 0 3.2247943763064518e-07 0 0 3.289441969367726e-07 
</DataArray>
<DataArray type="Float64" Name="water_content" format="ascii">
0.23986747888784535 0.22993144760734407 0.23049853605899492 0.23107783665705522 0.23166964382340194 0.23227426101754128 0.23289200108555103 0.23352318662458207 0.23416815036367095 0.23482723556164797 0.23550079642296404 0.23618919853229858 0.23689281930884917 0.23761204848124629 0.23834728858407728 0.23909895547704688 0.22937628558375872 0.24065330297983956 0.24145688694574496 0.24227870562848197 0.2431192501704619 0.24397902869258975 0.24485856700431136 0.24575840934606705 0.2466791191655498 0.24762127992919028 0.24858549597031551 0.24957239337543713 0.25058262091013028 0.2516168509859526 0.25267578066982671 0.25376013273726228 0.22230898832566104 0.21713249090953282 0.21743001066336318 0.21773372951493231 0.21804377544270648 0.21836027953900994 0.218683376108222 0.21901320276881334 0.21934990055938797 0.21969361404890606 0.22004449145127061 0.22040268474447045 0.22076834979448126 0.22114164648413587 0.22152273884718618 0.22191179520778909 0.25487065677072779 0.22271449554715766 0.2231284989625478 0.22355118556976414 0.22398274744492797 0.22442338191995898 0.22487329176759763 0.22533268539418419 0.22580177704055446 0.22628078699143253 0.22676994179371812 0.2272694744840871 0.22777962482634445 0.22830063955899205 0.22883277265349533 0.35952366700050264 0.31062983645476883 0.31328150881803962 0.31601047312892994 0.31881910656749324 0.3217097907837716 0.32468489361658659 0.32774674639723689 0.33089761590736916 0.33413966985467647 0.337474934472483 0.34090524252347276 0.34443216957112521 0.3480569558423392 0.35178041029368334 0.35560279254029797 0.30805309796047298 0.36354172177582378 0.36765454213911841 0.37185832455761936 0.37614751107947902 0.38051431409396208 0.38494808491205323 0.38943445012051547 0.3939540836713048 0.39848086771817171 0.40297893446273381 0.40739740475275799 0.41165950311305205 0.41563331332769532 0.41876342479663309 0.27693360866880745 0.25600813030438241 0.25717336001624802 0.25836718296872918 0.25959046789816775 0.26084411655383921 0.26212906508644873 0.26344628548575272 0.26479678706639898 0.26618161800043105 0.26760186689411292 0.26905866440577353 0.27055318490022051 0.27208664813388417 0.27366032096318793 0.27527551906664682 0.21684104529431503 0.27863600825129053 0.28038419023278793 0.28217968259580117 0.28402407043305833 0.2859189973807631 0.28786616689893019 0.28986734335084108 0.29192435282383766 0.29403908362196729 0.29621348634700384 0.29844957346766121 0.30074941825682333 0.30311515295267055 0.30554896597086567 0.20591303793418214 0.20532586764882005 0.20535672727921256 0.20538869528205611 0.20542178746468409 0.2054560201413386 0.20549141013706351 0.20552797479174562 0.20556573196430705 0.20560470003705306 0.20564489792017807 0.20568634505643549 0.20572906142597414 0.20577306755134639 0.20581838450269241 0.20586503390310534 0.2052961010867049 0.20596241934176596 0.20601320144188398 0.20606540812688856 0.20611906387180517 0.20617419374089518 0.20623082339443818 0.20628897909574195 0.20634868771838605 0.20640997675370581 0.20647287431852573 0.20653740916314781 0.20660361067960489 0.20667150891018612 0.20674113455624346 0.20681251898728867 0.20497186534215622 0.20485523003748604 0.20485694287487399 0.204859510218176 0.20486293340540121 0.20486721422085574 0.20487235489552549 0.20487835810755498 0.20488522698282288 0.20489296509561422 0.20490157646939022 0.20491106557765559 0.20492143734492493 0.20493269714778822 0.20494485081607633 0.20495790463412755 0.20688569425038944 0.20498674013772405 0.20500253667731555 0.20501926307801893 0.20503692791931338 0.20505554024496431 0.20507510956502806 0.20509564585796736 0.20511715957287996 0.20513966163184089 0.20516316343236154 0.2051876768499668 0.20521321424089239 0.20523978844490476 0.20526741278824584 0.21312155190200882 0.21040449125988542 0.21055989352681873 0.21071867239419029 0.21088089282843103 0.21104662113070771 0.21121592496890793 0.21138887341074714 0.21156553695803962 0.2117459875821785 0.21193029876087055 0.21211854551617443 0.21231080445389242 0.21250715380436802 0.21270767346474473 0.21291244504274198 0.21025240193079092 0.21333507920911687 0.21355311398225754 0.21377574514171122 0.21400306356215903 0.21423516212691116 0.21447213578412838 0.21471408160511823 0.21496109884478903 0.21521328900435011 0.21547075589635056 0.21573360571215225 0.21600194709193773 0.21627589119735874 0.21655555178693431 0.2083289919578315 0.20696069307987502 0.20703754890736142 0.20711629587210595 0.20719696883170308 0.20727960337313234 0.20736423582417007 0.2074509032651774 0.20753964354127699 0.20763049527493235 0.20772349787894234 0.20781869156986621 0.20791611738189344 0.20801581718117371 0.20811783368062312 0.20822221045522349 0.20485437081401295 0.20843822353551567 0.20854995144644045 0.20866422287731556 0.20878108596143208 0.20890058979730475 0.20902278446794348 0.20914772106077562 0.20927545168824313 0.20940602950909848 0.20953950875042526 0.20967594473040907 0.20981539388188722 0.2099579137767042 0.21010356315090428 
</DataArray>
<DataArray type="Float64" Name="conductivity_richards" format="ascii">