<?xml version="1.0"?>
<VTKFile type="UnstructuredGrid" version="0.1" byte_order="LittleEndian">
<UnstructuredGrid>
<Piece NumberOfPoints="251" NumberOfCells="250">
<Points>
<DataArray type="Float64" NumberOfComponents="3" format="ascii">
0 0 -0.25 0 0 -0.24899999999999739 0 0 -0.2479999999999947 0 0 -0.24699999999999209 0 0 -0.24599999999998939 0 0 -0.24499999999998681 0 0 -0.24299999999998159 0 0 -0.2439999999999842 0 0 -0.23499999999996049 0 0 -0.2359999999999631 0 0 -0.23699999999996571 0 0 -0.2379999999999684 0 0 -0.23899999999997101 0 0 -0.2399999999999736 0 0 -0.24099999999997629 0 0 -0.2419999999999789 0 0 -0.22699999999993939 0 0 -0.227999999999942 0 0 -0.22899999999994469 0 0 -0.2299999999999473 0 0 -0.23099999999994991 0 0 -0.23199999999995249 0 0 -0.23299999999995519 0 0 -0.2339999999999578 0 0 -0.22499999999993411 0 0 -0.2259999999999367 0 0 -0.22399999999993139 0 0 -0.22299999999992881 0 0 -0.2219999999999262 0 0 -0.22099999999992359 0 0 -0.2199999999999209 0 0 -0.21899999999991829 0 0 -0.21799999999991571 0 0 -0.21699999999991301 0 0 -0.21499999999990771 0 0 -0.2159999999999104 0 0 -0.21299999999990249 0 0 -0.2139999999999051 0 0 -0.21199999999989991 0 0 -0.21099999999989719 0 0 -0.2099999999998946 0 0 -0.20899999999989191 0 0 -0.2079999999998893 0 0 -0.20399999999987881 0 0 -0.20499999999988139 0 0 -0.205999999999884 0 0 -0.20699999999988669 0 0 -0.18899999999983921 0 0 -0.1879999999998366 0 0 -0.19099999999984449 0 0 -0.18999999999984191 0 0 -0.19299999999984971 0 0 -0.1919999999998471 0 0 -0.19499999999985501 0 0 -0.1939999999998524 0 0 -0.19699999999986029 0 0 -0.1959999999998577 0 0 -0.19899999999986559 0 0 -0.19799999999986301 0 0 -0.20099999999987081 0 0 -0.1999999999998682 0 0 -0.20299999999987611 0 0 -0.2019999999998735 0 0 -0.13099999999968631 0 0 -0.13199999999968889 0 0 -0.1299999999996837 0 0 -0.12899999999968109 0 0 -0.1279999999996784 0 0 -0.12699999999967579 0 0 -0.12599999999967451 0 0 -0.13999999999971011 0 0 -0.13899999999970741 0 0 -0.1379999999997048 0 0 -0.13699999999970211 0 0 -0.1359999999996995 0 0 -0.13499999999969689 0 0 -0.13299999999969159 0 0 -0.1339999999996942 0 0 -0.14699999999972849 0 0 -0.1479999999997311 0 0 -0.14599999999972579 0 0 -0.14499999999972321 0 0 -0.1439999999997206 0 0 -0.14299999999971799 0 0 -0.1419999999997153 0 0 -0.14099999999971269 0 0 -0.1559999999997522 0 0 -0.15499999999974959 0 0 -0.15399999999974701 0 0 -0.15299999999974431 0 0 -0.1519999999997417 0 0 -0.15099999999973901 0 0 -0.14899999999973379 0 0 -0.1499999999997364 0 0 -0.16299999999977069 0 0 -0.1639999999997733 0 0 -0.161999999999768 0 0 -0.16099999999976539 0 0 -0.1599999999997628 0 0 -0.15899999999976011 0 0 -0.1579999999997575 0 0 -0.15699999999975489 0 0 -0.17099999999979171 0 0 -0.1699999999997891 0 0 -0.16899999999978649 0 0 -0.16799999999978391 0 0 -0.16699999999978121 0 0 -0.16499999999977599 0 0 -0.1659999999997786 0 0 -0.1779999999998102 0 0 -0.17899999999981281 0 0 -0.17699999999980759 0 0 -0.17599999999980501 0 0 -0.17499999999980231 0 0 -0.1739999999997997 0 0 -0.17299999999979701 0 0 -0.1719999999997944 0 0 -0.18699999999983391 0 0 -0.1859999999998313 0 0 -0.18499999999982869 0 0 -0.183999999999826 0 0 -0.18299999999982339 0 0 -0.18199999999982069 0 0 -0.1799999999998155 0 0 -0.18099999999981811 0 0 -0.068999999999833792 0 0 -0.069999999999830878 0 0 -0.067999999999836705 0 0 -0.066999999999839618 0 0 -0.065999999999842532 0 0 -0.064999999999845445 0 0 -0.063999999999848373 0 0 -0.062999999999851286 0 0 -0.077999999999807557 0 0 -0.07699999999981047 0 0 -0.075999999999813383 0 0 -0.074999999999816297 0 0 -0.07399999999981921 0 0 -0.072999999999822124 0 0 -0.070999999999827965 0 0 -0.071999999999825051 0 0 -0.083999999999790062 0 0 -0.084999999999787149 0 0 -0.082999999999792975 0 0 -0.081999999999795889 0 0 -0.080999999999798802 0 0 -0.07999999999980173 0 0 -0.078999999999804643 0 0 -0.092999999999763827 0 0 -0.091999999999766741 0 0 -0.090999999999769654 0 0 -0.089999999999772567 0 0 -0.088999999999775481 0 0 -0.087999999999778394 0 0 -0.085999999999784235 0 0 -0.086999999999781322 0 0 -0.099999999999743419 0 0 -0.10099999999974051 0 0 -0.098999999999746333 0 0 -0.097999999999749246 0 0 -0.096999999999752159 0 0 -0.095999999999755073 0 0 -0.094999999999758 0 0 -0.093999999999760914 0 0 -0.1089999999997172 0 0 -0.1079999999997201 0 0 -0.106999999999723 0 0 -0.1059999999997259 0 0 -0.1049999999997288 0 0 -0.10399999999973179 0 0 -0.10199999999973761 0 0 -0.10299999999973471 0 0 -0.1159999999996968 0 0 -0.11699999999969379 0 0 -0.1149999999996997 0 0 -0.1139999999997026 0 0 -0.1129999999997055 0 0 -0.1119999999997084 0 0 -0.1109999999997113 0 0 -0.1099999999997143 0 0 -0.12499999999967321 0 0 -0.1239999999996748 0 0 -0.1229999999996764 0 0 -0.1219999999996793 0 0 -0.1209999999996822 0 0 -0.11999999999968509 0 0 -0.11799999999969089 0 0 -0.11899999999968799 0 0 -0.047999999999895078 0 0 -0.046999999999897998 0 0 -0.049999999999889237 0 0 -0.048999999999892158 0 0 -0.051999999999883403 0 0 -0.050999999999886317 0 0 -0.053999999999877563 0 0 -0.052999999999880483 0 0 -0.055999999999871722 0 0 -0.054999999999874642 0 0 -0.057999999999865881 0 0 -0.056999999999868801 0 0 -0.059999999999860047 0 0 -0.058999999999862961 0 0 -0.061999999999854213 0 0 -0.060999999999857127 0 0 -0.042999999999909673 0 0 -0.043999999999906753 0 0 -0.044999999999903832 0 0 -0.045999999999900919 0 0 -0.041999999999912593 0 0 -0.040999999999915507 0 0 -0.039999999999918427 0 0 -0.038999999999921348 0 0 -0.037999999999924268 0 0 -0.035999999999930102 0 0 -0.036999999999927188 0 0 -0.033999999999935943 0 0 -0.034999999999933022 0 0 -0.032999999999938787 0 0 -0.031999999999941367 0 0 -0.03099999999994377 0 0 -0.02999999999994565 0 0 -0.028999999999947419 0 0 -0.027999999999948951 0 0 -0.02699999999995048 0 0 -0.02599999999995202 0 0 -0.023999999999955082 0 0 -0.024999999999953549 0 0 -0.01599999999996761 0 0 -0.0169999999999659 0 0 -0.01799999999996427 0 0 -0.018999999999962731 0 0 -0.019999999999961209 0 0 -0.020999999999959669 0 0 -0.02199999999995814 0 0 -0.022999999999956611 0 0 -0.007999999999984719 0 0 -0.008999999999982581 0 0 -0.0099999999999804221 0 0 -0.010999999999978201 0 0 -0.011999999999975971 0 0 -0.01299999999997375 0 0 -0.01399999999997158 0 0 -0.014999999999969531 0 0 -0.0059999999999886811 0 0 -0.0069999999999867156 0 0 -0.004999999999990571 0 0 -0.0039999999999924488 0 0 -0.0029999999999943271 0 0 -0.001999999999996204 0 0 -0.00099999999999810158 0 0 0 
</DataArray>
</Points>
<Cells>
<DataArray type="UInt32" Name="connectivity" format="ascii">
1 0 2 1 3 2 4 3 5 4 7 5 15 6 6 7 23 8 8 9 9 10 10 11 11 12 12 13 13 14 14 15 16 17 17 18 18 19 19 20 20 21 21 22 22 23 24 25 25 16 26 24 27 26 28 27 29 28 30 29 31 30 32 31 33 32 34 35 35 33 36 37 37 34 38 36 39 38 40 39 41 40 42 41 46 42 61 43 43 44 44 45 45 46 48 47 50 49 47 50 52 51 49 52 54 53 51 54 56 55 53 56 58 57 55 58 60 59 57 60 62 61 59 62 63 64 64 76 65 63 66 65 67 66 68 67 69 68 180 69 70 85 71 70 72 71 73 72 74 73 75 74 76 77 77 75 80 78 78 79 81 80 82 81 83 82 84 83 85 84 87 86 88 87 89 88 90 89 91 90 93 91 79 92 92 93 96 94 94 95 97 96 98 97 99 98 100 99 101 100 86 101 102 116 103 102 104 103 105 104 106 105 108 106 95 107 107 108 109 110 110 123 111 109 112 111 113 112 114 113 115 114 116 115 117 48 118 117 119 118 120 119 121 120 122 121 123 124 124 122 127 125 125 126 128 127 129 128 130 129 131 130 132 131 134 133 135 134 136 135 137 136 138 137 140 138 126 139 139 140 141 142 142 154 143 141 144 143 145 144 146 145 147 146 133 147 148 163 149 148 150 149 151 150 152 151 153 152 154 155 155 153 156 157 157 170 158 156 159 158 160 159 161 160 162 161 163 162 165 164 166 165 167 166 168 167 169 168 170 171 171 169 174 172 172 173 175 174 176 175 177 176 178 177 179 178 164 179 181 180 182 181 183 182 184 183 185 184 187 185 173 186 186 187 188 191 189 188 190 193 191 190 192 195 193 192 194 197 195 194 196 199 197 196 198 201 199 198 200 203 201 200 202 132 203 202 204 205 205 206 206 207 207 189 208 204 209 208 210 209 211 210 212 211 214 212 216 213 213 214 217 215 215 216 218 217 219 218 220 219 221 220 222 221 223 222 224 223 226 224 234 225 225 226 227 228 228 229 229 230 230 231 231 232 232 233 233 234 235 236 236 237 237 238 238 239 239 240 240 241 241 242 242 227 243 244 244 235 245 243 246 245 247 246 248 247 249 248 250 249 
</DataArray>
<DataArray type="UInt32" Name="offsets" format="ascii">
2 4 6 8 10 12 14 16 18 20 22 24 26 28 30 32 34 36 38 40 42 44 46 48 50 52 54 56 58 60 62 64 66 68 70 72 74 76 78 80 82 84 86 88 90 92 94 96 98 100 102 104 106 108 110 112 114 116 118 120 122 124 126 128 130 132 134 136 138 140 142 144 146 148 150 152 154 156 158 160 162 164 166 168 170 172 174 176 178 180 182 184 186 188 190 192 194 196 198 200 202 204 206 208 210 212 214 216 218 220 222 224 226 228 230 232 234 236 238 240 242 244 246 248 250 252 254 256 258 260 262 264 266 268 270 272 274 276 278 280 282 284 286 288 290 292 294 296 298 300 302 304 306 308 310 312 314 316 318 320 322 324 326 328 330 332 334 336 338 340 342 344 346 348 350 352 354 356 358 360 362 364 366 368 370 372 374 376 378 380 382 384 386 388 390 392 394 396 398 400 402 404 406 408 410 412 414 416 418 420 422 424 426 428 430 432 434 436 438 440 442 444 446 448 450 452 454 456 458 460 462 464 466 468 470 472 474 476 478 480 482 484 486 488 490 492 494 496 498 500 
</DataArray>
<DataArray type="UInt32" Name="types" format="ascii">
3 3 3 3 3 3 3 3 3 3 3 3 3 3 3 3 3 3 3 3 3 3 3 3 3 3 3 3 3 3 3 3 3 3 3 3 3 3 3 3 3 3 3 3 3 3 3 3 3 3 3 3 3 3 3 3 3 3 3 3 3 3 3 3 3 3 3 3 3 3 3 3 3 3 3 3 3 3 3 3 3 3 3 3 3 3 3 3 3 3 3 3 3 3 3 3 3 3 3 3 3 3 3 3 3 3 3 3 3 3 3 3 3 3 3 3 3 3 3 3 3 3 3 3 3 3 3 3 3 3 3 3 3 3 3 3 3 3 3 3 3 3 3 3 3 3 3 3 3 3 3 3 3 3 3 3 3 3 3 3 3 3 3 3 3 3 3 3 3 3 3 3 3 3 3 3 3 3 3 3 3 3 3 3 3 3 3 3 3 3 3 3 3 3 3 3 3 3 3 3 3 3 3 3 3 3 3 3 3 3 3 3 3 3 3 3 3 3 3 3 3 3 3 3 3 3 3 3 3 3 3 3 3 3 3 3 3 3 3 3 3 3 3 3 3 3 3 3 3 3 
</DataArray>
</Cells>
<CellData Scalars="pressure_p0,water_content,conductivity_richards," Vectors="velocity_p0," Tensors="">
<DataArray type="Float64" Name="pressure_p0" format="ascii">
-5.9283100526159123 -17.905515751899735 -30.151414681213375 -42.709166955185651 -55.606102408262359 -68.863361901568638 -96.525774671879191 -82.49833354840122 -224.11438930010888 -206.60004296775165 -189.54495546910147 -172.94427143526354 -156.79231806762124 -141.0825434603409 -125.807438268582 -110.95843441508546 -359.83152600619394 -339.02565288034424 -318.69377295067534 -298.83561139277344 -279.45033002110705 -260.53650245781807 -242.09208557673111 -402.8636788640041 -381.11112825360016 -425.08790261923008 -447.78205033357369 -470.94391771514097 -494.5708646559018 -518.65983350689226 -543.2073667837318 -568.20962435547483 -593.66240015854828 -645.90094975756779 -619.5611384687561 -699.88265652588871 -672.67662615357438 -727.51324120305708 -755.56230633854648 -784.0235179319493 -812.89029551356612 -842.15582549885767 -871.81307421840938 -994.21158307918358 -963.06175953427464 -932.27356870606627 -901.85480062840315 -1499.1595060019622 -1428.2793371228681 -1463.6037416549507 -1358.3611446130362 -1393.1954335504392 -1289.4776683260593 -1323.7855461453692 -1221.7009305135502 -1255.4464903230144 -1155.1019829303877 -1188.2498378453552 -1089.7506217930295 -1122.2660488679246 -1025.7150896646071 -1057.5641811467785 -3629.0911907993495 -3593.9337931742375 -3664.0554195574246 -3698.8222541922169 -3733.3875837619835 -3767.7474087052419 -3801.8978399991693 -3835.8351004410897 -3306.2654103543036 -3342.8022579086837 -3379.1838908759255 -3415.4051566378421 -3451.4610155174951 -3487.3465494385273 -3558.5875658962477 -3523.0569616112225 -3084.0882354869846 -3046.6190613485296 -3121.4415637454113 -3158.6730684944614 -3195.776886378937 -3232.7472751724072 -3269.5786185379875 -2743.4510233570836 -2781.6177976067847 -2819.7207263922537 -2857.7529096117846 -2895.707558373243 -2933.5779987413571 -3009.0401362826474 -2971.3576726341958 -2475.0986468459491 -2436.6826121218942 -2513.5099366736304 -2551.9087293946704 -2590.2873684988404 -2628.6383048955795 -2666.9540988140934 -2705.2274152696491 -2130.1452754313054 -2168.3088493963596 -2206.5330415993244 -2244.8093810001883 -2283.1294801076065 -2321.4850312157241 -2398.2696832922475 -2359.8678092680475 -1865.4243331968605 -1828.0591061825 -1902.9204018005275 -1940.5383324317224 -1978.2691910550029 -2016.1041006469832 -2054.0342456144945 -2092.050867553824 -1534.9374675533272 -1570.9284498428283 -1607.1232684593519 -1643.5127376748346 -1680.0876778251741 -1716.8389210198502 -1790.8337446654275 -1753.7573171043323 -5341.9400208182687 -5323.4017179323073 -5360.1914157328447 -5378.1562686730613 -5395.8349666767954 -5413.2279264339959 -5430.3355929836434 -5164.7323681640737 -5185.5755345005273 -5206.129967487368 -5226.3957749398287 -5246.3731002199638 -5266.0621241908775 -5304.5761684615882 -5285.4630637911205 -5010.7451173618119 -4987.5931630841196 -5033.6089939101548 -5056.1845491971808 -5078.4715922634996 -5100.4699764557809 -5122.1795978900409 -5143.6003993723225 -4792.0534264850885 -4817.4948163822301 -4842.6520323591103 -4867.5243818383424 -4892.1112396753524 -4916.4120349095811 -4964.1534253299178 -4940.4262491649415 -4606.0786226366154 -4578.3966728505202 -4633.4843428684926 -4660.6125922796627 -4687.4622046270124 -4714.0320851555407 -4740.3212090386887 -4766.3286183745695 -4377.009067880017 -4406.5833390829721 -4435.892270910932 -4464.9340612048691 -4493.7069908548856 -4550.439810343325 -4522.2094254798722 -4162.7295487798119 -4131.108086565976 -4194.103309144728 -4225.2268367442666 -4256.097698070982 -4286.7135527720975 -4317.0721522663289 -4347.1713455723439 -3869.5555226590363 -3903.0555481499096 -3936.331726276434 -3969.3807132247139 -4002.19927092429 -4034.7842659322109 -4099.2415506895122 -4067.1326682829522 -5653.0713294567367 -5665.6883232566224 -5627.0084105553415 -5640.1782408162235 -5599.8359606673066 -5613.5611961456452 -5571.5489129894304 -5585.8320738772272 -5542.1423224846567 -5556.9858639345894 -5511.6114015685225 -5527.0176953956725 -5479.9515571160237 -5495.9228732274432 -5447.1584284500004 -5463.6969157104941 -5713.4083825105799 -5701.889247909965 -5690.0966292924459 -5678.0298723684518 -5724.6546868133082 -5735.6288130471576 -5746.3314110378724 -5756.7631273147463 -5766.9246042375944 -5776.8164791440377 -5795.7939421734345 -5786.4393835171213 -5813.7004835424777 -5804.8807724717753 -5822.2536755374394 -5830.5409389009483 -5838.5628536613949 -5846.3199887439114 -5853.812901303987 -5861.0421360821547 -5868.00822477977 -5874.7116854559645 -5887.3327232995907 -5881.1530219457882 -5923.3025772191268 -5918.9419804529662 -5914.3227153201287 -5909.4444101664258 -5904.3066741016264 -5898.9090996624855 -5893.2512632437083 -5948.913613752633 -5946.6112760525284 -5944.0525490292875 -5941.2372181240216 -5938.1650499626794 -5934.8357889775161 -5931.249157668416 -5927.4048587725047 -5952.7498769450103 -5950.9597558495889 -5954.2841285181767 -5955.5626387734592 -5956.5855163408223 -5957.3528482526362 -5957.8646998569329 -5958.1211147523554 
</DataArray>
<DataArray type="Float64" Name="velocity_p0" NumberOfComponents="3" format="ascii">
0 0 2.0898199850709084e-06 0 0 2.0897633826228227e-06 0 0 2.0891888062910478e-06 0 0 2.0879762649916219e-06 0 0 2.0860832940863558e-06 0 0 2.0834942461538887e-06 0 0 2.0762360928925099e-06 0 0 2.0802087098191606e-06 0 0 2.0223227602566447e-06 0 0 2.0309674843118859e-06 0 0 2.0391236030338308e-06 0 0 2.0467628771841195e-06 0 0 2.0538571898509475e-06 0 0 2.0603781074180358e-06 0 0 2.0662985243523379e-06 0 0 2.07159247008536e-06 0 0 1.9503861424598012e-06 0 0 1.9617095287515885e-06 0 0 1.9727239231044504e-06 0 0 1.9834063261667814e-06 0 0 1.9937328506699196e-06 0 0 2.0036783797085854e-06 0 0 2.0132173249469746e-06 0 0 1.9268993354578162e-06 0 0 1.9387757666677969e-06 0 0 1.9147769982212235e-06 0 0 1.9024277218235183e-06 0 0 1.8898695887247977e-06 0 0 1.8771197546471377e-06 0 0 1.8641944786766565e-06 0 0 1.8511091557139128e-06 0 0 1.837878350447661e-06 0 0 1.8245158321896933e-06 0 0 1.797446967954838e-06 0 0 1.8110346100387489e-06 0 0 1.7699981413800831e-06 0 0 1.783764499412665e-06 0 0 1.7561582074262938e-06 0 0 1.7422544198169635e-06 0 0 1.728295940493069e-06 0 0 1.7142914008625247e-06 0 0 1.7002489303629897e-06 0 0 1.686176183774429e-06 0 0 1.6297203435882593e-06 0 0 1.6438462539028442e-06 0 0 1.6579682632561023e-06 0 0 1.6720803672755158e-06 0 0 1.4205090451146439e-06 0 0 1.447891277256166e-06 0 0 1.4341737341127509e-06 0 0 1.4754753158163134e-06 0 0 1.4616593405501327e-06 0 0 1.5032407725038962e-06 0 0 1.4893367772306801e-06 0 0 1.5311640716224321e-06 0 0 1.5171842781233538e-06 0 0 1.5592185651484456e-06 0 0 1.545176719622886e-06 0 0 1.5873740213010846e-06 0 0 1.573285714163872e-06 0 0 1.6155961800967146e-06 0 0 1.6014790747249829e-06 0 0 7.6141329893728874e-07 0 0 7.7080136776608887e-07 0 0 7.5210050529365573e-07 0 0 7.4286265084374291e-07 0 0 7.3369943799413804e-07 0 0 7.2461042369656858e-07 0 0 7.1559529590089012e-07 0 0 7.0665368968409343e-07 0 0 8.4865363190256714e-07 0 0 8.3865228710686342e-07 0 0 8.2872859159889661e-07 0 0 8.1888228256194728e-07 0 0 8.091128841004787e-07 0 0 7.9942051794786324e-07 0 0 7.8026503984605292e-07 0 0 7.898046884754054e-07 0 0 9.1030555221088994e-07 0 0 9.2085681390067235e-07 0 0 8.9983344284890873e-07 0 0 8.8944031111221092e-07 0 0 8.7912580966858629e-07 0 0 8.6889005229354411e-07 0 0 8.5873287782776006e-07 0 0 1.0081320850522704e-06 0 0 9.9694328376130445e-07 0 0 9.8583442439698834e-07 0 0 9.74805475404821e-07 0 0 9.6385631338564269e-07 0 0 9.5298700718169588e-07 0 0 9.3148738757728756e-07 0 0 9.421973942900888e-07 0 0 1.0886898451817472e-06 0 0 1.1005164024628716e-06 0 0 1.0769425800563695e-06 0 0 1.0652747887079516e-06 0 0 1.0536863508392682e-06 0 0 1.0421779268026134e-06 0 0 1.0307493376547538e-06 0 0 1.0194008376647988e-06 0 0 1.197949377089257e-06 0 0 1.1854994321656561e-06 0 0 1.1731259595220583e-06 0 0 1.1608294645933893e-06 0 0 1.1486106112635034e-06 0 0 1.1364693968172413e-06 0 0 1.1124220369039301e-06 0 0 1.1244063957239495e-06 0 0 1.2871865798347512e-06 0 0 1.3002233225595639e-06 0 0 1.2742201609691294e-06 0 0 1.2613250711676813e-06 0 0 1.2485020086430607e-06 0 0 1.2357522958380116e-06 0 0 1.2230764926188783e-06 0 0 1.2104752377099705e-06 0 0 1.4068993954544451e-06 0 0 1.3933468675262257e-06 0 0 1.3798532981637686e-06 0 0 1.3664205119161145e-06 0 0 1.3530501775292175e-06 0 0 1.3397438521000396e-06 0 0 1.3133293044084266e-06 0 0 1.3265029872596855e-06 0 0 3.0420174017301267e-07 0 0 3.0971085932261397e-07 0 0 2.9873746417862607e-07 0 0 2.9331744193076265e-07 0 0 2.8794091783363322e-07 0 0 2.8260762446658871e-07 0 0 2.7731680108532395e-07 0 0 3.5546803105347838e-07 0 0 3.49579268870668e-07 0 0 3.4373996832691392e-07 0 0 3.3794956172419811e-07 0 0 3.3220742156721773e-07 0 0 3.2651308865836759e-07 0 0 3.15265408400473e-07 0 0 3.20865930003366e-07 0 0 3.9812131175086703e-07 0 0 4.0442586210874453e-07 0 0 3.9187066150587221e-07 0 0 3.8567336682041284e-07 0 0 3.7952899589237326e-07 0 0 3.7343676674580061e-07 0 0 3.6739624168534854e-07 0 0 3.6140681976017661e-07 0 0 4.5686685669749909e-07 0 0 4.5011186734967997e-07 0 0 4.4341502425225524e-07 0 0 4.3677580762747984e-07 0 0 4.3019390053859048e-07 0 0 4.2366836471442939e-07 0 0 4.1078485413223943e-07 0 0 4.1719887689912235e-07 0 0 5.0582293669374272e-07 0 0 5.1306141207189065e-07 0 0 4.9864664619082275e-07 0 0 4.9153204773400442e-07 0 0 4.8447868111449105e-07 0 0 4.7748597424201682e-07 0 0 4.705534600152559e-07 0 0 4.6368050883952101e-07 0 0 5.6551274327229323e-07 0 0 5.5782548120772316e-07 0 0 5.5020375078233222e-07 0 0 5.4264708534541434e-07 0 0 5.3515495504503722e-07 0 0 5.2036256158742906e-07 0 0 5.2772700399538151e-07 0 0 6.2119657992577129e-07 0 0 6.2942439669414069e-07 0 0 6.1303787678894667e-07 0 0 6.0494785510772118e-07 0 0 5.9692613464615982e-07 0 0 5.889721608192704e-07 0 0 5.8108554438750043e-07 0 0 5.7326599962408359e-07 0 0 6.9778523350787346e-07 0 0 6.8898954943910017e-07 0 0 6.8026625335718284e-07 0 0 6.7161495515067529e-07 0 0 6.6303525890235377e-07 0 0 6.5452676306373439e-07 0 0 6.3772175449980373e-07 0 0 6.4608906062054953e-07 0 0 2.0263719132332308e-07 0 0 1.9794267273442864e-07 0 0 2.1212462284863983e-07 0 0 2.073642964413535e-07 0 0 2.2174747265637041e-07 0 0 2.1691880802854819e-07 0 0 2.3151076566824362e-07 0 0 2.2661124985971739e-07 0 0 2.4141950591108066e-07 0 0 2.364466438559058e-07 0 0 2.5147865598614526e-07 0 0 2.4642997100943951e-07 0 0 2.6169314105172848e-07 0 0 2.5656617530899224e-07 0 0 2.720678479666872e-07 0 0 2.6686016286808812e-07 0 0 1.7947769488537105e-07 0 0 1.840482566734465e-07 0 0 1.8864884516945307e-07 0 0 1.9328010380929879e-07 0 0 1.7493651484266875e-07 0 0 1.7042406964215942e-07 0 0 1.6593971047570077e-07 0 0 1.6148278666458844e-07 0 0 1.5705264569674617e-07 0 0 1.5264863326242407e-07 0 0 1.4391636799221488e-07 0 0 1.4827009329174127e-07 0 0 1.3528072185493568e-07 0 0 1.3958679788715343e-07 0 0 1.3099747716729324e-07 0 0 1.2673639953036385e-07 0 0 1.2249682312469856e-07 0 0 1.1827808064666313e-07 0 0 1.1407950334913377e-07 0 0 1.0990042108439552e-07 0 0 1.0574016234628301e-07 0 0 1.0159805431342979e-07 0 0 9.3365592762042422e-08 0 0 9.7473422892456463e-08 0 0 6.5024219260588244e-08 0 0 6.9033443024354605e-08 0 0 7.305471024496457e-08 0 0 7.7088703571867972e-08 0 0 8.113613942025555e-08 0 0 8.5197629215972144e-08 0 0 8.9273887417592176e-08 0 0 3.330181609395571e-08 0 0 3.7239360869034716e-08 0 0 4.1183460907732407e-08 0 0 4.5134804404924673e-08 0 0 4.9094023580622841e-08 0 0 5.3061916477009319e-08 0 0 5.7039114119763969e-08 0 0 6.1026355442535577e-08 0 0 2.544369590882387e-08 0 0 2.9370137913852976e-08 0 0 2.1521683263516603e-08 0 0 1.7603468858053166e-08 0 0 1.3688362624405719e-08 0 0 9.7756742688191602e-09 0 0 5.8647133225608445e-09 0 0 1.9547891918286456e-09 
</DataArray>
<DataArray type="Float64" Name="water_content" format="ascii">
0.41910197970470342 0.41675095271324225 0.4136901842269945 0.41038303032997547 0.40692727401817064 0.4033800863761518 0.39615433294324898 0.39977987964362538 0.36797173119083915 0.37133636648366225 0.37475679089760916 0.37822934647076922 0.38174929601127583 0.38531057598591856 0.38890547593126423 0.39252421117739378 0.34613632928822036 0.34906606431072973 0.35205935234887942 0.35511630821035367 0.35823675960002077 0.36142018788667629 0.36466565756075864 0.3404659131690706 0.34326979492154808 0.33772397554369438 0.33504314302887561 0.3324224715361373 0.32986093336587696 0.32735743546132556 0.32491083489485456 0.32251995199718814 0.32018358147512199 0.31566948318388255 0.3179005018098765 0.31135870720089703 0.31348929414683807 0.30927650345877 0.30724147650647149 0.30525243558375464 0.30330820817936555 0.30140764212468735 0.2995496072577456 0.29252101082704102 0.29421974333509759 0.29595672793667971 0.29773299671960651 0.27100646554720653 0.27349542057609 0.27223806236802872 0.27609012936810778 0.2747792120604341 0.27879621889686074 0.27742888638298713 0.28161966601007821 0.28019288506619305 0.2845668146453868 0.2830773663370415 0.28764439230162109 0.28608886398929823 0.29085952410343741 0.28923430276276152 0.22872782869870595 0.22915740870326853 0.22830553542281956 0.22789039768353664 0.22748228735191869 0.22708107930019134 0.2266866513171637 0.22629888400116144 0.2328732043475211 0.23238020696662365 0.2318956681379139 0.23141942852272115 0.23095133273610569 0.23049122911492587 0.2295944097948564 0.23003896960696885 0.23601826278320703 0.23657528495636837 0.23547093422331866 0.23493310906633863 0.23440460197810753 0.23388523225811086 0.23337482363466333 0.24140497816360501 0.24076292668274027 0.24013228398257996 0.23951281520060619 0.23890429172152766 0.23830649093559092 0.23714219593571462 0.23771919604858033 0.24623991791278016 0.24698251284378869 0.24551086095616809 0.24479504928210774 0.24409219837493412 0.24340203145288836 0.24272427921563289 0.24205867971734041 0.25344865543131978 0.25258615489980885 0.25173985987806891 0.2509094022939799 0.2500944245650995 0.24929457939635025 0.24773894680084552 0.2485095294422682 0.25997322257843292 0.2609800101872996 0.25898601117440778 0.25801790937373947 0.25706846446282849 0.25613723699002688 0.25522380032991809 0.25432774046713069 0.26979997835867636 0.26861796859074727 0.2674598230355405 0.26632494692338404 0.26521276333339072 0.26412271266094073 0.26200685486742237 0.26305425207933142 0.21234520814109267 0.21248665008091905 0.21220653677733264 0.2120706018196204 0.21193736984951178 0.21180680811350786 0.21167888451190348 0.21372227223866408 0.21355734572446039 0.21339549037830635 0.21323666585168488 0.21308083263075067 0.21292795199489029 0.21263089749297182 0.21277798600231224 0.21496631963466364 0.2151573718849194 0.21477869286344686 0.21459444405493033 0.2144135266243774 0.21423589495428719 0.21406150437575663 0.21389031110625367 0.21681514153487286 0.21659485307326232 0.21637840724151924 0.21616574808797548 0.21595682074652597 0.21575157151144592 0.21535189810916192 0.21554994781339612 0.21846970505996688 0.21872289380043347 0.21822085063503557 0.21797626451230595 0.21773588203094441 0.21749963986891369 0.21726747601239926 0.2170393297383868 0.2206224228249975 0.22033692394728607 0.2200562624657974 0.219780361865756 0.21950914725958875 0.21898048426365929 0.21924254531771062 0.22276314677008957 0.22309030677162595 0.22244149949901154 0.22212527396256873 0.22181438112817792 0.2215087339047154 0.22120824709299367 0.22091283726671251 0.22591766069392655 0.22554286740437438 0.22517439273489548 0.22481212781011031 0.22445596620798547 0.22410580389323054 0.2234230725300469 0.22376153915288996 0.21005680115959058 0.20996725262457144 0.21024255406648712 0.21014856088006317 0.21043733272901077 0.2103388035524148 0.21064132655126 0.21053816555203517 0.21085473410697625 0.21074684083683209 0.21107776338226783 0.21096503265595146 0.21131063203340375 0.21119295379717129 0.21155356766285752 0.21143082685424686 0.20963074368813206 0.20971165947118625 0.20979470270979411 0.2098798935399315 0.20955193574612463 0.20947521654651238 0.20940056750117092 0.20932797052735858 0.20925740804275111 0.20918886296065059 0.20905775910775509 0.20912231868536532 0.20893453201616224 0.20899516860093914 0.20887583467881554 0.2088190623846081 0.20876420139588636 0.20871123843809775 0.20866016069639548 0.20861095581238112 0.20856361188098277 0.20851811744746496 0.20843263348977795 0.20847446150456861 0.20819022442146257 0.20821951583389775 0.20825057348561027 0.20828340489226804 0.20831801800610106 0.20835442120263656 0.20839262328271169 0.2080187161588401 0.20803409728883543 0.20805119978263253 0.20807002777984518 0.20809058582554882 0.20811287889554708 0.20813691239754403 0.20816269215981364 0.20799310350113165 0.20800505266962885 0.20798286576102495 0.20797433698405715 0.20796751510590727 0.20796239847549342 0.20795898585459108 0.20795727641754719 
</DataArray>
<DataArray type="Float64" Name="conductivity_richards" format="ascii">