<?xml version="1.0"?>
<VTKFile type="UnstructuredGrid" version="0.1" byte_order="LittleEndian">
<UnstructuredGrid>
<Piece NumberOfPoints="251" NumberOfCells="250">
<Points>
<DataArray type="Float64" NumberOfComponents="3" format="ascii">
0 0 -0.17099999999979171 0 0 -0.1559999999997522 0 0 -0.15699999999975489 0 0 -0.1579999999997575 0 0 -0.15899999999976011 0 0 -0.1599999999997628 0 0 -0.16099999999976539 0 0 -0.161999999999768 0 0 -0.16299999999977069 0 0 -0.1639999999997733 0 0 -0.16499999999977599 0 0 -0.1659999999997786 0 0 -0.16699999999978121 0 0 -0.16799999999978391 0 0 -0.16899999999978649 0 0 -0.1699999999997891 0 0 -0.15499999999974959 0 0 -0.1719999999997944 0 0 -0.17299999999979701 0 0 -0.1739999999997997 0 0 -0.17499999999980231 0 0 -0.17599999999980501 0 0 -0.17699999999980759 0 0 -0.1779999999998102 0 0 -0.17899999999981281 0 0 -0.1799999999998155 0 0 -0.18099999999981811 0 0 -0.18199999999982069 0 0 -0.18299999999982339 0 0 -0.183999999999826 0 0 -0.18499999999982869 0 0 -0.1859999999998313 0 0 -0.13999999999971011 0 0 -0.12499999999967321 0 0 -0.12599999999967451 0 0 -0.12699999999967579 0 0 -0.1279999999996784 0 0 -0.12899999999968109 0 0 -0.1299999999996837 0 0 -0.13099999999968631 0 0 -0.13199999999968889 0 0 -0.13299999999969159 0 0 -0.1339999999996942 0 0 -0.13499999999969689 0 0 -0.1359999999996995 0 0 -0.13699999999970211 0 0 -0.1379999999997048 0 0 -0.13899999999970741 0 0 -0.18699999999983391 0 0 -0.14099999999971269 0 0 -0.1419999999997153 0 0 -0.14299999999971799 0 0 -0.1439999999997206 0 0 -0.14499999999972321 0 0 -0.14599999999972579 0 0 -0.14699999999972849 0 0 -0.1479999999997311 0 0 -0.14899999999973379 0 0 -0.1499999999997364 0 0 -0.15099999999973901 0 0 -0.1519999999997417 0 0 -0.15299999999974431 0 0 -0.15399999999974701 0 0 -0.2339999999999578 0 0 -0.21899999999991829 0 0 -0.2199999999999209 0 0 -0.22099999999992359 0 0 -0.2219999999999262 0 0 -0.22299999999992881 0 0 -0.22399999999993139 0 0 -0.22499999999993411 0 0 -0.2259999999999367 0 0 -0.22699999999993939 0 0 -0.227999999999942 0 0 -0.22899999999994469 0 0 -0.2299999999999473 0 0 -0.23099999999994991 0 0 -0.23199999999995249 0 0 -0.23299999999995519 0 0 -0.21799999999991571 0 0 -0.23499999999996049 0 0 -0.2359999999999631 0 0 -0.23699999999996571 0 0 -0.2379999999999684 0 0 -0.23899999999997101 0 0 -0.2399999999999736 0 0 -0.24099999999997629 0 0 -0.2419999999999789 0 0 -0.24299999999998159 0 0 -0.2439999999999842 0 0 -0.24499999999998681 0 0 -0.24599999999998939 0 0 -0.24699999999999209 0 0 -0.2479999999999947 0 0 -0.24899999999999739 0 0 -0.20299999999987611 0 0 -0.1879999999998366 0 0 -0.18899999999983921 0 0 -0.18999999999984191 0 0 -0.19099999999984449 0 0 -0.1919999999998471 0 0 -0.19299999999984971 0 0 -0.1939999999998524 0 0 -0.19499999999985501 0 0 -0.1959999999998577 0 0 -0.19699999999986029 0 0 -0.19799999999986301 0 0 -0.19899999999986559 0 0 -0.1999999999998682 0 0 -0.20099999999987081 0 0 -0.2019999999998735 0 0 -0.1239999999996748 0 0 -0.20399999999987881 0 0 -0.20499999999988139 0 0 -0.205999999999884 0 0 -0.20699999999988669 0 0 -0.2079999999998893 0 0 -0.20899999999989191 0 0 -0.2099999999998946 0 0 -0.21099999999989719 0 0 -0.21199999999989991 0 0 -0.21299999999990249 0 0 -0.2139999999999051 0 0 -0.21499999999990771 0 0 -0.2159999999999104 0 0 -0.21699999999991301 0 0 -0.045999999999900919 0 0 -0.03099999999994377 0 0 -0.031999999999941367 0 0 -0.032999999999938787 0 0 -0.033999999999935943 0 0 -0.034999999999933022 0 0 -0.035999999999930102 0 0 -0.036999999999927188 0 0 -0.037999999999924268 0 0 -0.038999999999921348 0 0 -0.039999999999918427 0 0 -0.040999999999915507 0 0 -0.041999999999912593 0 0 -0.042999999999909673 0 0 -0.043999999999906753 0 0 -0.044999999999903832 0 0 -0.02999999999994565 0 0 -0.046999999999897998 0 0 -0.047999999999895078 0 0 -0.048999999999892158 0 0 -0.049999999999889237 0 0 -0.050999999999886317 0 0 -0.051999999999883403 0 0 -0.052999999999880483 0 0 -0.053999999999877563 0 0 -0.054999999999874642 0 0 -0.055999999999871722 0 0 -0.056999999999868801 0 0 -0.057999999999865881 0 0 -0.058999999999862961 0 0 -0.059999999999860047 0 0 -0.060999999999857127 0 0 -0.014999999999969531 0 0 -0.25 0 0 -0.00099999999999810158 0 0 -0.001999999999996204 0 0 -0.0029999999999943271 0 0 -0.0039999999999924488 0 0 -0.004999999999990571 0 0 -0.0059999999999886811 0 0 -0.0069999999999867156 0 0 -0.007999999999984719 0 0 -0.008999999999982581 0 0 -0.0099999999999804221 0 0 -0.010999999999978201 0 0 -0.011999999999975971 0 0 -0.01299999999997375 0 0 -0.01399999999997158 0 0 -0.061999999999854213 0 0 -0.01599999999996761 0 0 -0.0169999999999659 0 0 -0.01799999999996427 0 0 -0.018999999999962731 0 0 -0.019999999999961209 0 0 -0.020999999999959669 0 0 -0.02199999999995814 0 0 -0.022999999999956611 0 0 -0.023999999999955082 0 0 -0.024999999999953549 0 0 -0.02599999999995202 0 0 -0.02699999999995048 0 0 -0.027999999999948951 0 0 -0.028999999999947419 0 0 -0.1089999999997172 0 0 -0.093999999999760914 0 0 -0.094999999999758 0 0 -0.095999999999755073 0 0 -0.096999999999752159 0 0 -0.097999999999749246 0 0 -0.098999999999746333 0 0 -0.099999999999743419 0 0 -0.10099999999974051 0 0 -0.10199999999973761 0 0 -0.10299999999973471 0 0 -0.10399999999973179 0 0 -0.1049999999997288 0 0 -0.1059999999997259 0 0 -0.106999999999723 0 0 -0.1079999999997201 0 0 -0.092999999999763827 0 0 -0.1099999999997143 0 0 -0.1109999999997113 0 0 -0.1119999999997084 0 0 -0.1129999999997055 0 0 -0.1139999999997026 0 0 -0.1149999999996997 0 0 -0.1159999999996968 0 0 -0.11699999999969379 0 0 -0.11799999999969089 0 0 -0.11899999999968799 0 0 -0.11999999999968509 0 0 -0.1209999999996822 0 0 -0.1219999999996793 0 0 -0.1229999999996764 0 0 -0.077999999999807557 0 0 -0.062999999999851286 0 0 -0.063999999999848373 0 0 -0.064999999999845445 0 0 -0.065999999999842532 0 0 -0.066999999999839618 0 0 -0.067999999999836705 0 0 -0.068999999999833792 0 0 -0.069999999999830878 0 0 -0.070999999999827965 0 0 -0.071999999999825051 0 0 -0.072999999999822124 0 0 -0.07399999999981921 0 0 -0.074999999999816297 0 0 -0.075999999999813383 0 0 -0.07699999999981047 0 0 0 0 0 -0.078999999999804643 0 0 -0.07999999999980173 0 0 -0.080999999999798802 0 0 -0.081999999999795889 0 0 -0.082999999999792975 0 0 -0.083999999999790062 0 0 -0.084999999999787149 0 0 -0.085999999999784235 0 0 -0.086999999999781322 0 0 -0.087999999999778394 0 0 -0.088999999999775481 0 0 -0.089999999999772567 0 0 -0.090999999999769654 0 0 -0.091999999999766741 
</DataArray>
</Points>
<Cells>
<DataArray type="UInt32" Name="connectivity" format="ascii">
17 18 2 3 3 4 4 5 5 6 6 7 7 8 8 9 9 10 10 11 11 12 12 13 13 14 14 15 15 0 0 17 1 2 18 19 19 20 20 21 21 22 22 23 23 24 24 25 25 26 26 27 27 28 28 29 29 30 30 31 31 48 48 96 49 50 34 35 35 36 36 37 37 38 38 39 39 40 40 41 41 42 42 43 43 44 44 45 45 46 46 47 47 32 32 49 96 97 50 51 51 52 52 53 53 54 54 55 55 56 56 57 57 58 58 59 59 60 60 61 61 62 62 16 16 1 80 81 65 66 66 67 67 68 68 69 69 70 70 71 71 72 72 73 73 74 74 75 75 76 76 77 77 78 78 63 63 80 64 65 81 82 82 83 83 84 84 85 85 86 86 87 87 88 88 89 89 90 90 91 91 92 92 93 93 94 94 159 112 113 97 98 98 99 99 100 100 101 101 102 102 103 103 104 104 105 105 106 106 107 107 108 108 109 109 110 110 95 95 112 33 34 113 114 114 115 115 116 116 117 117 118 118 119 119 120 120 121 121 122 122 123 123 124 124 125 125 79 79 64 143 144 128 129 129 130 130 131 131 132 132 133 133 134 134 135 135 136 136 137 137 138 138 139 139 140 140 141 141 126 126 143 127 128 144 145 145 146 146 147 147 148 148 149 149 150 150 151 151 152 152 153 153 154 154 155 155 156 156 157 157 174 174 221 175 176 160 161 161 162 162 163 163 164 164 165 165 166 166 167 167 168 168 169 169 170 170 171 171 172 172 173 173 158 158 175 221 222 176 177 177 178 178 179 179 180 180 181 181 182 182 183 183 184 184 185 185 186 186 187 187 188 188 142 142 127 206 207 191 192 192 193 193 194 194 195 195 196 196 197 197 198 198 199 199 200 200 201 201 202 202 203 203 204 204 189 189 206 190 191 207 208 208 209 209 210 210 211 211 212 212 213 213 214 214 215 215 216 216 217 217 218 218 219 219 111 111 33 237 238 222 223 223 224 224 225 225 226 226 227 227 228 228 229 229 230 230 231 231 232 232 233 233 234 234 235 235 220 220 237 236 160 238 239 239 240 240 241 241 242 242 243 243 244 244 245 245 246 246 247 247 248 248 249 249 250 250 205 205 190 
</DataArray>
<DataArray type="UInt32" Name="offsets" format="ascii">
2 4 6 8 10 12 14 16 18 20 22 24 26 28 30 32 34 36 38 40 42 44 46 48 50 52 54 56 58 60 62 64 66 68 70 72 74 76 78 80 82 84 86 88 90 92 94 96 98 100 102 104 106 108 110 112 114 116 118 120 122 124 126 128 130 132 134 136 138 140 142 144 146 148 150 152 154 156 158 160 162 164 166 168 170 172 174 176 178 180 182 184 186 188 190 192 194 196 198 200 202 204 206 208 210 212 214 216 218 220 222 224 226 228 230 232 234 236 238 240 242 244 246 248 250 252 254 256 258 260 262 264 266 268 270 272 274 276 278 280 282 284 286 288 290 292 294 296 298 300 302 304 306 308 310 312 314 316 318 320 322 324 326 328 330 332 334 336 338 340 342 344 346 348 350 352 354 356 358 360 362 364 366 368 370 372 374 376 378 380 382 384 386 388 390 392 394 396 398 400 402 404 406 408 410 412 414 416 418 420 422 424 426 428 430 432 434 436 438 440 442 444 446 448 450 452 454 456 458 460 462 464 466 468 470 472 474 476 478 480 482 484 486 488 490 492 494 496 498 500 
</DataArray>
<DataArray type="UInt32" Name="types" format="ascii">
3 3 3 3 3 3 3 3 3 3 3 3 3 3 3 3 3 3 3 3 3 3 3 3 3 3 3 3 3 3 3 3 3 3 3 3 3 3 3 3 3 3 3 3 3 3 3 3 3 3 3 3 3 3 3 3 3 3 3 3 3 3 3 3 3 3 3 3 3 3 3 3 3 3 3 3 3 3 3 3 3 3 3 3 3 3 3 3 3 3 3 3 3 3 3 3 3 3 3 3 3 3 3 3 3 3 3 3 3 3 3 3 3 3 3 3 3 3 3 3 3 3 3 3 3 3 3 3 3 3 3 3 3 3 3 3 3 3 3 3 3 3 3 3 3 3 3 3 3 3 3 3 3 3 3 3 3 3 3 3 3 3 3 3 3 3 3 3 3 3 3 3 3 3 3 3 3 3 3 3 3 3 3 3 3 3 3 3 3 3 3 3 3 3 3 3 3 3 3 3 3 3 3 3 3 3 3 3 3 3 3 3 3 3 3 3 3 3 3 3 3 3 3 3 3 3 3 3 3 3 3 3 3 3 3 3 3 3 3 3 3 3 3 3 3 3 3 3 3 3 
</DataArray>
</Cells>
<CellData Scalars="pressure_p0,water_content,conductivity_richards," Vectors="velocity_p0," Tensors="">
<DataArray type="Float64" Name="pressure_p0" format="ascii">
-5780.1237359387505 -6207.0698794476211 -6186.1150079046201 -6164.2309742471625 -6141.3857980221828 -6117.5470265444837 -6092.6817636601045 -6066.7567138325794 -6039.7382417134013 -6011.5924197357781 -5982.285086080572 -5951.7819076420856 -5920.0484481707726 -5887.0502417637836 -5852.7528718666654 -5817.1220559405647 -6227.1270558019951 -5741.7241747240987 -5701.8900585453848 -5660.5886056744785 -5617.7876812890281 -5573.455918665607 -5527.5628467265979 -5480.0790239603011 -5430.9761787075167 -5380.2273557793251 -5327.8070693397904 -5273.6914619537056 -5217.8584696631642 -5160.2879929177761 -5100.9620731413816 -5039.8650746732419 -6439.8069910307522 -6541.60596945008 -6537.0186484142368 -6532.178585381318 -6527.0732545797237 -6521.689605367028 -6516.0140572849086 -6510.0324858688891 -6503.7301992722814 -6497.0919292976741 -6490.1018180457086 -6482.7434049773183 -6474.9996144645502 -6466.8527439100599 -6458.2844525205292 -6449.275750824534 -4976.9838717738457 -6429.8578583279514 -6419.4073632337158 -6408.4338351045872 -6396.9149169259335 -6384.8275615056527 -6372.1480292015112 -6358.8518873176154 -6344.9140113112044 -6330.3085879564878 -6315.0091206176803 -6298.9884367887234 -6282.2186980621518 -6264.6714126945208 -6246.3174509402579 -767.25439416560789 -2150.0746410789675 -2048.7414566439948 -1947.9631210198006 -1847.907239396284 -1748.7450552928781 -1650.650825038161 -1553.8011124648669 -1458.3739990204722 -1364.5482046045433 -1272.5021142534706 -1182.4127060354842 -1094.4543756913108 -1008.7976538598043 -925.60781215422548 -845.04335491591905 -2251.7992580729297 -692.38090606169339 -620.55086794981025 -551.87827558539652 -486.46103975202351 -424.37875904986743 -365.69035847828275 -310.43156598053326 -258.61215899065007 -210.21282160855884 -165.18123912673681 -123.42652184660358 -84.809530571239151 -49.121080044568146 -15.988747923093491 -3730.3441877206387 -4912.3080403342756 -4845.8300538738849 -4777.5454833533504 -4707.4532002690876 -4635.5555824304774 -4561.8587217530976 -4486.3726333292489 -4409.1114649613974 -4330.0937062644598 -4249.3423963592832 -4166.8853290919342 -4082.7552546214706 -3996.9900761227282 -3909.633040249948 -3820.7329199020432 -6545.9525685708304 -3638.5271786376416 -3545.348239670051 -3450.8798650358917 -3355.2008145362715 -3258.3962130151294 -3160.5576285697034 -3061.7831270413662 -2962.177300168617 -2861.8512646313325 -2760.9226290585839 -2659.5154259116216 -2557.7600049894227 -2455.7928851374209 -2353.7565605715563 -6618.5336837546583 -6618.8468738574629 -6618.8344405137104 -6618.8211355827571 -6618.806897228098 -6618.7916516604355 -6618.7753280709221 -6618.7578583325476 -6618.7391614686767 -6618.719150952129 -6618.6977343448798 -6618.6748129150101 -6618.6502812296258 -6618.6240267223411 -6618.5959292338621 -6618.5658605241661 -6618.8584933982165 -6618.4992529386054 -6618.4624123580761 -6618.4229959455115 -6618.3808266279975 -6618.3357156321263 -6618.287461747359 -6618.2358505455677 -6618.1806535544283 -6618.1216273821847 -6618.0585127911736 -6617.9910337174088 -6617.918896233401 -6617.8417874512452 -6617.7593743628768 -6617.6713026143061 -6618.9648147529642 -6619.0024816101031 -6619.0011875106557 -6618.9997432554446 -6618.9981462639244 -6618.9963916228353 -6618.9944749564711 -6618.9923924065879 -6618.9901377219103 -6618.9877036784064 -6618.9850820461397 -6618.9822635515593 -6618.9792378350703 -6618.9759934037302 -6618.9725175788317 -6618.9687964381992 -6617.5771952104551 -6618.9605559185238 -6618.9560018794509 -6618.9511330480182 -6618.9459282160278 -6618.9403644596014 -6618.9344170365293 -6618.9280592757959 -6618.9212624588363 -6618.9139956920699 -6618.9062257702117 -6618.8979170298262 -6618.889031192577 -6618.8795271975632 -6618.8693610221108 -6589.0587378530508 -6607.2364528953367 -6606.4654124537356 -6605.646044298277 -6604.7754902322195 -6603.8507266202023 -6602.8685757284256 -6601.8256979129528 -6600.7185646518838 -6599.5434596144323 -6598.296469954219 -6596.9734772959091 -6595.5701484120109 -6594.0819255873121 -6592.5040166692397 -6590.8313848032149 -6607.9618750931304 -6587.1805175074587 -6585.1908880748078 -6583.0837249695514 -6580.8526028950473 -6578.4907837289138 -6575.9912041186417 -6573.3464627968606 -6570.5488076274605 -6567.5901223957071 -6564.4619133575725 -6561.1552955657198 -6557.6609789919357 -6553.9692544683649 -6550.0699794725379 -6614.8307532189119 -6617.4766511470789 -6617.3692439661809 -6617.2545202311003 -6617.1319979173304 -6617.0011647150131 -6616.8614762388461 -6616.7123541410047 -6616.5531841225365 -6616.3833138385089 -6616.2020506920235 -6616.0086595121029 -6615.8023601102013 -6615.5823247100143 -6615.3476752450824 -6615.097480518496 -6619.0036272623738 -6614.546446786876 -6614.2434521253608 -6613.9205941482505 -6613.5766281603946 -6613.2102360627105 -6612.8200223757267 -6612.4045100748226 -6611.9621362303569 -6611.491247445786 -6610.9900950868096 -6610.4568302945499 -6609.8894987757412 -6609.2860353629112 -6608.6442583375238 
</DataArray>
<DataArray type="Float64" Name="velocity_p0" NumberOfComponents="3" format="ascii">
0 0 5.8964769809272899e-07 0 0 3.0489359923644862e-07 0 0 3.1924212363122538e-07 0 0 3.341704036114552e-07 0 0 3.4969657899013418e-07 0 0 3.6583892946260676e-07 0 0 3.8261653475699784e-07 0 0 4.0004827016335037e-07 0 0 4.1815346484547731e-07 0 0 4.3695172798457037e-07 0 0 4.5646294101743604e-07 0 0 4.7670724948004323e-07 0 0 4.9770505447030184e-07 0 0 5.1947700374507472e-07 0 0 5.4204398246762184e-07 0 0 5.6542710361937312e-07 0 0 2.911070030903575e-07 0 0 6.1472730447714336e-07 0 0 6.4068765855203221e-07 0 0 6.6755068249892179e-07 0 0 6.9533847383787054e-07 0 0 7.2407329409810736e-07 0 0 7.537775572217438e-07 0 0 7.8447381769879018e-07 0 0 8.1618475842609431e-07 0 0 8.4893317827467786e-07 0 0 8.8274197934368442e-07 0 0 9.1763415386971503e-07 0 0 9.5363277075066234e-07 0 0 9.9076096162867977e-07 0 0 1.0290419064679095e-06 0 0 1.0684988185400739e-06 0 0 1.4061955556174889e-07 0 0 6.3971381812177505e-08 0 0 6.7539339820414241e-08 0 0 7.1288809116038887e-08 0 0 7.5227850733530535e-08 0 0 7.936494497027659e-08 0 0 8.3708454237627685e-08 0 0 8.8267441424883165e-08 0 0 9.3051132654092162e-08 0 0 9.8069058115215885e-08 0 0 1.0333105678933619e-07 0 0 1.0884728094345995e-07 0 0 1.1462820037777574e-07 0 0 1.2068460640841732e-07 0 0 1.2702761556752285e-07 0 0 1.3366867300307421e-07 0 0 1.1091549287187344e-06 0 0 1.4789237453698354e-07 0 0 1.5549957806750767e-07 0 0 1.6345395316822492e-07 0 0 1.7176862738188253e-07 0 0 1.8045707003264677e-07 0 0 1.8953309307327462e-07 0 0 1.9901085150898824e-07 0 0 2.0890484338970987e-07 0 0 2.1922990935885279e-07 0 0 2.3000123175048939e-07 0 0 2.4123433322618452e-07 0 0 2.5294507494723003e-07 0 0 2.6514965427427073e-07 0 0 2.7786460199391316e-07 0 0 4.6694011250333886e-06 0 0 3.1719728634809392e-06 0 0 3.2631375071657757e-06 0 0 3.3559141176234508e-06 0 0 3.4502632239499215e-06 0 0 3.5461351117043492e-06 0 0 3.6434680721838364e-06 0 0 3.7421863509784541e-06 0 0 3.8421976956915177e-06 0 0 3.9433904521751096e-06 0 0 4.0456301030205968e-06 0 0 4.1487551325517101e-06 0 0 4.2525720728152507e-06 0 0 4.3568495495205403e-06 0 0 4.4613111013973604e-06 0 0 4.5656264879397898e-06 0 0 3.0824508888561532e-06 0 0 4.7721631908163148e-06 0 0 4.8733478206171133e-06 0 0 4.9722776579377692e-06 0 0 5.0681388564371869e-06 0 0 5.1599514736129183e-06 0 0 5.2465331767702779e-06 0 0 5.3264556102119847e-06 0 0 5.3979944530767877e-06 0 0 5.459079140843157e-06 0 0 5.5072614828696949e-06 0 0 5.5397572270368847e-06 0 0 5.5537103427699778e-06 0 0 5.547148787201736e-06 0 0 5.5237727372548596e-06 0 0 1.9414562126527015e-06 0 0 1.1510334689579762e-06 0 0 1.1941576548079388e-06 0 0 1.2385506667930849e-06 0 0 1.2842356304443198e-06 0 0 1.3312355947427219e-06 0 0 1.3795735086870999e-06 0 0 1.4292721956514065e-06 0 0 1.4803543251408282e-06 0 0 1.5328423814920006e-06 0 0 1.5867586289865597e-06 0 0 1.642125072764511e-06 0 0 1.6989634148204509e-06 0 0 1.7572950042545141e-06 0 0 1.817140780812852e-06 0 0 1.878521210598671e-06 0 0 6.057715169619322e-08 0 0 2.0059650748909458e-06 0 0 2.0720663576378284e-06 0 0 2.1397777827062208e-06 0 0 2.2091161056307118e-06 0 0 2.2800969682624426e-06 0 0 2.3527347284595579e-06 0 0 2.4270422630486929e-06 0 0 2.5030307395711012e-06 0 0 2.5807093515423199e-06 0 0 2.6600850110199482e-06 0 0 2.7411619911611421e-06 0 0 2.8239415101214393e-06 0 0 2.9084212460546228e-06 0 0 2.9945947710579691e-06 0 0 4.5889092792806679e-10 0 0 1.5663064179434258e-10 0 0 1.6860135352780044e-10 0 0 1.8142172277310712e-10 0 0 1.9515118657076348e-10 0 0 2.1007047483369324e-10 0 0 2.2581389234968442e-10 0 0 2.4267066264015981e-10 0 0 2.6071724038107835e-10 0 0 2.8003504825747411e-10 0 0 3.0071079111657196e-10 0 0 3.2283678911267407e-10 0 0 3.4651132894662613e-10 0 0 3.7183903643114124e-10 0 0 3.9893126999658722e-10 0 0 4.2790653584539218e-10 0 0 1.4545376699166999e-10 0 0 4.9201859120408365e-10 0 0 5.2743221268437483e-10 0 0 5.6528353777522804e-10 0 0 6.0573391690921113e-10 0 0 6.4895488169870694e-10 0 0 6.9512875196861673e-10 0 0 7.444492776695016e-10 0 0 7.9712231296439506e-10 0 0 8.5336652902550004e-10 0 0 9.1341416302617697e-10 0 0 9.7751180810718997e-10 0 0 1.0459212438457192e-09 0 0 1.1189203111164958e-09 0 0 1.196803831726269e-09 0 0 1.279884575023081e-09 0 0 4.4322737001102281e-11 0 0 3.1232849967552597e-12 0 0 5.2440779975885113e-12 0 0 7.3953347418367323e-12 0 0 9.5895249814252294e-12 0 0 1.1880563917702288e-11 0 0 1.419921066563704e-11 0 0 1.6599951798169444e-11 0 0 1.9096401261933204e-11 0 0 2.1702612477834418e-11 0 0 2.4433142318973159e-11 0 0 2.7303116622214279e-11 0 0 3.0328298870764643e-11 0 0 3.352516057927438e-11 0 0 3.6910955765548504e-11 0 0 4.0503797096844054e-11 0 0 1.3684942749319456e-09 0 0 4.838785149723377e-11 0 0 5.2720328742138066e-11 0 0 5.7342562083210775e-11 0 0 6.2278247311339144e-11 0 0 6.7552485685875696e-11 0 0 7.3191892412018238e-11 0 0 7.922471103623962e-11 0 0 8.5680933843669732e-11 0 0 9.2592429786970394e-11 0 0 9.9993078923323416e-11 0 0 1.0791891536974596e-10 0 0 1.1640827760732933e-10 0 0 1.2550196853763876e-10 0 0 1.3524342374489673e-10 0 0 2.5999460079197747e-08 0 0 1.062770248653197e-08 0 0 1.1296727324614201e-08 0 0 1.2005526359616673e-08 0 0 1.2756292515394576e-08 0 0 1.3551597201503717e-08 0 0 1.4393316581629765e-08 0 0 1.5284252219423578e-08 0 0 1.6227057666965024e-08 0 0 1.7224513398621875e-08 0 0 1.827953175260293e-08 0 0 1.93951619865059e-08 0 0 2.057459544666873e-08 0 0 2.1821170846175368e-08 0 0 2.3138379648504475e-08 0 0 2.4529871553515809e-08 0 0 9.9963629183760329e-09 0 0 2.7551128235834487e-08 0 0 2.9189034285309494e-08 0 0 3.0917517580208861e-08 0 0 3.2741104474260122e-08 0 0 3.4664514298708694e-08 0 0 3.6692665393807798e-08 0 0 3.8830681188468027e-08 0 0 4.1083896317663136e-08 0 0 4.345786276742711e-08 0 0 4.5958356036655736e-08 0 0 4.8591381304991531e-08 0 0 5.1363179593249577e-08 0 0 5.4280233905096532e-08 0 0 5.7349275335624574e-08 0 0 3.9011988070374071e-09 0 0 1.4629846975617297e-09 0 0 1.5637287624137008e-09 0 0 1.6711217199794571e-09 0 0 1.7855823871979536e-09 0 0 1.9075544424893339e-09 0 0 2.0375077849453625e-09 0 0 2.1759399575353732e-09 0 0 2.3233776380702928e-09 0 0 2.4803782008244347e-09 0 0 2.6475313497592775e-09 0 0 2.8254608276766511e-09 0 0 3.0148262026346816e-09 0 0 3.2163247351267956e-09 0 0 3.4306933271313348e-09 0 0 3.6587105579751045e-09 0 0 1.0206247858996762e-12 0 0 4.159026468213275e-09 0 0 4.4331102570523412e-09 0 0 4.7244176138733258e-09 0 0 5.0339692055379054e-09 0 0 5.3628415276967769e-09 0 0 5.7121696105832346e-09 0 0 6.0831498303590476e-09 0 0 6.4770428282497079e-09 0 0 6.8951765401354567e-09 0 0 7.3389493376868144e-09 0 0 7.8098332843712957e-09 0 0 8.3093775061595224e-09 0 0 8.8392116811375758e-09 0 0 9.4010496465870935e-09 
</DataArray>
<DataArray type="Float64" Name="water_content" format="ascii">
0.20916621913223424 0.20633873458461943 0.20647191065581094 0.20661158064997004 0.20675803167101242 0.20691156236585617 0.20707248346451651 0.20724111827399852 0.20741780312738353 0.20760288796834425 0.20779673693092632 0.20799972895260505 0.20821225842322952 0.2084347358726909 0.20866758870039431 0.2089112619498808 0.2062117764654014 0.20943294310222466 0.20971193699148305 0.21000372520338087 0.21030885447469855 0.21062789500961837 0.21096144169207356 0.2113101153830253 0.2116745643098383 0.21205546555557953 0.21245352665678635 0.21286948731904587 0.21330412126060411 0.21375823819519105 0.21423268596631945 0.21472835284649744 0.20489551087096047 0.2042841261199615 0.20431142601909358 0.20434025540886075 0.20437069313139278 0.20440282169068258 0.20443672734010837 0.20447250023071378 0.20451023462049295 0.20455002900438565 0.20459198627762226 0.20463621390442943 0.20468282409229588 0.20473193397201417 0.20478366578373267 0.20483814706926901 0.21524617001610769 0.20495589593734798 0.20501944693601709 0.20508631467394756 0.20515665632575308 0.20523063567022848 0.20530842333565547 0.20539019705436168 0.20547614192706803 0.20556645069761037 0.20566132403867021 0.20576097084920764 0.20586560856434971 0.20597546347855433 0.20609077108294038 0.30647310933286648 0.25300959268991141 0.25536495358640604 0.25784570846673743 0.26046019762264444 0.26321746203681567 0.2661273090288917 0.26920038292688298 0.2724482403897921 0.27588342955447126 0.2795195715100427 0.28337144159261929 0.287455046503583 0.2917876910580085 0.29638802513656115 0.30127605665372509 0.25077192563329875 0.31200169368513475 0.31788524413192598 0.32414765207266216 0.3308124897627609 0.33790176648532322 0.34543397554421917 0.35342105835143456 0.36186369227489501 0.37074391908493554 0.38001335917847467 0.38957344687856493 0.39923868051646261 0.4086500468652724 0.41661632387155145 0.22752140461573916 0.21578711423815936 0.21635221074673133 0.21694253636871808 0.21755922290047947 0.21820346076321284 0.21887650296333139 0.21957966938688317 0.22031435146010828 0.22108201721165371 0.2218842167757818 0.22272258838017239 0.22359886486668384 0.22451488079875945 0.22547258021511679 0.22647402509600517 0.20425828036388594 0.22861704526350701 0.22976342192369381 0.23096317001725084 0.23221909881708297 0.23353420606310454 0.23491169401661993 0.23635498710909006 0.23786775135717336 0.23945391573418229 0.24111769570765706 0.2428636191734212 0.24469655503783969 0.2466217447213731 0.24864483687685437 0.20382977155993626 0.20382793498809412 0.20382800789619265 0.20382808591539184 0.20382816940833576 0.20382825880776578 0.20382835452895404 0.20382845697145499 0.20382856661018281 0.20382868395261169 0.20382880954089025 0.20382894395408988 0.20382908781059414 0.20382924177063771 0.20382940653900358 0.20382958286788699 0.20382786685222035 0.20382997347147983 0.20383018951595067 0.20383042066751883 0.20383066796494317 0.20383093251565587 0.20383121550009056 0.20383151817626921 0.20383184188466102 0.2038321880533277 0.20383255820337159 0.20383295395470147 0.20383337703213439 0.20383382927184962 0.20383431262821461 0.20383482918100129 0.20382724340077157 0.20382702253127163 0.20382703011953782 0.20382703858828088 0.20382704795263326 0.20382705824140579 0.20382706948025747 0.20382708169181307 0.20382709491272968 0.2038271091853685 0.2038271245579894 0.2038271410849718 0.20382715882706381 0.20382717785165944 0.20382719823310608 0.20382722005304288 0.20383538114301325 0.20382726837366144 0.20382729507758951 0.20382732362741871 0.20382735414751463 0.20382738677230425 0.20382742164687784 0.20382745892763682 0.20382749878299056 0.20382754139410364 0.2038275869556978 0.20382763567691106 0.20382768778221688 0.20382774351240796 0.20382780312564733 0.20400309189539656 0.20389609053092772 0.20390062187759481 0.20390543795092569 0.20391055568412911 0.20391599300236751 0.20392176875858384 0.20392790278221362 0.20393441604087847 0.20394133063761138 0.20394866986596119 0.20395645826735359 0.20396472169077801 0.20397348735486842 0.20398278391244809 0.20399264151760887 0.20389182786916671 0.20401416841417505 0.20402590616074234 0.20403834201827339 0.20405151474716499 0.20406546506885945 0.20408023575272555 0.20409587170607557 0.20411242006739966 0.20412993030290078 0.2041484543064136 0.20416804650279591 0.20418876395488034 0.20421066647407993 0.20423381673474178 0.20385149389661028 0.20383597086814462 0.20383660085989294 0.20383727378034827 0.20383799245968301 0.20383875990616657 0.20383957931673113 0.2038404540881153 0.20384138782861322 0.20384238437045826 0.20384344778287145 0.20384458238580558 0.20384579276441764 0.20384708378430261 0.20384846060752371 0.20384992870947449 0.20382701581346302 0.20385316232508688 0.20385494052034647 0.20385683539769084 0.20385885428388456 0.20386100493983117 0.20386329558436669 0.20386573491921661 0.20386833215516315 0.20387109703947104 0.20387403988462177 0.20387717159840671 0.2038805037154314 0.2038840484300839 0.20388781863102201 
</DataArray>
<DataArray type="Float64" Name="conductivity_richards" format="ascii">