<?xml version="1.0"?>
<VTKFile type="UnstructuredGrid" version="0.1" byte_order="LittleEndian">
<UnstructuredGrid>
<Piece NumberOfPoints="251" NumberOfCells="250">
<Points>
<DataArray type="Float64" NumberOfComponents="3" format="ascii">
0 0 0 0 0 -0.25 0 0 -0.00099999999999810158 0 0 -0.001999999999996204 0 0 -0.0029999999999943271 0 0 -0.0039999999999924488 0 0 -0.004999999999990571 0 0 -0.0059999999999886811 0 0 -0.0069999999999867156 0 0 -0.007999999999984719 0 0 -0.008999999999982581 0 0 -0.0099999999999804221 0 0 -0.010999999999978201 0 0 -0.011999999999975971 0 0 -0.01299999999997375 0 0 -0.01399999999997158 0 0 -0.014999999999969531 0 0 -0.01599999999996761 0 0 -0.0169999999999659 0 0 -0.01799999999996427 0 0 -0.018999999999962731 0 0 -0.019999999999961209 0 0 -0.020999999999959669 0 0 -0.02199999999995814 0 0 -0.022999999999956611 0 0 -0.023999999999955082 0 0 -0.024999999999953549 0 0 -0.02599999999995202 0 0 -0.02699999999995048 0 0 -0.027999999999948951 0 0 -0.028999999999947419 0 0 -0.02999999999994565 0 0 -0.03099999999994377 0 0 -0.031999999999941367 0 0 -0.032999999999938787 0 0 -0.033999999999935943 0 0 -0.034999999999933022 0 0 -0.035999999999930102 0 0 -0.036999999999927188 0 0 -0.037999999999924268 0 0 -0.038999999999921348 0 0 -0.039999999999918427 0 0 -0.040999999999915507 0 0 -0.041999999999912593 0 0 -0.042999999999909673 0 0 -0.043999999999906753 0 0 -0.044999999999903832 0 0 -0.045999999999900919 0 0 -0.046999999999897998 0 0 -0.047999999999895078 0 0 -0.048999999999892158 0 0 -0.049999999999889237 0 0 -0.050999999999886317 0 0 -0.051999999999883403 0 0 -0.052999999999880483 0 0 -0.053999999999877563 0 0 -0.054999999999874642 0 0 -0.055999999999871722 0 0 -0.056999999999868801 0 0 -0.057999999999865881 0 0 -0.058999999999862961 0 0 -0.059999999999860047 0 0 -0.060999999999857127 0 0 -0.061999999999854213 0 0 -0.062999999999851286 0 0 -0.063999999999848373 0 0 -0.064999999999845445 0 0 -0.065999999999842532 0 0 -0.066999999999839618 0 0 -0.067999999999836705 0 0 -0.068999999999833792 0 0 -0.069999999999830878 0 0 -0.070999999999827965 0 0 -0.071999999999825051 0 0 -0.072999999999822124 0 0 -0.07399999999981921 0 0 -0.074999999999816297 0 0 -0.075999999999813383 0 0 -0.07699999999981047 0 0 -0.077999999999807557 0 0 -0.078999999999804643 0 0 -0.07999999999980173 0 0 -0.080999999999798802 0 0 -0.081999999999795889 0 0 -0.082999999999792975 0 0 -0.083999999999790062 0 0 -0.084999999999787149 0 0 -0.085999999999784235 0 0 -0.086999999999781322 0 0 -0.087999999999778394 0 0 -0.088999999999775481 0 0 -0.089999999999772567 0 0 -0.090999999999769654 0 0 -0.091999999999766741 0 0 -0.092999999999763827 0 0 -0.093999999999760914 0 0 -0.094999999999758 0 0 -0.095999999999755073 0 0 -0.096999999999752159 0 0 -0.097999999999749246 0 0 -0.098999999999746333 0 0 -0.099999999999743419 0 0 -0.10099999999974051 0 0 -0.10199999999973761 0 0 -0.10299999999973471 0 0 -0.10399999999973179 0 0 -0.1049999999997288 0 0 -0.1059999999997259 0 0 -0.106999999999723 0 0 -0.1079999999997201 0 0 -0.1089999999997172 0 0 -0.1099999999997143 0 0 -0.1109999999997113 0 0 -0.1119999999997084 0 0 -0.1129999999997055 0 0 -0.1139999999997026 0 0 -0.1149999999996997 0 0 -0.1159999999996968 0 0 -0.11699999999969379 0 0 -0.11799999999969089 0 0 -0.11899999999968799 0 0 -0.11999999999968509 0 0 -0.1209999999996822 0 0 -0.1219999999996793 0 0 -0.1229999999996764 0 0 -0.1239999999996748 0 0 -0.12499999999967321 0 0 -0.12599999999967451 0 0 -0.12699999999967579 0 0 -0.1279999999996784 0 0 -0.12899999999968109 0 0 -0.1299999999996837 0 0 -0.13099999999968631 0 0 -0.13199999999968889 0 0 -0.13299999999969159 0 0 -0.1339999999996942 0 0 -0.13499999999969689 0 0 -0.1359999999996995 0 0 -0.13699999999970211 0 0 -0.1379999999997048 0 0 -0.13899999999970741 0 0 -0.13999999999971011 0 0 -0.14099999999971269 0 0 -0.1419999999997153 0 0 -0.14299999999971799 0 0 -0.1439999999997206 0 0 -0.14499999999972321 0 0 -0.14599999999972579 0 0 -0.14699999999972849 0 0 -0.1479999999997311 0 0 -0.14899999999973379 0 0 -0.1499999999997364 0 0 -0.15099999999973901 0 0 -0.1519999999997417 0 0 -0.15299999999974431 0 0 -0.15399999999974701 0 0 -0.15499999999974959 0 0 -0.1559999999997522 0 0 -0.15699999999975489 0 0 -0.1579999999997575 0 0 -0.15899999999976011 0 0 -0.1599999999997628 0 0 -0.16099999999976539 0 0 -0.161999999999768 0 0 -0.16299999999977069 0 0 -0.1639999999997733 0 0 -0.16499999999977599 0 0 -0.1659999999997786 0 0 -0.16699999999978121 0 0 -0.16799999999978391 0 0 -0.16899999999978649 0 0 -0.1699999999997891 0 0 -0.17099999999979171 0 0 -0.1719999999997944 0 0 -0.17299999999979701 0 0 -0.1739999999997997 0 0 -0.17499999999980231 0 0 -0.17599999999980501 0 0 -0.17699999999980759 0 0 -0.1779999999998102 0 0 -0.17899999999981281 0 0 -0.1799999999998155 0 0 -0.18099999999981811 0 0 -0.18199999999982069 0 0 -0.18299999999982339 0 0 -0.183999999999826 0 0 -0.18499999999982869 0 0 -0.1859999999998313 0 0 -0.18699999999983391 0 0 -0.1879999999998366 0 0 -0.18899999999983921 0 0 -0.18999999999984191 0 0 -0.19099999999984449 0 0 -0.1919999999998471 0 0 -0.19299999999984971 0 0 -0.1939999999998524 0 0 -0.19499999999985501 0 0 -0.1959999999998577 0 0 -0.19699999999986029 0 0 -0.19799999999986301 0 0 -0.19899999999986559 0 0 -0.1999999999998682 0 0 -0.20099999999987081 0 0 -0.2019999999998735 0 0 -0.20299999999987611 0 0 -0.20399999999987881 0 0 -0.20499999999988139 0 0 -0.205999999999884 0 0 -0.20699999999988669 0 0 -0.2079999999998893 0 0 -0.20899999999989191 0 0 -0.2099999999998946 0 0 -0.21099999999989719 0 0 -0.21199999999989991 0 0 -0.21299999999990249 0 0 -0.2139999999999051 0 0 -0.21499999999990771 0 0 -0.2159999999999104 0 0 -0.21699999999991301 0 0 -0.21799999999991571 0 0 -0.21899999999991829 0 0 -0.2199999999999209 0 0 -0.22099999999992359 0 0 -0.2219999999999262 0 0 -0.22299999999992881 0 0 -0.22399999999993139 0 0 -0.22499999999993411 0 0 -0.2259999999999367 0 0 -0.22699999999993939 0 0 -0.227999999999942 0 0 -0.22899999999994469 0 0 -0.2299999999999473 0 0 -0.23099999999994991 0 0 -0.23199999999995249 0 0 -0.23299999999995519 0 0 -0.2339999999999578 0 0 -0.23499999999996049 0 0 -0.2359999999999631 0 0 -0.23699999999996571 0 0 -0.2379999999999684 0 0 -0.23899999999997101 0 0 -0.2399999999999736 0 0 -0.24099999999997629 0 0 -0.2419999999999789 0 0 -0.24299999999998159 0 0 -0.2439999999999842 0 0 -0.24499999999998681 0 0 -0.24599999999998939 0 0 -0.24699999999999209 0 0 -0.2479999999999947 0 0 -0.24899999999999739 
</DataArray>
</Points>
<Cells>
<DataArray type="UInt32" Name="connectivity" format="ascii">
0 2 2 3 3 4 4 5 5 6 6 7 7 8 8 9 9 10 10 11 11 12 12 13 13 14 14 15 15 16 16 17 17 18 18 19 19 20 20 21 21 22 22 23 23 24 24 25 25 26 26 27 27 28 28 29 29 30 30 31 31 32 32 33 33 34 34 35 35 36 36 37 37 38 38 39 39 40 40 41 41 42 42 43 43 44 44 45 45 46 46 47 47 48 48 49 49 50 50 51 51 52 52 53 53 54 54 55 55 56 56 57 57 58 58 59 59 60 60 61 61 62 62 63 63 64 64 65 65 66 66 67 67 68 68 69 69 70 70 71 71 72 72 73 73 74 74 75 75 76 76 77 77 78 78 79 79 80 80 81 81 82 82 83 83 84 84 85 85 86 86 87 87 88 88 89 89 90 90 91 91 92 92 93 93 94 94 95 95 96 96 97 97 98 98 99 99 100 100 101 101 102 102 103 103 104 104 105 105 106 106 107 107 108 108 109 109 110 110 111 111 112 112 113 113 114 114 115 115 116 116 117 117 118 118 119 119 120 120 121 121 122 122 123 123 124 124 125 125 126 126 127 127 128 128 129 129 130 130 131 131 132 132 133 133 134 134 135 135 136 136 137 137 138 138 139 139 140 140 141 141 142 142 143 143 144 144 145 145 146 146 147 147 148 148 149 149 150 150 151 151 152 152 153 153 154 154 155 155 156 156 157 157 158 158 159 159 160 160 161 161 162 162 163 163 164 164 165 165 166 166 167 167 168 168 169 169 170 170 171 171 172 172 173 173 174 174 175 175 176 176 177 177 178 178 179 179 180 180 181 181 182 182 183 183 184 184 185 185 186 186 187 187 188 188 189 189 190 190 191 191 192 192 193 193 194 194 195 195 196 196 197 197 198 198 199 199 200 200 201 201 202 202 203 203 204 204 205 205 206 206 207 207 208 208 209 209 210 210 211 211 212 212 213 213 214 214 215 215 216 216 217 217 218 218 219 219 220 220 221 221 222 222 223 223 224 224 225 225 226 226 227 227 228 228 229 229 230 230 231 231 232 232 233 233 234 234 235 235 236 236 237 237 238 238 239 239 240 240 241 241 242 242 243 243 244 244 245 245 246 246 247 247 248 248 249 249 250 250 1 
</DataArray>
<DataArray type="UInt32" Name="offsets" format="ascii">
2 4 6 8 10 12 14 16 18 20 22 24 26 28 30 32 34 36 38 40 42 44 46 48 50 52 54 56 58 60 62 64 66 68 70 72 74 76 78 80 82 84 86 88 90 92 94 96 98 100 102 104 106 108 110 112 114 116 118 120 122 124 126 128 130 132 134 136 138 140 142 144 146 148 150 152 154 156 158 160 162 164 166 168 170 172 174 176 178 180 182 184 186 188 190 192 194 196 198 200 202 204 206 208 210 212 214 216 218 220 222 224 226 228 230 232 234 236 238 240 242 244 246 248 250 252 254 256 258 260 262 264 266 268 270 272 274 276 278 280 282 284 286 288 290 292 294 296 298 300 302 304 306 308 310 312 314 316 318 320 322 324 326 328 330 332 334 336 338 340 342 344 346 348 350 352 354 356 358 360 362 364 366 368 370 372 374 376 378 380 382 384 386 388 390 392 394 396 398 400 402 404 406 408 410 412 414 416 418 420 422 424 426 428 430 432 434 436 438 440 442 444 446 448 450 452 454 456 458 460 462 464 466 468 470 472 474 476 478 480 482 484 486 488 490 492 494 496 498 500 
</DataArray>
<DataArray type="UInt32" Name="types" format="ascii">
3 3 3 3 3 3 3 3 3 3 3 3 3 3 3 3 3 3 3 3 3 3 3 3 3 3 3 3 3 3 3 3 3 3 3 3 3 3 3 3 3 3 3 3 3 3 3 3 3 3 3 3 3 3 3 3 3 3 3 3 3 3 3 3 3 3 3 3 3 3 3 3 3 3 3 3 3 3 3 3 3 3 3 3 3 3 3 3 3 3 3 3 3 3 3 3 3 3 3 3 3 3 3 3 3 3 3 3 3 3 3 3 3 3 3 3 3 3 3 3 3 3 3 3 3 3 3 3 3 3 3 3 3 3 3 3 3 3 3 3 3 3 3 3 3 3 3 3 3 3 3 3 3 3 3 3 3 3 3 3 3 3 3 3 3 3 3 3 3 3 3 3 3 3 3 3 3 3 3 3 3 3 3 3 3 3 3 3 3 3 3 3 3 3 3 3 3 3 3 3 3 3 3 3 3 3 3 3 3 3 3 3 3 3 3 3 3 3 3 3 3 3 3 3 3 3 3 3 3 3 3 3 3 3 3 3 3 3 3 3 3 3 3 3 3 3 3 3 3 3 
</DataArray>
</Cells>
<CellData Scalars="pressure_p0,water_content,conductivity_richards," Vectors="velocity_p0," Tensors="">
<DataArray type="Float64" Name="pressure_p0" format="ascii">
-6410.2219895701983 -6410.0649501744656 -6409.7518117760883 -6409.2824551806088 -6408.6567016329573 -6407.8743128643764 -6406.9349911550689 -6405.8383794126657 -6404.5840612665979 -6403.1715611784966 -6401.6003445687602 -6399.8698179594285 -6397.9793291335536 -6395.9281673112637 -6393.7155633427128 -6391.3406899181746 -6388.8026617954984 -6386.1005360452191 -6383.2333123135986 -6380.1999331039015 -6376.9992840762243 -6373.6301943662147 -6370.0914369230431 -6366.3817288669961 -6362.4997318670721 -6358.4440525389891 -6354.2132428640361 -6349.8058006291776 -6345.2201698888748 -6340.4547414491062 -6335.5078533740279 -6330.3777915157989 -6325.0627900680674 -6319.5610321436279 -6313.8706503767935 -6307.9897275510175 -6301.9162972523218 -6295.6483445490976 -6289.1838066988548 -6282.5205738824889 -6275.6564899666955 -6268.5893532950922 -6261.3169175086859 -6253.8368923962898 -6246.1469447755262 -6238.2446994050279 -6230.1277399284827 -6221.7936098511573 -6213.239813549545 -6204.463817314776 -6195.4630504304405 -6186.2349062854837 -6176.7767435227888 -6167.085887224137 -6157.159630132157 -6146.9952339099254 -6136.5899304388531 -6125.9409231554928 -6115.0453884279004 -6103.9004769721769 -6092.5033153098011 -6080.8510072663712 -6068.940635512341 -6056.7692631463588 -6044.3339353217725 -6031.6316809168693 -6018.6595142493998 -6005.4144368359366 -5991.893439196554 -5978.0935027053674 -5964.0116014873956 -5949.644704362212 -5934.9897768348346 -5920.0437831342642 -5904.8036883000696 -5889.2664603173998 -5873.4290723007452 -5857.2885047267973 -5840.8417477166449 -5824.0858033676159 -5807.0176881349425 -5789.6344352634615 -5771.9330972695006 -5753.9107484730566 -5735.5644875803537 -5716.8914403168146 -5697.8887621104268 -5678.5536408254793 -5658.8832995465591 -5638.874999412672 -5618.5260425013048 -5597.8337747621608 -5576.7955890003186 -5555.4089279084392 -5533.6712871476266 -5511.5802184764889 -5489.1333329278659 -5466.328304032666 -5443.162871090155 -5419.6348424839853 -5395.7420990431947 -5371.4825974473461 -5346.8543736748597 -5321.855546493578 -5296.4843209924875 -5270.7389921534559 -5244.617948461776 -5218.1196755541987 -5191.242759903088 -5163.9858925352 -5136.3478727835663 -5108.3276120707978 -5079.9241377220915 -5051.1365968061018 -5021.9642600017223 -4992.406525488781 -4962.4629228604981 -4932.133117055464 -4901.4169123068086 -4870.3142561061177 -4838.8252431795017 -4806.9501194731838 -4774.6892861457873 -4742.0433035643955 -4709.012895301461 -4675.5989521292249 -4641.8025360085812 -4607.6248840688177 -4573.0674125746882 -4538.1317208773162 -4502.8195953448912 -4467.1330132694147 -4431.0741467452754 -4394.6453665154695 -4357.8492457810671 -4320.6885639694037 -4283.1663104562995 -4245.2856882374763 -4207.0501175441741 -4168.4632393977918 -4129.5289190982385 -4090.2512496405025 -4050.6345550537662 -4010.6833936572521 -3970.4025612267569 -3929.7970940657024 -3888.8722719743305 -3847.6336211104845 -3806.0869167352175 -3764.2381858363042 -3722.0937096225207 -3679.6600258813551 -3636.943931192649 -3593.9524829904012 -3550.6930014648242 -3507.1730712964982 -3463.4005432142571 -3419.3835353682657 -3375.1304345094532 -3330.6498969663166 -3285.9508494098891 -3241.0424893973563 -3195.9342856846779 -3150.6359782983036 -3105.1575783557901 -3059.5093676249835 -3013.7018978111173 -2967.7459895609659 -2921.6527311729815 -2875.4334770020341 -2829.0998455471854 -2782.6637172106716 -2736.1372317160117 -2689.5327851729121 -2642.863026776412 -2596.1408551274485 -2549.379414161785 -2502.5920886740028 -2455.7924994230016 -2408.9944978052417 -2362.2121600816949 -2315.4597811442454 -2268.751867807061 -2222.1031316082444 -2175.5284811068068 -2129.0430136598429 -2082.662006664571 -2036.4009082496862 -1990.2753274003344 -1944.3010235007807 -1898.4938952787479 -1852.8699691352144 -1807.4453868433466 -1762.2363926001394 -1717.2593194142305 -1672.5305748132769 -1628.0666258542692 -1583.8839834201044 -1539.9991857857617 -1496.4287814374588 -1453.1893111282179 -1410.2972891534132 -1367.769183829962 -1325.6213971630111 -1283.8702436841984 -1242.5319284457967 -1201.6225241553338 -1161.1579474356415 -1121.1539341955706 -1081.6260140970526 -1042.589484104582 -1004.0593811035433 -966.0504535742748 -928.57713230906211 -891.65350015956164 -855.29326080235182 -819.50970651027126 -784.31568491698113 -749.72356476158893 -715.74520059905853 -682.39189646035061 -649.67436844355598 -617.60270621327777 -586.18633337990491 -555.43396672247673 -525.35357420783907 -495.95233174364444 -467.23657858205138 -439.2117712626449 -411.88243594441633 -385.25211892374409 -359.32333506267378 -334.09751375162921 -309.5749418915218 -285.75470318526908 -262.63461275265036 -240.21114568627007 -218.47935758893817 -197.43279427499701 -177.06338651458094 -157.36132366414841 -138.31489674056218 -119.91029597216411 -102.13133809574656 -84.959080269369892 -68.371239782996895 -52.341252186871785 -36.836564939228957 -21.814906206327297 -7.2093895566225736 
</DataArray>
<DataArray type="Float64" Name="velocity_p0" NumberOfComponents="3" format="ascii">
0 0 1.1337939866194368e-09 0 0 3.4018741321055382e-09 0 0 5.6714305895874578e-09 0 0 7.9434473165291042e-09 0 0 1.0218908326099735e-08 0 0 1.249879770907257e-08 0 0 1.4784099655470871e-08 0 0 1.7075798475912207e-08 0 0 1.9374878622886983e-08 0 0 2.168232471146762e-08 0 0 2.3999121539679066e-08 0 0 2.6326254108624334e-08 0 0 2.8664707641881215e-08 0 0 3.1015467604257764e-08 0 0 3.3379519720268776e-08 0 0 3.5757849991820951e-08 0 0 3.8151444715197495e-08 0 0 4.0561290497257092e-08 0 0 4.2988374270910162e-08 0 0 4.5433683309856037e-08 0 0 4.7898205242327721e-08 0 0 5.0382928064064145e-08 0 0 5.288884015013252e-08 0 0 5.5416930266060192e-08 0 0 5.7968187577621251e-08 0 0 6.0543601659966036e-08 0 0 6.3144162505171063e-08 0 0 6.5770860529268546e-08 0 0 6.8424686577739579e-08 0 0 7.1106631929693292e-08 0 0 7.3817688301496533e-08 0 0 7.6558847848416435e-08 0 0 7.9331103165578729e-08 0 0 8.2135447287463468e-08 0 0 8.4972873686146151e-08 0 0 8.7844376268086778e-08 0 0 9.0750949370111142e-08 0 0 9.3693587753309178e-08 0 0 9.6673286596297034e-08 0 0 9.969104148695967e-08 0 0 1.0274784841236525e-07 0 0 1.058447037481813e-07 0 0 1.0898260424613288e-07 0 0 1.121625470200996e-07 0 0 1.1538552953139735e-07 0 0 1.1865254957188671e-07 0 0 1.2196460524689109e-07 0 0 1.2532269495536189e-07 0 0 1.2872781736998853e-07 0 0 1.3218097141542015e-07 0 0 1.3568315624491399e-07 0 0 1.3923537121651455e-07 0 0 1.428386158670174e-07 0 0 1.4649388988546644e-07 0 0 1.5020219308505828e-07 0 0 1.5396452537364395e-07 0 0 1.5778188672346581e-07 0 0 1.616552771395865e-07 0 0 1.6558569662668335e-07 0 0 1.6957414515562325e-07 0 0 1.7362162262812853e-07 0 0 1.7772912884076094e-07 0 0 1.8189766344785798e-07 0 0 1.8612822592324861e-07 0 0 1.9042181552103588e-07 0 0 1.9477943123581098e-07 0 0 1.9920207176105972e-07 0 0 2.0369073544753421e-07 0 0 2.0824642026048313e-07 0 0 2.1287012373549686e-07 0 0 2.1756284293442587e-07 0 0 2.2232557439972032e-07 0 0 2.2715931410836702e-07 0 0 2.3206505742517391e-07 0 0 2.370437990548876e-07 0 0 2.4209653299413567e-07 0 0 2.4722425248221494e-07 0 0 2.5242794995148695e-07 0 0 2.5770861697728428e-07 0 0 2.6306724422654208e-07 0 0 2.6850482140660469e-07 0 0 2.7402233721286549e-07 0 0 2.7962077927597491e-07 0 0 2.853011341085922e-07 0 0 2.9106438705129371e-07 0 0 2.9691152221800811e-07 0 0 3.0284352244105016e-07 0 0 3.0886136921507984e-07 0 0 3.149660426408447e-07 0 0 3.211585213679008e-07 0 0 3.2743978253713231e-07 0 0 3.3381080172234566e-07 0 0 3.4027255287074998e-07 0 0 3.4682600824336915e-07 0 0 3.5347213835401305e-07 0 0 3.602119119077332e-07 0 0 3.6704629573824634e-07 0 0 3.7397625474411731e-07 0 0 3.8100275182410489e-07 0 0 3.8812674781139189e-07 0 0 3.953492014060593e-07 0 0 4.0267106910673579e-07 0 0 4.1009330514049393e-07 0 0 4.1761686139085636e-07 0 0 4.2524268732452788e-07 0 0 4.3297172991573512e-07 0 0 4.4080493356872109e-07 0 0 4.4874324003783292e-07 0 0 4.5678758834514326e-07 0 0 4.6493891469558135e-07 0 0 4.7319815238868727e-07 0 0 4.8156623172778456e-07 0 0 4.9004407992483534e-07 0 0 4.9863262100290844e-07 0 0 5.0733277569318634e-07 0 0 5.1614546132866548e-07 0 0 5.2507159173229665e-07 0 0 5.3411207710100802e-07 0 0 5.4326782388343674e-07 0 0 5.5253973465186823e-07 0 0 5.619287079682167e-07 0 0 5.7143563824248451e-07 0 0 5.8106141558445267e-07 0 0 5.9080692564691352e-07 0 0 6.0067304946053021e-07 0 0 6.1066066325937362e-07 0 0 6.2077063829680908e-07 0 0 6.3100384065024425e-07 0 0 6.4136113101507067e-07 0 0 6.5184336448581195e-07 0 0 6.6245139032458267e-07 0 0 6.7318605171490351e-07 0 0 6.8404818550124479e-07 0 0 6.9503862191157594e-07 0 0 7.06158184263078e-07 0 0 7.1740768864918494e-07 0 0 7.2878794360682235e-07 0 0 7.4029974976229426e-07 0 0 7.5194389945469327e-07 0 0 7.6372117633484879e-07 0 0 7.7563235493842514e-07 0 0 7.8767820023085926e-07 0 0 7.9985946712326785e-07 0 0 8.1217689995621548e-07 0 0 8.2463123194931706e-07 0 0 8.372231846152511e-07 0 0 8.4995346713441692e-07 0 0 8.6282277568844249e-07 0 0 8.7583179274948839e-07 0 0 8.8898118632208113e-07 0 0 9.0227160913467872e-07 0 0 9.157036977770308e-07 0 0 9.2927807177972857e-07 0 0 9.4299533263258572e-07 0 0 9.5685606273633608e-07 0 0 9.7086082428464042e-07 0 0 9.8501015807021786e-07 0 0 9.9930458221058362e-07 0 0 1.013744590788045e-06 0 0 1.0283306523970596e-06 0 0 1.0430632085933535e-06 0 0 1.0579426722380098e-06 0 0 1.0729694257282028e-06 0 0 1.0881438191079559e-06 0 0 1.1034661680495131e-06 0 0 1.1189367516966367e-06 0 0 1.1345558103600687e-06 0 0 1.1503235430545057e-06 0 0 1.1662401048659829e-06 0 0 1.1823056041374191e-06 0 0 1.1985200994597441e-06 0 0 1.2148835964540416e-06 0 0 1.2313960443298599e-06 0 0 1.2480573322039024e-06 0 0 1.2648672851613e-06 0 0 1.2818256600407987e-06 0 0 1.298932140923684e-06 0 0 1.3161863343050237e-06 0 0 1.3335877639233739e-06 0 0 1.3511358652242529e-06 0 0 1.3688299794298253e-06 0 0 1.3866693471856261e-06 0 0 1.4046531017532318e-06 0 0 1.4227802617141867e-06 0 0 1.4410497231491387e-06 0 0 1.4594602512524794e-06 0 0 1.4780104713394911e-06 0 0 1.4966988592010397e-06 0 0 1.515523730755124e-06 0 0 1.5344832309429626e-06 0 0 1.5535753218113614e-06 0 0 1.5727977697196369e-06 0 0 1.5921481316043472e-06 0 0 1.6116237402297326e-06 0 0 1.6312216883464467e-06 0 0 1.6509388116755317e-06 0 0 1.6707716706274465e-06 0 0 1.6907165306606338e-06 0 0 1.7107693411759705e-06 0 0 1.730925712836032e-06 0 0 1.7511808931915674e-06 0 0 1.7715297404876947e-06 0 0 1.7919666955147622e-06 0 0 1.8124857513608459e-06 0 0 1.8330804209121753e-06 0 0 1.8537437019407579e-06 0 0 1.8744680396089597e-06 0 0 1.895245286211855e-06 0 0 1.9160666579724741e-06 0 0 1.9369226886955078e-06 0 0 1.9578031800828735e-06 0 0 1.9786971485090042e-06 0 0 1.9995927680550177e-06 0 0 2.0204773096037165e-06 0 0 2.0413370758058868e-06 0 0 2.0621573317435986e-06 0 0 2.0829222311394223e-06 0 0 2.1036147379937505e-06 0 0 2.1242165435809574e-06 0 0 2.1447079787981104e-06 0 0 2.1650679219477695e-06 0 0 2.1852737021471785e-06 0 0 2.2053009987050168e-06 0 0 2.2251237369947426e-06 0 0 2.2447139815957789e-06 0 0 2.2640418277809361e-06 0 0 2.2830752928189008e-06 0 0 2.3017802090506867e-06 0 0 2.3201201213191998e-06 0 0 2.3380561921078129e-06 0 0 2.35554711872174e-06 0 0 2.3725490680741258e-06 0 0 2.3890156361845243e-06 0 0 2.4048978414509025e-06 0 0 2.4201441632352153e-06 0 0 2.4347006404740741e-06 0 0 2.448511049128008e-06 0 0 2.4615171826713117e-06 0 0 2.4736592670483506e-06 0 0 2.4848765514823225e-06 0 0 2.4951081307561223e-06 0 0 2.5042940758796989e-06 0 0 2.5123769837808279e-06 0 0 2.5193041139041202e-06 0 0 2.525030385351489e-06 0 0 2.5295227250845977e-06 0 0 2.5327667673174522e-06 0 0 2.5347783568924692e-06 0 0 2.5356280333923044e-06 0 0 2.5355483358315071e-06 
</DataArray>
<DataArray type="Float64" Name="water_content" format="ascii">
0.20507539088757454 0.20507634848451681 0.20507825802952048 0.2050811204197911 0.20508493700110464 0.20508970956807704 0.20509544036452337 0.2051021320839076 0.20510978786988282 0.20511841131692299 0.20512800647104595 0.20513857783062928 0.20515013034731894 0.20516266942703232 0.20517620093105532 0.20519073117723624 0.20520626694127564 0.20522281545811499 0.20524038442342413 0.20525898199518958 0.20527861679540507 0.20529929791186546 0.20532103490006615 0.20534383778520926 0.205367717064319 0.20539268370846753 0.20541874916511382 0.20544592536055742 0.20547422470250981 0.20550366008278498 0.20553424488011274 0.20556599296307637 0.20559891869317831 0.20563303692803603 0.2056683630247117 0.20570491284317816 0.20574270274992551 0.2057817496217105 0.20582207084945336 0.20586368434228547 0.2059066085317513 0.20595086237616989 0.20599646536515884 0.20604343752432583 0.2060917994201325 0.20614157216493495 0.20619277742220615 0.20624543741194568 0.20629957491628131 0.20635521328526935 0.206412376442898 0.20647108889330157 0.20653137572718983 0.20659326262850086 0.20665677588128301 0.20672194237681329 0.20678878962095953 0.20685734574179426 0.20692763949746718 0.20699970028434539 0.20707355814542944 0.20714924377905369 0.20722678854788074 0.20730622448819869 0.20738758431953147 0.20747090145457248 0.20755621000945151 0.20764354481434671 0.20773294142445223 0.20782443613131377 0.2079180659745441 0.20801386875393119 0.20811188304195216 0.20821214819670691 0.20831470437528499 0.20841959254758108 0.20852685451057407 0.20863653290308526 0.20874867122103294 0.20886331383319912 0.20898050599752754 0.20910029387797008 0.2092227245619018 0.20934784607812315 0.20947570741547117 0.20960635854206017 0.20973985042517468 0.20987623505183695 0.21001556545007422 0.21015789571090901 0.21030328101109996 0.21045177763665895 0.2106034430071729 0.21075833570095945 0.21091651548108639 0.21107804332228663 0.21124298143880141 0.21141139331318534 0.21158334372610932 0.21175889878719778 0.21193812596693892 0.21212109412970739 0.21230787356794178 0.21249853603751967 0.21269315479437545 0.21289180463240839 0.21309456192272949 0.21330150465429823 0.21351271247600298 0.21372826674024009 0.21394825054804992 0.21417274879586989 0.21440184822396818 0.21463563746662306 0.21487420710411725 0.21511764971661884 0.215366059940023 0.21561953452383362 0.21587817239116558 0.21614207470095381 0.21641134491245745 0.21668608885215279 0.21696641478311235 0.21725243347697148 0.21754425828858923 0.21784200523351507 0.218145793068377 0.21845574337431389 0.21877198064357989 0.21909463236945237 0.21942382913958586 0.21975970473295575 0.22010239622054656 0.2204520440699444 0.2208087922540023 0.22117278836375379 0.22154418372575996 0.22192313352408272 0.22230979692708697 0.22270433721928484 0.22310692193844373 0.223517723018192 0.22393691693636769 0.224364684869366 0.22480121285275614 0.22524669194844868 0.22570131841871094 0.22616529390734041 0.22663882562832266 0.22712212656231584 0.22761541566132054 0.22811891806191179 0.22863286530742746 0.22915749557952847 0.22969305393956457 0.23023979258020161 0.23079797108778879 0.23136785671596627 0.23194972467103941 0.23254385840966976 0.23315054994945947 0.23377010019303424 0.23440281926625706 0.23504902687123469 0.23570905265481021 0.23638323659326577 0.23707192939399171 0.2377754929149129 0.23849430060249566 0.23922873794919453 0.23997920297123315 0.24074610670764846 0.24152987374156329 0.24233094274468892 0.24314976704609118 0.24398681522629023 0.24484257173779367 0.2457175375531942 0.24661223084198805 0.2475271876772947 0.24846296277367394 0.24942013025724996 0.25039928446935322 0.25140104080488446 0.25242603658658902 0.25347493197639259 0.25454841092490277 0.25564718216010573 0.25677198021619163 0.25792356650331555 0.25910273041893445 0.26031029050115628 0.26154709562427753 0.26281402623636752 0.26411199563836563 0.26544195130368264 0.26680487623671889 0.268201790368015 0.26963375198291339 0.27110185917960239 0.27260725135121266 0.27415111068520015 0.27573466367153499 0.27735918260918113 0.27902598709792398 0.28073644549972343 0.28249197635034773 0.28429404969797911 0.28614418834066202 0.28804396892873607 0.28999502289159995 0.2919990371400828 0.29405775448610544 0.2961729737099163 0.29834654919162201 0.30058039000758041 0.30287645837297061 0.30523676728887106 0.3076633772247005 0.31015839163397507 0.31272395106185163 0.31536222555543747 0.3180754050305723 0.32086568717948893 0.32373526241959871 0.32668629528100163 0.32972090150447569 0.33284111996648114 0.33604887835490282 0.33934595127771039 0.34273390918109092 0.34621405606234501 0.34978735345495415 0.35345432749324268 0.35721495496348543 0.36106852301128306 0.36501345543324826 0.36904709595854129 0.3731654351546303 0.37736276174800248 0.38163120972099845 0.38596015661014071 0.3903354000171666 0.39473798535128246 0.39914244690216649 0.40351397262380395 0.40780334968615356 0.41193648434281815 0.41578619059287081 0.41880982830904251 
</DataArray>
<DataArray type="Float64" Name="conductivity_richards" format="ascii">