<?xml version="1.0"?>
<VTKFile type="UnstructuredGrid" version="0.1" byte_order="LittleEndian">
<UnstructuredGrid>
<Piece NumberOfPoints="251" NumberOfCells="250">
<Points>
<DataArray type="Float64" NumberOfComponents="3" format="ascii">
0 0 -0.25 0 0 -0.24899999999999739 0 0 -0.2479999999999947 0 0 -0.24699999999999209 0 0 -0.24599999999998939 0 0 -0.24499999999998681 0 0 -0.24299999999998159 0 0 -0.2439999999999842 0 0 -0.23499999999996049 0 0 -0.2359999999999631 0 0 -0.23699999999996571 0 0 -0.2379999999999684 0 0 -0.23899999999997101 0 0 -0.2399999999999736 0 0 -0.24099999999997629 0 0 -0.2419999999999789 0 0 -0.22699999999993939 0 0 -0.227999999999942 0 0 -0.22899999999994469 0 0 -0.2299999999999473 0 0 -0.23099999999994991 0 0 -0.23199999999995249 0 0 -0.23299999999995519 0 0 -0.2339999999999578 0 0 -0.22499999999993411 0 0 -0.2259999999999367 0 0 -0.22399999999993139 0 0 -0.22299999999992881 0 0 -0.2219999999999262 0 0 -0.22099999999992359 0 0 -0.2199999999999209 0 0 -0.21899999999991829 0 0 -0.21799999999991571 0 0 -0.21699999999991301 0 0 -0.21499999999990771 0 0 -0.2159999999999104 0 0 -0.21299999999990249 0 0 -0.2139999999999051 0 0 -0.21199999999989991 0 0 -0.21099999999989719 0 0 -0.2099999999998946 0 0 -0.20899999999989191 0 0 -0.2079999999998893 0 0 -0.20399999999987881 0 0 -0.20499999999988139 0 0 -0.205999999999884 0 0 -0.20699999999988669 0 0 -0.18899999999983921 0 0 -0.1879999999998366 0 0 -0.19099999999984449 0 0 -0.18999999999984191 0 0 -0.19299999999984971 0 0 -0.1919999999998471 0 0 -0.19499999999985501 0 0 -0.1939999999998524 0 0 -0.19699999999986029 0 0 -0.1959999999998577 0 0 -0.19899999999986559 0 0 -0.19799999999986301 0 0 -0.20099999999987081 0 0 -0.1999999999998682 0 0 -0.20299999999987611 0 0 -0.2019999999998735 0 0 -0.13099999999968631 0 0 -0.13199999999968889 0 0 -0.1299999999996837 0 0 -0.12899999999968109 0 0 -0.1279999999996784 0 0 -0.12699999999967579 0 0 -0.12599999999967451 0 0 -0.13999999999971011 0 0 -0.13899999999970741 0 0 -0.1379999999997048 0 0 -0.13699999999970211 0 0 -0.1359999999996995 0 0 -0.13499999999969689 0 0 -0.13299999999969159 0 0 -0.1339999999996942 0 0 -0.14699999999972849 0 0 -0.1479999999997311 0 0 -0.14599999999972579 0 0 -0.14499999999972321 0 0 -0.1439999999997206 0 0 -0.14299999999971799 0 0 -0.1419999999997153 0 0 -0.14099999999971269 0 0 -0.1559999999997522 0 0 -0.15499999999974959 0 0 -0.15399999999974701 0 0 -0.15299999999974431 0 0 -0.1519999999997417 0 0 -0.15099999999973901 0 0 -0.14899999999973379 0 0 -0.1499999999997364 0 0 -0.16299999999977069 0 0 -0.1639999999997733 0 0 -0.161999999999768 0 0 -0.16099999999976539 0 0 -0.1599999999997628 0 0 -0.15899999999976011 0 0 -0.1579999999997575 0 0 -0.15699999999975489 0 0 -0.17099999999979171 0 0 -0.1699999999997891 0 0 -0.16899999999978649 0 0 -0.16799999999978391 0 0 -0.16699999999978121 0 0 -0.16499999999977599 0 0 -0.1659999999997786 0 0 -0.1779999999998102 0 0 -0.17899999999981281 0 0 -0.17699999999980759 0 0 -0.17599999999980501 0 0 -0.17499999999980231 0 0 -0.1739999999997997 0 0 -0.17299999999979701 0 0 -0.1719999999997944 0 0 -0.18699999999983391 0 0 -0.1859999999998313 0 0 -0.18499999999982869 0 0 -0.183999999999826 0 0 -0.18299999999982339 0 0 -0.18199999999982069 0 0 -0.1799999999998155 0 0 -0.18099999999981811 0 0 -0.068999999999833792 0 0 -0.069999999999830878 0 0 -0.067999999999836705 0 0 -0.066999999999839618 0 0 -0.065999999999842532 0 0 -0.064999999999845445 0 0 -0.063999999999848373 0 0 -0.062999999999851286 0 0 -0.077999999999807557 0 0 -0.07699999999981047 0 0 -0.075999999999813383 0 0 -0.074999999999816297 0 0 -0.07399999999981921 0 0 -0.072999999999822124 0 0 -0.070999999999827965 0 0 -0.071999999999825051 0 0 -0.083999999999790062 0 0 -0.084999999999787149 0 0 -0.082999999999792975 0 0 -0.081999999999795889 0 0 -0.080999999999798802 0 0 -0.07999999999980173 0 0 -0.078999999999804643 0 0 -0.092999999999763827 0 0 -0.091999999999766741 0 0 -0.090999999999769654 0 0 -0.089999999999772567 0 0 -0.088999999999775481 0 0 -0.087999999999778394 0 0 -0.085999999999784235 0 0 -0.086999999999781322 0 0 -0.099999999999743419 0 0 -0.10099999999974051 0 0 -0.098999999999746333 0 0 -0.097999999999749246 0 0 -0.096999999999752159 0 0 -0.095999999999755073 0 0 -0.094999999999758 0 0 -0.093999999999760914 0 0 -0.1089999999997172 0 0 -0.1079999999997201 0 0 -0.106999999999723 0 0 -0.1059999999997259 0 0 -0.1049999999997288 0 0 -0.10399999999973179 0 0 -0.10199999999973761 0 0 -0.10299999999973471 0 0 -0.1159999999996968 0 0 -0.11699999999969379 0 0 -0.1149999999996997 0 0 -0.1139999999997026 0 0 -0.1129999999997055 0 0 -0.1119999999997084 0 0 -0.1109999999997113 0 0 -0.1099999999997143 0 0 -0.12499999999967321 0 0 -0.1239999999996748 0 0 -0.1229999999996764 0 0 -0.1219999999996793 0 0 -0.1209999999996822 0 0 -0.11999999999968509 0 0 -0.11799999999969089 0 0 -0.11899999999968799 0 0 -0.047999999999895078 0 0 -0.046999999999897998 0 0 -0.049999999999889237 0 0 -0.048999999999892158 0 0 -0.051999999999883403 0 0 -0.050999999999886317 0 0 -0.053999999999877563 0 0 -0.052999999999880483 0 0 -0.055999999999871722 0 0 -0.054999999999874642 0 0 -0.057999999999865881 0 0 -0.056999999999868801 0 0 -0.059999999999860047 0 0 -0.058999999999862961 0 0 -0.061999999999854213 0 0 -0.060999999999857127 0 0 -0.042999999999909673 0 0 -0.043999999999906753 0 0 -0.044999999999903832 0 0 -0.045999999999900919 0 0 -0.041999999999912593 0 0 -0.040999999999915507 0 0 -0.039999999999918427 0 0 -0.038999999999921348 0 0 -0.037999999999924268 0 0 -0.035999999999930102 0 0 -0.036999999999927188 0 0 -0.033999999999935943 0 0 -0.034999999999933022 0 0 -0.032999999999938787 0 0 -0.031999999999941367 0 0 -0.03099999999994377 0 0 -0.02999999999994565 0 0 -0.028999999999947419 0 0 -0.027999999999948951 0 0 -0.02699999999995048 0 0 -0.02599999999995202 0 0 -0.023999999999955082 0 0 -0.024999999999953549 0 0 -0.01599999999996761 0 0 -0.0169999999999659 0 0 -0.01799999999996427 0 0 -0.018999999999962731 0 0 -0.019999999999961209 0 0 -0.020999999999959669 0 0 -0.02199999999995814 0 0 -0.022999999999956611 0 0 -0.007999999999984719 0 0 -0.008999999999982581 0 0 -0.0099999999999804221 0 0 -0.010999999999978201 0 0 -0.011999999999975971 0 0 -0.01299999999997375 0 0 -0.01399999999997158 0 0 -0.014999999999969531 0 0 -0.0059999999999886811 0 0 -0.0069999999999867156 0 0 -0.004999999999990571 0 0 -0.0039999999999924488 0 0 -0.0029999999999943271 0 0 -0.001999999999996204 0 0 -0.00099999999999810158 0 0 0 
</DataArray>
</Points>
<Cells>
<DataArray type="UInt32" Name="connectivity" format="ascii">
1 0 2 1 3 2 4 3 5 4 7 5 15 6 6 7 23 8 8 9 9 10 10 11 11 12 12 13 13 14 14 15 16 17 17 18 18 19 19 20 20 21 21 22 22 23 24 25 25 16 26 24 27 26 28 27 29 28 30 29 31 30 32 31 33 32 34 35 35 33 36 37 37 34 38 36 39 38 40 39 41 40 42 41 46 42 61 43 43 44 44 45 45 46 48 47 50 49 47 50 52 51 49 52 54 53 51 54 56 55 53 56 58 57 55 58 60 59 57 60 62 61 59 62 63 64 64 76 65 63 66 65 67 66 68 67 69 68 180 69 70 85 71 70 72 71 73 72 74 73 75 74 76 77 77 75 80 78 78 79 81 80 82 81 83 82 84 83 85 84 87 86 88 87 89 88 90 89 91 90 93 91 79 92 92 93 96 94 94 95 97 96 98 97 99 98 100 99 101 100 86 101 102 116 103 102 104 103 105 104 106 105 108 106 95 107 107 108 109 110 110 123 111 109 112 111 113 112 114 113 115 114 116 115 117 48 118 117 119 118 120 119 121 120 122 121 123 124 124 122 127 125 125 126 128 127 129 128 130 129 131 130 132 131 134 133 135 134 136 135 137 136 138 137 140 138 126 139 139 140 141 142 142 154 143 141 144 143 145 144 146 145 147 146 133 147 148 163 149 148 150 149 151 150 152 151 153 152 154 155 155 153 156 157 157 170 158 156 159 158 160 159 161 160 162 161 163 162 165 164 166 165 167 166 168 167 169 168 170 171 171 169 174 172 172 173 175 174 176 175 177 176 178 177 179 178 164 179 181 180 182 181 183 182 184 183 185 184 187 185 173 186 186 187 188 191 189 188 190 193 191 190 192 195 193 192 194 197 195 194 196 199 197 196 198 201 199 198 200 203 201 200 202 132 203 202 204 205 205 206 206 207 207 189 208 204 209 208 210 209 211 210 212 211 214 212 216 213 213 214 217 215 215 216 218 217 219 218 220 219 221 220 222 221 223 222 224 223 226 224 234 225 225 226 227 228 228 229 229 230 230 231 231 232 232 233 233 234 235 236 236 237 237 238 238 239 239 240 240 241 241 242 242 227 243 244 244 235 245 243 246 245 247 246 248 247 249 248 250 249 
</DataArray>
<DataArray type="UInt32" Name="offsets" format="ascii">
2 4 6 8 10 12 14 16 18 20 22 24 26 28 30 32 34 36 38 40 42 44 46 48 50 52 54 56 58 60 62 64 66 68 70 72 74 76 78 80 82 84 86 88 90 92 94 96 98 100 102 104 106 108 110 112 114 116 118 120 122 124 126 128 130 132 134 136 138 140 142 144 146 148 150 152 154 156 158 160 162 164 166 168 170 172 174 176 178 180 182 184 186 188 190 192 194 196 198 200 202 204 206 208 210 212 214 216 218 220 222 224 226 228 230 232 234 236 238 240 242 244 246 248 250 252 254 256 258 260 262 264 266 268 270 272 274 276 278 280 282 284 286 288 290 292 294 296 298 300 302 304 306 308 310 312 314 316 318 320 322 324 326 328 330 332 334 336 338 340 342 344 346 348 350 352 354 356 358 360 362 364 366 368 370 372 374 376 378 380 382 384 386 388 390 392 394 396 398 400 402 404 406 408 410 412 414 416 418 420 422 424 426 428 430 432 434 436 438 440 442 444 446 448 450 452 454 456 458 460 462 464 466 468 470 472 474 476 478 480 482 484 486 488 490 492 494 496 498 500 
</DataArray>
<DataArray type="UInt32" Name="types" format="ascii">
3 3 3 3 3 3 3 3 3 3 3 3 3 3 3 3 3 3 3 3 3 3 3 3 3 3 3 3 3 3 3 3 3 3 3 3 3 3 3 3 3 3 3 3 3 3 3 3 3 3 3 3 3 3 3 3 3 3 3 3 3 3 3 3 3 3 3 3 3 3 3 3 3 3 3 3 3 3 3 3 3 3 3 3 3 3 3 3 3 3 3 3 3 3 3 3 3 3 3 3 3 3 3 3 3 3 3 3 3 3 3 3 3 3 3 3 3 3 3 3 3 3 3 3 3 3 3 3 3 3 3 3 3 3 3 3 3 3 3 3 3 3 3 3 3 3 3 3 3 3 3 3 3 3 3 3 3 3 3 3 3 3 3 3 3 3 3 3 3 3 3 3 3 3 3 3 3 3 3 3 3 3 3 3 3 3 3 3 3 3 3 3 3 3 3 3 3 3 3 3 3 3 3 3 3 3 3 3 3 3 3 3 3 3 3 3 3 3 3 3 3 3 3 3 3 3 3 3 3 3 3 3 3 3 3 3 3 3 3 3 3 3 3 3 3 3 3 3 3 3 
</DataArray>
</Cells>
<CellData Scalars="pressure_p0,water_content,conductivity_richards," Vectors="velocity_p0," Tensors="">
<DataArray type="Float64" Name="pressure_p0" format="ascii">
-8.410164193132168 -25.494182437554109 -43.165931756460381 -61.519992266375667 -80.616011127141718 -100.49966894887427 -142.77117332372353 -121.207883393103 -348.31828796942864 -319.30730672330833 -291.25666281582085 -264.16341398451601 -238.02213725696561 -212.82476021438711 -188.56036595703199 -165.21495929410014 -578.07469948131211 -542.43870943658192 -507.72542399042482 -473.94563958623871 -441.10852275928153 -409.22151334831301 -378.29021772126401 -652.06406586607068 -614.62107026477861 -690.38859242412843 -729.57830804368359 -769.61570851946556 -810.48221215763465 -852.15824125980043 -894.62330092985462 -937.85605524104312 -981.8344007955493 -1071.9360380310604 -1026.5355377064077 -1164.7386698771197 -1118.0119116864655 -1212.0913860692278 -1260.0447545463196 -1308.573146583783 -1357.6506642819134 -1407.251192099025 -1457.3484461280234 -1662.1757288395627 -1610.3561741939322 -1558.927435591833 -1507.9160211615058 -2468.7622619787721 -2359.5619888658457 -2414.1541314215033 -2250.5171441750272 -2305.0086024452357 -2141.8146242089661 -2196.111174294243 -2033.6472525932531 -2087.6517779934138 -1926.2131670728581 -1979.8259765265946 -1819.715113078458 -1872.8343058997925 -1714.3596371925983 -1766.8815194356152 -5099.4989286510227 -5066.2306138268204 -5132.2512059183864 -5164.4892332565423 -5196.2150158005352 -5227.430768464119 -5258.1389079248111 -5288.3420443237219 -4781.3705563292897 -4818.8026790452031 -4855.7132978496529 -4892.1021582502481 -4927.9692882064082 -4963.3149946598305 -5032.4446997035429 -4998.1398550012946 -4545.878582534946 -4504.8288173869769 -4586.4173316371689 -4626.4425731118117 -4665.9521633171262 -4704.9442930416426 -4743.4174778458437 -4158.4538431196779 -4203.4577907815201 -4247.9841034724604 -4292.0272241903222 -4335.5820064621821 -4378.6437086350834 -4463.2708817955436 -4421.207985864763 -3830.6091356624302 -3782.036017810939 -3878.764781417909 -3926.4938430674761 -3973.7876748331796 -4020.6380940244467 -4067.0373746164305 -4112.9782368526994 -3379.6742127205407 -3431.2011697700113 -3482.401018897458 -3533.260725388312 -3583.7677591575966 -3633.9100908191249 -3733.0550134874138 -3683.676188124613 -3011.0282036338476 -2957.414728094378 -3064.4371916182217 -3117.6245789147147 -3170.5737619218544 -3223.2686460601562 -3275.693646783307 -3327.8336892441284 -2523.3640307864512 -2577.937522062376 -2632.4612614105909 -2686.9142266671843 -2741.2758623541213 -2795.5260861609049 -2903.6143840224336 -2849.645296697724 -6314.5912540963036 -6305.7121724118342 -6323.240471060054 -6331.6642563210107 -6339.8669778680833 -6347.8529506171544 -6355.6264354990562 -6225.8539943319574 -6236.7382317123192 -6247.3551747351285 -6257.7096805265028 -6267.8065544037236 -6277.6505559172001 -6296.5987354946537 -6287.2463973444474 -6141.7628278306038 -6128.5602232831061 -6154.6577748903801 -6167.2502370939137 -6179.5453605203184 -6191.5482516589436 -6203.2639751448469 -6214.6975591672299 -6011.2345410539565 -6027.0875856553666 -6042.5907606237488 -6057.7493962685639 -6072.5688128180536 -6087.0543189744221 -6115.0447591698194 -6101.211208795311 -5890.0188434489082 -5871.1750189909635 -5908.4702540744111 -5926.5345233541166 -5944.2169447035985 -5961.5228287009777 -5978.4574989790171 -5995.0262906865437 -5727.8442593072141 -5749.579889664672 -5770.8871753029562 -5791.771110726283 -5812.2367424746426 -5851.9335337496495 -5832.28916898848 -5563.2956170855578 -5537.9617945681794 -5588.1637690098687 -5612.5706057128991 -5636.5205900470955 -5660.0182728774234 -5683.0682869161865 -5705.6753495997409 -5318.0429736273654 -5347.2446699050179 -5375.9502777124926 -5404.1631045860076 -5431.8866136497036 -5459.1244163397787 -5512.1580533363058 -5485.8802652482345 -6449.4297440709151 -6454.3300176895791 -6439.1664769190793 -6444.3762994746785 -6428.2645325851045 -6433.7970022283826 -6416.6968967082121 -6422.5656567154847 -6404.4354770329301 -6410.6547074721566 -6391.4511123003467 -6398.0355268705825 -6377.7135829747676 -6384.678422898417 -6363.1916256534378 -6370.5526520950225 -6472.4611562994387 -6468.1428602333763 -6463.6835392464709 -6459.0802592008122 -6476.6412932512267 -6480.6860686065465 -6484.5982116310479 -6488.3803833951843 -6492.035176849954 -6495.56511692001 -6502.260197141477 -6498.9726606126769 -6508.4844674244177 -6505.4300480628053 -6511.4256419244684 -6514.2556910798321 -6516.9766674024522 -6519.5905565826315 -6522.0992776780377 -6524.5046833073611 -6526.8085598475554 -6529.0126276336177 -6533.1278892821638 -6531.1185411599236 -6544.6092591308989 -6543.2368548830655 -6541.7771860184739 -6540.2291176312174 -6538.591449425734 -6536.8629177522616 -6535.0421954189569 -6552.5620603370589 -6551.8545725815529 -6551.0666050607997 -6550.1975313643998 -6549.2466673473773 -6548.2132603219561 -6547.0964889283341 -6545.8954695635493 -6553.7377887658076 -6553.189631772284 -6554.2069691238339 -6554.5975466598829 -6554.909833860218 -6555.1440806436531 -6555.300474407929 -6555.3791400646342 
</DataArray>
<DataArray type="Float64" Name="velocity_p0" NumberOfComponents="3" format="ascii">
0 0 2.9512197685695711e-06 0 0 2.9516328529813334e-06 0 0 2.9505803136727223e-06 0 0 2.9476672534800274e-06 0 0 2.942790202058357e-06 0 0 2.9359418828822587e-06 0 0 2.916539483758203e-06 0 0 2.9271666456819163e-06 0 0 2.7772604437280873e-06 0 0 2.7989419375788424e-06 0 0 2.8196111009148414e-06 0 0 2.8391685952336028e-06 0 0 2.8575104555625473e-06 0 0 2.8745290085012639e-06 0 0 2.8901138716750646e-06 0 0 2.904153856059338e-06 0 0 2.6043906892735489e-06 0 0 2.6308170812593741e-06 0 0 2.6567798420693729e-06 0 0 2.6822159718232529e-06 0 0 2.7070581443494101e-06 0 0 2.7312323887220756e-06 0 0 2.7546608876597109e-06 0 0 2.5503761458546545e-06 0 0 2.5775590589372051e-06 0 0 2.5228920780285436e-06 0 0 2.4951528943083715e-06 0 0 2.4672011473857946e-06 0 0 2.439076063017134e-06 0 0 2.4108137757026693e-06 0 0 2.3824475524883466e-06 0 0 2.3540080041979703e-06 0 0 2.3255232838285895e-06 0 0 2.2685197507649743e-06 0 0 2.2970192721486515e-06 0 0 2.2116197636358422e-06 0 0 2.2400465630758702e-06 0 0 2.1832577565176549e-06 0 0 2.1549774232983721e-06 0 0 2.1267942413055801e-06 0 0 2.0987223927629588e-06 0 0 2.0707748654566464e-06 0 0 2.0429635455267299e-06 0 0 1.9332841074017526e-06 0 0 1.9604509153085763e-06 0 0 1.9877920703317592e-06 0 0 2.0152993029602188e-06 0 0 1.5504842110463181e-06 0 0 1.5986179141919597e-06 0 0 1.5744336327832706e-06 0 0 1.6476846835796343e-06 0 0 1.6230355232536389e-06 0 0 1.6976691793609084e-06 0 0 1.6725633456213482e-06 0 0 1.7485514557233825e-06 0 0 1.7229995420698945e-06 0 0 1.8003061829515997e-06 0 0 1.7743215799929578e-06 0 0 1.8529017458146851e-06 0 0 1.8265011092885124e-06 0 0 1.9062991794161803e-06 0 0 1.8795029840189898e-06 0 0 5.6417677122476226e-07 0 0 5.7566920575419818e-07 0 0 5.5286232517270806e-07 0 0 5.417241785080498e-07 0 0 5.3076063254839844e-07 0 0 5.1997000479521817e-07 0 0 5.0935059112009971e-07 0 0 4.9890069149683942e-07 0 0 6.7421781315622386e-07 0 0 6.6124117579287269e-07 0 0 6.4845587751613947e-07 0 0 6.3586026912192711e-07 0 0 6.2345260492946859e-07 0 0 6.112314031584416e-07 0 0 5.8734131425933906e-07 0 0 5.9919490650245557e-07 0 0 7.5618710950483078e-07 0 0 7.7054864067679448e-07 0 0 7.4202823455127465e-07 0 0 7.2807042762126886e-07 0 0 7.1431217962339816e-07 0 0 7.0075170243838471e-07 0 0 6.8738743181230016e-07 0 0 8.9292294303962024e-07 0 0 8.768845230046086e-07 0 0 8.6106098482628766e-07 0 0 8.4545085578714689e-07 0 0 8.300526032896586e-07 0 0 8.1486480367491229e-07 0 0 7.8511440493212297e-07 0 0 7.9988589180845019e-07 0 0 1.0113279920479432e-06 0 0 1.0291358817698213e-06 0 0 9.9374595220853712e-07 0 0 9.763884855726266e-07 0 0 9.5925422306245273e-07 0 0 9.4234195232205039e-07 0 0 9.2565024886866398e-07 0 0 9.0917769845734645e-07 0 0 1.1798707841065261e-06 0 0 1.1602145986975843e-06 0 0 1.1407930793410484e-06 0 0 1.1216052868887219e-06 0 0 1.1026502478186826e-06 0 0 1.083926882901303e-06 0 0 1.0471708652872738e-06 0 0 1.0654341229151584e-06 0 0 1.3241006183599501e-06 0 0 1.3456601442975071e-06 0 0 1.3027808270139545e-06 0 0 1.2817004234555499e-06 0 0 1.2608590212419725e-06 0 0 1.2402559837971532e-06 0 0 1.2198907560975508e-06 0 0 1.1997625177509062e-06 0 0 1.5267709523885035e-06 0 0 1.5032950769510905e-06 0 0 1.4800572223169382e-06 0 0 1.4570582298017836e-06 0 0 1.4342986428696088e-06 0 0 1.4117788479833468e-06 0 0 1.3674596506637918e-06 0 0 1.3894990858460158e-06 0 0 1.2871511897724243e-07 0 0 1.3225655807167117e-07 0 0 1.2524950273495181e-07 0 0 1.2185830139442329e-07 0 0 1.185399274242877e-07 0 0 1.1529337230167743e-07 0 0 1.1211706872724179e-07 0 0 1.6348997586586504e-07 0 0 1.5929009314738777e-07 0 0 1.5517764720343569e-07 0 0 1.5115115315155683e-07 0 0 1.4720902254995912e-07 0 0 1.4335001483601662e-07 0 0 1.3587523791227865e-07 0 0 1.3957256041391691e-07 0 0 1.9546392831980633e-07 0 0 2.0041782627569402e-07 0 0 1.9060966281037641e-07 0 0 1.8585347587981656e-07 0 0 1.8119398119667876e-07 0 0 1.7662932228242174e-07 0 0 1.7215812947163633e-07 0 0 1.6777878936019251e-07 0 0 2.4382473337642392e-07 0 0 2.3801692311652968e-07 0 0 2.3232144652861863e-07 0 0 2.2673669140886179e-07 0 0 2.2126102501890101e-07 0 0 2.1589290288310962e-07 0 0 2.0547291846880333e-07 0 0 2.106307060933034e-07 0 0 2.8776139084173543e-07 0 0 2.9452663844133451e-07 0 0 2.8112158872441255e-07 0 0 2.7460557426538149e-07 0 0 2.6821168734277112e-07 0 0 2.6193829475825869e-07 0 0 2.5578374695082584e-07 0 0 2.497464959462661e-07 0 0 3.4553617505138843e-07 0 0 3.378460208979853e-07 0 0 3.302930367761387e-07 0 0 3.2287553654709551e-07 0 0 3.1559175880373099e-07 0 0 3.0141899407698572e-07 0 0 3.0844018156637837e-07 0 0 4.0335016945295044e-07 0 0 4.1219870747844859e-07 0 0 3.9465238225649451e-07 0 0 3.8610364166372482e-07 0 0 3.7770245541049002e-07 0 0 3.69446701142252e-07 0 0 3.6133489015605356e-07 0 0 3.5336518848801116e-07 0 0 4.8861860397309252e-07 0 0 4.7850262497675651e-07 0 0 4.6855104961444537e-07 0 0 4.5876217196432239e-07 0 0 4.4913428536267275e-07 0 0 4.3966568268512231e-07 0 0 4.2119970169745404e-07 0 0 4.3035465662306747e-07 0 0 7.1997351030947205e-08 0 0 6.976610420122673e-08 0 0 7.6609884865659743e-08 0 0 7.4278206871245759e-08 0 0 8.1430587358162502e-08 0 0 7.8993585112245897e-08 0 0 8.6469413216526457e-08 0 0 8.3922112090862559e-08 0 0 9.1736411794568524e-08 0 0 8.9073754940602746e-08 0 0 9.7241820768272436e-08 0 0 9.4458668657308538e-08 0 0 1.0299604351988685e-07 0 0 1.000871737325902e-07 0 0 1.0900964919778078e-07 0 0 1.0596975645408312e-07 0 0 6.1313293150699038e-08 0 0 6.3358035708811489e-08 0 0 6.5447634337333717e-08 0 0 6.7583263283502885e-08 0 0 5.9312242943882535e-08 0 0 5.7353730976508589e-08 0 0 5.5436612635321063e-08 0 0 5.3559752689028783e-08 0 0 5.1722025164817593e-08 0 0 4.9922313218737642e-08 0 0 4.6432513498626508e-08 0 0 4.8159508998192797e-08 0 0 4.3081595975361617e-08 0 0 4.474023641313108e-08 0 0 4.1455518797317999e-08 0 0 3.9860939698847093e-08 0 0 3.8296801532521747e-08 0 0 3.6762055002724848e-08 0 0 3.5255658477252308e-08 0 0 3.3776577795010188e-08 0 0 3.2323786066889203e-08 0 0 3.0896263471878292e-08 0 0 2.8112980475078733e-08 0 0 2.9492997047392298e-08 0 0 1.9020589551126169e-08 0 0 2.0265523214431136e-08 0 0 2.1526829522855617e-08 0 0 2.2805474687966711e-08 0 0 2.4102461706335677e-08 0 0 2.541870351225934e-08 0 0 2.6755213861200025e-08 0 0 9.5360788003651957e-09 0 0 1.0684297248766655e-08 0 0 1.184130845931648e-08 0 0 1.3008047790181087e-08 0 0 1.4185300625694567e-08 0 0 1.5374314320223172e-08 0 0 1.6575880925963822e-08 0 0 1.7791067085205021e-08 0 0 7.2623289024868661e-09 0 0 8.3957204132126103e-09 0 0 6.13490177493207e-09 0 0 5.0125497816632103e-09 0 0 3.8943480903180694e-09 0 0 2.7793731386560735e-09 0 0 1.6667023528157435e-09 0 0 5.5541386640902855e-10 
</DataArray>
<DataArray type="Float64" Name="water_content" format="ascii">
0.41852701533518799 0.41485595486249122 0.41025487146271622 0.40534490826394454 0.40028224831046166 0.3951572178695183 0.38493814483887956 0.39002889889050196 0.34775796164579365 0.3519841431475127 0.3563373414282448 0.3608166839149719 0.36541976790913988 0.37014220769587214 0.37497704206236826 0.37991394469529183 0.32161525734286955 0.32499867715025599 0.3284941587871133 0.33210495848892774 0.33583414605741457 0.33968451821734202 0.34365849038161678 0.31517103926608392 0.31834052452112216 0.31210334002106865 0.30913397642136603 0.30625953529123218 0.30347666047431032 0.30078206787300099 0.29817255658012953 0.29564501686460526 0.29319643563033748 0.28852459840120998 0.2908238998524354 0.28413496570841307 0.28629582258844316 0.28203952179556591 0.28000708377936934 0.27803534118303985 0.27612207748511436 0.27426516724012479 0.27246257303601057 0.26575751240000656 0.26736156671844402 0.26901260435723284 0.27071234235063169 0.24636318944765492 0.2485176207523247 0.24742624051874412 0.25078906859448424 0.24963824569378584 0.25318532084502332 0.25197108223574388 0.25571482927177636 0.25443286210747407 0.25838677545592781 0.25703239335614875 0.26121114303727677 0.25977924915433465 0.26419879652854045 0.26268384331204803 0.21424386285540806 0.21451292686008386 0.21398104588711689 0.21372433658779683 0.21347359899909601 0.21322870046233056 0.21298951151628559 0.21275590580201051 0.21690827356159093 0.2165837682181091 0.216266761847139 0.21595708341524478 0.21565456634663382 0.21535904833190261 0.21478838078695706 0.21507037118625388 0.2190229611899196 0.21940515506328168 0.21864960158870445 0.2182848694519835 0.21792856361938068 0.21758048842235556 0.21724045350153554 0.22280760177735462 0.22234653493396261 0.22189618805148684 0.22145630060603669 0.22102661971361678 0.22060689982353826 0.21979639589445574 0.22019690244605186 0.22635885942263223 0.22691608562144897 0.22581475095339529 0.22528342664594722 0.22476456339961995 0.22425784813485633 0.22376297739951939 0.22327965703309843 0.23188997348594598 0.23121438980040693 0.23055502529186395 0.22991144527809992 0.22928322964484538 0.22866997224947072 0.227486774001222 0.22807128034299229 0.23711308027010392 0.2379360408540451 0.23631042467996499 0.23552749692719943 0.23476374051970389 0.23401861875878718 0.23329161387970654 0.23258222624133068 0.24532758796038198 0.24431859074789777 0.24333538528209925 0.24237719031736188 0.24144325438074615 0.24053285446118519 0.23877990521890949 0.23964529472211404 0.20566389388119438 0.20571908563745983 0.20561022190740824 0.20555803485880486 0.20550729868562417 0.2054579800528768 0.2054100463280312 0.20621977877959219 0.20615107728747062 0.20608420370955688 0.20601911654762081 0.20595577520982927 0.20589413994702521 0.20577583281407832 0.20583417183741176 0.20675554976545293 0.20684047995989491 0.20667281329206932 0.20659222135524652 0.20651372576303928 0.20643727936433529 0.20636283602943839 0.20629035058285672 0.2076051531312755 0.20750077226207489 0.20739901815471654 0.20729983261501683 0.20720315866502234 0.2071089405057204 0.20692765410706407 0.20701712349227763 0.20841452345964873 0.20854216776713169 0.20829001840587219 0.20816858369882218 0.208050151881565 0.20793465691067536 0.20782203412398448 0.20771222019331129 0.20952968618307738 0.20937800840270832 0.20922999584288177 0.20908556841866749 0.20894464778001065 0.20867302171830518 0.20880715723440965 0.21070116592560534 0.21088526996177098 0.21052143528110517 0.2103459824671943 0.21017471399616089 0.21000753849099685 0.20984436663017914 0.20968511103065188 0.21252775996699541 0.21230495357451473 0.21208736901648986 0.21187489142971763 0.21166740861531891 0.21146481096126912 0.21107384513043773 0.21126699136787797 0.20483720635423003 0.20480756110221937 0.20489938536568297 0.20486780705513671 0.20496556636378604 0.20493196402405189 0.20503593843945045 0.20500021632222409 0.20511070040201723 0.20507275787201229 0.20519006106680782 0.20514979244646336 0.20527423956244856 0.20523153397878038 0.20536346564903718 0.20531820687254093 0.20469811130624616 0.20472414500014099 0.20475105116565639 0.2047788497126386 0.20467293071851245 0.20464858440866501 0.20462505407876524 0.20460232195454553 0.20458037077892427 0.20455918380569887 0.20451903799940518 0.20453874479341433 0.20448176055494946 0.20450004817400896 0.20446416086188779 0.20444723529113998 0.20443097051055942 0.20441535365458335 0.20440037231944119 0.20438601455852479 0.20437226887791879 0.20435912423209041 0.20433459607979676 0.20434657001973786 0.20426626339397905 0.20427442371006374 0.20428310519513659 0.20429231502729445 0.20430206080788535 0.20431235055121499 0.20432319268760346 0.20421901713190377 0.20422321736054927 0.20422789603509911 0.20423305708653766 0.20423870481305884 0.20424484394522052 0.20425147964778004 0.20425861748268731 0.20421203826640816 0.20421529181559744 0.20420925374164836 0.20420693590009692 0.20420508278567323 0.20420369283437922 0.20420276487368944 0.20420229812209342 
</DataArray>
<DataArray type="Float64" Name="conductivity_richards" format="ascii">