<?xml version="1.0"?>
<VTKFile type="UnstructuredGrid" version="0.1" byte_order="LittleEndian">
<UnstructuredGrid>
<Piece NumberOfPoints="251" NumberOfCells="250">
<Points>
<DataArray type="Float64" NumberOfComponents="3" format="ascii">
0 0 0 0 0 -0.25 0 0 -0.00099999999999810158 0 0 -0.001999999999996204 0 0 -0.0029999999999943271 0 0 -0.0039999999999924488 0 0 -0.004999999999990571 0 0 -0.0059999999999886811 0 0 -0.0069999999999867156 0 0 -0.007999999999984719 0 0 -0.008999999999982581 0 0 -0.0099999999999804221 0 0 -0.010999999999978201 0 0 -0.011999999999975971 0 0 -0.01299999999997375 0 0 -0.01399999999997158 0 0 -0.014999999999969531 0 0 -0.01599999999996761 0 0 -0.0169999999999659 0 0 -0.01799999999996427 0 0 -0.018999999999962731 0 0 -0.019999999999961209 0 0 -0.020999999999959669 0 0 -0.02199999999995814 0 0 -0.022999999999956611 0 0 -0.023999999999955082 0 0 -0.024999999999953549 0 0 -0.02599999999995202 0 0 -0.02699999999995048 0 0 -0.027999999999948951 0 0 -0.028999999999947419 0 0 -0.02999999999994565 0 0 -0.03099999999994377 0 0 -0.031999999999941367 0 0 -0.032999999999938787 0 0 -0.033999999999935943 0 0 -0.034999999999933022 0 0 -0.035999999999930102 0 0 -0.036999999999927188 0 0 -0.037999999999924268 0 0 -0.038999999999921348 0 0 -0.039999999999918427 0 0 -0.040999999999915507 0 0 -0.041999999999912593 0 0 -0.042999999999909673 0 0 -0.043999999999906753 0 0 -0.044999999999903832 0 0 -0.045999999999900919 0 0 -0.046999999999897998 0 0 -0.047999999999895078 0 0 -0.048999999999892158 0 0 -0.049999999999889237 0 0 -0.050999999999886317 0 0 -0.051999999999883403 0 0 -0.052999999999880483 0 0 -0.053999999999877563 0 0 -0.054999999999874642 0 0 -0.055999999999871722 0 0 -0.056999999999868801 0 0 -0.057999999999865881 0 0 -0.058999999999862961 0 0 -0.059999999999860047 0 0 -0.060999999999857127 0 0 -0.061999999999854213 0 0 -0.062999999999851286 0 0 -0.063999999999848373 0 0 -0.064999999999845445 0 0 -0.065999999999842532 0 0 -0.066999999999839618 0 0 -0.067999999999836705 0 0 -0.068999999999833792 0 0 -0.069999999999830878 0 0 -0.070999999999827965 0 0 -0.071999999999825051 0 0 -0.072999999999822124 0 0 -0.07399999999981921 0 0 -0.074999999999816297 0 0 -0.075999999999813383 0 0 -0.07699999999981047 0 0 -0.077999999999807557 0 0 -0.078999999999804643 0 0 -0.07999999999980173 0 0 -0.080999999999798802 0 0 -0.081999999999795889 0 0 -0.082999999999792975 0 0 -0.083999999999790062 0 0 -0.084999999999787149 0 0 -0.085999999999784235 0 0 -0.086999999999781322 0 0 -0.087999999999778394 0 0 -0.088999999999775481 0 0 -0.089999999999772567 0 0 -0.090999999999769654 0 0 -0.091999999999766741 0 0 -0.092999999999763827 0 0 -0.093999999999760914 0 0 -0.094999999999758 0 0 -0.095999999999755073 0 0 -0.096999999999752159 0 0 -0.097999999999749246 0 0 -0.098999999999746333 0 0 -0.099999999999743419 0 0 -0.10099999999974051 0 0 -0.10199999999973761 0 0 -0.10299999999973471 0 0 -0.10399999999973179 0 0 -0.1049999999997288 0 0 -0.1059999999997259 0 0 -0.106999999999723 0 0 -0.1079999999997201 0 0 -0.1089999999997172 0 0 -0.1099999999997143 0 0 -0.1109999999997113 0 0 -0.1119999999997084 0 0 -0.1129999999997055 0 0 -0.1139999999997026 0 0 -0.1149999999996997 0 0 -0.1159999999996968 0 0 -0.11699999999969379 0 0 -0.11799999999969089 0 0 -0.11899999999968799 0 0 -0.11999999999968509 0 0 -0.1209999999996822 0 0 -0.1219999999996793 0 0 -0.1229999999996764 0 0 -0.1239999999996748 0 0 -0.12499999999967321 0 0 -0.12599999999967451 0 0 -0.12699999999967579 0 0 -0.1279999999996784 0 0 -0.12899999999968109 0 0 -0.1299999999996837 0 0 -0.13099999999968631 0 0 -0.13199999999968889 0 0 -0.13299999999969159 0 0 -0.1339999999996942 0 0 -0.13499999999969689 0 0 -0.1359999999996995 0 0 -0.13699999999970211 0 0 -0.1379999999997048 0 0 -0.13899999999970741 0 0 -0.13999999999971011 0 0 -0.14099999999971269 0 0 -0.1419999999997153 0 0 -0.14299999999971799 0 0 -0.1439999999997206 0 0 -0.14499999999972321 0 0 -0.14599999999972579 0 0 -0.14699999999972849 0 0 -0.1479999999997311 0 0 -0.14899999999973379 0 0 -0.1499999999997364 0 0 -0.15099999999973901 0 0 -0.1519999999997417 0 0 -0.15299999999974431 0 0 -0.15399999999974701 0 0 -0.15499999999974959 0 0 -0.1559999999997522 0 0 -0.15699999999975489 0 0 -0.1579999999997575 0 0 -0.15899999999976011 0 0 -0.1599999999997628 0 0 -0.16099999999976539 0 0 -0.161999999999768 0 0 -0.16299999999977069 0 0 -0.1639999999997733 0 0 -0.16499999999977599 0 0 -0.1659999999997786 0 0 -0.16699999999978121 0 0 -0.16799999999978391 0 0 -0.16899999999978649 0 0 -0.1699999999997891 0 0 -0.17099999999979171 0 0 -0.1719999999997944 0 0 -0.17299999999979701 0 0 -0.1739999999997997 0 0 -0.17499999999980231 0 0 -0.17599999999980501 0 0 -0.17699999999980759 0 0 -0.1779999999998102 0 0 -0.17899999999981281 0 0 -0.1799999999998155 0 0 -0.18099999999981811 0 0 -0.18199999999982069 0 0 -0.18299999999982339 0 0 -0.183999999999826 0 0 -0.18499999999982869 0 0 -0.1859999999998313 0 0 -0.18699999999983391 0 0 -0.1879999999998366 0 0 -0.18899999999983921 0 0 -0.18999999999984191 0 0 -0.19099999999984449 0 0 -0.1919999999998471 0 0 -0.19299999999984971 0 0 -0.1939999999998524 0 0 -0.19499999999985501 0 0 -0.1959999999998577 0 0 -0.19699999999986029 0 0 -0.19799999999986301 0 0 -0.19899999999986559 0 0 -0.1999999999998682 0 0 -0.20099999999987081 0 0 -0.2019999999998735 0 0 -0.20299999999987611 0 0 -0.20399999999987881 0 0 -0.20499999999988139 0 0 -0.205999999999884 0 0 -0.20699999999988669 0 0 -0.2079999999998893 0 0 -0.20899999999989191 0 0 -0.2099999999998946 0 0 -0.21099999999989719 0 0 -0.21199999999989991 0 0 -0.21299999999990249 0 0 -0.2139999999999051 0 0 -0.21499999999990771 0 0 -0.2159999999999104 0 0 -0.21699999999991301 0 0 -0.21799999999991571 0 0 -0.21899999999991829 0 0 -0.2199999999999209 0 0 -0.22099999999992359 0 0 -0.2219999999999262 0 0 -0.22299999999992881 0 0 -0.22399999999993139 0 0 -0.22499999999993411 0 0 -0.2259999999999367 0 0 -0.22699999999993939 0 0 -0.227999999999942 0 0 -0.22899999999994469 0 0 -0.2299999999999473 0 0 -0.23099999999994991 0 0 -0.23199999999995249 0 0 -0.23299999999995519 0 0 -0.2339999999999578 0 0 -0.23499999999996049 0 0 -0.2359999999999631 0 0 -0.23699999999996571 0 0 -0.2379999999999684 0 0 -0.23899999999997101 0 0 -0.2399999999999736 0 0 -0.24099999999997629 0 0 -0.2419999999999789 0 0 -0.24299999999998159 0 0 -0.2439999999999842 0 0 -0.24499999999998681 0 0 -0.24599999999998939 0 0 -0.24699999999999209 0 0 -0.2479999999999947 0 0 -0.24899999999999739 
</DataArray>
</Points>
<Cells>
<DataArray type="UInt32" Name="connectivity" format="ascii">
0 2 2 3 3 4 4 5 5 6 6 7 7 8 8 9 9 10 10 11 11 12 12 13 13 14 14 15 15 16 16 17 17 18 18 19 19 20 20 21 21 22 22 23 23 24 24 25 25 26 26 27 27 28 28 29 29 30 30 31 31 32 32 33 33 34 34 35 35 36 36 37 37 38 38 39 39 40 40 41 41 42 42 43 43 44 44 45 45 46 46 47 47 48 48 49 49 50 50 51 51 52 52 53 53 54 54 55 55 56 56 57 57 58 58 59 59 60 60 61 61 62 62 63 63 64 64 65 65 66 66 67 67 68 68 69 69 70 70 71 71 72 72 73 73 74 74 75 75 76 76 77 77 78 78 79 79 80 80 81 81 82 82 83 83 84 84 85 85 86 86 87 87 88 88 89 89 90 90 91 91 92 92 93 93 94 94 95 95 96 96 97 97 98 98 99 99 100 100 101 101 102 102 103 103 104 104 105 105 106 106 107 107 108 108 109 109 110 110 111 111 112 112 113 113 114 114 115 115 116 116 117 117 118 118 119 119 120 120 121 121 122 122 123 123 124 124 125 125 126 126 127 127 128 128 129 129 130 130 131 131 132 132 133 133 134 134 135 135 136 136 137 137 138 138 139 139 140 140 141 141 142 142 143 143 144 144 145 145 146 146 147 147 148 148 149 149 150 150 151 151 152 152 153 153 154 154 155 155 156 156 157 157 158 158 159 159 160 160 161 161 162 162 163 163 164 164 165 165 166 166 167 167 168 168 169 169 170 170 171 171 172 172 173 173 174 174 175 175 176 176 177 177 178 178 179 179 180 180 181 181 182 182 183 183 184 184 185 185 186 186 187 187 188 188 189 189 190 190 191 191 192 192 193 193 194 194 195 195 196 196 197 197 198 198 199 199 200 200 201 201 202 202 203 203 204 204 205 205 206 206 207 207 208 208 209 209 210 210 211 211 212 212 213 213 214 214 215 215 216 216 217 217 218 218 219 219 220 220 221 221 222 222 223 223 224 224 225 225 226 226 227 227 228 228 229 229 230 230 231 231 232 232 233 233 234 234 235 235 236 236 237 237 238 238 239 239 240 240 241 241 242 242 243 243 244 244 245 245 246 246 247 247 248 248 249 249 250 250 1 
</DataArray>
<DataArray type="UInt32" Name="offsets" format="ascii">
2 4 6 8 10 12 14 16 18 20 22 24 26 28 30 32 34 36 38 40 42 44 46 48 50 52 54 56 58 60 62 64 66 68 70 72 74 76 78 80 82 84 86 88 90 92 94 96 98 100 102 104 106 108 110 112 114 116 118 120 122 124 126 128 130 132 134 136 138 140 142 144 146 148 150 152 154 156 158 160 162 164 166 168 170 172 174 176 178 180 182 184 186 188 190 192 194 196 198 200 202 204 206 208 210 212 214 216 218 220 222 224 226 228 230 232 234 236 238 240 242 244 246 248 250 252 254 256 258 260 262 264 266 268 270 272 274 276 278 280 282 284 286 288 290 292 294 296 298 300 302 304 306 308 310 312 314 316 318 320 322 324 326 328 330 332 334 336 338 340 342 344 346 348 350 352 354 356 358 360 362 364 366 368 370 372 374 376 378 380 382 384 386 388 390 392 394 396 398 400 402 404 406 408 410 412 414 416 418 420 422 424 426 428 430 432 434 436 438 440 442 444 446 448 450 452 454 456 458 460 462 464 466 468 470 472 474 476 478 480 482 484 486 488 490 492 494 496 498 500 
</DataArray>
<DataArray type="UInt32" Name="types" format="ascii">
3 3 3 3 3 3 3 3 3 3 3 3 3 3 3 3 3 3 3 3 3 3 3 3 3 3 3 3 3 3 3 3 3 3 3 3 3 3 3 3 3 3 3 3 3 3 3 3 3 3 3 3 3 3 3 3 3 3 3 3 3 3 3 3 3 3 3 3 3 3 3 3 3 3 3 3 3 3 3 3 3 3 3 3 3 3 3 3 3 3 3 3 3 3 3 3 3 3 3 3 3 3 3 3 3 3 3 3 3 3 3 3 3 3 3 3 3 3 3 3 3 3 3 3 3 3 3 3 3 3 3 3 3 3 3 3 3 3 3 3 3 3 3 3 3 3 3 3 3 3 3 3 3 3 3 3 3 3 3 3 3 3 3 3 3 3 3 3 3 3 3 3 3 3 3 3 3 3 3 3 3 3 3 3 3 3 3 3 3 3 3 3 3 3 3 3 3 3 3 3 3 3 3 3 3 3 3 3 3 3 3 3 3 3 3 3 3 3 3 3 3 3 3 3 3 3 3 3 3 3 3 3 3 3 3 3 3 3 3 3 3 3 3 3 3 3 3 3 3 3 
</DataArray>
</Cells>
<CellData Scalars="pressure_p0,saturation,conductivity_out," Vectors="velocity_p0," Tensors="">
<DataArray type="Float64" Name="pressure_p0" format="ascii">
-6446.5940000464052 -6446.4521166911691 -6446.1692876568359 -6445.7453883109574 -6445.1802317324364 -6444.4735687473267 -6443.6250879766631 -6442.634415896433 -6441.5011169097952 -6440.2246934316954 -6438.8045859860395 -6437.2401733156094 -6435.5307725049242 -6433.6756391162926 -6431.6739673393113 -6429.5248901540763 -6427.2274795084068 -6424.7807465094174 -6422.1836416297701 -6419.4350549289775 -6416.5338162901426 -6413.4786956725493 -6410.2684033805217 -6406.9015903490217 -6403.3768484464235 -6399.6927107950023 -6395.8476521095999 -6391.8400890550311 -6387.6683806227638 -6383.3308285274452 -6378.8256776238586 -6374.1511163449222 -6369.3052771613329 -6364.2862370635103 -6359.0920180664953 -6353.7205877384622 -6348.169859753536 -6342.4376944696232 -6336.521899531951 -6330.4202305030649 -6324.1303915200151 -6317.6500359794918 -6310.9767672516664 -6304.1081394235262 -6297.0416580724832 -6289.7747810710553 -6282.3049194234318 -6274.6294381347252 -6266.7456571137482 -6258.6508521101277 -6250.3422556866017 -6241.817058227336 -6233.0724089830946 -6224.1054171541227 -6214.9131530115792 -6205.4926490583748 -6195.8409012302673 -6185.9548701380536 -6175.8314823517121 -6165.4676317273352 -6154.8601807776995 -6144.0059620872798 -6132.9017797725837 -6121.5444109885757 -6109.9306074820379 -6098.0570971926409 -6085.9205859025387 -6073.5177589352434 -6060.8452829045546 -6047.8998075142817 -6034.6779674095014 -6021.1763840800504 -6007.3916678169344 -5993.3204197223586 -5978.959233773995 -5964.3046989441191 -5949.353401374211 -5934.1019266056001 -5918.5468618666782 -5902.6847984172036 -5886.5123339501533 -5870.0260750515954 -5853.2226397189506 -5836.0986599380376 -5818.6507843192167 -5800.8756807929185 -5782.7700393648029 -5764.3305749307383 -5745.5540301517531 -5726.4371783890583 -5706.9768266991887 -5687.1698188892497 -5667.0130386322053 -5646.5034126420987 -5625.6379139090222 -5604.4135649935679 -5582.8274413804866 -5560.876674891153 -5538.5584571544059 -5515.8700431352408 -5492.8087547207706 -5469.3719843627778 -5445.5571987761241 -5421.3619426921878 -5396.7838426664111 -5371.8206109389712 -5346.4700493474811 -5320.730053290561 -5294.5986157409825 -5268.0738313070324 -5241.1539003406433 -5213.8371330907066 -5186.1219538998794 -5158.0069054431478 -5129.4906530062181 -5100.5719888017375 -5071.2498363212471 -5041.5232547205878 -5011.39144323644 -4980.8537456314925 -4949.9096546656074 -4918.5588165902718 -4886.8010356634277 -4854.6362786816671 -4822.0646795266894 -4789.0865437226021 -4755.7023530007882 -4721.9127698685916 -4687.718642178078 -4653.1210076911184 -4618.121098636524 -4582.7203462551697 -4546.9203853286344 -4510.7230586867981 -4474.1304216896569 -4437.1447466784502 -4399.7685273909938 -4362.0044833359443 -4323.8555641205257 -4285.3249537260481 -4246.4160747253773 -4207.1325924362973 -4167.4784190044911 -4127.4577174097285 -4087.0749053885147 -4046.3346592663779 -4005.2419176926505 -3963.8018852704508 -3922.0200360742874 -3879.9021170475162 -3837.4541512716532 -3794.682441099254 -3751.5935711419233 -3708.1944111046678 -3664.4921184576388 -3620.494140936024 -3576.2082188585796 -3531.6423872550849 -3486.804977792659 -3441.7046204906792 -3396.3502452137545 -3350.7510829318999 -3304.9166667368117 -3258.8568326028708 -3212.5817198811601 -3166.1017715145626 -3119.4277339616724 -3072.5706568169562 -3025.5418921143473 -2978.3530933010825 -2931.0162138683563 -2883.5435056250426 -2835.9475166004077 -2788.2410885614468 -2740.4373541301779 -2692.549733485901 -2644.5919306371297 -2596.57792924759 -2548.5219880003706 -2500.4386354840267 -2452.3426645840927 -2404.2491263631846 -2356.1733234125786 -2308.1308026578636 -2260.1373476009385 -2212.2089699803983 -2164.3619008320493 -2116.6125809310315 -2068.9776505968007 -2021.4739388419393 -1974.1184518455793 -1926.9283607319887 -1879.9209886346789 -1833.1137970262484 -1786.5243712939805 -1740.1704055411108 -1694.0696865935956 -1648.2400771921098 -1602.6994983489974 -1557.4659108498658 -1512.5572958795578 -1467.9916347523476 -1423.7868877262636 -1379.9609718816439 -1336.5317380442489 -1293.5169467334993 -1250.9342431167254 -1208.8011309507069 -1167.1349454921383 -1125.9528253591693 -1085.2716833266625 -1045.1081760382908 -1005.4786726192053 -966.39922217348851 -927.88552015112532 -889.95287356965559 -852.61616507592419 -815.88981583342786 -779.78774722052776 -744.32334132407129 -709.50940021163808 -675.35810396341424 -641.88096744120412 -609.08879576701474 -576.99163847624334 -545.59874230002015 -514.91850251657229 -484.95841279112494 -455.72501339565395 -427.2238376609161 -399.45935645955564 -372.4349204448846 -346.15269966697099 -320.61362004382727 -295.81729596300931 -271.76195800101016 -248.44437433318865 -225.85976380071293 -204.00169769809492 -182.86198596978096 -162.43054135299673 -142.69521152629207 -123.64156347042199 -105.25259389279992 -87.508320040983875 -70.385165213330708 -53.854961325078847 -37.883140627540058 -22.424777272539814 -7.4087616932003639 
</DataArray>
<DataArray type="Float64" Name="velocity_p0" NumberOfComponents="3" format="ascii">
0 0 1.0195614133168094e-09 0 0 3.0591829826524235e-09 0 0 5.1003006147464201e-09 0 0 7.1439115203997257e-09 0 0 9.1910130496550304e-09 0 0 1.1242602746727999e-08 0 0 1.3299678405027127e-08 0 0 1.5363238121572792e-08 0 0 1.7434280351160543e-08 0 0 1.9513803959670047e-08 0 0 2.1602808277172676e-08 0 0 2.3702293150059934e-08 0 0 2.581325899271648e-08 0 0 2.7936706837846329e-08 0 0 3.0073638386451085e-08 0 0 3.222505605644982e-08 0 0 3.4391963030451443e-08 0 0 3.6575363302243089e-08 0 0 3.8776261722370076e-08 0 0 4.0995664041930438e-08 0 0 4.3234576955560824e-08 0 0 4.5494008142894835e-08 0 0 4.7774966308306505e-08 0 0 5.0078461219414208e-08 0 0 5.2405503744105338e-08 0 0 5.4757105885527758e-08 0 0 5.7134280815781651e-08 0 0 5.9538042907784255e-08 0 0 6.1969407765219899e-08 0 0 6.442939225101834e-08 0 0 6.6919014513308123e-08 0 0 6.9439294010372684e-08 0 0 7.1991251532851205e-08 0 0 7.4575909224534941e-08 0 0 7.7194290600597846e-08 0 0 7.9847420564478534e-08 0 0 8.2536325422047037e-08 0 0 8.5262032894081045e-08 0 0 8.802557212657427e-08 0 0 9.0827973698740089e-08 0 0 9.3670269629065973e-08 0 0 9.6553493378995925e-08 0 0 9.9478679854865488e-08 0 0 1.0244686540709909e-07 0 0 1.0545908782766196e-07 0 0 1.0851638634517817e-07 0 0 1.1161980161788548e-07 0 0 1.1477037572437604e-07 0 0 1.1796915215217483e-07 0 0 1.2121717578444478e-07 0 0 1.2451549288384692e-07 0 0 1.278651510752115e-07 0 0 1.3126719932522157e-07 0 0 1.3472268792062898e-07 0 0 1.382326684441849e-07 0 0 1.4179819374833997e-07 0 0 1.4542031792718267e-07 0 0 1.4910009628623415e-07 0 0 1.5283858531051152e-07 0 0 1.5663684263017773e-07 0 0 1.6049592698495779e-07 0 0 1.6441689818622735e-07 0 0 1.6840081707723924e-07 0 0 1.7244874549191972e-07 0 0 1.7656174621164089e-07 0 0 1.8074088292055979e-07 0 0 1.8498722015874574e-07 0 0 1.8930182327453781e-07 0 0 1.9368575837454153e-07 0 0 1.9814009227261156e-07 0 0 2.0266589243682601e-07 0 0 2.0726422693582579e-07 0 0 2.1193616438302378e-07 0 0 2.1668277387960968e-07 0 0 2.215051249566037e-07 0 0 2.2640428751528548e-07 0 0 2.3138133176656324e-07 0 0 2.3643732816913754e-07 0 0 2.4157334736639112e-07 0 0 2.467904601225297e-07 0 0 2.5208973725722228e-07 0 0 2.5747224957940791e-07 0 0 2.629390678204161e-07 0 0 2.6849126256538763e-07 0 0 2.7412990418454847e-07 0 0 2.7985606276285368e-07 0 0 2.8567080802945457e-07 0 0 2.9157520928559331e-07 0 0 2.9757033533219646e-07 0 0 3.0365725439600347e-07 0 0 3.0983703405546357e-07 0 0 3.1611074116537051e-07 0 0 3.2247944178088359e-07 0 0 3.2894420108014009e-07 0 0 3.3550608328660487e-07 0 0 3.4216615159021464e-07 0 0 3.4892546806733611e-07 0 0 3.5578509360003599e-07 0 0 3.6274608779411026e-07 0 0 3.6980950889591767e-07 0 0 3.7697641370815855e-07 0 0 3.8424785750435558e-07 0 0 3.9162489394176318e-07 0 0 3.9910857497297107e-07 0 0 4.0669995075591813e-07 0 0 4.1440006956203107e-07 0 0 4.2220997768265439e-07 0 0 4.3013071933319107e-07 0 0 4.38163336555515e-07 0 0 4.4630886911746521e-07 0 0 4.5456835440996155e-07 0 0 4.6294282734123106e-07 0 0 4.7143332022845993e-07 0 0 4.8004086268500471e-07 0 0 4.8876648150525054e-07 0 0 4.9761120054446609e-07 0 0 5.0657604059516014e-07 0 0 5.156620192584529e-07 0 0 5.2487015081027508e-07 0 0 5.3420144606251988e-07 0 0 5.4365691221802666e-07 0 0 5.5323755271936593e-07 0 0 5.629443670904151e-07 0 0 5.7277835077096798e-07 0 0 5.8274049494304507e-07 0 0 5.9283178634828763e-07 0 0 6.0305320709649048e-07 0 0 6.1340573446361551e-07 0 0 6.2389034067923209e-07 0 0 6.3450799270206813e-07 0 0 6.4525965198313193e-07 0 0 6.5614627421505711e-07 0 0 6.6716880906705005e-07 0 0 6.7832819990417214e-07 0 0 6.8962538348979097e-07 0 0 7.0106128966983452e-07 0 0 7.1263684103778273e-07 0 0 7.2435295257900463e-07 0 0 7.3621053129249786e-07 0 0 7.4821047578872053e-07 0 0 7.6035367586197815e-07 0 0 7.7264101203519203e-07 0 0 7.8507335507501231e-07 0 0 7.9765156547564326e-07 0 0 8.1037649290859802e-07 0 0 8.232489756362776e-07 0 0 8.3626983988696812e-07 0 0 8.494398991877049e-07 0 0 8.6275995365323765e-07 0 0 8.7623078922694274e-07 0 0 8.8985317687075678e-07 0 0 9.0362787170081421e-07 0 0 9.1755561206406834e-07 0 0 9.3163711855273609e-07 0 0 9.4587309295136362e-07 0 0 9.602642171124136e-07 0 0 9.7481115175477081e-07 0 0 9.8951453517993109e-07 0 0 1.0043749819002904e-06 0 0 1.0193930811727063e-06 0 0 1.034569395431362e-06 0 0 1.0499044586116181e-06 0 0 1.0653987743586066e-06 0 0 1.08105281411094e-06 0 0 1.096867015051242e-06 0 0 1.112841777913773e-06 0 0 1.1289774646390729e-06 0 0 1.145274395863926e-06 0 0 1.1617328482356939e-06 0 0 1.1783530515369465e-06 0 0 1.195135185608153e-06 0 0 1.2120793770518641e-06 0 0 1.2291856957037492e-06 0 0 1.2464541508528675e-06 0 0 1.2638846871919389e-06 0 0 1.2814771804788508e-06 0 0 1.2992314328866896e-06 0 0 1.3171471680198323e-06 0 0 1.3352240255706128e-06 0 0 1.3534615555892434e-06 0 0 1.3718592123389997e-06 0 0 1.3904163477034776e-06 0 0 1.4091322041128999e-06 0 0 1.4280059069530965e-06 0 0 1.4470364564160952e-06 0 0 1.4662227187509969e-06 0 0 1.4855634168678112e-06 0 0 1.5050571202446992e-06 0 0 1.5247022340843478e-06 0 0 1.5444969876616335e-06 0 0 1.564439421798741e-06 0 0 1.5845273754005146e-06 0 0 1.6047584709758664e-06 0 0 1.6251300990661299e-06 0 0 1.6456394014951289e-06 0 0 1.6662832533475882e-06 0 0 1.6870582435774755e-06 0 0 1.7079606541380854e-06 0 0 1.7289864375186456e-06 0 0 1.7501311925634561e-06 0 0 1.7713901384398165e-06 0 0 1.7927580866112006e-06 0 0 1.8142294106635786e-06 0 0 1.8357980138195172e-06 0 0 1.8574572939662829e-06 0 0 1.8792001060115373e-06 0 0 1.9010187213700515e-06 0 0 1.9229047843727523e-06 0 0 1.9448492653803837e-06 0 0 1.9668424103727168e-06 0 0 1.9888736867770534e-06 0 0 2.0109317252923393e-06 0 0 2.0330042574623961e-06 0 0 2.0550780487497792e-06 0 0 2.0771388268690744e-06 0 0 2.0991712051471362e-06 0 0 2.1211586006998371e-06 0 0 2.1430831472441732e-06 0 0 2.1649256024110487e-06 0 0 2.1866652494862979e-06 0 0 2.2082797935949284e-06 0 0 2.2297452524582637e-06 0 0 2.2510358420070803e-06 0 0 2.2721238573323396e-06 0 0 2.2929795497122032e-06 0 0 2.3135710007848942e-06 0 0 2.333863995358337e-06 0 0 2.3538218948843111e-06 0 0 2.3734055143056361e-06 0 0 2.3925730058448501e-06 0 0 2.4112797543910888e-06 0 0 2.4294782905157135e-06 0 0 2.4471182288845771e-06 0 0 2.4641462420385867e-06 0 0 2.480506082319351e-06 0 0 2.4961386683136984e-06 0 0 2.5109822568503476e-06 0 0 2.5249727277006786e-06 0 0 2.53804401633325e-06 0 0 2.550128741348374e-06 0 0 2.5611590892817518e-06 0 0 2.5710680434055421e-06 0 0 2.5797910809086928e-06 0 0 2.587268526687489e-06 0 0 2.5934488695714128e-06 0 0 2.5982935875323343e-06 0 0 2.6017845935660358e-06 0 0 2.6039370249723428e-06 0 0 2.6048264512549586e-06 0 0 2.6047081139252631e-06 
</DataArray>
<DataArray type="Float64" Name="saturation" format="ascii">
0.48774850162340921 0.48775054739365298 0.48775462557804955 0.48776073830040639 0.48776888874645968 0.4877790811645572 0.48779132086656996 0.4878056142290324 0.48782196869451272 0.48784039277321328 0.48786089604480332 0.48788348916048441 0.48790818384529111 0.48793499290062792 0.48796393020704437 0.48799501072725038 0.48802825050937498 0.48806366669046952 0.48810127750025878 0.48814110226514296 0.48818316141245294 0.48822747647496323 0.4882740700956647 0.48832296603280168 0.48837418916517761 0.48842776549773287 0.48848372216739883 0.48854208744923416 0.48860289076284724 0.48866616267911023 0.48873193492716993 0.48880024040176195 0.48887111317083398 0.4889445884834836 0.48902070277821885 0.48909949369154726 0.48918100006690185 0.48926526196391018 0.48935232066801637 0.48944221870046301 0.48953499982864268 0.48963070907682721 0.489729392737286 0.48983109838180106 0.48993587487359169 0.49004377237965757 0.49015484238355289 0.49026913769860325 0.49038671248157678 0.49050762224682365 0.49063192388089594 0.49075967565766337 0.4908909372539374 0.49102576976562123 0.49116423572439927 0.49130639911498364 0.4914523253929341 0.49160208150306961 0.49175573589848953 0.4919133585602235 0.49207502101753042 0.49224079636886653 0.49241075930354461 0.49258498612410573 0.49276355476942835 0.4929465448385969 0.49313403761555663 0.49332611609457921 0.49352286500656717 0.49372437084622511 0.4939307219001261 0.49414200827570431 0.49435832193120488 0.49457975670662435 0.49480640835567408 0.49503837457880429 0.49527575505732269 0.49551865148864771 0.49576716762273498 0.49602140929971839 0.49628148448880777 0.49654750332848874 0.49681957816806932 0.49709782361062244 0.49738235655737262 0.49767329625358059 0.49797076433597709 0.49827488488180388 0.49858578445951818 0.49890359218122271 0.49922843975688247 0.49956046155039435 0.49989979463757783 0.50024657886615631 0.50060095691780382 0.50096307437233178 0.50133307977409869 0.50171112470072132 0.50209736383417702 0.5024919550343856 0.50289505941536428 0.50330684142405357 0.50372746892191511 0.50415711326940782 0.50459594941345176 0.50504415597799479 0.50550191535780353 0.5059694138155999 0.5064468415826765 0.5069343929631267 0.50743226644182804 0.50794066479633126 0.50845979521280549 0.50898986940620305 0.50953110374481148 0.51008371937936836 0.51064794237692235 0.51122400385963351 0.51181214014871101 0.51241259291370023 0.51302560932733632 0.51365144222619419 0.51429035027737446 0.51494259815147569 0.51560845670211353 0.51628820315226531 0.51698212128772014 0.51769050165794295 0.51841364178466187 0.51915184637851031 0.51990542756406899 0.52067470511366887 0.52146000669033477 0.52226166810026586 0.52308003355527144 0.52391545594559585 0.52476829712359319 0.52563892819872837 0.52652772984441221 0.52743509261719657 0.52836141728888264 0.52930711519212803 0.5302726085801599 0.53125833100123687 0.53226472768853106 0.53329225596614049 0.53434138567196843 0.53541259959825371 0.53650639395056743 0.53762327882613747 0.53876377871240144 0.53992843300673932 0.54111779655837822 0.54233244023352045 0.5435729515047889 0.54483993506614836 0.5461340134745134 0.5474558278193169 0.54880603842137599 0.55018532556246147 0.55159439024704171 0.55303395499775032 0.55450476468620047 0.55600758740084588 0.55754321535367812 0.55911246582762575 0.56071618216661889 0.5623552348103702 0.56403052237601603 0.56574297278886654 0.56749354446460532 0.56928322754538574 0.57111304519237494 0.57298405493739779 0.57489735009644305 0.57685406124789207 0.57885535777843744 0.58090244949975767 0.58299658833910351 0.58513907010704658 0.58733123634571216 0.58957447626088699 0.59187022874144413 0.59421998446955282 0.59662528812515303 0.59908774068814341 0.60160900184167154 0.604190792479807 0.60683489732271179 0.60954316764219207 0.61231752410020368 0.61515995970246984 0.61807254286885094 0.62105742062142988 0.62411682189045514 0.62725306093724986 0.6304685408919255 0.63376575740220331 0.63714730238775663 0.64061586789222313 0.64417425002228557 0.64782535295991783 0.65157219302993441 0.65541790280022472 0.65936573518637276 0.66341906752556645 0.66758140557659207 0.67185638739301989 0.6762477870051502 0.68075951783251032 0.68539563573227236 0.69016034156938599 0.69505798317084921 0.70009305649867226 0.7052702058427851 0.71059422279535511 0.71607004372038285 0.72170274537543055 0.72749753827397046 0.73345975729471524 0.73959484894545369 0.74590835456971116 0.75240588864043656 0.75909311111012245 0.76597569257409026 0.77305927074380187 0.78034939640804479 0.78785146666595673 0.79557064272630873 0.80351174895413524 0.81167914907008787 0.82007659441575909 0.82870703791230893 0.83757240564677859 0.84667331575042692 0.85600873112398634 0.86557552819963557 0.87536795762700803 0.88537696337568406 0.89558931222696025 0.90598646225050317 0.91654305942484759 0.92722488133753644 0.93798591358849925 0.9487639708295853 0.95947365354094172 0.96999382088409003 0.98014167410885322 0.98960312698735453 0.9970557733303731 
</DataArray>
<DataArray type="Float64" Name="conductivity_out" format="ascii">