<?xml version="1.0"?>
<VTKFile type="UnstructuredGrid" version="0.1" byte_order="LittleEndian">
<UnstructuredGrid>
<Piece NumberOfPoints="251" NumberOfCells="250">
<Points>
<DataArray type="Float64" NumberOfComponents="3" format="ascii">
0 0 -0.25 0 0 -0.24899999999999739 0 0 -0.2479999999999947 0 0 -0.24699999999999209 0 0 -0.24599999999998939 0 0 -0.24499999999998681 0 0 -0.24299999999998159 0 0 -0.2439999999999842 0 0 -0.23499999999996049 0 0 -0.2359999999999631 0 0 -0.23699999999996571 0 0 -0.2379999999999684 0 0 -0.23899999999997101 0 0 -0.2399999999999736 0 0 -0.24099999999997629 0 0 -0.2419999999999789 0 0 -0.22699999999993939 0 0 -0.227999999999942 0 0 -0.22899999999994469 0 0 -0.2299999999999473 0 0 -0.23099999999994991 0 0 -0.23199999999995249 0 0 -0.23299999999995519 0 0 -0.2339999999999578 0 0 -0.22499999999993411 0 0 -0.2259999999999367 0 0 -0.22399999999993139 0 0 -0.22299999999992881 0 0 -0.2219999999999262 0 0 -0.22099999999992359 0 0 -0.2199999999999209 0 0 -0.21899999999991829 0 0 -0.21799999999991571 0 0 -0.21699999999991301 0 0 -0.21499999999990771 0 0 -0.2159999999999104 0 0 -0.21299999999990249 0 0 -0.2139999999999051 0 0 -0.21199999999989991 0 0 -0.21099999999989719 0 0 -0.2099999999998946 0 0 -0.20899999999989191 0 0 -0.2079999999998893 0 0 -0.20399999999987881 0 0 -0.20499999999988139 0 0 -0.205999999999884 0 0 -0.20699999999988669 0 0 -0.18899999999983921 0 0 -0.1879999999998366 0 0 -0.19099999999984449 0 0 -0.18999999999984191 0 0 -0.19299999999984971 0 0 -0.1919999999998471 0 0 -0.19499999999985501 0 0 -0.1939999999998524 0 0 -0.19699999999986029 0 0 -0.1959999999998577 0 0 -0.19899999999986559 0 0 -0.19799999999986301 0 0 -0.20099999999987081 0 0 -0.1999999999998682 0 0 -0.20299999999987611 0 0 -0.2019999999998735 0 0 -0.13099999999968631 0 0 -0.13199999999968889 0 0 -0.1299999999996837 0 0 -0.12899999999968109 0 0 -0.1279999999996784 0 0 -0.12699999999967579 0 0 -0.12599999999967451 0 0 -0.13999999999971011 0 0 -0.13899999999970741 0 0 -0.1379999999997048 0 0 -0.13699999999970211 0 0 -0.1359999999996995 0 0 -0.13499999999969689 0 0 -0.13299999999969159 0 0 -0.1339999999996942 0 0 -0.14699999999972849 0 0 -0.1479999999997311 0 0 -0.14599999999972579 0 0 -0.14499999999972321 0 0 -0.1439999999997206 0 0 -0.14299999999971799 0 0 -0.1419999999997153 0 0 -0.14099999999971269 0 0 -0.1559999999997522 0 0 -0.15499999999974959 0 0 -0.15399999999974701 0 0 -0.15299999999974431 0 0 -0.1519999999997417 0 0 -0.15099999999973901 0 0 -0.14899999999973379 0 0 -0.1499999999997364 0 0 -0.16299999999977069 0 0 -0.1639999999997733 0 0 -0.161999999999768 0 0 -0.16099999999976539 0 0 -0.1599999999997628 0 0 -0.15899999999976011 0 0 -0.1579999999997575 0 0 -0.15699999999975489 0 0 -0.17099999999979171 0 0 -0.1699999999997891 0 0 -0.16899999999978649 0 0 -0.16799999999978391 0 0 -0.16699999999978121 0 0 -0.16499999999977599 0 0 -0.1659999999997786 0 0 -0.1779999999998102 0 0 -0.17899999999981281 0 0 -0.17699999999980759 0 0 -0.17599999999980501 0 0 -0.17499999999980231 0 0 -0.1739999999997997 0 0 -0.17299999999979701 0 0 -0.1719999999997944 0 0 -0.18699999999983391 0 0 -0.1859999999998313 0 0 -0.18499999999982869 0 0 -0.183999999999826 0 0 -0.18299999999982339 0 0 -0.18199999999982069 0 0 -0.1799999999998155 0 0 -0.18099999999981811 0 0 -0.068999999999833792 0 0 -0.069999999999830878 0 0 -0.067999999999836705 0 0 -0.066999999999839618 0 0 -0.065999999999842532 0 0 -0.064999999999845445 0 0 -0.063999999999848373 0 0 -0.062999999999851286 0 0 -0.077999999999807557 0 0 -0.07699999999981047 0 0 -0.075999999999813383 0 0 -0.074999999999816297 0 0 -0.07399999999981921 0 0 -0.072999999999822124 0 0 -0.070999999999827965 0 0 -0.071999999999825051 0 0 -0.083999999999790062 0 0 -0.084999999999787149 0 0 -0.082999999999792975 0 0 -0.081999999999795889 0 0 -0.080999999999798802 0 0 -0.07999999999980173 0 0 -0.078999999999804643 0 0 -0.092999999999763827 0 0 -0.091999999999766741 0 0 -0.090999999999769654 0 0 -0.089999999999772567 0 0 -0.088999999999775481 0 0 -0.087999999999778394 0 0 -0.085999999999784235 0 0 -0.086999999999781322 0 0 -0.099999999999743419 0 0 -0.10099999999974051 0 0 -0.098999999999746333 0 0 -0.097999999999749246 0 0 -0.096999999999752159 0 0 -0.095999999999755073 0 0 -0.094999999999758 0 0 -0.093999999999760914 0 0 -0.1089999999997172 0 0 -0.1079999999997201 0 0 -0.106999999999723 0 0 -0.1059999999997259 0 0 -0.1049999999997288 0 0 -0.10399999999973179 0 0 -0.10199999999973761 0 0 -0.10299999999973471 0 0 -0.1159999999996968 0 0 -0.11699999999969379 0 0 -0.1149999999996997 0 0 -0.1139999999997026 0 0 -0.1129999999997055 0 0 -0.1119999999997084 0 0 -0.1109999999997113 0 0 -0.1099999999997143 0 0 -0.12499999999967321 0 0 -0.1239999999996748 0 0 -0.1229999999996764 0 0 -0.1219999999996793 0 0 -0.1209999999996822 0 0 -0.11999999999968509 0 0 -0.11799999999969089 0 0 -0.11899999999968799 0 0 -0.047999999999895078 0 0 -0.046999999999897998 0 0 -0.049999999999889237 0 0 -0.048999999999892158 0 0 -0.051999999999883403 0 0 -0.050999999999886317 0 0 -0.053999999999877563 0 0 -0.052999999999880483 0 0 -0.055999999999871722 0 0 -0.054999999999874642 0 0 -0.057999999999865881 0 0 -0.056999999999868801 0 0 -0.059999999999860047 0 0 -0.058999999999862961 0 0 -0.061999999999854213 0 0 -0.060999999999857127 0 0 -0.042999999999909673 0 0 -0.043999999999906753 0 0 -0.044999999999903832 0 0 -0.045999999999900919 0 0 -0.041999999999912593 0 0 -0.040999999999915507 0 0 -0.039999999999918427 0 0 -0.038999999999921348 0 0 -0.037999999999924268 0 0 -0.035999999999930102 0 0 -0.036999999999927188 0 0 -0.033999999999935943 0 0 -0.034999999999933022 0 0 -0.032999999999938787 0 0 -0.031999999999941367 0 0 -0.03099999999994377 0 0 -0.02999999999994565 0 0 -0.028999999999947419 0 0 -0.027999999999948951 0 0 -0.02699999999995048 0 0 -0.02599999999995202 0 0 -0.023999999999955082 0 0 -0.024999999999953549 0 0 -0.01599999999996761 0 0 -0.0169999999999659 0 0 -0.01799999999996427 0 0 -0.018999999999962731 0 0 -0.019999999999961209 0 0 -0.020999999999959669 0 0 -0.02199999999995814 0 0 -0.022999999999956611 0 0 -0.007999999999984719 0 0 -0.008999999999982581 0 0 -0.0099999999999804221 0 0 -0.010999999999978201 0 0 -0.011999999999975971 0 0 -0.01299999999997375 0 0 -0.01399999999997158 0 0 -0.014999999999969531 0 0 -0.0059999999999886811 0 0 -0.0069999999999867156 0 0 -0.004999999999990571 0 0 -0.0039999999999924488 0 0 -0.0029999999999943271 0 0 -0.001999999999996204 0 0 -0.00099999999999810158 0 0 0 
</DataArray>
</Points>
<Cells>
<DataArray type="UInt32" Name="connectivity" format="ascii">
1 0 2 1 3 2 4 3 5 4 7 5 15 6 6 7 23 8 8 9 9 10 10 11 11 12 12 13 13 14 14 15 16 17 17 18 18 19 19 20 20 21 21 22 22 23 24 25 25 16 26 24 27 26 28 27 29 28 30 29 31 30 32 31 33 32 34 35 35 33 36 37 37 34 38 36 39 38 40 39 41 40 42 41 46 42 61 43 43 44 44 45 45 46 48 47 50 49 47 50 52 51 49 52 54 53 51 54 56 55 53 56 58 57 55 58 60 59 57 60 62 61 59 62 63 64 64 76 65 63 66 65 67 66 68 67 69 68 180 69 70 85 71 70 72 71 73 72 74 73 75 74 76 77 77 75 80 78 78 79 81 80 82 81 83 82 84 83 85 84 87 86 88 87 89 88 90 89 91 90 93 91 79 92 92 93 96 94 94 95 97 96 98 97 99 98 100 99 101 100 86 101 102 116 103 102 104 103 105 104 106 105 108 106 95 107 107 108 109 110 110 123 111 109 112 111 113 112 114 113 115 114 116 115 117 48 118 117 119 118 120 119 121 120 122 121 123 124 124 122 127 125 125 126 128 127 129 128 130 129 131 130 132 131 134 133 135 134 136 135 137 136 138 137 140 138 126 139 139 140 141 142 142 154 143 141 144 143 145 144 146 145 147 146 133 147 148 163 149 148 150 149 151 150 152 151 153 152 154 155 155 153 156 157 157 170 158 156 159 158 160 159 161 160 162 161 163 162 165 164 166 165 167 166 168 167 169 168 170 171 171 169 174 172 172 173 175 174 176 175 177 176 178 177 179 178 164 179 181 180 182 181 183 182 184 183 185 184 187 185 173 186 186 187 188 191 189 188 190 193 191 190 192 195 193 192 194 197 195 194 196 199 197 196 198 201 199 198 200 203 201 200 202 132 203 202 204 205 205 206 206 207 207 189 208 204 209 208 210 209 211 210 212 211 214 212 216 213 213 214 217 215 215 216 218 217 219 218 220 219 221 220 222 221 223 222 224 223 226 224 234 225 225 226 227 228 228 229 229 230 230 231 231 232 232 233 233 234 235 236 236 237 237 238 238 239 239 240 240 241 241 242 242 227 243 244 244 235 245 243 246 245 247 246 248 247 249 248 250 249 
</DataArray>
<DataArray type="UInt32" Name="offsets" format="ascii">
2 4 6 8 10 12 14 16 18 20 22 24 26 28 30 32 34 36 38 40 42 44 46 48 50 52 54 56 58 60 62 64 66 68 70 72 74 76 78 80 82 84 86 88 90 92 94 96 98 100 102 104 106 108 110 112 114 116 118 120 122 124 126 128 130 132 134 136 138 140 142 144 146 148 150 152 154 156 158 160 162 164 166 168 170 172 174 176 178 180 182 184 186 188 190 192 194 196 198 200 202 204 206 208 210 212 214 216 218 220 222 224 226 228 230 232 234 236 238 240 242 244 246 248 250 252 254 256 258 260 262 264 266 268 270 272 274 276 278 280 282 284 286 288 290 292 294 296 298 300 302 304 306 308 310 312 314 316 318 320 322 324 326 328 330 332 334 336 338 340 342 344 346 348 350 352 354 356 358 360 362 364 366 368 370 372 374 376 378 380 382 384 386 388 390 392 394 396 398 400 402 404 406 408 410 412 414 416 418 420 422 424 426 428 430 432 434 436 438 440 442 444 446 448 450 452 454 456 458 460 462 464 466 468 470 472 474 476 478 480 482 484 486 488 490 492 494 496 498 500 
</DataArray>
<DataArray type="UInt32" Name="types" format="ascii">
3 3 3 3 3 3 3 3 3 3 3 3 3 3 3 3 3 3 3 3 3 3 3 3 3 3 3 3 3 3 3 3 3 3 3 3 3 3 3 3 3 3 3 3 3 3 3 3 3 3 3 3 3 3 3 3 3 3 3 3 3 3 3 3 3 3 3 3 3 3 3 3 3 3 3 3 3 3 3 3 3 3 3 3 3 3 3 3 3 3 3 3 3 3 3 3 3 3 3 3 3 3 3 3 3 3 3 3 3 3 3 3 3 3 3 3 3 3 3 3 3 3 3 3 3 3 3 3 3 3 3 3 3 3 3 3 3 3 3 3 3 3 3 3 3 3 3 3 3 3 3 3 3 3 3 3 3 3 3 3 3 3 3 3 3 3 3 3 3 3 3 3 3 3 3 3 3 3 3 3 3 3 3 3 3 3 3 3 3 3 3 3 3 3 3 3 3 3 3 3 3 3 3 3 3 3 3 3 3 3 3 3 3 3 3 3 3 3 3 3 3 3 3 3 3 3 3 3 3 3 3 3 3 3 3 3 3 3 3 3 3 3 3 3 3 3 3 3 3 3 
</DataArray>
</Cells>
<CellData Scalars="pressure_p0,water_content,conductivity_richards," Vectors="velocity_p0," Tensors="">
<DataArray type="Float64" Name="pressure_p0" format="ascii">
-6.2771664983909536 -18.96851703411479 -31.965182373063143 -45.316210615301202 -59.05264486906141 -73.198472446100311 -102.79404922873607 -87.773385358803523 -240.38854420849847 -221.41652355521623 -202.96367612382005 -185.02496033324419 -167.59435965970891 -150.66480985734688 -134.22810945608711 -118.2748063450464 -387.97302202829405 -365.29653806373619 -343.15146679177064 -321.53825064795785 -300.45665800575921 -279.90575375329911 -259.88386560799711 -434.9152698785457 -411.17983299713688 -459.17704370580816 -483.96230343522933 -509.2676601233855 -535.08921122196887 -561.42256380661445 -588.26285712069807 -615.60478448693289 -643.4426146279535 -700.58105916222166 -671.77021242814953 -759.62462427843639 -729.86827221066824 -789.84256212994137 -820.51422485133799 -851.63146164921341 -883.18584919359887 -915.1687085122287 -947.57112144231075 -1081.1904591658158 -1047.2032457190494 -1013.5978351923452 -980.38394664561736 -1629.8179641275253 -1553.1063657540703 -1591.3504208630761 -1477.3322612871884 -1515.0966848323876 -1402.5826433133441 -1439.8239650314954 -1328.9441463767607 -1365.6191123187016 -1256.5027345676367 -1292.5684675007174 -1185.3433588639409 -1220.7575321315405 -1115.5495930977797 -1150.2706156161553 -3872.9050983485208 -3837.0179425363076 -3908.5514259597503 -3943.9530161946996 -3979.1060964915378 -4014.0070319293891 -4048.6523237733963 -4083.0386055090435 -3541.7665000656189 -3579.422585519671 -3616.874230269289 -3654.1163781803748 -3691.1441202586702 -3727.9526935940712 -3800.8940069100468 -3764.5374803671293 -3311.8385919478096 -3272.9055021505783 -3350.6068126256851 -3389.2040595399435 -3427.6243796571125 -3465.8619704472112 -3503.9111779571026 -2956.288047754987 -2996.3021511200277 -3036.2056707078091 -3075.9912931551144 -3115.6518543038237 -3155.1803412104418 -3233.8137993182227 -3194.5698926057148 -2673.7383972342896 -2633.1206010643136 -2714.3094004731111 -2754.8251350719729 -2795.2772662604989 -2835.6576007013637 -2875.9580880498024 -2916.1708232032388 -2307.5553946176169 -2348.2262820813212 -2388.9229687814172 -2429.6359397916895 -2470.3557988464627 -2511.0732743321723 -2592.4646260864965 -2551.7792223157635 -2024.4043696894564 -1984.2956024538666 -2064.6189238725437 -2104.9289304895638 -2145.3241432956802 -2185.7944060385362 -2226.3296571714045 -2266.9199379870579 -1668.4981147502276 -1707.3800059825987 -1746.4527924501126 -1785.7056579294031 -1825.1278236072349 -1864.7085548815921 -1944.3030380330388 -1904.4371682509195 -5559.7015318590766 -5542.207484450656 -5576.9052298569814 -5593.8197035657558 -5610.4460965535491 -5626.7855711898483 -5642.8393070736711 -5391.6752157692681 -5411.5296895333049 -5431.0857111314417 -5450.3441901749447 -5469.3060683327421 -5487.9723193987502 -5524.4219835555105 -5506.3439475504929 -5244.2685956855221 -5221.998315945285 -5266.2345515369016 -5287.896763517394 -5309.2558608835207 -5330.3125172696127 -5351.0674487883271 -5371.5214149892417 -5032.8281239920107 -5057.5475021895618 -5081.9598692140389 -5106.0653526664873 -5129.864143270921 -5153.3564936370894 -5199.4231819781762 -5176.5427162627802 -4851.1997189355543 -4824.0279480530398 -4878.065988339089 -4904.6263024069058 -4930.8802859764601 -4956.8276428640775 -4982.4681538139739 -5007.8016725518301 -4625.3273557733037 -4654.6177873547022 -4683.6083043213321 -4712.2978359201697 -4740.6854054304258 -4796.5512114855637 -4768.7701286548418 -4412.007400439019 -4380.3681869018747 -4443.3589038655937 -4474.4207991816784 -4505.1913013207468 -4535.6687310841025 -4565.8515131397417 -4595.7381766814415 -4117.1626424940696 -4151.0213303516775 -4184.6116933228977 -4217.9308825803564 -4250.9761745058422 -4283.7449689335763 -4348.4432735624696 -4316.2347873614917 -5850.1904513100781 -5861.8401691338149 -5826.092170812035 -5838.2748662754911 -5800.9204482678615 -5813.6411160095977 -5774.6652436671739 -5787.9289105185471 -5747.3164833083038 -5761.1281877659094 -5718.8641008424675 -5733.2288725481594 -5689.2980797634973 -5704.2209180182963 -5658.608497527548 -5674.0943490411464 -5905.8049620988259 -5895.2064384467176 -5884.346939470237 -5873.2252560024281 -5916.1437075956492 -5926.2238596471052 -5936.0465894782556 -5945.6130538282123 -5954.9243939736079 -5963.9817347766038 -5981.3388301915502 -5972.7861837574455 -5997.6929760508447 -5989.6407442310538 -6005.4965550190136 -6013.0524888917043 -6020.3617630323251 -6027.4253396550703 -6034.2441570927167 -6040.8191290886652 -6047.1511441131734 -6053.2410647037104 -6064.6979392796311 -6059.0897268294157 -6097.2848028103708 -6093.3394932612719 -6089.1585881904311 -6084.7414841784612 -6080.0875466039652 -6075.1961109109161 -6070.0664830763926 -6120.4277688043076 -6118.349322979112 -6116.038954978223 -6113.4963208769896 -6110.7210450622179 -6107.7127168686475 -6104.4708908596749 -6100.9950890454929 -6123.8901012654833 -6122.2746026481 -6125.2745067849582 -6126.4280265455873 -6127.3508339585978 -6128.0430678908779 -6128.5048325720436 -6128.7361975247186 
</DataArray>
<DataArray type="Float64" Name="velocity_p0" NumberOfComponents="3" format="ascii">
0 0 2.211425540878111e-06 0 0 2.2113901107771058e-06 0 0 2.2107398191785164e-06 0 0 2.2093292398453449e-06 0 0 2.2071090019374092e-06 0 0 2.2040627439773501e-06 0 0 2.1955130685466941e-06 0 0 2.20019272204641e-06 0 0 2.1323473908280946e-06 0 0 2.1424308639833331e-06 0 0 2.1519593008859889e-06 0 0 2.1608976225483979e-06 0 0 2.1692104110972674e-06 0 0 2.1768623078361423e-06 0 0 2.1838185875662919e-06 0 0 2.1900458663717191e-06 0 0 2.0489846810785369e-06 0 0 2.0620483341928136e-06 0 0 2.0747750040492825e-06 0 0 2.0871372360147027e-06 0 0 2.0991064785930772e-06 0 0 2.1106522265825665e-06 0 0 2.1217433055658898e-06 0 0 2.0219496061909833e-06 0 0 2.0356101804129283e-06 0 0 2.0080266154075514e-06 0 0 1.9938634493319289e-06 0 0 1.9794811927795827e-06 0 0 1.9648997622127796e-06 0 0 1.9501379518896958e-06 0 0 1.935213481821681e-06 0 0 1.9201430466057947e-06 0 0 1.9049423644006747e-06 0 0 1.8742085398832759e-06 0 0 1.8896262254739107e-06 0 0 1.8431200453534774e-06 0 0 1.8587023839604328e-06 0 0 1.8274730664556872e-06 0 0 1.8117722861029973e-06 0 0 1.7960278794700815e-06 0 0 1.780249396129305e-06 0 0 1.764445796265867e-06 0 0 1.7486254850647693e-06 0 0 1.6853275820789309e-06 0 0 1.7011406824864075e-06 0 0 1.7169657681819047e-06 0 0 1.7327963453014263e-06 0 0 1.4529187645476506e-06 0 0 1.4831544557061274e-06 0 0 1.4680007619617694e-06 0 0 1.5136672391818299e-06 0 0 1.4983774792769849e-06 0 0 1.5444361510182183e-06 0 0 1.5290211206184574e-06 0 0 1.5754369338103431e-06 0 0 1.5599092043448741e-06 0 0 1.6066418454174171e-06 0 0 1.5910157578883448e-06 0 0 1.6380191417883892e-06 0 0 1.6223110997359677e-06 0 0 1.6695325518469392e-06 0 0 1.6537612921417282e-06 0 0 7.4211246891792111e-07 0 0 7.5196706247262259e-07 0 0 7.3234685428291608e-07 0 0 7.2266977899586335e-07 0 0 7.1308074611069073e-07 0 0 7.0357940145742516e-07 0 0 6.9416523407555253e-07 0 0 6.848377763196046e-07 0 0 8.3405711100003001e-07 0 0 8.2347585310185466e-07 0 0 8.1298678582813068e-07 0 0 8.0258954076362467e-07 0 0 7.9228374216278641e-07 0 0 7.8206899570101174e-07 0 0 7.6191106682713379e-07 0 0 7.7194490640473375e-07 0 0 8.9949992744269465e-07 0 0 9.1073586996503809e-07 0 0 8.8835842494806957e-07 0 0 8.7731108042599427e-07 0 0 8.6635761547223819e-07 0 0 8.5549768485110248e-07 0 0 8.4473091722717282e-07 0 0 1.0040518028910186e-06 0 0 9.9205213321707305e-07 0 0 9.8014855788592532e-07 0 0 9.6834093695140346e-07 0 0 9.5662907452931691e-07 0 0 9.450128593392618e-07 0 0 9.2206651974012788e-07 0 0 9.3349205645921301e-07 0 0 1.0907468998636847e-06 0 0 1.1035174304145756e-06 0 0 1.0780726747273248e-06 0 0 1.0654948302890304e-06 0 0 1.0530134420368662e-06 0 0 1.0406284576775383e-06 0 0 1.0283398932652468e-06 0 0 1.0161476846667914e-06 0 0 1.2091275688381207e-06 0 0 1.1955938226775485e-06 0 0 1.1821543776150529e-06 0 0 1.1688096420747657e-06 0 0 1.1555598944931472e-06 0 0 1.1424056050787255e-06 0 0 1.1163841570725279e-06 0 0 1.1293469599236099e-06 0 0 1.3064577986229857e-06 0 0 1.3207241637781759e-06 0 0 1.2922802650367898e-06 0 0 1.2781924959780447e-06 0 0 1.2641954479781517e-06 0 0 1.2502896930057576e-06 0 0 1.2364760415831404e-06 0 0 1.2227551545026723e-06 0 0 1.4379106672809825e-06 0 0 1.4229785494075747e-06 0 0 1.408124260382024e-06 0 0 1.393349599591451e-06 0 0 1.3786562100725727e-06 0 0 1.3640456144898028e-06 0 0 1.3350783431647382e-06 0 0 1.3495192221112154e-06 0 0 2.7889762231595556e-07 0 0 2.8420837393542883e-07 0 0 2.7363900687900632e-07 0 0 2.6843183443617269e-07 0 0 2.6327537784723573e-07 0 0 2.5816900093442956e-07 0 0 2.5311197116894429e-07 0 0 3.2865359031753827e-07 0 0 3.2290112957278489e-07 0 0 3.1720624954122924e-07 0 0 3.1156827967705179e-07 0 0 3.0598651667455159e-07 0 0 3.0046034389073096e-07 0 0 2.895719521735498e-07 0 0 2.9498905226521922e-07 0 0 3.7058873554591538e-07 0 0 3.7682562562884396e-07 0 0 3.6441468329928391e-07 0 0 3.5830282237370516e-07 0 0 3.52252552300426e-07 0 0 3.462631221700348e-07 0 0 3.4033392542211186e-07 0 0 3.3446429939321717e-07 0 0 4.2905942841247799e-07 0 0 4.2229693835202237e-07 0 0 4.1560234451383636e-07 0 0 4.0897502589660476e-07 0 0 4.024143450445471e-07 0 0 3.9591970078794201e-07 0 0 3.831259969601245e-07 0 0 3.8949044920173679e-07 0 0 4.7834943986352269e-07 0 0 4.8567705191213986e-07 0 0 4.7109457015555186e-07 0 0 4.6391184920597831e-07 0 0 4.5680063871995609e-07 0 0 4.4976042036204212e-07 0 0 4.4279054884598997e-07 0 0 4.3589043238710104e-07 0 0 5.3905623759432598e-07 0 0 5.3120311748680346e-07 0 0 5.2342679120045578e-07 0 0 5.157266914224537e-07 0 0 5.0810223711465397e-07 0 0 4.9307799628275823e-07 0 0 5.0055287279648208e-07 0 0 5.9622509828697518e-07 0 0 6.0471249802833148e-07 0 0 5.8781888094206898e-07 0 0 5.794933127816526e-07 0 0 5.7124795147956964e-07 0 0 5.6308206383057997e-07 0 0 5.5499519864179107e-07 0 0 5.469867148496616e-07 0 0 6.7559655412208194e-07 0 0 6.6644108720470092e-07 0 0 6.5737088927599384e-07 0 0 6.4838546821901828e-07 0 0 6.3948432626593518e-07 0 0 6.3066696016357631e-07 0 0 6.1328160869510394e-07 0 0 6.2193286132882689e-07 0 0 1.8269339258866656e-07 0 0 1.7832845266747274e-07 0 0 1.9153736238337383e-07 0 0 1.8709611565179955e-07 0 0 2.0053837478718567e-07 0 0 1.9601786805621212e-07 0 0 2.097023150059461e-07 0 0 2.0509961329517264e-07 0 0 2.1903502193998843e-07 0 0 2.1434720899166641e-07 0 0 2.285422993778681e-07 0 0 2.2376647812518859e-07 0 0 2.3822991202337425e-07 0 0 2.3336320505729855e-07 0 0 2.481035845909124e-07 0 0 2.4314313460831877e-07 0 0 1.6123161968475765e-07 0 0 1.6545287560147321e-07 0 0 1.6970893099196951e-07 0 0 1.7400055316938961e-07 0 0 1.5704441209477393e-07 0 0 1.528904996664699e-07 0 0 1.4876912725419833e-07 0 0 1.4467953776928465e-07 0 0 1.4062097221791e-07 0 0 1.3659266973967912e-07 0 0 1.2862380146614184e-07 0 0 1.3259386764727822e-07 0 0 1.2076681024517224e-07 0 0 1.2468170497459819e-07 0 0 1.1687834768583081e-07 0 0 1.1301554608192425e-07 0 0 1.0917763263922826e-07 0 0 1.0536383302617342e-07 0 0 1.0157337141798363e-07 0 0 9.7805470540437175e-08 0 0 9.4059351714952305e-08 0 0 9.0334234902076968e-08 0 0 8.294388063286995e-08 0 0 8.662933874871681e-08 0 0 5.7623941370469366e-08 0 0 6.1195343383007387e-08 0 0 6.4780673495377274e-08 0 0 6.8380721893078719e-08 0 0 7.1996290234493658e-08 0 0 7.5628141960091387e-08 0 0 7.9277076709905156e-08 0 0 2.9459047740609634e-08 0 0 3.29475677370334e-08 0 0 3.6443666552345412e-08 0 0 3.994814008431542e-08 0 0 4.3461729289389758e-08 0 0 4.6985337750521251e-08 0 0 5.0519705195666616e-08 0 0 5.4065676385367723e-08 0 0 2.2501573249006866e-08 0 0 2.5977310178079248e-08 0 0 1.9031009692652259e-08 0 0 1.5564836988691023e-08 0 0 1.2102257311349956e-08 0 0 8.6424726031420909e-09 0 0 5.1846846269168775e-09 0 0 1.7280950160799334e-09 
</DataArray>
<DataArray type="Float64" Name="water_content" format="ascii">
0.419023521580832 0.41649147570353418 0.41321753318321874 0.40968614270136139 0.40600290874791534 0.40222954284227441 0.3945661490317432 0.39840740017059972 0.36497494425443755 0.36848276341903707 0.37205567844993304 0.37569020846190426 0.37938171231194939 0.38312411548463166 0.38690955560759455 0.39072791049821987 0.34237381793700283 0.3453899155168354 0.34847666231150037 0.35163452497474812 0.35486368223335574 0.35816396040724918 0.36153475624126813 0.33655057598682731 0.33942766837752014 0.33374149780147827 0.3309992703524729 0.32832263631031455 0.32571026677843179 0.32316078005802717 0.32067275739789208 0.31824475619156545 0.31587532100988169 0.31130631649728646 0.31356299279574906 0.30695415616903432 0.30910384737321017 0.30485583333296651 0.3028074924153723 0.30080777277454085 0.29885534169356398 0.29694889599792651 0.29508716325045015 0.28806302768088576 0.28975799492302767 0.29149290526444921 0.29326890258918942 0.26674909915750122 0.26919987631186804 0.26796129508365263 0.2717590857716099 0.27046555974857295 0.27443274921142413 0.27308121903120092 0.27722728861246759 0.27581449174768025 0.28014955043043455 0.27867200907196676 0.28320682957451582 0.28166083875529602 0.28640689201953007 0.28478850853631427 0.225880076669357 0.22628551125018367 0.22548181413508966 0.225090590357719 0.22470627521289283 0.22432874162294039 0.22395786546831195 0.22359352552872985 0.22980429519594775 0.22933627449611144 0.22887661781863805 0.2284251629219462 0.22798175158224329 0.2275462294726327 0.22669825441443028 0.22711844604496581 0.23279768892642899 0.23332916605948834 0.23227583532393714 0.23176341104291853 0.2312602268838117 0.2307660985083016 0.23028084630539875 0.23795252626967386 0.23733641030764663 0.23673167320643951 0.23613807415552351 0.23555537887651506 0.23498335938791876 0.23387046611142015 0.23442179379906705 0.24260565061475714 0.24332232677583779 0.24190254316715448 0.24121270267364275 0.24053583592685118 0.23987165800178797 0.23921989197619825 0.23858026864713897 0.24958349678910768 0.24874627488679846 0.24792538277993093 0.24712043831371636 0.24633107068802007 0.24555692001027218 0.24405288227370764 0.24479763691738851 0.25593595959978249 0.25691907856231705 0.25497268774652154 0.25402877419768893 0.25310374515629769 0.25219714138387306 0.25130851769323204 0.25043744237726029 0.26556259437680924 0.26440110858990984 0.26326399095340558 0.26215061122715999 0.26106035906262015 0.25999264334316674 0.2579225490265773 0.2589468915305424 0.21072715651416654 0.21085427700617643 0.21060261950024867 0.21048063099200914 0.21036115674422284 0.21024416321332573 0.21012961754630399 0.21196869034729349 0.21181955248066719 0.21167330530777484 0.2115299076330249 0.21138931909438052 0.21125150013490732 0.21098401668075034 0.2111164119884017 0.21309723616918427 0.21327108712100362 0.21292663719007099 0.21275924177741656 0.21259500247809388 0.21243387279561021 0.21227580717146941 0.21212076094536475 0.21478510897789871 0.21458337705043212 0.21438532158496065 0.21419088568925207 0.21400001361645571 0.21381265073409292 0.21344823943604668 0.21362874350004973 0.21630520447410506 0.21653854215956647 0.21607604276858677 0.21585099001605079 0.21562998057178545 0.21541295012143602 0.21519983564995426 0.21499057542749717 0.21829476777703039 0.21803019892669417 0.21777031660463506 0.21751504318306869 0.2172643026659451 0.21677612425752485 0.21701802064371892 0.22028485552068941 0.22058992118138515 0.21998516139065893 0.21969074649927881 0.21940152053676326 0.21911739517073525 0.21883828399500388 0.21856410245455549 0.22323560338711768 0.22288398334981246 0.22253855236952061 0.22219919997091475 0.22186581817877177 0.22153830144855868 0.22090045272552947 0.22121654659937506 0.20868485896573516 0.20860554323352593 0.20884954148482193 0.20876618406971864 0.20902244781647897 0.20893495471095364 0.20920377282103059 0.20911204544500034 0.20939372066534456 0.20929765575791687 0.20959250505907834 0.20949199455709699 0.2098003495079912 0.20969528041760754 0.21001748758394642 0.20990774184338423 0.2083079345499963 0.20837943117308516 0.20845285089943016 0.20852821448864625 0.20823834080622033 0.20817063024417287 0.20810478368750362 0.20804078247615337 0.20797860846158867 0.20791824400220899 0.20780287569088496 0.20785967195892241 0.20769454638396917 0.20774783905139921 0.20764298251850619 0.20759313276768293 0.2075449829234316 0.20749851925358292 0.20745372849864246 0.20741059786870103 0.20736911504047625 0.20732926815448224 0.2072544370741165 0.20729104581232433 0.20704253308801809 0.20706811488340654 0.20709524634940901 0.20712393527889483 0.2071541899110643 0.20718601892789107 0.20721943145601865 0.20689287694816097 0.20690628919451298 0.20692120455891372 0.20693762733725904 0.20695556224670819 0.2069750144500703 0.20699598955690091 0.20701849361234262 0.20687054678227457 0.20688096395601993 0.20686162242486925 0.20685418831488059 0.20684824230952698 0.2068437826949498 0.20684080818585726 0.20683931792525762 
</DataArray>
<DataArray type="Float64" Name="conductivity_richards" format="ascii">