<?xml version="1.0"?>
<VTKFile type="UnstructuredGrid" version="0.1" byte_order="LittleEndian">
<UnstructuredGrid>
<Piece NumberOfPoints="251" NumberOfCells="250">
<Points>
<DataArray type="Float64" NumberOfComponents="3" format="ascii">
0 0 0 0 0 -0.25 0 0 -0.00099999999999810158 0 0 -0.001999999999996204 0 0 -0.0029999999999943271 0 0 -0.0039999999999924488 0 0 -0.004999999999990571 0 0 -0.0059999999999886811 0 0 -0.0069999999999867156 0 0 -0.007999999999984719 0 0 -0.008999999999982581 0 0 -0.0099999999999804221 0 0 -0.010999999999978201 0 0 -0.011999999999975971 0 0 -0.01299999999997375 0 0 -0.01399999999997158 0 0 -0.014999999999969531 0 0 -0.01599999999996761 0 0 -0.0169999999999659 0 0 -0.01799999999996427 0 0 -0.018999999999962731 0 0 -0.019999999999961209 0 0 -0.020999999999959669 0 0 -0.02199999999995814 0 0 -0.022999999999956611 0 0 -0.023999999999955082 0 0 -0.024999999999953549 0 0 -0.02599999999995202 0 0 -0.02699999999995048 0 0 -0.027999999999948951 0 0 -0.028999999999947419 0 0 -0.02999999999994565 0 0 -0.03099999999994377 0 0 -0.031999999999941367 0 0 -0.032999999999938787 0 0 -0.033999999999935943 0 0 -0.034999999999933022 0 0 -0.035999999999930102 0 0 -0.036999999999927188 0 0 -0.037999999999924268 0 0 -0.038999999999921348 0 0 -0.039999999999918427 0 0 -0.040999999999915507 0 0 -0.041999999999912593 0 0 -0.042999999999909673 0 0 -0.043999999999906753 0 0 -0.044999999999903832 0 0 -0.045999999999900919 0 0 -0.046999999999897998 0 0 -0.047999999999895078 0 0 -0.048999999999892158 0 0 -0.049999999999889237 0 0 -0.050999999999886317 0 0 -0.051999999999883403 0 0 -0.052999999999880483 0 0 -0.053999999999877563 0 0 -0.054999999999874642 0 0 -0.055999999999871722 0 0 -0.056999999999868801 0 0 -0.057999999999865881 0 0 -0.058999999999862961 0 0 -0.059999999999860047 0 0 -0.060999999999857127 0 0 -0.061999999999854213 0 0 -0.062999999999851286 0 0 -0.063999999999848373 0 0 -0.064999999999845445 0 0 -0.065999999999842532 0 0 -0.066999999999839618 0 0 -0.067999999999836705 0 0 -0.068999999999833792 0 0 -0.069999999999830878 0 0 -0.070999999999827965 0 0 -0.071999999999825051 0 0 -0.072999999999822124 0 0 -0.07399999999981921 0 0 -0.074999999999816297 0 0 -0.075999999999813383 0 0 -0.07699999999981047 0 0 -0.077999999999807557 0 0 -0.078999999999804643 0 0 -0.07999999999980173 0 0 -0.080999999999798802 0 0 -0.081999999999795889 0 0 -0.082999999999792975 0 0 -0.083999999999790062 0 0 -0.084999999999787149 0 0 -0.085999999999784235 0 0 -0.086999999999781322 0 0 -0.087999999999778394 0 0 -0.088999999999775481 0 0 -0.089999999999772567 0 0 -0.090999999999769654 0 0 -0.091999999999766741 0 0 -0.092999999999763827 0 0 -0.093999999999760914 0 0 -0.094999999999758 0 0 -0.095999999999755073 0 0 -0.096999999999752159 0 0 -0.097999999999749246 0 0 -0.098999999999746333 0 0 -0.099999999999743419 0 0 -0.10099999999974051 0 0 -0.10199999999973761 0 0 -0.10299999999973471 0 0 -0.10399999999973179 0 0 -0.1049999999997288 0 0 -0.1059999999997259 0 0 -0.106999999999723 0 0 -0.1079999999997201 0 0 -0.1089999999997172 0 0 -0.1099999999997143 0 0 -0.1109999999997113 0 0 -0.1119999999997084 0 0 -0.1129999999997055 0 0 -0.1139999999997026 0 0 -0.1149999999996997 0 0 -0.1159999999996968 0 0 -0.11699999999969379 0 0 -0.11799999999969089 0 0 -0.11899999999968799 0 0 -0.11999999999968509 0 0 -0.1209999999996822 0 0 -0.1219999999996793 0 0 -0.1229999999996764 0 0 -0.1239999999996748 0 0 -0.12499999999967321 0 0 -0.12599999999967451 0 0 -0.12699999999967579 0 0 -0.1279999999996784 0 0 -0.12899999999968109 0 0 -0.1299999999996837 0 0 -0.13099999999968631 0 0 -0.13199999999968889 0 0 -0.13299999999969159 0 0 -0.1339999999996942 0 0 -0.13499999999969689 0 0 -0.1359999999996995 0 0 -0.13699999999970211 0 0 -0.1379999999997048 0 0 -0.13899999999970741 0 0 -0.13999999999971011 0 0 -0.14099999999971269 0 0 -0.1419999999997153 0 0 -0.14299999999971799 0 0 -0.1439999999997206 0 0 -0.14499999999972321 0 0 -0.14599999999972579 0 0 -0.14699999999972849 0 0 -0.1479999999997311 0 0 -0.14899999999973379 0 0 -0.1499999999997364 0 0 -0.15099999999973901 0 0 -0.1519999999997417 0 0 -0.15299999999974431 0 0 -0.15399999999974701 0 0 -0.15499999999974959 0 0 -0.1559999999997522 0 0 -0.15699999999975489 0 0 -0.1579999999997575 0 0 -0.15899999999976011 0 0 -0.1599999999997628 0 0 -0.16099999999976539 0 0 -0.161999999999768 0 0 -0.16299999999977069 0 0 -0.1639999999997733 0 0 -0.16499999999977599 0 0 -0.1659999999997786 0 0 -0.16699999999978121 0 0 -0.16799999999978391 0 0 -0.16899999999978649 0 0 -0.1699999999997891 0 0 -0.17099999999979171 0 0 -0.1719999999997944 0 0 -0.17299999999979701 0 0 -0.1739999999997997 0 0 -0.17499999999980231 0 0 -0.17599999999980501 0 0 -0.17699999999980759 0 0 -0.1779999999998102 0 0 -0.17899999999981281 0 0 -0.1799999999998155 0 0 -0.18099999999981811 0 0 -0.18199999999982069 0 0 -0.18299999999982339 0 0 -0.183999999999826 0 0 -0.18499999999982869 0 0 -0.1859999999998313 0 0 -0.18699999999983391 0 0 -0.1879999999998366 0 0 -0.18899999999983921 0 0 -0.18999999999984191 0 0 -0.19099999999984449 0 0 -0.1919999999998471 0 0 -0.19299999999984971 0 0 -0.1939999999998524 0 0 -0.19499999999985501 0 0 -0.1959999999998577 0 0 -0.19699999999986029 0 0 -0.19799999999986301 0 0 -0.19899999999986559 0 0 -0.1999999999998682 0 0 -0.20099999999987081 0 0 -0.2019999999998735 0 0 -0.20299999999987611 0 0 -0.20399999999987881 0 0 -0.20499999999988139 0 0 -0.205999999999884 0 0 -0.20699999999988669 0 0 -0.2079999999998893 0 0 -0.20899999999989191 0 0 -0.2099999999998946 0 0 -0.21099999999989719 0 0 -0.21199999999989991 0 0 -0.21299999999990249 0 0 -0.2139999999999051 0 0 -0.21499999999990771 0 0 -0.2159999999999104 0 0 -0.21699999999991301 0 0 -0.21799999999991571 0 0 -0.21899999999991829 0 0 -0.2199999999999209 0 0 -0.22099999999992359 0 0 -0.2219999999999262 0 0 -0.22299999999992881 0 0 -0.22399999999993139 0 0 -0.22499999999993411 0 0 -0.2259999999999367 0 0 -0.22699999999993939 0 0 -0.227999999999942 0 0 -0.22899999999994469 0 0 -0.2299999999999473 0 0 -0.23099999999994991 0 0 -0.23199999999995249 0 0 -0.23299999999995519 0 0 -0.2339999999999578 0 0 -0.23499999999996049 0 0 -0.2359999999999631 0 0 -0.23699999999996571 0 0 -0.2379999999999684 0 0 -0.23899999999997101 0 0 -0.2399999999999736 0 0 -0.24099999999997629 0 0 -0.2419999999999789 0 0 -0.24299999999998159 0 0 -0.2439999999999842 0 0 -0.24499999999998681 0 0 -0.24599999999998939 0 0 -0.24699999999999209 0 0 -0.2479999999999947 0 0 -0.24899999999999739 
</DataArray>
</Points>
<Cells>
<DataArray type="UInt32" Name="connectivity" format="ascii">
0 2 2 3 3 4 4 5 5 6 6 7 7 8 8 9 9 10 10 11 11 12 12 13 13 14 14 15 15 16 16 17 17 18 18 19 19 20 20 21 21 22 22 23 23 24 24 25 25 26 26 27 27 28 28 29 29 30 30 31 31 32 32 33 33 34 34 35 35 36 36 37 37 38 38 39 39 40 40 41 41 42 42 43 43 44 44 45 45 46 46 47 47 48 48 49 49 50 50 51 51 52 52 53 53 54 54 55 55 56 56 57 57 58 58 59 59 60 60 61 61 62 62 63 63 64 64 65 65 66 66 67 67 68 68 69 69 70 70 71 71 72 72 73 73 74 74 75 75 76 76 77 77 78 78 79 79 80 80 81 81 82 82 83 83 84 84 85 85 86 86 87 87 88 88 89 89 90 90 91 91 92 92 93 93 94 94 95 95 96 96 97 97 98 98 99 99 100 100 101 101 102 102 103 103 104 104 105 105 106 106 107 107 108 108 109 109 110 110 111 111 112 112 113 113 114 114 115 115 116 116 117 117 118 118 119 119 120 120 121 121 122 122 123 123 124 124 125 125 126 126 127 127 128 128 129 129 130 130 131 131 132 132 133 133 134 134 135 135 136 136 137 137 138 138 139 139 140 140 141 141 142 142 143 143 144 144 145 145 146 146 147 147 148 148 149 149 150 150 151 151 152 152 153 153 154 154 155 155 156 156 157 157 158 158 159 159 160 160 161 161 162 162 163 163 164 164 165 165 166 166 167 167 168 168 169 169 170 170 171 171 172 172 173 173 174 174 175 175 176 176 177 177 178 178 179 179 180 180 181 181 182 182 183 183 184 184 185 185 186 186 187 187 188 188 189 189 190 190 191 191 192 192 193 193 194 194 195 195 196 196 197 197 198 198 199 199 200 200 201 201 202 202 203 203 204 204 205 205 206 206 207 207 208 208 209 209 210 210 211 211 212 212 213 213 214 214 215 215 216 216 217 217 218 218 219 219 220 220 221 221 222 222 223 223 224 224 225 225 226 226 227 227 228 228 229 229 230 230 231 231 232 232 233 233 234 234 235 235 236 236 237 237 238 238 239 239 240 240 241 241 242 242 243 243 244 244 245 245 246 246 247 247 248 248 249 249 250 250 1 
</DataArray>
<DataArray type="UInt32" Name="offsets" format="ascii">
2 4 6 8 10 12 14 16 18 20 22 24 26 28 30 32 34 36 38 40 42 44 46 48 50 52 54 56 58 60 62 64 66 68 70 72 74 76 78 80 82 84 86 88 90 92 94 96 98 100 102 104 106 108 110 112 114 116 118 120 122 124 126 128 130 132 134 136 138 140 142 144 146 148 150 152 154 156 158 160 162 164 166 168 170 172 174 176 178 180 182 184 186 188 190 192 194 196 198 200 202 204 206 208 210 212 214 216 218 220 222 224 226 228 230 232 234 236 238 240 242 244 246 248 250 252 254 256 258 260 262 264 266 268 270 272 274 276 278 280 282 284 286 288 290 292 294 296 298 300 302 304 306 308 310 312 314 316 318 320 322 324 326 328 330 332 334 336 338 340 342 344 346 348 350 352 354 356 358 360 362 364 366 368 370 372 374 376 378 380 382 384 386 388 390 392 394 396 398 400 402 404 406 408 410 412 414 416 418 420 422 424 426 428 430 432 434 436 438 440 442 444 446 448 450 452 454 456 458 460 462 464 466 468 470 472 474 476 478 480 482 484 486 488 490 492 494 496 498 500 
</DataArray>
<DataArray type="UInt32" Name="types" format="ascii">
3 3 3 3 3 3 3 3 3 3 3 3 3 3 3 3 3 3 3 3 3 3 3 3 3 3 3 3 3 3 3 3 3 3 3 3 3 3 3 3 3 3 3 3 3 3 3 3 3 3 3 3 3 3 3 3 3 3 3 3 3 3 3 3 3 3 3 3 3 3 3 3 3 3 3 3 3 3 3 3 3 3 3 3 3 3 3 3 3 3 3 3 3 3 3 3 3 3 3 3 3 3 3 3 3 3 3 3 3 3 3 3 3 3 3 3 3 3 3 3 3 3 3 3 3 3 3 3 3 3 3 3 3 3 3 3 3 3 3 3 3 3 3 3 3 3 3 3 3 3 3 3 3 3 3 3 3 3 3 3 3 3 3 3 3 3 3 3 3 3 3 3 3 3 3 3 3 3 3 3 3 3 3 3 3 3 3 3 3 3 3 3 3 3 3 3 3 3 3 3 3 3 3 3 3 3 3 3 3 3 3 3 3 3 3 3 3 3 3 3 3 3 3 3 3 3 3 3 3 3 3 3 3 3 3 3 3 3 3 3 3 3 3 3 3 3 3 3 3 3 
</DataArray>
</Cells>
<CellData Scalars="pressure_p0,water_content,conductivity_richards," Vectors="velocity_p0," Tensors="">
<DataArray type="Float64" Name="pressure_p0" format="ascii">
-6073.5144574365095 -6073.2738634360567 -6072.7936451020614 -6072.0737417973342 -6071.1140626194865 -6069.9144864697346 -6068.4748621446333 -6066.7950084507684 -6064.8747143423952 -6062.713739082038 -6060.3118124240546 -6057.6686348211897 -6054.7838776541039 -6051.6571834839187 -6048.2881663277658 -6044.6764119573745 -6040.8214782206978 -6036.7228953865906 -6032.3801665125802 -6027.7927678357091 -6022.9601491864923 -6017.8817344259969 -6012.5569219060653 -6006.9850849526838 -6001.1655723725326 -5995.0977089827147 -5988.7807961636909 -5982.2141124354266 -5975.3969140567606 -5968.328435648029 -5961.0078908369178 -5953.4344729275854 -5945.6073555930452 -5937.5256935908037 -5929.1886235017882 -5920.5952644925201 -5911.7447191005749 -5902.636074043282 -5893.2684010496723 -5883.6407577156679 -5873.7521883824847 -5863.6017250382174 -5853.1883882426064 -5842.5111880749319 -5831.5691251049993 -5820.3611913871964 -5808.8863714775489 -5797.1436434737379 -5785.131980078002 -5772.8503496828835 -5760.2977174797179 -5747.4730465897956 -5734.3752992181198 -5721.0034378296441 -5707.356426347882 -5693.4332313758041 -5679.2328234388606 -5664.7541782500202 -5649.9962779966881 -5634.9581126493085 -5619.6386812915443 -5604.0369934718092 -5588.1520705759958 -5571.9829472211859 -5555.5286726701343 -5538.7883122663043 -5521.7609488892158 -5504.4456844298456 -5486.8416412858278 -5468.9479638761677 -5450.7638201751624 -5432.28840326524 -5413.5209329083827 -5394.4606571357699 -5375.1068538553009 -5355.4588324766228 -5335.515935553256 -5315.2775404414042 -5294.7430609750227 -5273.9119491566835 -5252.7836968637857 -5231.3578375695815 -5209.6339480785518 -5187.6116502755513 -5165.2906128882059 -5142.6705532619508 -5119.75123914713 -5096.5324904975205 -5073.0141812796464 -5049.1962412921894 -5025.0786579948135 -5000.6614783456698 -4975.9448106468426 -4950.9288263969502 -4925.6137621500893 -4899.9999213803258 -4874.087676350824 -4847.8774699867663 -4821.3698177511205 -4794.5653095223151 -4767.4646114728475 -4740.0684679478018 -4712.377703342253 -4684.3932239764727 -4656.1160199678197 -4627.5471670981915 -4598.687828675862 -4569.5392573904783 -4540.1027971599842 -4510.3798849681953 -4480.3720526916868 -4450.0809289146564 -4419.5082407303671 -4388.6558155277417 -4357.5255827616174 -4326.1195757051755 -4294.4399331829827 -4262.4889012830527 -4230.2688350462959 -4197.7822001316845 -4165.0315744554046 -4132.0196498022369 -4098.749233407364 -4065.2232495067192 -4031.4447408540782 -3997.4168702027782 -3963.142921750275 -3928.6263025433395 -3893.8705438418056 -3858.8793024388988 -3823.656361935743 -3788.2056339679693 -3752.5311593820729 -3716.6371093591792 -3680.5277864838272 -3644.2076257553244 -3607.6811955391768 -3570.9531984560344 -3534.0284722055453 -3496.9119903224473 -3459.6088628621765 -3422.1243370132074 -3384.4637976332888 -3346.6327677066929 -3308.6369087194944 -3270.4820209498748 -3232.1740436703794 -3193.7190552589987 -3155.1232732158451 -3116.3930540821907 -3077.5348932585325 -3038.5554247182881 -2999.4614206137003 -2960.2597907704003 -2920.9575820670752 -2881.5619776965787 -2842.080296304789 -2802.5199910034444 -2762.8886482530897 -2723.1939866122484 -2683.4438553488635 -2643.6462329099277 -2603.8092252452252 -2563.9410639810385 -2524.0501044395251 -2484.1448234995246 -2444.2338172943946 -2404.3257987424522 -2364.4295949055522 -2324.5541441712053 -2284.7084932536463 -2244.901794009169 -2205.1433000609854 -2165.4423632288017 -2125.8084297582714 -2086.2510363454076 -2046.7798059509878 -2007.4044433999452 -1968.1347307606707 -1928.9805224991251 -1889.9517404026074 -1851.0583682679774 -1812.3104463491006 -1773.7180655582774 -1735.291361416329 -1697.0405077460478 -1658.9757101036662 -1621.1071989429902 -1583.4452225068571 -1546.0000394405251 -1508.7819111216572 -1471.8010937015374 -1435.0678298521825 -1398.5923402140481 -1362.3848145390384 -1326.4554025235648 -1290.8142043264688 -1255.4712607666502 -1220.4365431953083 -1185.7199430377743 -1151.3312609999609 -1117.2801959345684 -1083.5763333622185 -1050.2291336427818 -1017.2479197922506 -984.64186494054525 -952.41997942571072 -920.5910975200087 -889.1638637833654 -858.146719039647 -827.54788597113895 -797.37535432640379 -767.63686573649159 -738.33989813405083 -709.4916497693614 -681.09902281657151 -653.16860656237327 -625.70666016799646 -598.71909499359435 -572.21145647170442 -546.18890551334903 -520.6561994263086 -495.61767231978314 -471.07721496285546 -447.03825405527402 -423.50373085752665 -400.47607911214538 -377.95720216858325 -355.94844919827653 -334.45059035262909 -313.46379067178543 -292.98758249214995 -273.02083602002472 -253.5617276292005 -234.60770528980203 -216.15545032606357 -198.20083440425543 -180.73887022523132 -163.76365376886054 -147.26829499291375 -131.24483242452786 -115.68412473246104 -100.57570843697094 -85.90760399069643 -71.666039456634024 -57.835034426898979 -44.395725883914771 -31.325152148878601 -18.593609135349979 -6.1541726541259925 
</DataArray>
<DataArray type="Float64" Name="velocity_p0" NumberOfComponents="3" format="ascii">
0 0 1.8089124045284586e-09 0 0 5.4271185658788776e-09 0 0 9.0464683941146819e-09 0 0 1.2667723762541598e-08 0 0 1.6291646413884099e-08 0 0 1.9918997908125275e-08 0 0 2.3550539570051875e-08 0 0 2.7187032437013729e-08 0 0 3.0829237206968421e-08 0 0 3.4477914186403257e-08 0 0 3.8133823238650404e-08 0 0 4.1797723732068252e-08 0 0 4.5470374488761691e-08 0 0 4.9152533733168257e-08 0 0 5.2844959041160485e-08 0 0 5.6548407288996265e-08 0 0 6.0263634603125349e-08 0 0 6.3991396309749825e-08 0 0 6.7732446884699143e-08 0 0 7.1487539904045894e-08 0 0 7.5257427994657354e-08 0 0 7.9042862785208069e-08 0 0 8.2844594857458025e-08 0 0 8.6663373698325371e-08 0 0 9.0499947651582797e-08 0 0 9.435506387097308e-08 0 0 9.8229468272627377e-08 0 0 1.021239054890414e-07 0 0 1.0603911882267639e-07 0 0 1.0997585020017952e-07 0 0 1.1393484012763518e-07 0 0 1.1791682764559993e-07 0 0 1.2192255028503062e-07 0 0 1.2595274402380908e-07 0 0 1.3000814324338925e-07 0 0 1.3408948068651271e-07 0 0 1.3819748741500832e-07 0 0 1.4233289276852314e-07 0 0 1.4649642432375822e-07 0 0 1.5068880785375505e-07 0 0 1.5491076728894616e-07 0 0 1.5916302467738963e-07 0 0 1.6344630014661931e-07 0 0 1.6776131186599352e-07 0 0 1.7210877600909838e-07 0 0 1.7648940671733021e-07 0 0 1.8090391606369497e-07 0 0 1.8535301401794636e-07 0 0 1.8983740841117328e-07 0 0 1.943578049022491e-07 0 0 1.9891490694407387e-07 0 0 2.0350941575087567e-07 0 0 2.0814203026569726e-07 0 0 2.1281344712932697e-07 0 0 2.1752436064878451e-07 0 0 2.2227546276732016e-07 0 0 2.2706744303451593e-07 0 0 2.3190098857706781e-07 0 0 2.367767840702272e-07 0 0 2.4169551171008855e-07 0 0 2.4665785118573193e-07 0 0 2.5166447965269083e-07 0 0 2.567160717063786e-07 0 0 2.6181329935657497e-07 0 0 2.6695683200167363e-07 0 0 2.7214733640434916e-07 0 0 2.7738547666676795e-07 0 0 2.8267191420701955e-07 0 0 2.8800730773534876e-07 0 0 2.9339231323116565e-07 0 0 2.9882758392050893e-07 0 0 3.0431377025308383e-07 0 0 3.0985151988039772e-07 0 0 3.1544147763411267e-07 0 0 3.2108428550408799e-07 0 0 3.2678058261698246e-07 0 0 3.3253100521493378e-07 0 0 3.3833618663439235e-07 0 0 3.4419675728473924e-07 0 0 3.501133446272305e-07 0 0 3.5608657315365195e-07 0 0 3.621170643650296e-07 0 0 3.6820543674982157e-07 0 0 3.7435230576234359e-07 0 0 3.8055828380048053e-07 0 0 3.8682398018324309e-07 0 0 3.9315000112785481e-07 0 0 3.995369497260013e-07 0 0 4.0598542591984472e-07 0 0 4.1249602647713181e-07 0 0 4.1906934496545706e-07 0 0 4.2570597172576463e-07 0 0 4.324064938445787e-07 0 0 4.391714951254801e-07 0 0 4.4600155605901361e-07 0 0 4.5289725379130392e-07 0 0 4.5985916209120376e-07 0 0 4.668878513161549e-07 0 0 4.7398388837547063e-07 0 0 4.8114783669247371e-07 0 0 4.8838025616430767e-07 0 0 4.9568170311932427e-07 0 0 5.0305273027221241e-07 0 0 5.1049388667644419e-07 0 0 5.1800571767416998e-07 0 0 5.255887648426505e-07 0 0 5.3324356593785414e-07 0 0 5.409706548345022e-07 0 0 5.4877056146231014e-07 0 0 5.566438117382971e-07 0 0 5.6459092749528142e-07 0 0 5.7261242640530569e-07 0 0 5.8070882189854687e-07 0 0 5.8888062307727767e-07 0 0 5.9712833462415014e-07 0 0 6.0545245670497756e-07 0 0 6.1385348486505378e-07 0 0 6.2233190991928738e-07 0 0 6.3088821783536327e-07 0 0 6.3952288960918556e-07 0 0 6.4823640113309715e-07 0 0 6.5702922305549468e-07 0 0 6.6590182063162578e-07 0 0 6.7485465356528398e-07 0 0 6.8388817584036925e-07 0 0 6.9300283554248626e-07 0 0 7.0219907466875014e-07 0 0 7.1147732892663076e-07 0 0 7.2083802751965009e-07 0 0 7.3028159292031501e-07 0 0 7.3980844062910345e-07 0 0 7.4941897891856593e-07 0 0 7.5911360856170914e-07 0 0 7.6889272254384536e-07 0 0 7.7875670575699391e-07 0 0 7.8870593467568845e-07 0 0 7.9874077701286747e-07 0 0 8.0886159135517723e-07 0 0 8.1906872677630567e-07 0 0 8.2936252242632889e-07 0 0 8.3974330709726697e-07 0 0 8.5021139876144681e-07 0 0 8.6076710408292312e-07 0 0 8.7141071789878121e-07 0 0 8.8214252266985872e-07 0 0 8.9296278789816321e-07 0 0 9.0387176950944153e-07 0 0 9.1486970919842746e-07 0 0 9.2595683373532086e-07 0 0 9.3713335422999726e-07 0 0 9.4839946535283037e-07 0 0 9.5975534450803248e-07 0 0 9.7120115095779929e-07 0 0 9.827370248936623e-07 0 0 9.9436308645224115e-07 0 0 1.0060794346716138e-06 0 0 1.0178861463848587e-06 0 0 1.0297832750471656e-06 0 0 1.0417708494918701e-06 0 0 1.0538488726117031e-06 0 0 1.0660173199599504e-06 0 0 1.0782761382674553e-06 0 0 1.0906252438689539e-06 0 0 1.1030645210345865e-06 0 0 1.1155938201992408e-06 0 0 1.1282129560844486e-06 0 0 1.1409217057054463e-06 0 0 1.1537198062561238e-06 0 0 1.166606952864452e-06 0 0 1.1795827962101613e-06 0 0 1.1926469399954348e-06 0 0 1.2057989382597657e-06 0 0 1.2190382925286634e-06 0 0 1.2323644487856434e-06 0 0 1.2457767942560101e-06 0 0 1.2592746539907857e-06 0 0 1.2728572872366973e-06 0 0 1.2865238835796117e-06 0 0 1.3002735588460378e-06 0 0 1.3141053507469835e-06 0 0 1.328018214247253e-06 0 0 1.342011016642593e-06 0 0 1.3560825323252405e-06 0 0 1.3702314372177652e-06 0 0 1.3844563028528552e-06 0 0 1.3987555900768298e-06 0 0 1.4131276423512167e-06 0 0 1.4275706786267881e-06 0 0 1.442082785761741e-06 0 0 1.456661910454289e-06 0 0 1.4713058506582882e-06 0 0 1.4860122464481325e-06 0 0 1.5007785702972989e-06 0 0 1.5156021167331218e-06 0 0 1.5304799913274589e-06 0 0 1.5454090989818436e-06 0 0 1.5603861314619458e-06 0 0 1.5754075541354171e-06 0 0 1.590469591863643e-06 0 0 1.6055682139964311e-06 0 0 1.6206991184164001e-06 0 0 1.6358577145773533e-06 0 0 1.6510391054799388e-06 0 0 1.6662380685254379e-06 0 0 1.6814490351879664e-06 0 0 1.6966660694454727e-06 0 0 1.711882844907587e-06 0 0 1.7270926205827441e-06 0 0 1.7422882152261311e-06 0 0 1.7574619802152544e-06 0 0 1.7726057709041566e-06 0 0 1.7877109164153388e-06 0 0 1.8027681878378141e-06 0 0 1.8177677648135706e-06 0 0 1.8326992005112965e-06 0 0 1.8475513850089697e-06 0 0 1.8623125071342961e-06 0 0 1.8769700148475488e-06 0 0 1.8915105742955383e-06 0 0 1.9059200277190994e-06 0 0 1.9201833504645838e-06 0 0 1.9342846074327297e-06 0 0 1.9482069093991327e-06 0 0 1.9619323697658082e-06 0 0 1.9754420624544036e-06 0 0 1.9887159818375059e-06 0 0 2.0017330058296188e-06 0 0 2.0144708635351603e-06 0 0 2.0269061091858535e-06 0 0 2.0390141045101711e-06 0 0 2.0507690121791794e-06 0 0 2.0621438035903776e-06 0 0 2.0731102850127818e-06 0 0 2.0836391470661377e-06 0 0 2.0937000436989616e-06 0 0 2.1032617083487225e-06 0 0 2.1122921169320952e-06 0 0 2.1207587099112068e-06 0 0 2.128628689207831e-06 0 0 2.1358694106838207e-06 0 0 2.1424489001232394e-06 0 0 2.1483365316937271e-06 0 0 2.1535039257266996e-06 0 0 2.1579261535284613e-06 0 0 2.1615833947107918e-06 0 0 2.1644633119323781e-06 0 0 2.1665646892376188e-06 0 0 2.1679036809368005e-06 0 0 2.168527158850561e-06 0 0 2.1685711739884978e-06 
</DataArray>
<DataArray type="Float64" Name="water_content" format="ascii">
0.20719696458681489 0.20719853148820583 0.20720165920213235 0.20720634857495446 0.20721260087599583 0.2072204177978173 0.2072298014565811 0.20724075439250739 0.20725327957042233 0.20726738038039932 0.20728306063849328 0.20730032458756892 0.20731917689822421 0.20733962266980932 0.20736166743154244 0.20738531714372371 0.20741057819904807 0.20743745742401842 0.20746596208046103 0.20749609986714385 0.2075278789214999 0.20756130782145737 0.20759639558737794 0.20763315168410562 0.20767158602312782 0.20771170896485094 0.20775353132099261 0.207797064357093 0.20784231979514764 0.20788930981636422 0.20793804706404617 0.20798854464660582 0.20804081614070979 0.20809487559456047 0.20815073753131547 0.20820841695264941 0.20826792934246133 0.20832929067073075 0.20839251739752662 0.20845762647717278 0.20852463536257396 0.20859356200970658 0.20866442488227849 0.2087372429565621 0.20881203572640566 0.20888882320842744 0.20896762594739748 0.20904846502181271 0.2091313620496697 0.20921633919444171 0.20930341917126474 0.20939262525333918 0.20948398127855244 0.20957751165632951 0.20967324137471777 0.20977119600771232 0.20987140172282948 0.20997388528893507 0.21007867408433528 0.21018579610513788 0.21029527997389097 0.2104071549485089 0.2105214509314921 0.21063819847945142 0.21075742881294451 0.21087917382663454 0.2110034660997811 0.21113033890707245 0.21125982622981049 0.21139196276745864 0.21152678394956409 0.21166432594806545 0.21180462568999855 0.21194772087061159 0.21209364996690375 0.21224245225159921 0.21239416780757114 0.21254883754272938 0.21270650320538653 0.21286720740011783 0.21303099360413041 0.21319790618415813 0.21336799041389881 0.21354129249201204 0.21371785956069439 0.2138977397248521 0.21408098207188977 0.21426763669213605 0.21445775469992612 0.21465138825536398 0.21484859058678588 0.215049416013949 0.21525391997196916 0.21546215903603283 0.21567419094690937 0.21589007463729099 0.21610987025898742 0.21633363921100601 0.21656144416854595 0.21679334911293913 0.21702941936256964 0.21726972160480612 0.21751432392898212 0.21776329586046078 0.21801670839582238 0.21827463403921368 0.21853714683990053 0.21880432243106621 0.21907623806990015 0.21935297267902287 0.21963460688929526 0.21992122308406248 0.22021290544488376 0.22050973999880252 0.22081181466721339 0.22111921931638379 0.22143204580969172 0.22175038806164288 0.222074342093733 0.22240400609222405 0.22273948046790631 0.2230808679179202 0.22342827348971567 0.2237818046472301 0.22414157133936818 0.22450768607087257 0.22488026397567495 0.22525942289282408 0.22564528344508969 0.22603796912034435 0.22643760635583227 0.22684432462543547 0.22725825653005574 0.22767953789123233 0.22810830784812347 0.22854470895798296 0.22898888730026967 0.22944099258453293 0.22990117826222323 0.2303696016425841 0.23084642401278616 0.23133181076247311 0.2318259315128943 0.23232896025080713 0.23284107546733968 0.23336246030201122 0.23389330269211706 0.23443379552769156 0.23498413681227251 0.2355445298296982 0.23611518331717818 0.236696311644887 0.237288135002341 0.23789087959182659 0.23850477782915941 0.23913006855206359 0.23976699723646933 0.2404158162210393 0.24107678494024309 0.2417501701663097 0.24243624626039792 0.24313529543333529 0.24384760801628513 0.24457348274171029 0.2453132270350124 0.24606715731723183 0.24683559931920185 0.24761888840755622 0.24841736992299424 0.24923139953121087 0.25006134358689991 0.25090757951123865 0.25177049618325587 0.25265049434548204 0.25354798702426462 0.2544633999651208 0.25539717208347412 0.25634975593109938 0.25732161817856158 0.25831324011389412 0.25932511815770887 0.26035776439486491 0.26141170712274875 0.26248749141612182 0.26358567970838542 0.26470685238897884 0.26585160841647487 0.2670205659467535 0.26821436297542128 0.26943365799339558 0.27067913065428006 0.27195148245181783 0.27325143740531221 0.27457974275044417 0.27593716963237969 0.27732451379743972 0.27874259627888015 0.28019226407149711 0.28167439078879941 0.28318987729536688 0.2847396523057123 0.28632467293945363 0.28794592522085627 0.28960442450877955 0.29130121584071222 0.29303737417186082 0.29481400448709477 0.29663224175988606 0.29849325072812805 0.30039822545176487 0.30234838861140878 0.30434499050042363 0.30638930765513439 0.30848264105870793 0.31062631384358796 0.31282166840488629 0.31507006282249417 0.31737286647246882 0.31973145468797071 0.32214720230607319 0.32462147590836876 0.32715562452951974 0.32975096856756364 0.33240878658136763 0.33513029960221108 0.33791665251554348 0.34076889198220733 0.34368794026140931 0.34667456416447873 0.34972933820069541 0.35285260076260322 0.35604440192168352 0.3593044410418903 0.36263199193244428 0.3660258125978102 0.36948403571685295 0.37300403465870857 0.37658225789596766 0.38021402172569096 0.38389324658454638 0.38761211471241397 0.39136061409790301 0.39512591065781033 0.39889144676882593 0.40263557397926253 0.40632932240455 0.40993237545770955 0.41338462941834631 0.41658325444773436 0.41905128265233171 
</DataArray>
<DataArray type="Float64" Name="conductivity_richards" format="ascii">